 vasp.6.2.0 18Jan21 (build Mar 17 2021 09:06:54) complex                        
  
 executed on             LinuxIFC date 2021.06.11  11:56:40
 serial version


--------------------------------------------------------------------------------------------------------


 INCAR:
   ENCUT = 240.000000
   SIGMA = 0.200000
   EDIFF = 1.00e-06
   GGA = PE
   PREC = normal
   IBRION = -1
   ICHARG = 1
   ISMEAR = 1
   KPAR = 1
   NBANDS = 30
   NSW = 0
   NCORE = 1
   LCHARG = .TRUE.

 POTCAR:    PAW_PBE Pd 04Jan2005                  
 POTCAR:    PAW_PBE Ir 06Sep2000                  
 POTCAR:    PAW_PBE Pt 04Feb2005                  
 POTCAR:    PAW_PBE Cu 22Jun2005                  
 POTCAR:    PAW_PBE Pd 04Jan2005                  
   SHA256 =  dd6f6f02930356371984e2b707ff5e456046761dc76b07c1eba30abd15eb3c39 Pd/POTCAR             
   COPYR  = (c) Copyright 04Jan2005 Georg Kresse                                                    
   COPYR  = This file is part of the software VASP. Any use, copying, and all other rights are regul
   COPYR  = If you do not have a valid VASP license, you may not use, copy or distribute this file. 
   VRHFIN =Pd : s1 d9                                                                               
   LEXCH  = PE                                                                                      
   EATOM  =   809.7530 eV,   59.5152 Ry                                                             
                                                                                                    
   TITEL  = PAW_PBE Pd 04Jan2005                                                                    
   LULTRA =        F    use ultrasoft PP ?                                                          
   IUNSCR =        1    unscreen: 0-lin 1-nonlin 2-no                                               
   RPACOR =    2.000    partial core radius                                                         
   POMASS =  106.420; ZVAL   =   10.000    mass and valenz                                          
   RCORE  =    2.600    outmost cutoff radius                                                       
   RWIGS  =    2.710; RWIGS  =    1.434    wigner-seitz radius (au A)                               
   ENMAX  =  250.925; ENMIN  =  188.194 eV                                                          
   ICORE  =        3    local potential                                                             
   LCOR   =        T    correct aug charges                                                         
   LPAW   =        T    paw PP                                                                      
   EAUG   =  416.230                                                                                
   DEXC   =    0.000                                                                                
   RMAX   =    2.653    core radius for proj-oper                                                   
   RAUG   =    1.300    factor for augmentation sphere                                              
   RDEP   =    2.734    radius for radial grids                                                     
   RDEPT  =    2.103    core radius for aug-charge                                                  
                                                                                                    
   Atomic configuration                                                                             
   12 entries                                                                                       
     n  l   j            E        occ.                                                              
     1  0  0.50    -24164.6631   2.0000                                                             
     2  0  0.50     -3530.9218   2.0000                                                             
     2  1  1.50     -3165.6822   6.0000                                                             
     3  0  0.50      -639.4577   2.0000                                                             
     3  1  1.50      -519.4532   6.0000                                                             
     3  2  2.50      -328.9757  10.0000                                                             
     4  0  0.50       -88.7014   2.0000                                                             
     4  1  1.50       -54.4540   6.0000                                                             
     4  2  2.50        -6.6878   9.0000                                                             
     5  0  0.50        -4.3543   1.0000                                                             
     5  1  0.50        -1.3606   0.0000                                                             
     4  3  2.50        -1.3606   0.0000                                                             
   Description                                                                                      
     l       E           TYP  RCUT    TYP  RCUT                                                     
     2     -6.6878251     23  2.400                                                                 
     2     -8.0484077     23  2.400                                                                 
     0     -4.3542939     23  2.400                                                                 
     0      4.3406793     23  2.400                                                                 
     1     -4.0817478     23  2.600                                                                 
     1     15.8380318     23  2.600                                                                 
     3     -4.0817478     23  2.400                                                                 
  local pseudopotential read in
  partial core-charges read in
  partial kinetic energy density read in
  atomic valenz-charges read in
  non local Contribution for L=           2  read in
    real space projection operators read in
  non local Contribution for L=           2  read in
    real space projection operators read in
  non local Contribution for L=           0  read in
    real space projection operators read in
  non local Contribution for L=           0  read in
    real space projection operators read in
  non local Contribution for L=           1  read in
    real space projection operators read in
  non local Contribution for L=           1  read in
    real space projection operators read in
    PAW grid and wavefunctions read in
 
   number of l-projection  operators is LMAX  =           6
   number of lm-projection operators is LMMAX =          18
 
 POTCAR:    PAW_PBE Ir 06Sep2000                  
   SHA256 =  7c6af8d4d487b237782eb51e6f62977b27a1da78c3c96acd1cebefd6c308f120 Ir/POTCAR             
   COPYR  = (c) Copyright 06Sep2000 Georg Kresse                                                    
   COPYR  = This file is part of the software VASP. Any use, copying, and all other rights are regul
   COPYR  = If you do not have a valid VASP license, you may not use, copy or distribute this file. 
   VRHFIN =Ir: s1d8                                                                                 
   LEXCH  = PE                                                                                      
   EATOM  =   560.1833 eV,   41.1723 Ry                                                             
                                                                                                    
   TITEL  = PAW_PBE Ir 06Sep2000                                                                    
   LULTRA =        F    use ultrasoft PP ?                                                          
   IUNSCR =        1    unscreen: 0-lin 1-nonlin 2-no                                               
   RPACOR =    2.250    partial core radius                                                         
   POMASS =  192.220; ZVAL   =    9.000    mass and valenz                                          
   RCORE  =    2.600    outmost cutoff radius                                                       
   RWIGS  =    2.690; RWIGS  =    1.423    wigner-seitz radius (au A)                               
   ENMAX  =  210.864; ENMIN  =  158.148 eV                                                          
   RCLOC  =    1.857    cutoff for local pot                                                        
   LCOR   =        T    correct aug charges                                                         
   LPAW   =        T    paw PP                                                                      
   EAUG   =  318.962                                                                                
   DEXC   =    0.000                                                                                
   RMAX   =    2.667    core radius for proj-oper                                                   
   RAUG   =    1.300    factor for augmentation sphere                                              
   RDEP   =    2.748    radius for radial grids                                                     
   RDEPT  =    2.300    core radius for aug-charge                                                  
                                                                                                    
   Atomic configuration                                                                             
   16 entries                                                                                       
     n  l   j            E        occ.                                                              
     1  0  0.50    -76100.0449   2.0000                                                             
     2  0  0.50    -13308.1683   2.0000                                                             
     2  1  1.50    -11558.0021   6.0000                                                             
     3  0  0.50     -3110.7274   2.0000                                                             
     3  1  1.50     -2599.2109   6.0000                                                             
     3  2  2.50     -2037.1515  10.0000                                                             
     4  0  0.50      -661.6001   2.0000                                                             
     4  1  1.50      -493.8981   6.0000                                                             
     4  2  2.50      -288.1909  10.0000                                                             
     4  3  3.50       -59.5718  14.0000                                                             
     5  0  0.50       -95.3879   2.0000                                                             
     5  1  1.50       -52.2747   6.0000                                                             
     5  2  2.50        -5.4180   8.0000                                                             
     6  0  0.50        -5.5479   1.0000                                                             
     6  1  1.50        -6.8029   0.0000                                                             
     5  3  2.50        -1.3606   0.0000                                                             
   Description                                                                                      
     l       E           TYP  RCUT    TYP  RCUT                                                     
     2     -5.4179967     23  2.600                                                                 
     2     -6.7785793     23  2.600                                                                 
     0     -5.5478636     23  2.600                                                                 
     0      2.2542272     23  2.600                                                                 
     1     -2.7211652     23  2.600                                                                 
     1     20.4087390     23  2.600                                                                 
  local pseudopotential read in
  partial core-charges read in
  partial kinetic energy density read in
  atomic valenz-charges read in
  non local Contribution for L=           2  read in
    real space projection operators read in
  non local Contribution for L=           2  read in
    real space projection operators read in
  non local Contribution for L=           0  read in
    real space projection operators read in
  non local Contribution for L=           0  read in
    real space projection operators read in
  non local Contribution for L=           1  read in
    real space projection operators read in
  non local Contribution for L=           1  read in
    real space projection operators read in
    PAW grid and wavefunctions read in
 
   number of l-projection  operators is LMAX  =           6
   number of lm-projection operators is LMMAX =          18
 
 POTCAR:    PAW_PBE Pt 04Feb2005                  
   SHA256 =  3ed90460adef76debcff1cfb73ee1349b515b1a3db03439735b44de3a8db7dc8 Pt/POTCAR             
   COPYR  = (c) Copyright 04Feb2005 Georg Kresse                                                    
   COPYR  = This file is part of the software VASP. Any use, copying, and all other rights are regul
   COPYR  = If you do not have a valid VASP license, you may not use, copy or distribute this file. 
   VRHFIN =Pt: s1d9                                                                                 
   LEXCH  = PE                                                                                      
   EATOM  =   729.1176 eV,   53.5886 Ry                                                             
                                                                                                    
   TITEL  = PAW_PBE Pt 04Feb2005                                                                    
   LULTRA =        F    use ultrasoft PP ?                                                          
   IUNSCR =        1    unscreen: 0-lin 1-nonlin 2-no                                               
   RPACOR =    2.330    partial core radius                                                         
   POMASS =  195.080; ZVAL   =   10.000    mass and valenz                                          
   RCORE  =    2.600    outmost cutoff radius                                                       
   RWIGS  =    2.750; RWIGS  =    1.455    wigner-seitz radius (au A)                               
   ENMAX  =  230.283; ENMIN  =  172.712 eV                                                          
   ICORE  =        3    local potential                                                             
   LCOR   =        T    correct aug charges                                                         
   LPAW   =        T    paw PP                                                                      
   EAUG   =  358.966                                                                                
   DEXC   =    0.000                                                                                
   RMAX   =    2.658    core radius for proj-oper                                                   
   RAUG   =    1.300    factor for augmentation sphere                                              
   RDEP   =    2.761    radius for radial grids                                                     
   RDEPT  =    2.203    core radius for aug-charge                                                  
                                                                                                    
   Atomic configuration                                                                             
   16 entries                                                                                       
     n  l   j            E        occ.                                                              
     1  0  0.50    -78401.1885   2.0000                                                             
     2  0  0.50    -13770.7750   2.0000                                                             
     2  1  1.50    -11931.0468   6.0000                                                             
     3  0  0.50     -3234.7234   2.0000                                                             
     3  1  1.50     -2699.2216   6.0000                                                             
     3  2  2.50     -2119.5714  10.0000                                                             
     4  0  0.50      -695.1528   2.0000                                                             
     4  1  1.50      -519.6034   6.0000                                                             
     4  2  2.50      -306.6786  10.0000                                                             
     4  3  3.50       -70.1041  14.0000                                                             
     5  0  0.50      -101.7747   2.0000                                                             
     5  1  1.50       -55.9873   6.0000                                                             
     5  2  2.50        -6.1423   9.0000                                                             
     6  0  0.50        -5.6573   1.0000                                                             
     6  1  1.50        -6.8029   0.0000                                                             
     5  3  2.50        -1.3606   0.0000                                                             
   Description                                                                                      
     l       E           TYP  RCUT    TYP  RCUT                                                     
     2     -6.1423404     23  2.500                                                                 
     2     -7.5029230     23  2.500                                                                 
     0     -5.6573207     23  2.500                                                                 
     0      0.7416693     23  2.500                                                                 
     1     -2.7211652     23  2.600                                                                 
     1     20.4087390     23  2.600                                                                 
     3     -1.3605826     23  2.500                                                                 
  local pseudopotential read in
  partial core-charges read in
  partial kinetic energy density read in
  atomic valenz-charges read in
  non local Contribution for L=           2  read in
    real space projection operators read in
  non local Contribution for L=           2  read in
    real space projection operators read in
  non local Contribution for L=           0  read in
    real space projection operators read in
  non local Contribution for L=           0  read in
    real space projection operators read in
  non local Contribution for L=           1  read in
    real space projection operators read in
  non local Contribution for L=           1  read in
    real space projection operators read in
    PAW grid and wavefunctions read in
 
   number of l-projection  operators is LMAX  =           6
   number of lm-projection operators is LMMAX =          18
 
 POTCAR:    PAW_PBE Cu 22Jun2005                  
   SHA256 =  0e71e558f37a4e8407882b4609ceaae59938afaad9ced71dfe8490308a0ab630 Cu/POTCAR             
   COPYR  = (c) Copyright 22Jun2005 Georg Kresse                                                    
   COPYR  = This file is part of the software VASP. Any use, copying, and all other rights are regul
   COPYR  = If you do not have a valid VASP license, you may not use, copy or distribute this file. 
   VRHFIN =Cu: d10 p1                                                                               
   LEXCH  = PE                                                                                      
   EATOM  =  1390.9808 eV,  102.2342 Ry                                                             
                                                                                                    
   TITEL  = PAW_PBE Cu 22Jun2005                                                                    
   LULTRA =        F    use ultrasoft PP ?                                                          
   IUNSCR =        1    unscreen: 0-lin 1-nonlin 2-no                                               
   RPACOR =    2.000    partial core radius                                                         
   POMASS =   63.546; ZVAL   =   11.000    mass and valenz                                          
   RCORE  =    2.300    outmost cutoff radius                                                       
   RWIGS  =    2.200; RWIGS  =    1.164    wigner-seitz radius (au A)                               
   ENMAX  =  295.446; ENMIN  =  221.585 eV                                                          
   ICORE  =        3    local potential                                                             
   LCOR   =        T    correct aug charges                                                         
   LPAW   =        T    paw PP                                                                      
   EAUG   =  586.980                                                                                
   DEXC   =    0.000                                                                                
   RMAX   =    2.344    core radius for proj-oper                                                   
   RAUG   =    1.300    factor for augmentation sphere                                              
   RDEP   =    2.302    radius for radial grids                                                     
   RDEPT  =    1.771    core radius for aug-charge                                                  
                                                                                                    
   Atomic configuration                                                                             
    9 entries                                                                                       
     n  l   j            E        occ.                                                              
     1  0  0.50     -8850.2468   2.0000                                                             
     2  0  0.50     -1062.3498   2.0000                                                             
     2  1  1.50      -916.8226   6.0000                                                             
     3  0  0.50      -114.6929   2.0000                                                             
     3  1  1.50       -72.1325   6.0000                                                             
     3  2  2.50        -5.0394  10.0000                                                             
     4  0  0.50        -4.6097   1.0000                                                             
     4  1  0.50        -4.0817   0.0000                                                             
     4  3  2.50        -1.3606   0.0000                                                             
   Description                                                                                      
     l       E           TYP  RCUT    TYP  RCUT                                                     
     2     -5.0393973     23  2.200                                                                 
     2     10.8846608     23  2.200                                                                 
     0     -4.6097109     23  2.200                                                                 
     0      8.2520465     23  2.200                                                                 
     1     -2.7211652     23  2.200                                                                 
     1     21.7055443     23  2.200                                                                 
     3      2.7211652     23  2.300                                                                 
  local pseudopotential read in
  partial core-charges read in
  partial kinetic energy density read in
  atomic valenz-charges read in
  non local Contribution for L=           2  read in
    real space projection operators read in
  non local Contribution for L=           2  read in
    real space projection operators read in
  non local Contribution for L=           0  read in
    real space projection operators read in
  non local Contribution for L=           0  read in
    real space projection operators read in
  non local Contribution for L=           1  read in
    real space projection operators read in
  non local Contribution for L=           1  read in
    real space projection operators read in
    PAW grid and wavefunctions read in
 
   number of l-projection  operators is LMAX  =           6
   number of lm-projection operators is LMMAX =          18
 
  PAW_PBE Pd 04Jan2005                  :
 energy of atom  1       EATOM= -809.7530
 kinetic energy error for atom=    0.0928 (will be added to EATOM!!)
  PAW_PBE Ir 06Sep2000                  :
 energy of atom  2       EATOM= -560.1833
 kinetic energy error for atom=    0.0422 (will be added to EATOM!!)
  PAW_PBE Pt 04Feb2005                  :
 energy of atom  3       EATOM= -729.1176
 kinetic energy error for atom=    0.0565 (will be added to EATOM!!)
  PAW_PBE Cu 22Jun2005                  :
 energy of atom  4       EATOM=-1390.9808
 kinetic energy error for atom=    0.4163 (will be added to EATOM!!)
 
 
 POSCAR: Pd Ir Pt Cu
  positions in cartesian coordinates
  No initial velocities read in
 exchange correlation table for  LEXCH =        8
   RHO(1)=    0.500       N(1)  =     2000
   RHO(2)=  100.500       N(2)  =     4000
 


--------------------------------------------------------------------------------------------------------


 ion  position               nearest neighbor table
   1  0.000  0.000  0.000-   2 2.73   3 2.73   4 2.73   3 2.73   4 2.73   2 2.73   4 2.73   4 2.73
                             2 2.73   3 2.73   3 2.73   2 2.73
   2  0.500  0.500  0.000-   1 2.73   3 2.73   4 2.73   3 2.73   4 2.73   1 2.73   3 2.73   3 2.73
                             1 2.73   4 2.73   4 2.73   1 2.73
   3  0.500  0.000  0.500-   1 2.73   2 2.73   4 2.73   1 2.73   2 2.73   2 2.73   4 2.73   2 2.73
                             1 2.73   4 2.73   1 2.73   4 2.73
   4  0.000  0.500  0.500-   1 2.73   2 2.73   3 2.73   1 2.73   2 2.73   1 2.73   3 2.73   1 2.73
                             2 2.73   3 2.73   2 2.73   3 2.73
 
  LATTYP: Found a simple cubic cell.
 ALAT       =     3.8660000000
  
  Lattice vectors:
  
 A1 = (   3.8660000000,   0.0000000000,   0.0000000000)
 A2 = (   0.0000000000,   3.8660000000,   0.0000000000)
 A3 = (   0.0000000000,   0.0000000000,   3.8660000000)


Analysis of symmetry for initial positions (statically):
=====================================================================
 Subroutine PRICEL returns:
 Original cell was already a primitive cell.
 

 Routine SETGRP: Setting up the symmetry group for a 
 simple cubic supercell.


 Subroutine GETGRP returns: Found  8 space group operations
 (whereof  8 operations were pure point group operations)
 out of a pool of 48 trial point group operations.


The static configuration has the point symmetry D_2h.


Analysis of symmetry for dynamics (positions and initial velocities):
=====================================================================
 Subroutine PRICEL returns:
 Original cell was already a primitive cell.
 

 Routine SETGRP: Setting up the symmetry group for a 
 simple cubic supercell.


 Subroutine GETGRP returns: Found  8 space group operations
 (whereof  8 operations were pure point group operations)
 out of a pool of 48 trial point group operations.


The dynamic configuration has the point symmetry D_2h.


 Subroutine INISYM returns: Found  8 space group operations
 (whereof  8 operations are pure point group operations),
 and found     1 'primitive' translations


----------------------------------------------------------------------------------------

                                     Primitive cell                                     

  volume of cell :      57.7811

  direct lattice vectors                    reciprocal lattice vectors
     3.866000000  0.000000000  0.000000000     0.258665287  0.000000000  0.000000000
     0.000000000  3.866000000  0.000000000     0.000000000  0.258665287  0.000000000
     0.000000000  0.000000000  3.866000000     0.000000000  0.000000000  0.258665287

  length of vectors
     3.866000000  3.866000000  3.866000000     0.258665287  0.258665287  0.258665287

  position of ions in fractional coordinates (direct lattice)
     0.000000000  0.000000000  0.000000000
     0.500000000  0.500000000  0.000000000
     0.500000000  0.000000000  0.500000000
     0.000000000  0.500000000  0.500000000

  ion indices of the primitive-cell ions
   primitive index   ion index
                 1           1
                 2           2
                 3           3
                 4           4

----------------------------------------------------------------------------------------

 
 
 KPOINTS: KPOINTS created by Atomic Simulation Env

Automatic generation of k-mesh.
 Grid dimensions read from file:
 generate k-points for:    5    5    5

 Generating k-lattice:

  Cartesian coordinates                     Fractional coordinates (reciprocal lattice)
     0.051733057  0.000000000  0.000000000     0.200000000  0.000000000  0.000000000
     0.000000000  0.051733057  0.000000000     0.000000000  0.200000000  0.000000000
     0.000000000  0.000000000  0.051733057     0.000000000  0.000000000  0.200000000

  Length of vectors
     0.051733057  0.051733057  0.051733057

  Shift w.r.t. Gamma in fractional coordinates (k-lattice)
     0.000000000  0.000000000  0.000000000

 
 Subroutine IBZKPT returns following result:
 ===========================================
 
 Found     27 irreducible k-points:
 
 Following reciprocal coordinates:
            Coordinates               Weight
  0.000000  0.000000  0.000000      1.000000
  0.200000  0.000000  0.000000      2.000000
  0.000000  0.200000  0.000000      2.000000
  0.000000  0.000000  0.200000      2.000000
  0.400000  0.000000  0.000000      2.000000
  0.000000  0.400000  0.000000      2.000000
  0.000000  0.000000  0.400000      2.000000
  0.200000  0.200000  0.000000      4.000000
  0.000000  0.200000  0.200000      4.000000
  0.200000  0.000000  0.200000      4.000000
  0.400000  0.200000  0.000000      4.000000
  0.000000  0.400000  0.200000      4.000000
  0.200000  0.000000  0.400000      4.000000
 -0.200000  0.400000  0.000000      4.000000
 -0.400000  0.000000  0.200000      4.000000
  0.000000  0.200000  0.400000      4.000000
  0.400000  0.400000  0.000000      4.000000
  0.000000  0.400000  0.400000      4.000000
  0.400000  0.000000  0.400000      4.000000
  0.200000  0.200000  0.200000      8.000000
  0.400000  0.200000  0.200000      8.000000
  0.200000  0.400000  0.200000      8.000000
  0.200000  0.200000  0.400000      8.000000
  0.400000  0.400000  0.200000      8.000000
  0.200000  0.400000  0.400000      8.000000
  0.400000  0.200000  0.400000      8.000000
  0.400000  0.400000  0.400000      8.000000
 
 Following cartesian coordinates:
            Coordinates               Weight
  0.000000  0.000000  0.000000      1.000000
  0.051733  0.000000  0.000000      2.000000
  0.000000  0.051733  0.000000      2.000000
  0.000000  0.000000  0.051733      2.000000
  0.103466  0.000000  0.000000      2.000000
  0.000000  0.103466  0.000000      2.000000
  0.000000  0.000000  0.103466      2.000000
  0.051733  0.051733  0.000000      4.000000
  0.000000  0.051733  0.051733      4.000000
  0.051733  0.000000  0.051733      4.000000
  0.103466  0.051733  0.000000      4.000000
  0.000000  0.103466  0.051733      4.000000
  0.051733  0.000000  0.103466      4.000000
 -0.051733  0.103466  0.000000      4.000000
 -0.103466  0.000000  0.051733      4.000000
  0.000000  0.051733  0.103466      4.000000
  0.103466  0.103466  0.000000      4.000000
  0.000000  0.103466  0.103466      4.000000
  0.103466  0.000000  0.103466      4.000000
  0.051733  0.051733  0.051733      8.000000
  0.103466  0.051733  0.051733      8.000000
  0.051733  0.103466  0.051733      8.000000
  0.051733  0.051733  0.103466      8.000000
  0.103466  0.103466  0.051733      8.000000
  0.051733  0.103466  0.103466      8.000000
  0.103466  0.051733  0.103466      8.000000
  0.103466  0.103466  0.103466      8.000000
 


--------------------------------------------------------------------------------------------------------




 Dimension of arrays:
   k-points           NKPTS =     27   k-points in BZ     NKDIM =     27   number of bands    NBANDS=     30
   number of dos      NEDOS =    301   number of ions     NIONS =      4
   non local maximal  LDIM  =      6   non local SUM 2l+1 LMDIM =     18
   total plane-waves  NPLWV =   4096
   max r-space proj   IRMAX =      1   max aug-charges    IRDMAX=   5325
   dimension x,y,z NGX =    16 NGY =   16 NGZ =   16
   dimension x,y,z NGXF=    32 NGYF=   32 NGZF=   32
   support grid    NGXF=    32 NGYF=   32 NGZF=   32
   ions per type =               1   1   1   1
   NGX,Y,Z   is equivalent  to a cutoff of   6.88,  6.88,  6.88 a.u.
   NGXF,Y,Z  is equivalent  to a cutoff of  13.76, 13.76, 13.76 a.u.

 SYSTEM =  unknown system                          
 POSCAR =  Pd Ir Pt Cu                             

 Startparameter for this run:
   NWRITE =      2    write-flag & timer
   PREC   = normal    normal or accurate (medium, high low for compatibility)
   ISTART =      1    job   : 0-new  1-cont  2-samecut
   ICHARG =      1    charge: 1-file 2-atom 10-const
   ISPIN  =      1    spin polarized calculation?
   LNONCOLLINEAR =      F non collinear calculations
   LSORBIT =      F    spin-orbit coupling
   INIWAV =      1    electr: 0-lowe 1-rand  2-diag
   LASPH  =      F    aspherical Exc in radial PAW
   METAGGA=      F    non-selfconsistent MetaGGA calc.

 Electronic Relaxation 1
   ENCUT  =  240.0 eV  17.64 Ry    4.20 a.u.   4.88  4.88  4.88*2*pi/ulx,y,z
   ENINI  =  240.0     initial cutoff
   ENAUG  =  587.0 eV  augmentation charge cutoff
   NELM   =     60;   NELMIN=  2; NELMDL=  0     # of ELM steps 
   EDIFF  = 0.1E-05   stopping-criterion for ELM
   LREAL  =      F    real-space projection
   NLSPLINE    = F    spline interpolate recip. space projectors
   LCOMPAT=      F    compatible to vasp.4.4
   GGA_COMPAT  = T    GGA compatible to vasp.4.4-vasp.4.6
   LMAXPAW     = -100 max onsite density
   LMAXMIX     =    2 max onsite mixed and CHGCAR
   VOSKOWN=      0    Vosko Wilk Nusair interpolation
   ROPT   =    0.00000   0.00000   0.00000   0.00000
 Ionic relaxation
   EDIFFG = 0.1E-04   stopping-criterion for IOM
   NSW    =      0    number of steps for IOM
   NBLOCK =      1;   KBLOCK =      1    inner block; outer block 
   IBRION =     -1    ionic relax: 0-MD 1-quasi-New 2-CG
   NFREE  =      0    steps in history (QN), initial steepest desc. (CG)
   ISIF   =      2    stress and relaxation
   IWAVPR =      0    prediction:  0-non 1-charg 2-wave 3-comb
   ISYM   =      2    0-nonsym 1-usesym 2-fastsym
   LCORR  =      T    Harris-Foulkes like correction to forces

   POTIM  = 0.5000    time-step for ionic-motion
   TEIN   =    0.0    initial temperature
   TEBEG  =    0.0;   TEEND  =   0.0 temperature during run
   SMASS  =  -3.00    Nose mass-parameter (am)
   estimated Nose-frequenzy (Omega)   =  0.10E-29 period in steps = 0.13E+47 mass=  -0.342E-27a.u.
   SCALEE = 1.0000    scale energy and forces
   NPACO  =    256;   APACO  = 16.0  distance and # of slots for P.C.
   PSTRESS=    0.0 pullay stress

  Mass of Ions in am
   POMASS = 106.42192.22195.08 63.55
  Ionic Valenz
   ZVAL   =  10.00  9.00 10.00 11.00
  Atomic Wigner-Seitz radii
   RWIGS  =  -1.00 -1.00 -1.00 -1.00
  virtual crystal weights 
   VCA    =   1.00  1.00  1.00  1.00
   NELECT =      40.0000    total number of electrons
   NUPDOWN=      -1.0000    fix difference up-down

 DOS related values:
   EMIN   =  10.00;   EMAX   =-10.00  energy-range for DOS
   EFERMI =   0.00
   ISMEAR =     1;   SIGMA  =   0.20  broadening in eV -4-tet -1-fermi 0-gaus

 Electronic relaxation 2 (details)
   IALGO  =     38    algorithm
   LDIAG  =      T    sub-space diagonalisation (order eigenvalues)
   LSUBROT=      F    optimize rotation matrix (better conditioning)
   TURBO    =      0    0=normal 1=particle mesh
   IRESTART =      0    0=no restart 2=restart with 2 vectors
   NREBOOT  =      0    no. of reboots
   NMIN     =      0    reboot dimension
   EREF     =   0.00    reference energy to select bands
   IMIX   =      4    mixing-type and parameters
     AMIX     =   0.40;   BMIX     =  1.00
     AMIX_MAG =   1.60;   BMIX_MAG =  1.00
     AMIN     =   0.10
     WC   =   100.;   INIMIX=   1;  MIXPRE=   1;  MAXMIX= -45

 Intra band minimization:
   WEIMIN = 0.0000     energy-eigenvalue tresh-hold
   EBREAK =  0.83E-08  absolut break condition
   DEPER  =   0.30     relativ break condition  

   TIME   =   0.40     timestep for ELM

  volume/ion in A,a.u.               =      14.45        97.48
  Fermi-wavevector in a.u.,A,eV,Ry     =   1.448215  2.736729 28.535854  2.097326
  Thomas-Fermi vector in A             =   2.566081
 
 Write flags
   LWAVE        =      T    write WAVECAR
   LDOWNSAMPLE  =      F    k-point downsampling of WAVECAR
   LCHARG       =      T    write CHGCAR
   LVTOT        =      F    write LOCPOT, total local potential
   LVHAR        =      F    write LOCPOT, Hartree potential only
   LELF         =      F    write electronic localiz. function (ELF)
   LORBIT       =      0    0 simple, 1 ext, 2 COOP (PROOUT), +10 PAW based schemes


 Dipole corrections
   LMONO  =      F    monopole corrections only (constant potential shift)
   LDIPOL =      F    correct potential (dipole corrections)
   IDIPOL =      0    1-x, 2-y, 3-z, 4-all directions 
   EPSILON=  1.0000000 bulk dielectric constant

 Exchange correlation treatment:
   GGA     =    PE    GGA type
   LEXCH   =     8    internal setting for exchange type
   VOSKOWN=      0    Vosko Wilk Nusair interpolation
   LHFCALC =     F    Hartree Fock is set to
   LHFONE  =     F    Hartree Fock one center treatment
   AEXX    =    0.0000 exact exchange contribution

 Linear response parameters
   LEPSILON=     F    determine dielectric tensor
   LRPA    =     F    only Hartree local field effects (RPA)
   LNABLA  =     F    use nabla operator in PAW spheres
   LVEL    =     F    velocity operator in full k-point grid
   LINTERFAST=   F  fast interpolation
   KINTER  =     0    interpolate to denser k-point grid
   CSHIFT  =0.1000    complex shift for real part using Kramers Kronig
   OMEGAMAX=  -1.0    maximum frequency
   DEG_THRESHOLD= 0.2000000E-02 threshold for treating states as degnerate
   RTIME   =   -0.100 relaxation time in fs
  (WPLASMAI=    0.000 imaginary part of plasma frequency in eV, 0.658/RTIME)
   DFIELD  = 0.0000000 0.0000000 0.0000000 field for delta impulse in time
 
 Orbital magnetization related:
   ORBITALMAG=     F  switch on orbital magnetization
   LCHIMAG   =     F  perturbation theory with respect to B field
   DQ        =  0.001000  dq finite difference perturbation B field
   LLRAUG    =     F  two centre corrections for induced B field



--------------------------------------------------------------------------------------------------------


 Static calculation
 charge density and potential will be updated during run
 non-spin polarized calculation
 Variant of blocked Davidson
 Davidson routine will perform the subspace rotation
 perform sub-space diagonalisation
    after iterative eigenvector-optimisation
 modified Broyden-mixing scheme, WC =      100.0
 initial mixing is a Kerker type mixing with AMIX =  0.4000 and BMIX =      1.0000
 Hartree-type preconditioning will be used
 using additional bands           10
 reciprocal scheme for non local part
 use partial core corrections
 calculate Harris-corrections to forces 
   (improved forces if not selfconsistent)
 use gradient corrections 
 use of overlap-Matrix (Vanderbilt PP)
 Methfessel and Paxton  Order N= 1 SIGMA  =   0.20


--------------------------------------------------------------------------------------------------------


  energy-cutoff  :      240.00
  volume of cell :       57.78
      direct lattice vectors                 reciprocal lattice vectors
     3.866000000  0.000000000  0.000000000     0.258665287  0.000000000  0.000000000
     0.000000000  3.866000000  0.000000000     0.000000000  0.258665287  0.000000000
     0.000000000  0.000000000  3.866000000     0.000000000  0.000000000  0.258665287

  length of vectors
     3.866000000  3.866000000  3.866000000     0.258665287  0.258665287  0.258665287


 
 old parameters found on file WAVECAR:
  energy-cutoff  :      240.00
  volume of cell :       57.78
      direct lattice vectors                 reciprocal lattice vectors
     3.866000000  0.000000000  0.000000000     0.258665287  0.000000000  0.000000000
     0.000000000  3.866000000  0.000000000     0.000000000  0.258665287  0.000000000
     0.000000000  0.000000000  3.866000000     0.000000000  0.000000000  0.258665287

  length of vectors

 
 k-points in units of 2pi/SCALE and weight: KPOINTS created by Atomic Simulation Env
   0.00000000  0.00000000  0.00000000       0.008
   0.05173306  0.00000000  0.00000000       0.016
   0.00000000  0.05173306  0.00000000       0.016
   0.00000000  0.00000000  0.05173306       0.016
   0.10346611  0.00000000  0.00000000       0.016
   0.00000000  0.10346611  0.00000000       0.016
   0.00000000  0.00000000  0.10346611       0.016
   0.05173306  0.05173306  0.00000000       0.032
   0.00000000  0.05173306  0.05173306       0.032
   0.05173306  0.00000000  0.05173306       0.032
   0.10346611  0.05173306  0.00000000       0.032
   0.00000000  0.10346611  0.05173306       0.032
   0.05173306  0.00000000  0.10346611       0.032
  -0.05173306  0.10346611  0.00000000       0.032
  -0.10346611  0.00000000  0.05173306       0.032
   0.00000000  0.05173306  0.10346611       0.032
   0.10346611  0.10346611  0.00000000       0.032
   0.00000000  0.10346611  0.10346611       0.032
   0.10346611  0.00000000  0.10346611       0.032
   0.05173306  0.05173306  0.05173306       0.064
   0.10346611  0.05173306  0.05173306       0.064
   0.05173306  0.10346611  0.05173306       0.064
   0.05173306  0.05173306  0.10346611       0.064
   0.10346611  0.10346611  0.05173306       0.064
   0.05173306  0.10346611  0.10346611       0.064
   0.10346611  0.05173306  0.10346611       0.064
   0.10346611  0.10346611  0.10346611       0.064
 
 k-points in reciprocal lattice and weights: KPOINTS created by Atomic Simulation Env
   0.00000000  0.00000000  0.00000000       0.008
   0.20000000  0.00000000  0.00000000       0.016
   0.00000000  0.20000000  0.00000000       0.016
   0.00000000  0.00000000  0.20000000       0.016
   0.40000000  0.00000000  0.00000000       0.016
   0.00000000  0.40000000  0.00000000       0.016
   0.00000000  0.00000000  0.40000000       0.016
   0.20000000  0.20000000  0.00000000       0.032
   0.00000000  0.20000000  0.20000000       0.032
   0.20000000  0.00000000  0.20000000       0.032
   0.40000000  0.20000000  0.00000000       0.032
   0.00000000  0.40000000  0.20000000       0.032
   0.20000000  0.00000000  0.40000000       0.032
  -0.20000000  0.40000000  0.00000000       0.032
  -0.40000000  0.00000000  0.20000000       0.032
   0.00000000  0.20000000  0.40000000       0.032
   0.40000000  0.40000000  0.00000000       0.032
   0.00000000  0.40000000  0.40000000       0.032
   0.40000000  0.00000000  0.40000000       0.032
   0.20000000  0.20000000  0.20000000       0.064
   0.40000000  0.20000000  0.20000000       0.064
   0.20000000  0.40000000  0.20000000       0.064
   0.20000000  0.20000000  0.40000000       0.064
   0.40000000  0.40000000  0.20000000       0.064
   0.20000000  0.40000000  0.40000000       0.064
   0.40000000  0.20000000  0.40000000       0.064
   0.40000000  0.40000000  0.40000000       0.064
 
 position of ions in fractional coordinates (direct lattice) 
   0.00000000  0.00000000  0.00000000
   0.50000000  0.50000000  0.00000000
   0.50000000  0.00000000  0.50000000
   0.00000000  0.50000000  0.50000000
 
 position of ions in cartesian coordinates  (Angst):
   0.00000000  0.00000000  0.00000000
   1.93300000  1.93300000  0.00000000
   1.93300000  0.00000000  1.93300000
   0.00000000  1.93300000  1.93300000
 


--------------------------------------------------------------------------------------------------------


 k-point   1 :   0.0000 0.0000 0.0000  plane waves:     461
 k-point   2 :   0.2000 0.0000 0.0000  plane waves:     482
 k-point   3 :   0.0000 0.2000 0.0000  plane waves:     482
 k-point   4 :   0.0000 0.0000 0.2000  plane waves:     482
 k-point   5 :   0.4000 0.0000 0.0000  plane waves:     490
 k-point   6 :   0.0000 0.4000 0.0000  plane waves:     490
 k-point   7 :   0.0000 0.0000 0.4000  plane waves:     490
 k-point   8 :   0.2000 0.2000 0.0000  plane waves:     479
 k-point   9 :   0.0000 0.2000 0.2000  plane waves:     479
 k-point  10 :   0.2000 0.0000 0.2000  plane waves:     479
 k-point  11 :   0.4000 0.2000 0.0000  plane waves:     490
 k-point  12 :   0.0000 0.4000 0.2000  plane waves:     490
 k-point  13 :   0.2000 0.0000 0.4000  plane waves:     490
 k-point  14 :  -0.2000 0.4000 0.0000  plane waves:     490
 k-point  15 :  -0.4000 0.0000 0.2000  plane waves:     490
 k-point  16 :   0.0000 0.2000 0.4000  plane waves:     490
 k-point  17 :   0.4000 0.4000 0.0000  plane waves:     497
 k-point  18 :   0.0000 0.4000 0.4000  plane waves:     497
 k-point  19 :   0.4000 0.0000 0.4000  plane waves:     497
 k-point  20 :   0.2000 0.2000 0.2000  plane waves:     489
 k-point  21 :   0.4000 0.2000 0.2000  plane waves:     487
 k-point  22 :   0.2000 0.4000 0.2000  plane waves:     487
 k-point  23 :   0.2000 0.2000 0.4000  plane waves:     487
 k-point  24 :   0.4000 0.4000 0.2000  plane waves:     500
 k-point  25 :   0.2000 0.4000 0.4000  plane waves:     500
 k-point  26 :   0.4000 0.2000 0.4000  plane waves:     500
 k-point  27 :   0.4000 0.4000 0.4000  plane waves:     480

 maximum number of plane-waves:       500
 maximum index in each direction: 
   IXMAX=    5   IYMAX=    4   IZMAX=    4
   IXMIN=   -5   IYMIN=   -5   IZMIN=   -5


 total amount of memory used by VASP MPI-rank0    47924. kBytes
=======================================================================

   base      :      30000. kBytes
   nonl-proj :       7808. kBytes
   grid      :       2641. kBytes
   one-center:         62. kBytes
   wavefun   :       7413. kBytes
 
     INWAV:  cpu time    0.0093: real time    0.0093
 Broyden mixing: mesh for mixing (old mesh)
   NGX =  9   NGY =  9   NGZ =  9
  (NGX  = 32   NGY  = 32   NGZ  = 32)
  gives a total of    729 points

 initial charge density was supplied:
 number of electron      39.9999672 magnetization 
 keeping initial charge density in first step


--------------------------------------------------------------------------------------------------------


 Maximum index for augmentation-charges         4945 (set IRDMAX)


--------------------------------------------------------------------------------------------------------


 First call to EWALD:  gamma=   0.458
 Maximum number of real-space cells 3x 3x 3
 Maximum number of reciprocal cells 3x 3x 3

    FEWALD:  cpu time    0.0009: real time    0.0009


--------------------------------------- Iteration      1(   1)  ---------------------------------------


    POTLOK:  cpu time    0.0080: real time    0.0080
    SETDIJ:  cpu time    0.0041: real time    0.0041
     EDDAV:  cpu time    0.3709: real time    0.3900
       DOS:  cpu time    0.0024: real time    0.0024
    CHARGE:  cpu time    0.0231: real time    0.0231
    MIXING:  cpu time    0.0002: real time    0.0002
    --------------------------------------------
      LOOP:  cpu time    0.4088: real time    0.4279

 eigenvalue-minimisations  :  2138
 total energy-change (2. order) :-0.2335338E+02  (-0.5843177E-03)
 number of electron      39.9999671 magnetization 
 augmentation part       16.9128856 magnetization 

 Broyden mixing:
  rms(total) = 0.13007E-01    rms(broyden)= 0.12381E-01
  rms(prec ) = 0.23987E-01
  weight for this iteration     100.00

 Free energy of the ion-electron system (eV)
  ---------------------------------------------------
  alpha Z        PSCENC =       244.65455147
  Ewald energy   TEWEN  =     -3423.86860972
  -Hartree energ DENC   =      -596.40979786
  -exchange      EXHF   =         0.00000000
  -V(xc)+E(xc)   XCENC  =         1.64834995
  PAW double counting   =      3929.30021864    -3913.72763447
  entropy T*S    EENTRO =        -0.00543261
  eigenvalues    EBANDS =       245.62813034
  atomic energy  EATOM  =      3489.42684632
  Solvation  Ediel_sol  =         0.00000000
  ---------------------------------------------------
  free energy    TOTEN  =       -23.35337795 eV

  energy without entropy =      -23.34794534  energy(sigma->0) =      -23.35156708


--------------------------------------------------------------------------------------------------------




--------------------------------------- Iteration      1(   2)  ---------------------------------------


    POTLOK:  cpu time    0.0078: real time    0.0078
    SETDIJ:  cpu time    0.0040: real time    0.0040
     EDDAV:  cpu time    0.3356: real time    0.3356
       DOS:  cpu time    0.0025: real time    0.0025
    CHARGE:  cpu time    0.0235: real time    0.0235
    MIXING:  cpu time    0.0003: real time    0.0003
    --------------------------------------------
      LOOP:  cpu time    0.3737: real time    0.3737

 eigenvalue-minimisations  :  2090
 total energy-change (2. order) : 0.2669483E-01  (-0.9154361E-03)
 number of electron      39.9999673 magnetization 
 augmentation part       16.9074593 magnetization 

 Broyden mixing:
  rms(total) = 0.21928E-01    rms(broyden)= 0.21547E-01
  rms(prec ) = 0.56585E-01
  weight for this iteration     100.00

 eigenvalues of (default mixing * dielectric matrix)
  average eigenvalue GAMMA=   0.3524
  0.3524

 Free energy of the ion-electron system (eV)
  ---------------------------------------------------
  alpha Z        PSCENC =       244.65455147
  Ewald energy   TEWEN  =     -3423.86860972
  -Hartree energ DENC   =      -596.49716331
  -exchange      EXHF   =         0.00000000
  -V(xc)+E(xc)   XCENC  =         1.65441642
  PAW double counting   =      3929.63261415    -3914.14579315
  entropy T*S    EENTRO =        -0.00654807
  eigenvalues    EBANDS =       245.82300277
  atomic energy  EATOM  =      3489.42684632
  Solvation  Ediel_sol  =         0.00000000
  ---------------------------------------------------
  free energy    TOTEN  =       -23.32668312 eV

  energy without entropy =      -23.32013505  energy(sigma->0) =      -23.32450043


--------------------------------------------------------------------------------------------------------




--------------------------------------- Iteration      1(   3)  ---------------------------------------


    POTLOK:  cpu time    0.0077: real time    0.0077
    SETDIJ:  cpu time    0.0042: real time    0.0042
     EDDAV:  cpu time    0.3570: real time    0.3570
       DOS:  cpu time    0.0024: real time    0.0024
    CHARGE:  cpu time    0.0229: real time    0.0229
    MIXING:  cpu time    0.0003: real time    0.0003
    --------------------------------------------
      LOOP:  cpu time    0.3945: real time    0.3945

 eigenvalue-minimisations  :  2226
 total energy-change (2. order) : 0.6528296E-03  (-0.1277930E-03)
 number of electron      39.9999672 magnetization 
 augmentation part       16.9130338 magnetization 

 Broyden mixing:
  rms(total) = 0.48345E-02    rms(broyden)= 0.47774E-02
  rms(prec ) = 0.10215E-01
  weight for this iteration     100.00

 eigenvalues of (default mixing * dielectric matrix)
  average eigenvalue GAMMA=   0.4510
  0.5524  0.3496

 Free energy of the ion-electron system (eV)
  ---------------------------------------------------
  alpha Z        PSCENC =       244.65455147
  Ewald energy   TEWEN  =     -3423.86860972
  -Hartree energ DENC   =      -596.39388175
  -exchange      EXHF   =         0.00000000
  -V(xc)+E(xc)   XCENC  =         1.64889664
  PAW double counting   =      3929.55199546    -3914.00590030
  entropy T*S    EENTRO =        -0.00602771
  eigenvalues    EBANDS =       245.66609931
  atomic energy  EATOM  =      3489.42684632
  Solvation  Ediel_sol  =         0.00000000
  ---------------------------------------------------
  free energy    TOTEN  =       -23.32603029 eV

  energy without entropy =      -23.32000258  energy(sigma->0) =      -23.32402105


--------------------------------------------------------------------------------------------------------




--------------------------------------- Iteration      1(   4)  ---------------------------------------


    POTLOK:  cpu time    0.0075: real time    0.0075
    SETDIJ:  cpu time    0.0040: real time    0.0040
     EDDAV:  cpu time    0.3816: real time    0.3816
       DOS:  cpu time    0.0024: real time    0.0024
    CHARGE:  cpu time    0.0227: real time    0.0227
    MIXING:  cpu time    0.0003: real time    0.0003
    --------------------------------------------
      LOOP:  cpu time    0.4185: real time    0.4185

 eigenvalue-minimisations  :  2390
 total energy-change (2. order) : 0.2542190E-05  (-0.8330351E-05)
 number of electron      39.9999672 magnetization 
 augmentation part       16.9116551 magnetization 

 Broyden mixing:
  rms(total) = 0.40411E-02    rms(broyden)= 0.40399E-02
  rms(prec ) = 0.85734E-02
  weight for this iteration     100.00

 eigenvalues of (default mixing * dielectric matrix)
  average eigenvalue GAMMA=   0.4331
  0.5118  0.5118  0.2757

 Free energy of the ion-electron system (eV)
  ---------------------------------------------------
  alpha Z        PSCENC =       244.65455147
  Ewald energy   TEWEN  =     -3423.86860972
  -Hartree energ DENC   =      -596.43303702
  -exchange      EXHF   =         0.00000000
  -V(xc)+E(xc)   XCENC  =         1.65026360
  PAW double counting   =      3929.53700017    -3914.00050498
  entropy T*S    EENTRO =        -0.00615336
  eigenvalues    EBANDS =       245.71361577
  atomic energy  EATOM  =      3489.42684632
  Solvation  Ediel_sol  =         0.00000000
  ---------------------------------------------------
  free energy    TOTEN  =       -23.32602775 eV

  energy without entropy =      -23.31987439  energy(sigma->0) =      -23.32397663


--------------------------------------------------------------------------------------------------------




--------------------------------------- Iteration      1(   5)  ---------------------------------------


    POTLOK:  cpu time    0.0077: real time    0.0077
    SETDIJ:  cpu time    0.0040: real time    0.0040
     EDDAV:  cpu time    0.3366: real time    0.3367
       DOS:  cpu time    0.0024: real time    0.0024
    CHARGE:  cpu time    0.0226: real time    0.0226
    MIXING:  cpu time    0.0003: real time    0.0003
    --------------------------------------------
      LOOP:  cpu time    0.3737: real time    0.3737

 eigenvalue-minimisations  :  2070
 total energy-change (2. order) : 0.5886770E-05  (-0.1258747E-05)
 number of electron      39.9999672 magnetization 
 augmentation part       16.9123408 magnetization 

 Broyden mixing:
  rms(total) = 0.29267E-02    rms(broyden)= 0.29257E-02
  rms(prec ) = 0.56760E-02
  weight for this iteration     100.00

 eigenvalues of (default mixing * dielectric matrix)
  average eigenvalue GAMMA=   0.5493
  0.7739  0.7739  0.3247  0.3247

 Free energy of the ion-electron system (eV)
  ---------------------------------------------------
  alpha Z        PSCENC =       244.65455147
  Ewald energy   TEWEN  =     -3423.86860972
  -Hartree energ DENC   =      -596.41345048
  -exchange      EXHF   =         0.00000000
  -V(xc)+E(xc)   XCENC  =         1.64931418
  PAW double counting   =      3929.50037214    -3913.95700013
  entropy T*S    EENTRO =        -0.00608825
  eigenvalues    EBANDS =       245.68804261
  atomic energy  EATOM  =      3489.42684632
  Solvation  Ediel_sol  =         0.00000000
  ---------------------------------------------------
  free energy    TOTEN  =       -23.32602186 eV

  energy without entropy =      -23.31993361  energy(sigma->0) =      -23.32399245


--------------------------------------------------------------------------------------------------------




--------------------------------------- Iteration      1(   6)  ---------------------------------------


    POTLOK:  cpu time    0.0075: real time    0.0075
    SETDIJ:  cpu time    0.0041: real time    0.0041
     EDDAV:  cpu time    0.2098: real time    0.2099
       DOS:  cpu time    0.0024: real time    0.0024
    --------------------------------------------
      LOOP:  cpu time    0.2238: real time    0.2239

 eigenvalue-minimisations  :  1014
 total energy-change (2. order) :-0.8470488E-07  (-0.1118914E-06)
 number of electron      39.9999672 magnetization 
 augmentation part       16.9123408 magnetization 

 Free energy of the ion-electron system (eV)
  ---------------------------------------------------
  alpha Z        PSCENC =       244.65455147
  Ewald energy   TEWEN  =     -3423.86860972
  -Hartree energ DENC   =      -596.41178532
  -exchange      EXHF   =         0.00000000
  -V(xc)+E(xc)   XCENC  =         1.64906704
  PAW double counting   =      3929.45249069    -3913.90772925
  entropy T*S    EENTRO =        -0.00608722
  eigenvalues    EBANDS =       245.68523405
  atomic energy  EATOM  =      3489.42684632
  Solvation  Ediel_sol  =         0.00000000
  ---------------------------------------------------
  free energy    TOTEN  =       -23.32602195 eV

  energy without entropy =      -23.31993473  energy(sigma->0) =      -23.32399287


--------------------------------------------------------------------------------------------------------




 average (electrostatic) potential at core
  the test charge radii are     1.1199  1.2793  1.2059  0.9430
  (the norm of the test charge is              1.0000)
       1 -71.7634       2 -48.8030       3 -64.8642       4 -61.7616
 
 
 
 E-fermi :   9.2090     XC(G=0): -13.1605     alpha+bet :-15.1862

 Fermi energy:         9.2090324790

 k-point     1 :       0.0000    0.0000    0.0000
  band No.  band energies     occupation 
      1       0.0991      2.00000
      2       2.5814      2.00000
      3       3.5361      2.00000
      4       3.5472      2.00000
      5       3.6232      2.00000
      6       3.7177      2.00000
      7       3.7262      2.00000
      8       6.2105      2.00000
      9       6.2137      2.00000
     10       6.3586      2.00000
     11       7.4505      2.00000
     12       7.5782      2.00000
     13       8.2182      2.00000
     14       8.3761      2.00000
     15       8.5333      2.00002
     16       9.2290      0.83175
     17       9.3962     -0.03426
     18       9.4919     -0.06249
     19       9.7714     -0.00051
     20      10.2425     -0.00000
     21      10.8190     -0.00000
     22      11.3901     -0.00000
     23      11.3978     -0.00000
     24      11.4107     -0.00000
     25      17.8911      0.00000
     26      18.1479      0.00000
     27      19.7534      0.00000
     28      20.2932      0.00000
     29      20.4382      0.00000
     30      20.6766      0.00000

 k-point     2 :       0.2000    0.0000    0.0000
  band No.  band energies     occupation 
      1       0.5659      2.00000
      2       2.8841      2.00000
      3       3.6999      2.00000
      4       3.7039      2.00000
      5       3.9004      2.00000
      6       3.9837      2.00000
      7       4.0559      2.00000
      8       5.9667      2.00000
      9       6.3407      2.00000
     10       6.4983      2.00000
     11       7.3477      2.00000
     12       7.4833      2.00000
     13       7.6639      2.00000
     14       7.8507      2.00000
     15       7.9961      2.00000
     16       8.2072      2.00000
     17       9.0085      2.05078
     18       9.1031      1.77199
     19       9.2411      0.73265
     20       9.4672     -0.06969
     21       9.7208     -0.00177
     22      10.8172     -0.00000
     23      13.1768     -0.00000
     24      13.1821     -0.00000
     25      17.8971      0.00000
     26      18.0190      0.00000
     27      20.3861      0.00000
     28      20.4274      0.00000
     29      20.5910      0.00000
     30      20.9799      0.00000

 k-point     3 :       0.0000    0.2000    0.0000
  band No.  band energies     occupation 
      1       0.6175      2.00000
      2       2.9021      2.00000
      3       3.6564      2.00000
      4       3.7772      2.00000
      5       3.8441      2.00000
      6       3.9815      2.00000
      7       4.0825      2.00000
      8       6.1412      2.00000
      9       6.3637      2.00000
     10       6.3713      2.00000
     11       7.2822      2.00000
     12       7.5993      2.00000
     13       7.6134      2.00000
     14       7.7573      2.00000
     15       8.2663      2.00000
     16       8.7478      2.00526
     17       9.0138      2.04500
     18       9.1898      1.16208
     19       9.2231      0.88122
     20       9.2939      0.34828
     21       9.4726     -0.06857
     22       9.7023     -0.00269
     23      13.2880     -0.00000
     24      13.4057     -0.00000
     25      17.4282      0.00000
     26      18.6706      0.00000
     27      20.3217      0.00000
     28      20.3835      0.00000
     29      20.5876      0.00000
     30      21.2816      0.00000

 k-point     4 :       0.0000    0.0000    0.2000
  band No.  band energies     occupation 
      1       0.6192      2.00000
      2       2.9143      2.00000
      3       3.8101      2.00000
      4       3.8525      2.00000
      5       3.8967      2.00000
      6       3.8986      2.00000
      7       3.9072      2.00000
      8       5.9544      2.00000
      9       6.3357      2.00000
     10       6.4987      2.00000
     11       7.2877      2.00000
     12       7.5663      2.00000
     13       7.5786      2.00000
     14       7.9376      2.00000
     15       8.0772      2.00000
     16       8.5104      2.00001
     17       8.8369      2.02441
     18       9.1297      1.61637
     19       9.1656      1.35829
     20       9.3028      0.29502
     21       9.7340     -0.00130
     22      10.2265     -0.00000
     23      13.2592     -0.00000
     24      13.3716     -0.00000
     25      17.1138      0.00000
     26      18.8792      0.00000
     27      20.4119      0.00000
     28      20.4361      0.00000
     29      20.7064      0.00000
     30      21.2045      0.00000

 k-point     5 :       0.4000    0.0000    0.0000
  band No.  band energies     occupation 
      1       1.6758      2.00000
      2       3.4991      2.00000
      3       3.7994      2.00000
      4       4.0543      2.00000
      5       4.7074      2.00000
      6       4.7471      2.00000
      7       4.8368      2.00000
      8       5.5082      2.00000
      9       6.0328      2.00000
     10       6.1345      2.00000
     11       6.8357      2.00000
     12       6.9084      2.00000
     13       6.9451      2.00000
     14       7.1542      2.00000
     15       7.3346      2.00000
     16       7.5604      2.00000
     17       8.1997      2.00000
     18       8.2090      2.00000
     19       8.2393      2.00000
     20       8.5510      2.00003
     21       9.3423      0.10468
     22      10.8153     -0.00000
     23      15.7250      0.00000
     24      15.8001      0.00000
     25      17.0593      0.00000
     26      18.0222      0.00000
     27      18.6124      0.00000
     28      18.7346      0.00000
     29      19.1462      0.00000
     30      21.8229      0.00000

 k-point     6 :       0.0000    0.4000    0.0000
  band No.  band energies     occupation 
      1       1.9909      2.00000
      2       3.2969      2.00000
      3       3.7746      2.00000
      4       4.1042      2.00000
      5       4.6418      2.00000
      6       4.6907      2.00000
      7       4.9659      2.00000
      8       5.7395      2.00000
      9       6.3315      2.00000
     10       6.3572      2.00000
     11       6.8031      2.00000
     12       6.8880      2.00000
     13       6.9081      2.00000
     14       7.0819      2.00000
     15       7.5487      2.00000
     16       7.8644      2.00000
     17       7.8742      2.00000
     18       8.0785      2.00000
     19       8.1851      2.00000
     20       8.4387      2.00000
     21       9.1288      1.62209
     22       9.4562     -0.07088
     23      15.9163      0.00000
     24      15.9637      0.00000
     25      16.6870      0.00000
     26      18.4747      0.00000
     27      18.4935      0.00000
     28      18.6283      0.00000
     29      20.4711      0.00000
     30      20.7372      0.00000

 k-point     7 :       0.0000    0.0000    0.4000
  band No.  band energies     occupation 
      1       2.0065      2.00000
      2       3.2937      2.00000
      3       3.9847      2.00000
      4       4.3443      2.00000
      5       4.6388      2.00000
      6       4.7306      2.00000
      7       4.7422      2.00000
      8       5.4112      2.00000
      9       6.0245      2.00000
     10       6.1433      2.00000
     11       6.8088      2.00000
     12       6.9617      2.00000
     13       6.9660      2.00000
     14       7.1109      2.00000
     15       7.3810      2.00000
     16       7.6939      2.00000
     17       8.0134      2.00000
     18       8.0401      2.00000
     19       8.4243      2.00000
     20       8.4851      2.00000
     21       8.9302      2.06397
     22      10.2065     -0.00000
     23      15.8906      0.00000
     24      16.0183      0.00000
     25      16.2456      0.00000
     26      18.4472      0.00000
     27      18.7217      0.00000
     28      18.9818      0.00000
     29      20.0645      0.00000
     30      21.0941      0.00000

 k-point     8 :       0.2000    0.2000    0.0000
  band No.  band energies     occupation 
      1       1.0623      2.00000
      2       3.1925      2.00000
      3       3.9275      2.00000
      4       3.9323      2.00000
      5       4.1068      2.00000
      6       4.1074      2.00000
      7       4.3914      2.00000
      8       5.9210      2.00000
      9       6.3951      2.00000
     10       6.5359      2.00000
     11       7.0445      2.00000
     12       7.2515      2.00000
     13       7.2757      2.00000
     14       7.3411      2.00000
     15       7.7996      2.00000
     16       7.9841      2.00000
     17       8.3483      2.00000
     18       8.9133      2.05717
     19       8.9711      2.07051
     20       9.0606      1.94748
     21       9.7319     -0.00137
     22      10.8936     -0.00000
     23      11.8848     -0.00000
     24      14.5540     -0.00000
     25      16.9591      0.00000
     26      19.0153      0.00000
     27      20.0408      0.00000
     28      20.4133      0.00000
     29      21.0453      0.00000
     30      21.6801      0.00000

 k-point     9 :       0.0000    0.2000    0.2000
  band No.  band energies     occupation 
      1       1.0885      2.00000
      2       3.2270      2.00000
      3       3.9124      2.00000
      4       3.9792      2.00000
      5       4.0423      2.00000
      6       4.2203      2.00000
      7       4.3385      2.00000
      8       5.9053      2.00000
      9       6.3932      2.00000
     10       6.5380      2.00000
     11       7.0640      2.00000
     12       7.2249      2.00000
     13       7.2942      2.00000
     14       7.3205      2.00000
     15       7.7635      2.00000
     16       8.0938      2.00000
     17       8.4491      2.00000
     18       8.7158      2.00269
     19       8.9248      2.06195
     20       8.9258      2.06232
     21       9.5595     -0.03264
     22      10.9291     -0.00000
     23      12.2483     -0.00000
     24      14.4573     -0.00000
     25      16.8188      0.00000
     26      19.0667      0.00000
     27      19.5250      0.00000
     28      20.9416      0.00000
     29      21.2034      0.00000
     30      21.9211      0.00000

 k-point    10 :       0.2000    0.0000    0.2000
  band No.  band energies     occupation 
      1       1.0622      2.00000
      2       3.2083      2.00000
      3       3.9339      2.00000
      4       3.9546      2.00000
      5       4.0683      2.00000
      6       4.2235      2.00000
      7       4.3233      2.00000
      8       5.7803      2.00000
      9       6.4589      2.00000
     10       6.5619      2.00000
     11       7.0186      2.00000
     12       7.2317      2.00000
     13       7.2402      2.00000
     14       7.3004      2.00000
     15       7.7957      2.00000
     16       7.8404      2.00000
     17       8.2178      2.00000
     18       9.0045      2.05466
     19       9.0682      1.92250
     20       9.2634      0.55831
     21       9.8515     -0.00005
     22      11.1429     -0.00000
     23      11.5466     -0.00000
     24      14.5472     -0.00000
     25      16.9266      0.00000
     26      18.9447      0.00000
     27      19.9853      0.00000
     28      20.5372      0.00000
     29      21.1165      0.00000
     30      21.8172      0.00000

 k-point    11 :       0.4000    0.2000    0.0000
  band No.  band energies     occupation 
      1       2.1405      2.00000
      2       3.7754      2.00000
      3       4.1238      2.00000
      4       4.2944      2.00000
      5       4.6725      2.00000
      6       4.8350      2.00000
      7       5.0257      2.00000
      8       5.4647      2.00000
      9       5.6755      2.00000
     10       6.0882      2.00000
     11       6.3563      2.00000
     12       6.4774      2.00000
     13       6.9203      2.00000
     14       7.1854      2.00000
     15       7.3257      2.00000
     16       7.6661      2.00000
     17       7.8405      2.00000
     18       8.4072      2.00000
     19       8.4504      2.00000
     20       8.9458      2.06864
     21       9.5600     -0.03246
     22       9.8191     -0.00014
     23      13.1292     -0.00000
     24      15.1942      0.00000
     25      16.9219      0.00000
     26      18.0865      0.00000
     27      19.5613      0.00000
     28      19.8202      0.00000
     29      21.8299      0.00000
     30      23.0790      0.00000

 k-point    12 :       0.0000    0.4000    0.2000
  band No.  band energies     occupation 
      1       2.3440      2.00000
      2       3.6379      2.00000
      3       4.0249      2.00000
      4       4.2995      2.00000
      5       4.5950      2.00000
      6       4.8098      2.00000
      7       5.1618      2.00000
      8       5.6325      2.00000
      9       5.7881      2.00000
     10       6.2632      2.00000
     11       6.3433      2.00000
     12       6.4857      2.00000
     13       6.9199      2.00000
     14       7.1445      2.00000
     15       7.6167      2.00000
     16       7.6934      2.00000
     17       7.7626      2.00000
     18       8.1871      2.00000
     19       8.3858      2.00000
     20       8.9513      2.06976
     21       9.0719      1.90971
     22       9.3824     -0.01050
     23      13.6004     -0.00000
     24      15.1511      0.00000
     25      16.7913      0.00000
     26      18.3667      0.00000
     27      19.3855      0.00000
     28      19.5720      0.00000
     29      21.6770      0.00000
     30      23.3069      0.00000

 k-point    13 :       0.2000    0.0000    0.4000
  band No.  band energies     occupation 
      1       2.3813      2.00000
      2       3.6458      2.00000
      3       4.2445      2.00000
      4       4.4380      2.00000
      5       4.6297      2.00000
      6       4.9542      2.00000
      7       4.9598      2.00000
      8       5.2857      2.00000
      9       5.5674      2.00000
     10       6.1485      2.00000
     11       6.4234      2.00000
     12       6.5062      2.00000
     13       6.9474      2.00000
     14       7.1978      2.00000
     15       7.3440      2.00000
     16       7.6825      2.00000
     17       7.9809      2.00000
     18       8.2805      2.00000
     19       8.4631      2.00000
     20       8.6946      2.00167
     21       9.2873      0.39079
     22       9.4531     -0.07091
     23      13.4646     -0.00000
     24      15.1935      0.00000
     25      16.8413      0.00000
     26      17.9567      0.00000
     27      19.3722      0.00000
     28      20.1323      0.00000
     29      21.9462      0.00000
     30      22.9606      0.00000

 k-point    14 :      -0.2000    0.4000    0.0000
  band No.  band energies     occupation 
      1       2.3788      2.00000
      2       3.6256      2.00000
      3       4.0736      2.00000
      4       4.3135      2.00000
      5       4.6142      2.00000
      6       4.7726      2.00000
      7       5.1460      2.00000
      8       5.6359      2.00000
      9       5.9618      2.00000
     10       6.2487      2.00000
     11       6.2609      2.00000
     12       6.4695      2.00000
     13       6.9174      2.00000
     14       7.1803      2.00000
     15       7.5206      2.00000
     16       7.7203      2.00000
     17       7.7955      2.00000
     18       8.2056      2.00000
     19       8.4585      2.00000
     20       8.8592      2.03291
     21       8.9708      2.07055
     22       9.2410      0.73357
     23      13.5144     -0.00000
     24      15.1846      0.00000
     25      16.8399      0.00000
     26      18.3319      0.00000
     27      19.3565      0.00000
     28      19.7542      0.00000
     29      21.9885      0.00000
     30      22.9877      0.00000

 k-point    15 :      -0.4000    0.0000    0.2000
  band No.  band energies     occupation 
      1       2.1363      2.00000
      2       3.8131      2.00000
      3       4.0831      2.00000
      4       4.2634      2.00000
      5       4.6220      2.00000
      6       4.8803      2.00000
      7       5.0749      2.00000
      8       5.4127      2.00000
      9       5.5872      2.00000
     10       6.1530      2.00000
     11       6.4271      2.00000
     12       6.5207      2.00000
     13       6.9299      2.00000
     14       7.1987      2.00000
     15       7.2828      2.00000
     16       7.6569      2.00000
     17       8.0584      2.00000
     18       8.1571      2.00000
     19       8.5450      2.00003
     20       8.9721      2.07039
     21       9.5263     -0.04739
     22       9.7725     -0.00050
     23      13.1083     -0.00000
     24      15.2584      0.00000
     25      16.8742      0.00000
     26      18.0514      0.00000
     27      19.4650      0.00000
     28      19.7557      0.00000
     29      21.9399      0.00000
     30      22.9636      0.00000

 k-point    16 :       0.0000    0.2000    0.4000
  band No.  band energies     occupation 
      1       2.3525      2.00000
      2       3.6200      2.00000
      3       4.2469      2.00000
      4       4.4710      2.00000
      5       4.6449      2.00000
      6       4.9130      2.00000
      7       4.9306      2.00000
      8       5.3517      2.00000
      9       5.5579      2.00000
     10       6.0920      2.00000
     11       6.3312      2.00000
     12       6.5045      2.00000
     13       6.9516      2.00000
     14       7.1476      2.00000
     15       7.4462      2.00000
     16       7.7001      2.00000
     17       7.7624      2.00000
     18       8.3104      2.00000
     19       8.6114      2.00020
     20       8.6360      2.00039
     21       9.4750     -0.06797
     22       9.5726     -0.02751
     23      13.5609     -0.00000
     24      15.0943      0.00000
     25      16.8477      0.00000
     26      18.0112      0.00000
     27      19.4907      0.00000
     28      20.0137      0.00000
     29      21.5551      0.00000
     30      23.4163      0.00000

 k-point    17 :       0.4000    0.4000    0.0000
  band No.  band energies     occupation 
      1       3.2864      2.00000
      2       4.2037      2.00000
      3       4.4707      2.00000
      4       4.8026      2.00000
      5       4.8721      2.00000
      6       5.0843      2.00000
      7       5.2005      2.00000
      8       5.3240      2.00000
      9       5.3776      2.00000
     10       5.8594      2.00000
     11       5.9994      2.00000
     12       6.2725      2.00000
     13       6.9060      2.00000
     14       7.0698      2.00000
     15       7.0934      2.00000
     16       7.3288      2.00000
     17       7.5097      2.00000
     18       8.1046      2.00000
     19       8.4105      2.00000
     20       8.4425      2.00000
     21       9.1604      1.39852
     22      10.1468     -0.00000
     23      11.6284     -0.00000
     24      12.9660     -0.00000
     25      18.8217      0.00000
     26      18.9550      0.00000
     27      20.4983      0.00000
     28      21.1875      0.00000
     29      21.2292      0.00000
     30      21.6635      0.00000

 k-point    18 :       0.0000    0.4000    0.4000
  band No.  band energies     occupation 
      1       3.1812      2.00000
      2       3.9848      2.00000
      3       4.3727      2.00000
      4       4.7649      2.00000
      5       4.9818      2.00000
      6       5.1113      2.00000
      7       5.1327      2.00000
      8       5.3978      2.00000
      9       5.4209      2.00000
     10       5.8789      2.00000
     11       6.0892      2.00000
     12       6.2675      2.00000
     13       6.8993      2.00000
     14       7.0636      2.00000
     15       7.1473      2.00000
     16       7.2219      2.00000
     17       7.4057      2.00000
     18       8.0522      2.00000
     19       8.6362      2.00039
     20       8.6892      2.00147
     21       9.2290      0.83229
     22       9.9802     -0.00000
     23      12.1932     -0.00000
     24      13.0254     -0.00000
     25      18.5640      0.00000
     26      18.6915      0.00000
     27      20.3814      0.00000
     28      20.5107      0.00000
     29      21.0625      0.00000
     30      22.1224      0.00000

 k-point    19 :       0.4000    0.0000    0.4000
  band No.  band energies     occupation 
      1       3.2540      2.00000
      2       4.3541      2.00000
      3       4.4298      2.00000
      4       4.6731      2.00000
      5       4.7563      2.00000
      6       4.9968      2.00000
      7       5.0521      2.00000
      8       5.2625      2.00000
      9       5.5745      2.00000
     10       6.0193      2.00000
     11       6.1410      2.00000
     12       6.3816      2.00000
     13       6.8592      2.00000
     14       7.0696      2.00000
     15       7.0867      2.00000
     16       7.3397      2.00000
     17       7.8162      2.00000
     18       7.9579      2.00000
     19       8.2112      2.00000
     20       8.3056      2.00000
     21       9.3538      0.06409
     22      10.5418     -0.00000
     23      11.1759     -0.00000
     24      12.8529     -0.00000
     25      18.7312      0.00000
     26      18.9128      0.00000
     27      20.6993      0.00000
     28      21.0193      0.00000
     29      21.4231      0.00000
     30      21.4831      0.00000

 k-point    20 :       0.2000    0.2000    0.2000
[...]
      3       3.9949      2.00000
      4       4.1327      2.00000
      5       4.1899      2.00000
      6       4.5590      2.00000
      7       4.6860      2.00000
      8       5.7286      2.00000
      9       6.4536      2.00000
     10       6.5481      2.00000
     11       6.6566      2.00000
     12       6.8564      2.00000
     13       7.0371      2.00000
     14       7.2862      2.00000
     15       7.3909      2.00000
     16       7.6178      2.00000
     17       8.3178      2.00000
     18       8.3904      2.00000
     19       8.5394      2.00002
     20       9.0993      1.79135
     21       9.8348     -0.00009
     22      11.8362     -0.00000
     23      12.5057     -0.00000
     24      12.7237     -0.00000
     25      17.6637      0.00000
     26      17.8969      0.00000
     27      18.6113      0.00000
     28      21.1103      0.00000
     29      21.5236      0.00000
     30      21.6946      0.00000

 k-point    21 :       0.4000    0.2000    0.2000
  band No.  band energies     occupation 
      1       2.3928      2.00000
      2       3.7318      2.00000
      3       4.2159      2.00000
      4       4.5543      2.00000
      5       4.5694      2.00000
      6       4.8458      2.00000
      7       5.3538      2.00000
      8       5.5441      2.00000
      9       5.8098      2.00000
     10       6.0156      2.00000
     11       6.3768      2.00000
     12       6.4896      2.00000
     13       6.6866      2.00000
     14       7.0345      2.00000
     15       7.1100      2.00000
     16       7.5654      2.00000
     17       8.1177      2.00000
     18       8.2075      2.00000
     19       8.6470      2.00052
     20       9.0291      2.02271
     21       9.5224     -0.04920
     22       9.7975     -0.00026
     23      13.8148     -0.00000
     24      13.8315     -0.00000
     25      15.5376      0.00000
     26      16.2867      0.00000
     27      20.1147      0.00000
     28      21.5151      0.00000
     29      22.0965      0.00000
     30      22.3564      0.00000

 k-point    22 :       0.2000    0.4000    0.2000
  band No.  band energies     occupation 
      1       2.5618      2.00000
      2       3.6311      2.00000
      3       4.0258      2.00000
      4       4.5147      2.00000
      5       4.6835      2.00000
      6       4.8803      2.00000
      7       5.5411      2.00000
      8       5.6155      2.00000
      9       5.7958      2.00000
     10       6.1057      2.00000
     11       6.4703      2.00000
     12       6.5098      2.00000
     13       6.6087      2.00000
     14       7.0322      2.00000
     15       7.1868      2.00000
     16       7.2855      2.00000
     17       8.1854      2.00000
     18       8.2598      2.00000
     19       8.4395      2.00000
     20       8.9452      2.06850
     21       9.3755      0.00421
     22       9.6662     -0.00571
     23      13.8181     -0.00000
     24      14.0527     -0.00000
     25      15.5943      0.00000
     26      16.1487      0.00000
     27      20.1966      0.00000
     28      21.5840      0.00000
     29      22.2313      0.00000
     30      22.3987      0.00000

 k-point    23 :       0.2000    0.2000    0.4000
  band No.  band energies     occupation 
      1       2.5661      2.00000
      2       3.6306      2.00000
      3       4.1728      2.00000
      4       4.5103      2.00000
      5       4.6932      2.00000
      6       5.0588      2.00000
      7       5.1992      2.00000
      8       5.5298      2.00000
      9       5.7583      2.00000
     10       5.9902      2.00000
     11       6.3711      2.00000
     12       6.4925      2.00000
     13       6.6959      2.00000
     14       7.0563      2.00000
     15       7.1511      2.00000
     16       7.4361      2.00000
     17       8.2010      2.00000
     18       8.2186      2.00000
     19       8.5681      2.00006
     20       8.8865      2.04497
     21       9.4579     -0.07080
     22       9.7457     -0.00098
     23      13.8236     -0.00000
     24      13.9928     -0.00000
     25      15.5769      0.00000
     26      16.2395      0.00000
     27      20.1046      0.00000
     28      21.3613      0.00000
     29      22.1925      0.00000
     30      22.4628      0.00000

 k-point    24 :       0.4000    0.4000    0.2000
  band No.  band energies     occupation 
      1       3.0445      2.00000
      2       3.5561      2.00000
      3       3.8808      2.00000
      4       4.2651      2.00000
      5       5.1908      2.00000
      6       5.4897      2.00000
      7       5.7280      2.00000
      8       5.9130      2.00000
      9       6.0745      2.00000
     10       6.1254      2.00000
     11       6.3334      2.00000
     12       6.5026      2.00000
     13       6.6004      2.00000
     14       6.7136      2.00000
     15       6.8758      2.00000
     16       6.9469      2.00000
     17       7.9250      2.00000
     18       8.3656      2.00000
     19       8.7627      2.00705
     20       9.0920      1.82660
     21       9.2293      0.82972
     22      10.2688     -0.00000
     23      11.5104     -0.00000
     24      12.7180     -0.00000
     25      15.8101      0.00000
     26      17.4847      0.00000
     27      17.9105      0.00000
     28      19.8897      0.00000
     29      22.7752      0.00000
     30      24.5605      0.00000

 k-point    25 :       0.2000    0.4000    0.4000
  band No.  band energies     occupation 
      1       3.0290      2.00000
      2       3.5919      2.00000
      3       3.6524      2.00000
      4       4.2765      2.00000
      5       5.1948      2.00000
      6       5.4913      2.00000
      7       5.7159      2.00000
      8       5.9635      2.00000
      9       6.0857      2.00000
     10       6.1212      2.00000
     11       6.3242      2.00000
     12       6.5091      2.00000
     13       6.6085      2.00000
     14       6.7146      2.00000
     15       6.8712      2.00000
     16       6.9347      2.00000
     17       7.9693      2.00000
     18       8.3986      2.00000
     19       8.8890      2.04611
     20       9.0745      1.90007
     21       9.2077      1.01090
     22      10.1512     -0.00000
     23      11.9937     -0.00000
     24      12.9042     -0.00000
     25      15.5492      0.00000
     26      17.0615      0.00000
     27      17.9457      0.00000
     28      19.8606      0.00000
     29      22.8647      0.00000
     30      24.4067      0.00000

 k-point    26 :       0.4000    0.2000    0.4000
  band No.  band energies     occupation 
      1       3.0380      2.00000
      2       3.5867      2.00000
      3       3.9178      2.00000
      4       4.1049      2.00000
      5       5.1628      2.00000
      6       5.3891      2.00000
      7       5.7024      2.00000
      8       6.0723      2.00000
      9       6.1857      2.00000
     10       6.2178      2.00000
     11       6.4314      2.00000
     12       6.4493      2.00000
     13       6.5965      2.00000
     14       6.7712      2.00000
     15       6.8269      2.00000
     16       6.8855      2.00000
     17       8.0841      2.00000
     18       8.1234      2.00000
     19       8.5871      2.00010
     20       9.2229      0.88327
     21       9.3578      0.05136
     22      10.6344     -0.00000
     23      11.0623     -0.00000
     24      12.6545     -0.00000
     25      15.7833      0.00000
     26      17.5250      0.00000
     27      17.8975      0.00000
     28      19.9503      0.00000
     29      22.6390      0.00000
     30      24.6354      0.00000

 k-point    27 :       0.4000    0.4000    0.4000
  band No.  band energies     occupation 
      1       2.9168      2.00000
      2       3.0435      2.00000
      3       3.2859      2.00000
      4       3.6596      2.00000
      5       5.6229      2.00000
      6       5.7372      2.00000
      7       5.8259      2.00000
      8       6.1082      2.00000
      9       6.1912      2.00000
     10       6.4258      2.00000
     11       6.4323      2.00000
     12       6.6232      2.00000
     13       7.2837      2.00000
     14       7.3475      2.00000
     15       7.5118      2.00000
     16       7.8448      2.00000
     17       8.2795      2.00000
     18       8.6945      2.00166
     19       8.7563      2.00624
     20       9.1755      1.27918
     21       9.7168     -0.00194
     22      10.4892     -0.00000
     23      10.8854     -0.00000
     24      11.1114     -0.00000
     25      14.9875      0.00000
     26      15.3904      0.00000
     27      16.1948      0.00000
     28      17.7090      0.00000
     29      25.2847      0.00000
     30      25.3789      0.00000


--------------------------------------------------------------------------------------------------------


 soft charge-density along one line, spin component           1
         0         1         2         3         4         5         6         7         8         9
x    23.0876    0.0000   -1.4360    0.0000    0.7755    0.0000    0.2633    0.0000   -0.4732    0.0000
x    -0.0432    0.0000    0.0958    0.0000    0.0125    0.0000    0.0000    0.0000
y    23.0876    0.0000    1.4540    0.0000    0.8215    0.0000   -0.2715   -0.0000   -0.4461    0.0000
y     0.0079   -0.0000    0.0935   -0.0000    0.0034   -0.0000    0.0000    0.0000
z    23.0876    0.0000    0.4278    0.0000    0.8202    0.0000   -0.1636   -0.0000   -0.4573    0.0000
z     0.0122   -0.0000    0.0946   -0.0000   -0.0066   -0.0000    0.0000    0.0000
 total charge-density along one line
x    40.0000    0.0000    3.7395    0.0000   10.8498    0.0000    3.1986    0.0000    1.3771    0.0000
x     0.4246   -0.0000    0.1328    0.0000   -0.0049   -0.0000    0.0023   -0.0000    0.0068   -0.0000
x     0.0016    0.0000   -0.0015   -0.0000   -0.0009    0.0000    0.0004    0.0000    0.0006   -0.0000
x    -0.0001    0.0000   -0.0006    0.0000
y    40.0000    0.0000   -0.9231   -0.0000   10.9345    0.0000   -1.8184   -0.0000    1.4323    0.0000
y    -0.3486    0.0000    0.1136   -0.0000    0.0385    0.0000   -0.0018   -0.0000   -0.0093    0.0000
y     0.0018    0.0000    0.0031   -0.0000   -0.0009    0.0000   -0.0011   -0.0000    0.0005    0.0000
y     0.0003   -0.0000   -0.0005    0.0000
z    40.0000    0.0000   -2.7201    0.0000   10.9039   -0.0000   -2.1416    0.0000    1.3948    0.0000
z    -0.3854   -0.0000    0.1200   -0.0000    0.0164    0.0000    0.0002    0.0000   -0.0079    0.0000
z     0.0017    0.0000    0.0025    0.0000   -0.0009    0.0000   -0.0010    0.0000    0.0006   -0.0000
z     0.0003    0.0000   -0.0005    0.0000
 
 pseudopotential strength for first ion, spin component:           1
 -2.742   0.000   0.000  -0.000   0.000  -2.964   0.000   0.000
  0.000  -2.656  -0.000  -0.000   0.000   0.000  -2.882  -0.000
  0.000  -0.000  -2.666   0.000  -0.008   0.000  -0.000  -2.892
 -0.000  -0.000   0.000  -2.714  -0.000  -0.000  -0.000   0.000
  0.000   0.000  -0.008  -0.000  -2.676   0.000   0.000  -0.007
 -2.964   0.000   0.000  -0.000   0.000  -3.154   0.000   0.000
  0.000  -2.882  -0.000  -0.000   0.000   0.000  -3.075  -0.000
  0.000  -0.000  -2.892   0.000  -0.007   0.000  -0.000  -3.084
 -0.000  -0.000   0.000  -2.937  -0.000  -0.000  -0.000   0.000
  0.000   0.000  -0.007  -0.000  -2.901   0.000   0.000  -0.007
  0.000   0.000  -0.008  -0.000   0.006   0.000   0.000  -0.008
  0.000   0.000  -0.014  -0.000   0.010   0.000   0.000  -0.014
  0.000   0.000   0.000   0.000   0.000   0.000   0.000   0.000
  0.000  -0.000   0.000   0.000  -0.000   0.000  -0.000   0.000
 -0.000   0.000  -0.000   0.000   0.000  -0.000   0.000  -0.000
  0.000   0.000   0.000   0.000   0.000   0.000   0.000   0.000
  0.000  -0.000   0.000   0.000  -0.000   0.000  -0.000   0.000
 -0.000   0.000  -0.000   0.000   0.000  -0.000   0.000  -0.000
 total augmentation occupancy for first ion, spin component:           1
  2.088   0.000   0.000   0.000   0.000  -1.428   0.000  -0.000   0.000   0.000   0.000   0.000   0.000   0.000   0.000   0.000
  0.000   3.730   0.000   0.000   0.000   0.000  -2.170   0.000  -0.000   0.000   0.000   0.000   0.000   0.000   0.000   0.000
  0.000   0.000   3.200   0.000  -0.573   0.000   0.000  -1.782   0.000   0.375   0.247  -0.051   0.000   0.000   0.000   0.000
  0.000   0.000   0.000   3.161   0.000   0.000  -0.000   0.000  -2.246   0.000   0.000   0.000   0.000   0.000   0.000   0.000
  0.000   0.000  -0.573   0.000   4.273   0.000   0.000   0.373   0.000  -2.569  -0.387   0.074   0.000   0.000   0.000   0.000
 -1.428   0.000   0.000   0.000   0.000   2.419   0.000   0.000   0.000   0.000  -0.000   0.000   0.000   0.000   0.000   0.000
  0.000  -2.170   0.000  -0.000   0.000   0.000   2.480   0.000  -0.000   0.000   0.000   0.000   0.000   0.000   0.000   0.000
 -0.000   0.000  -1.782   0.000   0.373   0.000   0.000   2.189   0.000  -0.233  -0.184   0.014   0.000   0.000   0.000   0.000
  0.000   0.000   0.000  -2.246   0.000   0.000  -0.000   0.000   3.025   0.000   0.000   0.000   0.000   0.000   0.000   0.000
  0.000   0.000   0.375   0.000  -2.569   0.000   0.000  -0.233   0.000   2.754   0.310  -0.048   0.000   0.000   0.000   0.000
  0.000   0.000   0.247   0.000  -0.387  -0.000   0.000  -0.184   0.000   0.310   2.165  -0.349   0.000   0.000   0.000   0.000
  0.000   0.000  -0.051   0.000   0.074   0.000   0.000   0.014   0.000  -0.048  -0.349   0.062   0.000   0.000   0.000   0.000
  0.000   0.000   0.000   0.000   0.000   0.000   0.000   0.000   0.000   0.000   0.000   0.000   0.284   0.000   0.000  -0.015
  0.000   0.000   0.000   0.000   0.000   0.000   0.000   0.000   0.000   0.000   0.000   0.000   0.000   0.275   0.000   0.000
  0.000   0.000   0.000   0.000   0.000   0.000   0.000   0.000   0.000   0.000   0.000   0.000   0.000   0.000   0.337   0.000
  0.000   0.000   0.000   0.000   0.000   0.000   0.000   0.000   0.000   0.000   0.000   0.000  -0.015   0.000   0.000   0.001
  0.000   0.000   0.000   0.000   0.000   0.000   0.000   0.000   0.000   0.000   0.000   0.000   0.000  -0.015   0.000   0.000
  0.000   0.000   0.000   0.000   0.000   0.000   0.000   0.000   0.000   0.000   0.000   0.000   0.000   0.000  -0.019   0.000


------------------------ aborting loop because EDIFF is reached ----------------------------------------


    CHARGE:  cpu time    0.0232: real time    0.0232
    FORLOC:  cpu time    0.0014: real time    0.0014
    FORNL :  cpu time    0.0897: real time    0.0897
    STRESS:  cpu time    0.1421: real time    0.1421
    FORCOR:  cpu time    0.0091: real time    0.0091
    FORHAR:  cpu time    0.0026: real time    0.0026
    MIXING:  cpu time    0.0003: real time    0.0003

  FORCE on cell =-STRESS in cart. coord.  units (eV):
  Direction    XX          YY          ZZ          XY          YZ          ZX
  --------------------------------------------------------------------------------------
  Alpha Z   244.65455   244.65455   244.65455
  Ewald   -1143.04101 -1137.78808 -1143.04101     0.00000     0.00000     0.00000
  Hartree   193.87870   205.12128   197.37079    -0.00000    -0.00000    -0.00000
  E(xc)    -202.51606  -202.38519  -202.48301    -0.00000    -0.00000    -0.00000
  Local     182.63731   169.22425   181.72996    -0.00000    -0.00000    -0.00000
  n-local   -34.76606   -33.17466   -35.74381     5.97712     7.63004     6.35117
  augment   261.22150   259.73978   260.83602     0.00000    -0.00000    -0.00000
  Kinetic   492.93579   489.25948   490.81525     1.92979     2.78455     1.42858
  Fock        0.00000     0.00000     0.00000     0.00000     0.00000     0.00000
  -------------------------------------------------------------------------------------
  Total      -4.99527    -5.34861    -5.86127     0.00000     0.00000     0.00000
  in kB    -138.51081  -148.30834  -162.52359     0.00000     0.00000     0.00000
  external pressure =     -149.78 kB  Pullay stress =        0.00 kB


 VOLUME and BASIS-vectors are now :
 -----------------------------------------------------------------------------
  energy-cutoff  :      240.00
  volume of cell :       57.78
      direct lattice vectors                 reciprocal lattice vectors
     3.866000000  0.000000000  0.000000000     0.258665287  0.000000000  0.000000000
     0.000000000  3.866000000  0.000000000     0.000000000  0.258665287  0.000000000
     0.000000000  0.000000000  3.866000000     0.000000000  0.000000000  0.258665287

  length of vectors
     3.866000000  3.866000000  3.866000000     0.258665287  0.258665287  0.258665287


 FORCES acting on ions
    electron-ion (+dipol)            ewald-force                    non-local-force                 convergence-correction
 -----------------------------------------------------------------------------------------------
   -.192E-13 0.267E-14 -.394E-14   0.892E-14 -.838E-14 -.466E-14   -.795E-25 0.635E-24 0.205E-23   -.106E-12 0.144E-12 -.148E-12
   0.117E-13 0.391E-13 0.474E-15   0.112E-14 0.145E-13 -.285E-14   -.874E-24 -.162E-24 0.243E-24   0.948E-13 -.608E-13 -.143E-12
   0.388E-13 0.501E-14 0.679E-13   -.749E-14 -.139E-13 0.598E-14   0.816E-25 0.625E-24 0.101E-24   0.773E-13 0.978E-13 0.119E-12
   -.621E-13 0.314E-12 0.306E-12   -.120E-14 0.656E-14 0.190E-14   0.264E-24 0.153E-27 0.502E-24   -.782E-12 -.736E-12 0.128E-11
 -----------------------------------------------------------------------------------------------
   -.308E-13 0.361E-12 0.370E-12   0.135E-14 -.120E-14 0.371E-15   -.608E-24 0.110E-23 0.290E-23   -.716E-12 -.555E-12 0.110E-11
 
 
 POSITION                                       TOTAL-FORCE (eV/Angst)
 -----------------------------------------------------------------------------------
      0.00000      0.00000      0.00000         0.000000     -0.000000     -0.000000
      1.93300      1.93300      0.00000        -0.000000     -0.000000     -0.000000
      1.93300      0.00000      1.93300        -0.000000     -0.000000     -0.000000
      0.00000      1.93300      1.93300        -0.000000      0.000000      0.000000
 -----------------------------------------------------------------------------------
    total drift:                               -0.000000     -0.000000      0.000000


--------------------------------------------------------------------------------------------------------



  FREE ENERGIE OF THE ION-ELECTRON SYSTEM (eV)
  ---------------------------------------------------
  free  energy   TOTEN  =       -23.32602195 eV

  energy  without entropy=      -23.31993473  energy(sigma->0) =      -23.32399287
 


--------------------------------------------------------------------------------------------------------


    POTLOK:  cpu time    0.0116: real time    0.0116


--------------------------------------------------------------------------------------------------------


 writing wavefunctions
     LOOP+:  cpu time    2.5057: real time    2.5250
    4ORBIT:  cpu time    0.0000: real time    0.0000

 total amount of memory used by VASP MPI-rank0    47924. kBytes
=======================================================================

   base      :      30000. kBytes
   nonl-proj :       7808. kBytes
   grid      :       2641. kBytes
   one-center:         62. kBytes
   wavefun   :       7413. kBytes
 
  
  
 General timing and accounting informations for this job:
 ========================================================
  
                  Total CPU time used (sec):        2.743
                            User time (sec):        2.703
                          System time (sec):        0.040
                         Elapsed time (sec):        2.751
  
                   Maximum memory used (kb):       58344.
                   Average memory used (kb):          N/A
  
                          Minor page faults:         8150
                          Major page faults:            0
                 Voluntary context switches:           27
