 vasp.6.2.0 18Jan21 (build Mar 17 2021 09:06:54) complex                        
  
 POSCAR found type information on POSCAR PdIrPtCu
 POSCAR found :  4 types and       4 ions
 LDA part: xc-table for Pade appr. of Perdew
 found WAVECAR, reading the header
 POSCAR, INCAR and KPOINTS ok, starting setup
 FFT: planning ...
 reading WAVECAR
 the WAVECAR file was read successfully
 charge-density read from file: unknown                                 
 entering main loop
       N       E                     dE             d eps       ncg     rms          rms(c)
DAV:   1    -0.233533779479E+02   -0.23353E+02   -0.58432E-03  2138   0.761E-01    0.130E-01
DAV:   2    -0.233266831198E+02    0.26695E-01   -0.91544E-03  2090   0.117E+00    0.219E-01
DAV:   3    -0.233260302902E+02    0.65283E-03   -0.12779E-03  2226   0.851E-01    0.483E-02
DAV:   4    -0.233260277480E+02    0.25422E-05   -0.83304E-05  2390   0.146E-01    0.404E-02
DAV:   5    -0.233260218612E+02    0.58868E-05   -0.12587E-05  2070   0.945E-02    0.293E-02
DAV:   6    -0.233260219459E+02   -0.84705E-07   -0.11189E-06  1014   0.162E-02
   1 F= -.23326022E+02 E0= -.23323993E+02  d E =-.608722E-02
 writing wavefunctions
