unknown system                          
   1.00000000000000     
     3.635000    0.000000    0.000000
     0.000000    3.635000    0.000000
     0.000000    0.000000    3.635000
   Cu
     4
Direct
  0.000000  0.000000  0.000000
  0.500000  0.500000  0.000000
  0.500000  0.000000  0.500000
  0.000000  0.500000  0.500000
 
   28   28   28
  843.44      780.92      618.12      414.25      230.62      104.56      41.359      20.862      13.939      10.648    
  9.1913      7.9640      7.3034      7.6046      7.9540      7.6046      7.3034      7.9640      9.1913      10.648    
  13.939      20.862      41.359      104.56      230.62      414.25      618.12      780.92      780.92      722.68    
  571.06      381.45      211.29      95.482      38.450      20.347      13.759      10.588      9.1374      7.8971    
  7.1666      7.3311      7.6046      7.3311      7.1666      7.8971      9.1374      10.588      13.759      20.347    
  38.450      95.482      211.29      381.45      571.06      722.68      618.12      571.06      448.79      296.67    
  161.97      72.959      31.622      19.039      13.267      10.456      9.1029      7.9576      7.2096      7.1666    
  7.3034      7.1666      7.2096      7.9576      9.1029      10.456      13.267      19.039      31.622      72.959    
  161.97      296.67      448.79      571.06      414.25      381.45      296.67      192.67      103.35      47.883    
  24.838      17.210      12.602      10.358      9.2747      8.4622      7.9576      7.8971      7.9640      7.8971    
  7.9576      8.4622      9.2747      10.358      12.602      17.210      24.838      47.883      103.35      192.67    
  296.67      381.45      230.62      211.29      161.97      103.35      56.076      29.971      20.358      15.219    
  11.960      10.388      9.6755      9.2747      9.1029      9.1374      9.1913      9.1374      9.1029      9.2747    
  9.6755      10.388      11.960      15.219      20.358      29.971      56.076      103.35      161.97      211.29    
  104.56      95.482      72.959      47.883      29.971      21.490      16.879      13.497      11.552      10.681    
  10.388      10.358      10.456      10.588      10.648      10.588      10.456      10.358      10.388      10.681    
  11.552      13.497      16.879      21.490      29.971      47.883      72.959      95.482      41.359      38.450    
  31.622      24.838      20.358      16.879      14.102      12.362      11.598      11.552      11.960      12.602    
  13.267      13.759      13.939      13.759      13.267      12.602      11.960      11.552      11.598      12.362    
  14.102      16.879      20.358      24.838      31.622      38.450      20.862      20.347      19.039      17.210    
  15.219      13.497      12.362      11.971      12.362      13.497      15.219      17.210      19.039      20.347    
  20.862      20.347      19.039      17.210      15.219      13.497      12.362      11.971      12.362      13.497    
  15.219      17.210      19.039      20.347      13.939      13.759      13.267      12.602      11.960      11.552    
  11.598      12.362      14.102      16.879      20.358      24.838      31.622      38.450      41.359      38.450    
  31.622      24.838      20.358      16.879      14.102      12.362      11.598      11.552      11.960      12.602    
  13.267      13.759      10.648      10.588      10.456      10.358      10.388      10.681      11.552      13.497    
  16.879      21.490      29.971      47.883      72.959      95.482      104.56      95.482      72.959      47.883    
  29.971      21.490      16.879      13.497      11.552      10.681      10.388      10.358      10.456      10.588    
  9.1913      9.1374      9.1029      9.2747      9.6755      10.388      11.960      15.219      20.358      29.971    
  56.076      103.35      161.97      211.29      230.62      211.29      161.97      103.35      56.076      29.971    
  20.358      15.219      11.960      10.388      9.6755      9.2747      9.1029      9.1374      7.9640      7.8971    
  7.9576      8.4622      9.2747      10.358      12.602      17.210      24.838      47.883      103.35      192.67    
  296.67      381.45      414.25      381.45      296.67      192.67      103.35      47.883      24.838      17.210    
  12.602      10.358      9.2747      8.4622      7.9576      7.8971      7.3034      7.1666      7.2096      7.9576    
  9.1029      10.456      13.267      19.039      31.622      72.959      161.97      296.67      448.79      571.06    
  618.12      571.06      448.79      296.67      161.97      72.959      31.622      19.039      13.267      10.456    
  9.1029      7.9576      7.2096      7.1666      7.6046      7.3311      7.1666      7.8971      9.1374      10.588    
  13.759      20.347      38.450      95.482      211.29      381.45      571.06      722.68      780.92      722.68    
  571.06      381.45      211.29      95.482      38.450      20.347      13.759      10.588      9.1374      7.8971    
  7.1666      7.3311      7.9540      7.6046      7.3034      7.9640      9.1913      10.648      13.939      20.862    
  41.359      104.56      230.62      414.25      618.12      780.92      843.44      780.92      618.12      414.25    
  230.62      104.56      41.359      20.862      13.939      10.648      9.1913      7.9640      7.3034      7.6046    
  7.6046      7.3311      7.1666      7.8971      9.1374      10.588      13.759      20.347      38.450      95.482    
  211.29      381.45      571.06      722.68      780.92      722.68      571.06      381.45      211.29      95.482    
  38.450      20.347      13.759      10.588      9.1374      7.8971      7.1666      7.3311      7.3034      7.1666    
  7.2096      7.9576      9.1029      10.456      13.267      19.039      31.622      72.959      161.97      296.67    
  448.79      571.06      618.12      571.06      448.79      296.67      161.97      72.959      31.622      19.039    
  13.267      10.456      9.1029      7.9576      7.2096      7.1666      7.9640      7.8971      7.9576      8.4622    
  9.2747      10.358      12.602      17.210      24.838      47.883      103.35      192.67      296.67      381.45    
  414.25      381.45      296.67      192.67      103.35      47.883      24.838      17.210      12.602      10.358    
  9.2747      8.4622      7.9576      7.8971      9.1913      9.1374      9.1029      9.2747      9.6755      10.388    
  11.960      15.219      20.358      29.971      56.076      103.35      161.97      211.29      230.62      211.29    
  161.97      103.35      56.076      29.971      20.358      15.219      11.960      10.388      9.6755      9.2747    
  9.1029      9.1374      10.648      10.588      10.456      10.358      10.388      10.681      11.552      13.497    
  16.879      21.490      29.971      47.883      72.959      95.482      104.56      95.482      72.959      47.883    
  29.971      21.490      16.879      13.497      11.552      10.681      10.388      10.358      10.456      10.588    
  13.939      13.759      13.267      12.602      11.960      11.552      11.598      12.362      14.102      16.879    
  20.358      24.838      31.622      38.450      41.359      38.450      31.622      24.838      20.358      16.879    
  14.102      12.362      11.598      11.552      11.960      12.602      13.267      13.759      20.862      20.347    
  19.039      17.210      15.219      13.497      12.362      11.971      12.362      13.497      15.219      17.210    
  19.039      20.347      20.862      20.347      19.039      17.210      15.219      13.497      12.362      11.971    
  12.362      13.497      15.219      17.210      19.039      20.347      41.359      38.450      31.622      24.838    
  20.358      16.879      14.102      12.362      11.598      11.552      11.960      12.602      13.267      13.759    
  13.939      13.759      13.267      12.602      11.960      11.552      11.598      12.362      14.102      16.879    
  20.358      24.838      31.622      38.450      104.56      95.482      72.959      47.883      29.971      21.490    
  16.879      13.497      11.552      10.681      10.388      10.358      10.456      10.588      10.648      10.588    
  10.456      10.358      10.388      10.681      11.552      13.497      16.879      21.490      29.971      47.883    
  72.959      95.482      230.62      211.29      161.97      103.35      56.076      29.971      20.358      15.219    
  11.960      10.388      9.6755      9.2747      9.1029      9.1374      9.1913      9.1374      9.1029      9.2747    
  9.6755      10.388      11.960      15.219      20.358      29.971      56.076      103.35      161.97      211.29    
  414.25      381.45      296.67      192.67      103.35      47.883      24.838      17.210      12.602      10.358    
  9.2747      8.4622      7.9576      7.8971      7.9640      7.8971      7.9576      8.4622      9.2747      10.358    
  12.602      17.210      24.838      47.883      103.35      192.67      296.67      381.45      618.12      571.06    
  448.79      296.67      161.97      72.959      31.622      19.039      13.267      10.456      9.1029      7.9576    
  7.2096      7.1666      7.3034      7.1666      7.2096      7.9576      9.1029      10.456      13.267      19.039    
  31.622      72.959      161.97      296.67      448.79      571.06      780.92      722.68      571.06      381.45    
  211.29      95.482      38.450      20.347      13.759      10.588      9.1374      7.8971      7.1666      7.3311    
  7.6046      7.3311      7.1666      7.8971      9.1374      10.588      13.759      20.347      38.450      95.482    
  211.29      381.45      571.06      722.68      780.92      722.68      571.06      381.45      211.29      95.482    
  38.450      20.347      13.759      10.588      9.1374      7.8971      7.1666      7.3311      7.6046      7.3311    
  7.1666      7.8971      9.1374      10.588      13.759      20.347      38.450      95.482      211.29      381.45    
  571.06      722.68      722.68      668.43      527.28      351.01      193.46      87.219      35.870      19.874    
  13.584      10.535      9.1015      7.8606      7.0768      7.1241      7.3311      7.1241      7.0768      7.8606    
  9.1015      10.535      13.584      19.874      35.870      87.219      193.46      351.01      527.28      668.43    
  571.06      527.28      413.57      272.42      148.08      66.802      29.848      18.622      13.107      10.419    
  9.0994      7.9721      7.1988      7.0768      7.1666      7.0768      7.1988      7.9721      9.0994      10.419    
  13.107      18.622      29.848      66.802      148.08      272.42      413.57      527.28      381.45      351.01    
  272.42      176.35      94.421      44.268      23.902      16.845      12.464      10.330      9.2849      8.4916    
  7.9721      7.8606      7.8971      7.8606      7.9721      8.4916      9.2849      10.330      12.464      16.845    
  23.902      44.268      94.421      176.35      272.42      351.01      211.29      193.46      148.08      94.421    
  51.611      28.409      19.849      14.927      11.843      10.357      9.6757      9.2849      9.0994      9.1015    
  9.1374      9.1015      9.0994      9.2849      9.6757      10.357      11.843      14.927      19.849      28.409    
  51.611      94.421      148.08      193.46      95.482      87.219      66.802      44.268      28.409      20.914    
  16.494      13.279      11.447      10.630      10.357      10.330      10.419      10.535      10.588      10.535    
  10.419      10.330      10.357      10.630      11.447      13.279      16.494      20.914      28.409      44.268    
  66.802      87.219      38.450      35.870      29.848      23.902      19.849      16.494      13.845      12.200    
  11.484      11.447      11.843      12.464      13.107      13.584      13.759      13.584      13.107      12.464    
  11.843      11.447      11.484      12.200      13.845      16.494      19.849      23.902      29.848      35.870    
  20.347      19.874      18.622      16.845      14.927      13.279      12.200      11.829      12.200      13.279    
  14.927      16.845      18.622      19.874      20.347      19.874      18.622      16.845      14.927      13.279    
  12.200      11.829      12.200      13.279      14.927      16.845      18.622      19.874      13.759      13.584    
  13.107      12.464      11.843      11.447      11.484      12.200      13.845      16.494      19.849      23.902    
  29.848      35.870      38.450      35.870      29.848      23.902      19.849      16.494      13.845      12.200    
  11.484      11.447      11.843      12.464      13.107      13.584      10.588      10.535      10.419      10.330    
  10.357      10.630      11.447      13.279      16.494      20.914      28.409      44.268      66.802      87.219    
  95.482      87.219      66.802      44.268      28.409      20.914      16.494      13.279      11.447      10.630    
  10.357      10.330      10.419      10.535      9.1374      9.1015      9.0994      9.2849      9.6757      10.357    
  11.843      14.927      19.849      28.409      51.611      94.421      148.08      193.46      211.29      193.46    
  148.08      94.421      51.611      28.409      19.849      14.927      11.843      10.357      9.6757      9.2849    
  9.0994      9.1015      7.8971      7.8606      7.9721      8.4916      9.2849      10.330      12.464      16.845    
  23.902      44.268      94.421      176.35      272.42      351.01      381.45      351.01      272.42      176.35    
  94.421      44.268      23.902      16.845      12.464      10.330      9.2849      8.4916      7.9721      7.8606    
  7.1666      7.0768      7.1988      7.9721      9.0994      10.419      13.107      18.622      29.848      66.802    
  148.08      272.42      413.57      527.28      571.06      527.28      413.57      272.42      148.08      66.802    
  29.848      18.622      13.107      10.419      9.0994      7.9721      7.1988      7.0768      7.3311      7.1241    
  7.0768      7.8606      9.1015      10.535      13.584      19.874      35.870      87.219      193.46      351.01    
  527.28      668.43      722.68      668.43      527.28      351.01      193.46      87.219      35.870      19.874    
  13.584      10.535      9.1015      7.8606      7.0768      7.1241      7.6046      7.3311      7.1666      7.8971    
  9.1374      10.588      13.759      20.347      38.450      95.482      211.29      381.45      571.06      722.68    
  780.92      722.68      571.06      381.45      211.29      95.482      38.450      20.347      13.759      10.588    
  9.1374      7.8971      7.1666      7.3311      7.3311      7.1241      7.0768      7.8606      9.1015      10.535    
  13.584      19.874      35.870      87.219      193.46      351.01      527.28      668.43      722.68      668.43    
  527.28      351.01      193.46      87.219      35.870      19.874      13.584      10.535      9.1015      7.8606    
  7.0768      7.1241      7.1666      7.0768      7.1988      7.9721      9.0994      10.419      13.107      18.622    
  29.848      66.802      148.08      272.42      413.57      527.28      571.06      527.28      413.57      272.42    
  148.08      66.802      29.848      18.622      13.107      10.419      9.0994      7.9721      7.1988      7.0768    
  7.8971      7.8606      7.9721      8.4916      9.2849      10.330      12.464      16.845      23.902      44.268    
  94.421      176.35      272.42      351.01      381.45      351.01      272.42      176.35      94.421      44.268    
  23.902      16.845      12.464      10.330      9.2849      8.4916      7.9721      7.8606      9.1374      9.1015    
  9.0994      9.2849      9.6757      10.357      11.843      14.927      19.849      28.409      51.611      94.421    
  148.08      193.46      211.29      193.46      148.08      94.421      51.611      28.409      19.849      14.927    
  11.843      10.357      9.6757      9.2849      9.0994      9.1015      10.588      10.535      10.419      10.330    
  10.357      10.630      11.447      13.279      16.494      20.914      28.409      44.268      66.802      87.219    
  95.482      87.219      66.802      44.268      28.409      20.914      16.494      13.279      11.447      10.630    
  10.357      10.330      10.419      10.535      13.759      13.584      13.107      12.464      11.843      11.447    
  11.484      12.200      13.845      16.494      19.849      23.902      29.848      35.870      38.450      35.870    
  29.848      23.902      19.849      16.494      13.845      12.200      11.484      11.447      11.843      12.464    
  13.107      13.584      20.347      19.874      18.622      16.845      14.927      13.279      12.200      11.829    
  12.200      13.279      14.927      16.845      18.622      19.874      20.347      19.874      18.622      16.845    
  14.927      13.279      12.200      11.829      12.200      13.279      14.927      16.845      18.622      19.874    
  38.450      35.870      29.848      23.902      19.849      16.494      13.845      12.200      11.484      11.447    
  11.843      12.464      13.107      13.584      13.759      13.584      13.107      12.464      11.843      11.447    
  11.484      12.200      13.845      16.494      19.849      23.902      29.848      35.870      95.482      87.219    
  66.802      44.268      28.409      20.914      16.494      13.279      11.447      10.630      10.357      10.330    
  10.419      10.535      10.588      10.535      10.419      10.330      10.357      10.630      11.447      13.279    
  16.494      20.914      28.409      44.268      66.802      87.219      211.29      193.46      148.08      94.421    
  51.611      28.409      19.849      14.927      11.843      10.357      9.6757      9.2849      9.0994      9.1015    
  9.1374      9.1015      9.0994      9.2849      9.6757      10.357      11.843      14.927      19.849      28.409    
  51.611      94.421      148.08      193.46      381.45      351.01      272.42      176.35      94.421      44.268    
  23.902      16.845      12.464      10.330      9.2849      8.4916      7.9721      7.8606      7.8971      7.8606    
  7.9721      8.4916      9.2849      10.330      12.464      16.845      23.902      44.268      94.421      176.35    
  272.42      351.01      571.06      527.28      413.57      272.42      148.08      66.802      29.848      18.622    
  13.107      10.419      9.0994      7.9721      7.1988      7.0768      7.1666      7.0768      7.1988      7.9721    
  9.0994      10.419      13.107      18.622      29.848      66.802      148.08      272.42      413.57      527.28    
  722.68      668.43      527.28      351.01      193.46      87.219      35.870      19.874      13.584      10.535    
  9.1015      7.8606      7.0768      7.1241      7.3311      7.1241      7.0768      7.8606      9.1015      10.535    
  13.584      19.874      35.870      87.219      193.46      351.01      527.28      668.43      618.12      571.06    
  448.79      296.67      161.97      72.959      31.622      19.039      13.267      10.456      9.1029      7.9576    
  7.2096      7.1666      7.3034      7.1666      7.2096      7.9576      9.1029      10.456      13.267      19.039    
  31.622      72.959      161.97      296.67      448.79      571.06      571.06      527.28      413.57      272.42    
  148.08      66.802      29.848      18.622      13.107      10.419      9.0994      7.9721      7.1988      7.0768    
  7.1666      7.0768      7.1988      7.9721      9.0994      10.419      13.107      18.622      29.848      66.802    
  148.08      272.42      413.57      527.28      448.79      413.57      322.38      210.12      112.97      51.779    
  25.756      17.469      12.673      10.332      9.1497      8.1518      7.4230      7.1988      7.2096      7.1988    
  7.4230      8.1518      9.1497      10.332      12.673      17.469      25.756      51.779      112.97      210.12    
  322.38      413.57      296.67      272.42      210.12      134.85      72.230      35.659      21.707      15.849    
  12.090      10.260      9.3419      8.6442      8.1518      7.9721      7.9576      7.9721      8.1518      8.6442    
  9.3419      10.260      12.090      15.849      21.707      35.659      72.230      134.85      210.12      272.42    
  161.97      148.08      112.97      72.230      40.852      24.792      18.443      14.139      11.532      10.277    
  9.6887      9.3419      9.1497      9.0994      9.1029      9.0994      9.1497      9.3419      9.6887      10.277    
  11.532      14.139      18.443      24.792      40.852      72.230      112.97      148.08      72.959      66.802    
  51.779      35.659      24.792      19.380      15.451      12.701      11.174      10.500      10.277      10.260    
  10.332      10.419      10.456      10.419      10.332      10.260      10.277      10.500      11.174      12.701    
  15.451      19.380      24.792      35.659      51.779      66.802      31.622      29.848      25.756      21.707    
  18.443      15.451      13.161      11.775      11.188      11.174      11.532      12.090      12.673      13.107    
  13.267      13.107      12.673      12.090      11.532      11.174      11.188      11.775      13.161      15.451    
  18.443      21.707      25.756      29.848      19.039      18.622      17.469      15.849      14.139      12.701    
  11.775      11.460      11.775      12.701      14.139      15.849      17.469      18.622      19.039      18.622    
  17.469      15.849      14.139      12.701      11.775      11.460      11.775      12.701      14.139      15.849    
  17.469      18.622      13.267      13.107      12.673      12.090      11.532      11.174      11.188      11.775    
  13.161      15.451      18.443      21.707      25.756      29.848      31.622      29.848      25.756      21.707    
  18.443      15.451      13.161      11.775      11.188      11.174      11.532      12.090      12.673      13.107    
  10.456      10.419      10.332      10.260      10.277      10.500      11.174      12.701      15.451      19.380    
  24.792      35.659      51.779      66.802      72.959      66.802      51.779      35.659      24.792      19.380    
  15.451      12.701      11.174      10.500      10.277      10.260      10.332      10.419      9.1029      9.0994    
  9.1497      9.3419      9.6887      10.277      11.532      14.139      18.443      24.792      40.852      72.230    
  112.97      148.08      161.97      148.08      112.97      72.230      40.852      24.792      18.443      14.139    
  11.532      10.277      9.6887      9.3419      9.1497      9.0994      7.9576      7.9721      8.1518      8.6442    
  9.3419      10.260      12.090      15.849      21.707      35.659      72.230      134.85      210.12      272.42    
  296.67      272.42      210.12      134.85      72.230      35.659      21.707      15.849      12.090      10.260    
  9.3419      8.6442      8.1518      7.9721      7.2096      7.1988      7.4230      8.1518      9.1497      10.332    
  12.673      17.469      25.756      51.779      112.97      210.12      322.38      413.57      448.79      413.57    
  322.38      210.12      112.97      51.779      25.756      17.469      12.673      10.332      9.1497      8.1518    
  7.4230      7.1988      7.1666      7.0768      7.1988      7.9721      9.0994      10.419      13.107      18.622    
  29.848      66.802      148.08      272.42      413.57      527.28      571.06      527.28      413.57      272.42    
  148.08      66.802      29.848      18.622      13.107      10.419      9.0994      7.9721      7.1988      7.0768    
  7.3034      7.1666      7.2096      7.9576      9.1029      10.456      13.267      19.039      31.622      72.959    
  161.97      296.67      448.79      571.06      618.12      571.06      448.79      296.67      161.97      72.959    
  31.622      19.039      13.267      10.456      9.1029      7.9576      7.2096      7.1666      7.1666      7.0768    
  7.1988      7.9721      9.0994      10.419      13.107      18.622      29.848      66.802      148.08      272.42    
  413.57      527.28      571.06      527.28      413.57      272.42      148.08      66.802      29.848      18.622    
  13.107      10.419      9.0994      7.9721      7.1988      7.0768      7.2096      7.1988      7.4230      8.1518    
  9.1497      10.332      12.673      17.469      25.756      51.779      112.97      210.12      322.38      413.57    
  448.79      413.57      322.38      210.12      112.97      51.779      25.756      17.469      12.673      10.332    
  9.1497      8.1518      7.4230      7.1988      7.9576      7.9721      8.1518      8.6442      9.3419      10.260    
  12.090      15.849      21.707      35.659      72.230      134.85      210.12      272.42      296.67      272.42    
  210.12      134.85      72.230      35.659      21.707      15.849      12.090      10.260      9.3419      8.6442    
  8.1518      7.9721      9.1029      9.0994      9.1497      9.3419      9.6887      10.277      11.532      14.139    
  18.443      24.792      40.852      72.230      112.97      148.08      161.97      148.08      112.97      72.230    
  40.852      24.792      18.443      14.139      11.532      10.277      9.6887      9.3419      9.1497      9.0994    
  10.456      10.419      10.332      10.260      10.277      10.500      11.174      12.701      15.451      19.380    
  24.792      35.659      51.779      66.802      72.959      66.802      51.779      35.659      24.792      19.380    
  15.451      12.701      11.174      10.500      10.277      10.260      10.332      10.419      13.267      13.107    
  12.673      12.090      11.532      11.174      11.188      11.775      13.161      15.451      18.443      21.707    
  25.756      29.848      31.622      29.848      25.756      21.707      18.443      15.451      13.161      11.775    
  11.188      11.174      11.532      12.090      12.673      13.107      19.039      18.622      17.469      15.849    
  14.139      12.701      11.775      11.460      11.775      12.701      14.139      15.849      17.469      18.622    
  19.039      18.622      17.469      15.849      14.139      12.701      11.775      11.460      11.775      12.701    
  14.139      15.849      17.469      18.622      31.622      29.848      25.756      21.707      18.443      15.451    
  13.161      11.775      11.188      11.174      11.532      12.090      12.673      13.107      13.267      13.107    
  12.673      12.090      11.532      11.174      11.188      11.775      13.161      15.451      18.443      21.707    
  25.756      29.848      72.959      66.802      51.779      35.659      24.792      19.380      15.451      12.701    
  11.174      10.500      10.277      10.260      10.332      10.419      10.456      10.419      10.332      10.260    
  10.277      10.500      11.174      12.701      15.451      19.380      24.792      35.659      51.779      66.802    
  161.97      148.08      112.97      72.230      40.852      24.792      18.443      14.139      11.532      10.277    
  9.6887      9.3419      9.1497      9.0994      9.1029      9.0994      9.1497      9.3419      9.6887      10.277    
  11.532      14.139      18.443      24.792      40.852      72.230      112.97      148.08      296.67      272.42    
  210.12      134.85      72.230      35.659      21.707      15.849      12.090      10.260      9.3419      8.6442    
  8.1518      7.9721      7.9576      7.9721      8.1518      8.6442      9.3419      10.260      12.090      15.849    
  21.707      35.659      72.230      134.85      210.12      272.42      448.79      413.57      322.38      210.12    
  112.97      51.779      25.756      17.469      12.673      10.332      9.1497      8.1518      7.4230      7.1988    
  7.2096      7.1988      7.4230      8.1518      9.1497      10.332      12.673      17.469      25.756      51.779    
  112.97      210.12      322.38      413.57      571.06      527.28      413.57      272.42      148.08      66.802    
  29.848      18.622      13.107      10.419      9.0994      7.9721      7.1988      7.0768      7.1666      7.0768    
  7.1988      7.9721      9.0994      10.419      13.107      18.622      29.848      66.802      148.08      272.42    
  413.57      527.28      414.25      381.45      296.67      192.67      103.35      47.883      24.838      17.210    
  12.602      10.358      9.2747      8.4622      7.9576      7.8971      7.9640      7.8971      7.9576      8.4622    
  9.2747      10.358      12.602      17.210      24.838      47.883      103.35      192.67      296.67      381.45    
  381.45      351.01      272.42      176.35      94.421      44.268      23.902      16.845      12.464      10.330    
  9.2849      8.4916      7.9721      7.8606      7.8971      7.8606      7.9721      8.4916      9.2849      10.330    
  12.464      16.845      23.902      44.268      94.421      176.35      272.42      351.01      296.67      272.42    
  210.12      134.85      72.230      35.659      21.707      15.849      12.090      10.260      9.3419      8.6442    
  8.1518      7.9721      7.9576      7.9721      8.1518      8.6442      9.3419      10.260      12.090      15.849    
  21.707      35.659      72.230      134.85      210.12      272.42      192.67      176.35      134.85      86.025    
  47.433      26.867      19.177      14.485      11.597      10.193      9.4878      8.9904      8.6442      8.4916    