unknown system                          
   1.00000000000000     
     3.635000    0.000000    0.000000
     0.000000    3.635000    0.000000
     0.000000    0.000000    3.635000
   Cu
     4
Direct
  0.000000  0.000000  0.000000
  0.500000  0.500000  0.000000
  0.500000  0.000000  0.500000
  0.000000  0.500000  0.500000
 
   28   28   28
 0.84343584827E+03 0.78091989857E+03 0.61811585414E+03 0.41424671339E+03 0.23062444448E+03
 0.10456186759E+03 0.41359235561E+02 0.20862181242E+02 0.13938883497E+02 0.10648131552E+02
 0.91912503417E+01 0.79639891958E+01 0.73033747626E+01 0.76045679151E+01 0.79540366445E+01
 0.76045679151E+01 0.73033747626E+01 0.79639891958E+01 0.91912503417E+01 0.10648131552E+02
 0.13938883497E+02 0.20862181242E+02 0.41359235561E+02 0.10456186759E+03 0.23062444448E+03
 0.41424671339E+03 0.61811585414E+03 0.78091989857E+03 0.78091989857E+03 0.72268044574E+03
 0.57106479794E+03 0.38145156453E+03 0.21129415475E+03 0.95481565510E+02 0.38449512572E+02
 0.20347219867E+02 0.13758572231E+02 0.10587637694E+02 0.91374326876E+01 0.78971145184E+01
 0.71665660765E+01 0.73310612867E+01 0.76045679151E+01 0.73310612867E+01 0.71665660765E+01
 0.78971145184E+01 0.91374326876E+01 0.10587637694E+02 0.13758572231E+02 0.20347219867E+02
 0.38449512572E+02 0.95481565510E+02 0.21129415475E+03 0.38145156453E+03 0.57106479794E+03
 0.72268044574E+03 0.61811585414E+03 0.57106479794E+03 0.44878584860E+03 0.29667318623E+03
 0.16197348979E+03 0.72958633987E+02 0.31622130161E+02 0.19038797645E+02 0.13266828205E+02
 0.10456409067E+02 0.91029329292E+01 0.79575773520E+01 0.72095559925E+01 0.71665660765E+01
 0.73033747626E+01 0.71665660765E+01 0.72095559925E+01 0.79575773520E+01 0.91029329292E+01
 0.10456409067E+02 0.13266828205E+02 0.19038797645E+02 0.31622130161E+02 0.72958633987E+02
 0.16197348979E+03 0.29667318623E+03 0.44878584860E+03 0.57106479794E+03 0.41424671339E+03
 0.38145156453E+03 0.29667318623E+03 0.19267478509E+03 0.10335145473E+03 0.47883165501E+02
 0.24838363329E+02 0.17209725825E+02 0.12602317178E+02 0.10358368836E+02 0.92746891436E+01
 0.84622438250E+01 0.79575773520E+01 0.78971145184E+01 0.79639891958E+01 0.78971145184E+01
 0.79575773520E+01 0.84622438250E+01 0.92746891436E+01 0.10358368836E+02 0.12602317178E+02
 0.17209725825E+02 0.24838363329E+02 0.47883165501E+02 0.10335145473E+03 0.19267478509E+03
 0.29667318623E+03 0.38145156453E+03 0.23062444448E+03 0.21129415475E+03 0.16197348979E+03
 0.10335145473E+03 0.56076347143E+02 0.29970511125E+02 0.20357862481E+02 0.15219170115E+02
 0.11960467054E+02 0.10388312796E+02 0.96755162886E+01 0.92746891436E+01 0.91029329292E+01
 0.91374326876E+01 0.91912503417E+01 0.91374326876E+01 0.91029329292E+01 0.92746891436E+01
 0.96755162886E+01 0.10388312796E+02 0.11960467054E+02 0.15219170115E+02 0.20357862481E+02
 0.29970511125E+02 0.56076347143E+02 0.10335145473E+03 0.16197348979E+03 0.21129415475E+03
 0.10456186759E+03 0.95481565510E+02 0.72958633987E+02 0.47883165501E+02 0.29970511125E+02
 0.21490495420E+02 0.16879444986E+02 0.13496733673E+02 0.11551663169E+02 0.10681356947E+02
 0.10388312796E+02 0.10358368836E+02 0.10456409067E+02 0.10587637694E+02 0.10648131552E+02
 0.10587637694E+02 0.10456409067E+02 0.10358368836E+02 0.10388312796E+02 0.10681356947E+02
 0.11551663169E+02 0.13496733673E+02 0.16879444986E+02 0.21490495420E+02 0.29970511125E+02
 0.47883165501E+02 0.72958633987E+02 0.95481565510E+02 0.41359235561E+02 0.38449512572E+02
 0.31622130161E+02 0.24838363329E+02 0.20357862481E+02 0.16879444986E+02 0.14101946022E+02
 0.12361843067E+02 0.11597837377E+02 0.11551663169E+02 0.11960467054E+02 0.12602317178E+02
 0.13266828205E+02 0.13758572231E+02 0.13938883497E+02 0.13758572231E+02 0.13266828205E+02
 0.12602317178E+02 0.11960467054E+02 0.11551663169E+02 0.11597837377E+02 0.12361843067E+02
 0.14101946022E+02 0.16879444986E+02 0.20357862481E+02 0.24838363329E+02 0.31622130161E+02
 0.38449512572E+02 0.20862181242E+02 0.20347219867E+02 0.19038797645E+02 0.17209725825E+02
 0.15219170115E+02 0.13496733673E+02 0.12361843067E+02 0.11970531708E+02 0.12361843067E+02
 0.13496733673E+02 0.15219170115E+02 0.17209725825E+02 0.19038797645E+02 0.20347219867E+02
 0.20862181242E+02 0.20347219867E+02 0.19038797645E+02 0.17209725825E+02 0.15219170115E+02
 0.13496733673E+02 0.12361843067E+02 0.11970531708E+02 0.12361843067E+02 0.13496733673E+02
 0.15219170115E+02 0.17209725825E+02 0.19038797645E+02 0.20347219867E+02 0.13938883497E+02
 0.13758572231E+02 0.13266828205E+02 0.12602317178E+02 0.11960467054E+02 0.11551663169E+02
 0.11597837377E+02 0.12361843067E+02 0.14101946022E+02 0.16879444986E+02 0.20357862481E+02
 0.24838363329E+02 0.31622130161E+02 0.38449512572E+02 0.41359235561E+02 0.38449512572E+02
 0.31622130161E+02 0.24838363329E+02 0.20357862481E+02 0.16879444986E+02 0.14101946022E+02
 0.12361843067E+02 0.11597837377E+02 0.11551663169E+02 0.11960467054E+02 0.12602317178E+02
 0.13266828205E+02 0.13758572231E+02 0.10648131552E+02 0.10587637694E+02 0.10456409067E+02
 0.10358368836E+02 0.10388312796E+02 0.10681356947E+02 0.11551663169E+02 0.13496733673E+02
 0.16879444986E+02 0.21490495420E+02 0.29970511125E+02 0.47883165501E+02 0.72958633987E+02
 0.95481565510E+02 0.10456186759E+03 0.95481565510E+02 0.72958633987E+02 0.47883165501E+02
 0.29970511125E+02 0.21490495420E+02 0.16879444986E+02 0.13496733673E+02 0.11551663169E+02
 0.10681356947E+02 0.10388312796E+02 0.10358368836E+02 0.10456409067E+02 0.10587637694E+02
 0.91912503417E+01 0.91374326876E+01 0.91029329292E+01 0.92746891436E+01 0.96755162886E+01
 0.10388312796E+02 0.11960467054E+02 0.15219170115E+02 0.20357862481E+02 0.29970511125E+02
 0.56076347143E+02 0.10335145473E+03 0.16197348979E+03 0.21129415475E+03 0.23062444448E+03
 0.21129415475E+03 0.16197348979E+03 0.10335145473E+03 0.56076347143E+02 0.29970511125E+02
 0.20357862481E+02 0.15219170115E+02 0.11960467054E+02 0.10388312796E+02 0.96755162886E+01
 0.92746891436E+01 0.91029329292E+01 0.91374326876E+01 0.79639891958E+01 0.78971145184E+01
 0.79575773520E+01 0.84622438250E+01 0.92746891436E+01 0.10358368836E+02 0.12602317178E+02
 0.17209725825E+02 0.24838363329E+02 0.47883165501E+02 0.10335145473E+03 0.19267478509E+03
 0.29667318623E+03 0.38145156453E+03 0.41424671339E+03 0.38145156453E+03 0.29667318623E+03
 0.19267478509E+03 0.10335145473E+03 0.47883165501E+02 0.24838363329E+02 0.17209725825E+02
 0.12602317178E+02 0.10358368836E+02 0.92746891436E+01 0.84622438250E+01 0.79575773520E+01
 0.78971145184E+01 0.73033747626E+01 0.71665660765E+01 0.72095559925E+01 0.79575773520E+01
 0.91029329292E+01 0.10456409067E+02 0.13266828205E+02 0.19038797645E+02 0.31622130161E+02
 0.72958633987E+02 0.16197348979E+03 0.29667318623E+03 0.44878584860E+03 0.57106479794E+03
 0.61811585414E+03 0.57106479794E+03 0.44878584860E+03 0.29667318623E+03 0.16197348979E+03
 0.72958633987E+02 0.31622130161E+02 0.19038797645E+02 0.13266828205E+02 0.10456409067E+02
 0.91029329292E+01 0.79575773520E+01 0.72095559925E+01 0.71665660765E+01 0.76045679151E+01
 0.73310612867E+01 0.71665660765E+01 0.78971145184E+01 0.91374326876E+01 0.10587637694E+02
 0.13758572231E+02 0.20347219867E+02 0.38449512572E+02 0.95481565510E+02 0.21129415475E+03
 0.38145156453E+03 0.57106479794E+03 0.72268044574E+03 0.78091989857E+03 0.72268044574E+03
 0.57106479794E+03 0.38145156453E+03 0.21129415475E+03 0.95481565510E+02 0.38449512572E+02
 0.20347219867E+02 0.13758572231E+02 0.10587637694E+02 0.91374326876E+01 0.78971145184E+01
 0.71665660765E+01 0.73310612867E+01 0.79540366445E+01 0.76045679151E+01 0.73033747626E+01
 0.79639891958E+01 0.91912503417E+01 0.10648131552E+02 0.13938883497E+02 0.20862181242E+02
 0.41359235561E+02 0.10456186759E+03 0.23062444448E+03 0.41424671339E+03 0.61811585414E+03
 0.78091989857E+03 0.84343584827E+03 0.78091989857E+03 0.61811585414E+03 0.41424671339E+03
 0.23062444448E+03 0.10456186759E+03 0.41359235561E+02 0.20862181242E+02 0.13938883497E+02
 0.10648131552E+02 0.91912503417E+01 0.79639891958E+01 0.73033747626E+01 0.76045679151E+01
 0.76045679151E+01 0.73310612867E+01 0.71665660765E+01 0.78971145184E+01 0.91374326876E+01
 0.10587637694E+02 0.13758572231E+02 0.20347219867E+02 0.38449512572E+02 0.95481565510E+02
 0.21129415475E+03 0.38145156453E+03 0.57106479794E+03 0.72268044574E+03 0.78091989857E+03
 0.72268044574E+03 0.57106479794E+03 0.38145156453E+03 0.21129415475E+03 0.95481565510E+02
 0.38449512572E+02 0.20347219867E+02 0.13758572231E+02 0.10587637694E+02 0.91374326876E+01
 0.78971145184E+01 0.71665660765E+01 0.73310612867E+01 0.73033747626E+01 0.71665660765E+01
 0.72095559925E+01 0.79575773520E+01 0.91029329292E+01 0.10456409067E+02 0.13266828205E+02
 0.19038797645E+02 0.31622130161E+02 0.72958633987E+02 0.16197348979E+03 0.29667318623E+03
 0.44878584860E+03 0.57106479794E+03 0.61811585414E+03 0.57106479794E+03 0.44878584860E+03
 0.29667318623E+03 0.16197348979E+03 0.72958633987E+02 0.31622130161E+02 0.19038797645E+02
 0.13266828205E+02 0.10456409067E+02 0.91029329292E+01 0.79575773520E+01 0.72095559925E+01
 0.71665660765E+01 0.79639891958E+01 0.78971145184E+01 0.79575773520E+01 0.84622438250E+01
 0.92746891436E+01 0.10358368836E+02 0.12602317178E+02 0.17209725825E+02 0.24838363329E+02
 0.47883165501E+02 0.10335145473E+03 0.19267478509E+03 0.29667318623E+03 0.38145156453E+03
 0.41424671339E+03 0.38145156453E+03 0.29667318623E+03 0.19267478509E+03 0.10335145473E+03
 0.47883165501E+02 0.24838363329E+02 0.17209725825E+02 0.12602317178E+02 0.10358368836E+02
 0.92746891436E+01 0.84622438250E+01 0.79575773520E+01 0.78971145184E+01 0.91912503417E+01
 0.91374326876E+01 0.91029329292E+01 0.92746891436E+01 0.96755162886E+01 0.10388312796E+02
 0.11960467054E+02 0.15219170115E+02 0.20357862481E+02 0.29970511125E+02 0.56076347143E+02
 0.10335145473E+03 0.16197348979E+03 0.21129415475E+03 0.23062444448E+03 0.21129415475E+03
 0.16197348979E+03 0.10335145473E+03 0.56076347143E+02 0.29970511125E+02 0.20357862481E+02
 0.15219170115E+02 0.11960467054E+02 0.10388312796E+02 0.96755162886E+01 0.92746891436E+01
 0.91029329292E+01 0.91374326876E+01 0.10648131552E+02 0.10587637694E+02 0.10456409067E+02
 0.10358368836E+02 0.10388312796E+02 0.10681356947E+02 0.11551663169E+02 0.13496733673E+02
 0.16879444986E+02 0.21490495420E+02 0.29970511125E+02 0.47883165501E+02 0.72958633987E+02
 0.95481565510E+02 0.10456186759E+03 0.95481565510E+02 0.72958633987E+02 0.47883165501E+02
 0.29970511125E+02 0.21490495420E+02 0.16879444986E+02 0.13496733673E+02 0.11551663169E+02
 0.10681356947E+02 0.10388312796E+02 0.10358368836E+02 0.10456409067E+02 0.10587637694E+02
 0.13938883497E+02 0.13758572231E+02 0.13266828205E+02 0.12602317178E+02 0.11960467054E+02
 0.11551663169E+02 0.11597837377E+02 0.12361843067E+02 0.14101946022E+02 0.16879444986E+02
 0.20357862481E+02 0.24838363329E+02 0.31622130161E+02 0.38449512572E+02 0.41359235561E+02
 0.38449512572E+02 0.31622130161E+02 0.24838363329E+02 0.20357862481E+02 0.16879444986E+02
 0.14101946022E+02 0.12361843067E+02 0.11597837377E+02 0.11551663169E+02 0.11960467054E+02
 0.12602317178E+02 0.13266828205E+02 0.13758572231E+02 0.20862181242E+02 0.20347219867E+02
 0.19038797645E+02 0.17209725825E+02 0.15219170115E+02 0.13496733673E+02 0.12361843067E+02
 0.11970531708E+02 0.12361843067E+02 0.13496733673E+02 0.15219170115E+02 0.17209725825E+02
 0.19038797645E+02 0.20347219867E+02 0.20862181242E+02 0.20347219867E+02 0.19038797645E+02
 0.17209725825E+02 0.15219170115E+02 0.13496733673E+02 0.12361843067E+02 0.11970531708E+02
 0.12361843067E+02 0.13496733673E+02 0.15219170115E+02 0.17209725825E+02 0.19038797645E+02
 0.20347219867E+02 0.41359235561E+02 0.38449512572E+02 0.31622130161E+02 0.24838363329E+02
 0.20357862481E+02 0.16879444986E+02 0.14101946022E+02 0.12361843067E+02 0.11597837377E+02
 0.11551663169E+02 0.11960467054E+02 0.12602317178E+02 0.13266828205E+02 0.13758572231E+02
 0.13938883497E+02 0.13758572231E+02 0.13266828205E+02 0.12602317178E+02 0.11960467054E+02
 0.11551663169E+02 0.11597837377E+02 0.12361843067E+02 0.14101946022E+02 0.16879444986E+02
 0.20357862481E+02 0.24838363329E+02 0.31622130161E+02 0.38449512572E+02 0.10456186759E+03
 0.95481565510E+02 0.72958633987E+02 0.47883165501E+02 0.29970511125E+02 0.21490495420E+02
 0.16879444986E+02 0.13496733673E+02 0.11551663169E+02 0.10681356947E+02 0.10388312796E+02
 0.10358368836E+02 0.10456409067E+02 0.10587637694E+02 0.10648131552E+02 0.10587637694E+02
 0.10456409067E+02 0.10358368836E+02 0.10388312796E+02 0.10681356947E+02 0.11551663169E+02
 0.13496733673E+02 0.16879444986E+02 0.21490495420E+02 0.29970511125E+02 0.47883165501E+02
 0.72958633987E+02 0.95481565510E+02 0.23062444448E+03 0.21129415475E+03 0.16197348979E+03
 0.10335145473E+03 0.56076347143E+02 0.29970511125E+02 0.20357862481E+02 0.15219170115E+02
 0.11960467054E+02 0.10388312796E+02 0.96755162886E+01 0.92746891436E+01 0.91029329292E+01
 0.91374326876E+01 0.91912503417E+01 0.91374326876E+01 0.91029329292E+01 0.92746891436E+01
 0.96755162886E+01 0.10388312796E+02 0.11960467054E+02 0.15219170115E+02 0.20357862481E+02
 0.29970511125E+02 0.56076347143E+02 0.10335145473E+03 0.16197348979E+03 0.21129415475E+03
 0.41424671339E+03 0.38145156453E+03 0.29667318623E+03 0.19267478509E+03 0.10335145473E+03
 0.47883165501E+02 0.24838363329E+02 0.17209725825E+02 0.12602317178E+02 0.10358368836E+02
 0.92746891436E+01 0.84622438250E+01 0.79575773520E+01 0.78971145184E+01 0.79639891958E+01
 0.78971145184E+01 0.79575773520E+01 0.84622438250E+01 0.92746891436E+01 0.10358368836E+02
 0.12602317178E+02 0.17209725825E+02 0.24838363329E+02 0.47883165501E+02 0.10335145473E+03
 0.19267478509E+03 0.29667318623E+03 0.38145156453E+03 0.61811585414E+03 0.57106479794E+03
 0.44878584860E+03 0.29667318623E+03 0.16197348979E+03 0.72958633987E+02 0.31622130161E+02
 0.19038797645E+02 0.13266828205E+02 0.10456409067E+02 0.91029329292E+01 0.79575773520E+01
 0.72095559925E+01 0.71665660765E+01 0.73033747626E+01 0.71665660765E+01 0.72095559925E+01
 0.79575773520E+01 0.91029329292E+01 0.10456409067E+02 0.13266828205E+02 0.19038797645E+02
 0.31622130161E+02 0.72958633987E+02 0.16197348979E+03 0.29667318623E+03 0.44878584860E+03
 0.57106479794E+03 0.78091989857E+03 0.72268044574E+03 0.57106479794E+03 0.38145156453E+03
 0.21129415475E+03 0.95481565510E+02 0.38449512572E+02 0.20347219867E+02 0.13758572231E+02
 0.10587637694E+02 0.91374326876E+01 0.78971145184E+01 0.71665660765E+01 0.73310612867E+01
 0.76045679151E+01 0.73310612867E+01 0.71665660765E+01 0.78971145184E+01 0.91374326876E+01
 0.10587637694E+02 0.13758572231E+02 0.20347219867E+02 0.38449512572E+02 0.95481565510E+02
 0.21129415475E+03 0.38145156453E+03 0.57106479794E+03 0.72268044574E+03 0.78091989857E+03
 0.72268044574E+03 0.57106479794E+03 0.38145156453E+03 0.21129415475E+03 0.95481565510E+02
 0.38449512572E+02 0.20347219867E+02 0.13758572231E+02 0.10587637694E+02 0.91374326876E+01
 0.78971145184E+01 0.71665660765E+01 0.73310612867E+01 0.76045679151E+01 0.73310612867E+01
 0.71665660765E+01 0.78971145184E+01 0.91374326876E+01 0.10587637694E+02 0.13758572231E+02
 0.20347219867E+02 0.38449512572E+02 0.95481565510E+02 0.21129415475E+03 0.38145156453E+03
 0.57106479794E+03 0.72268044574E+03 0.72268044574E+03 0.66843402660E+03 0.52727653681E+03
 0.35100979665E+03 0.19346475385E+03 0.87219042959E+02 0.35870027137E+02 0.19873862152E+02
 0.13583686467E+02 0.10534874137E+02 0.91015050449E+01 0.78605773197E+01 0.70767902911E+01
 0.71241152418E+01 0.73310612867E+01 0.71241152418E+01 0.70767902911E+01 0.78605773197E+01
 0.91015050449E+01 0.10534874137E+02 0.13583686467E+02 0.19873862152E+02 0.35870027137E+02
 0.87219042959E+02 0.19346475385E+03 0.35100979665E+03 0.52727653681E+03 0.66843402660E+03
 0.57106479794E+03 0.52727653681E+03 0.41356523647E+03 0.27242158120E+03 0.14807680909E+03
 0.66802126107E+02 0.29848158891E+02 0.18622237462E+02 0.13106961147E+02 0.10418855525E+02
 0.90993673148E+01 0.79721350879E+01 0.71988033708E+01 0.70767902911E+01 0.71665660765E+01
 0.70767902911E+01 0.71988033708E+01 0.79721350879E+01 0.90993673148E+01 0.10418855525E+02
 0.13106961147E+02 0.18622237462E+02 0.29848158891E+02 0.66802126107E+02 0.14807680909E+03
 0.27242158120E+03 0.41356523647E+03 0.52727653681E+03 0.38145156453E+03 0.35100979665E+03
 0.27242158120E+03 0.17634637555E+03 0.94420996477E+02 0.44268230529E+02 0.23901818058E+02
 0.16844808760E+02 0.12463518483E+02 0.10329759016E+02 0.92849147852E+01 0.84916327181E+01
 0.79721350879E+01 0.78605773197E+01 0.78971145184E+01 0.78605773197E+01 0.79721350879E+01
 0.84916327181E+01 0.92849147852E+01 0.10329759016E+02 0.12463518483E+02 0.16844808760E+02
 0.23901818058E+02 0.44268230529E+02 0.94420996477E+02 0.17634637555E+03 0.27242158120E+03
 0.35100979665E+03 0.21129415475E+03 0.19346475385E+03 0.14807680909E+03 0.94420996477E+02
 0.51610517109E+02 0.28409227058E+02 0.19848519910E+02 0.14926552232E+02 0.11843105808E+02
 0.10356589139E+02 0.96756744291E+01 0.92849147852E+01 0.90993673148E+01 0.91015050449E+01
 0.91374326876E+01 0.91015050449E+01 0.90993673148E+01 0.92849147852E+01 0.96756744291E+01
 0.10356589139E+02 0.11843105808E+02 0.14926552232E+02 0.19848519910E+02 0.28409227058E+02
 0.51610517109E+02 0.94420996477E+02 0.14807680909E+03 0.19346475385E+03 0.95481565510E+02
 0.87219042959E+02 0.66802126107E+02 0.44268230529E+02 0.28409227058E+02 0.20914165717E+02
 0.16494233830E+02 0.13279303161E+02 0.11447247854E+02 0.10630452755E+02 0.10356589139E+02
 0.10329759016E+02 0.10418855525E+02 0.10534874137E+02 0.10587637694E+02 0.10534874137E+02
 0.10418855525E+02 0.10329759016E+02 0.10356589139E+02 0.10630452755E+02 0.11447247854E+02
 0.13279303161E+02 0.16494233830E+02 0.20914165717E+02 0.28409227058E+02 0.44268230529E+02
 0.66802126107E+02 0.87219042959E+02 0.38449512572E+02 0.35870027137E+02 0.29848158891E+02
 0.23901818058E+02 0.19848519910E+02 0.16494233830E+02 0.13845315903E+02 0.12200295992E+02
 0.11484166935E+02 0.11447247854E+02 0.11843105808E+02 0.12463518483E+02 0.13106961147E+02
 0.13583686467E+02 0.13758572231E+02 0.13583686467E+02 0.13106961147E+02 0.12463518483E+02
 0.11843105808E+02 0.11447247854E+02 0.11484166935E+02 0.12200295992E+02 0.13845315903E+02
 0.16494233830E+02 0.19848519910E+02 0.23901818058E+02 0.29848158891E+02 0.35870027137E+02
 0.20347219867E+02 0.19873862152E+02 0.18622237462E+02 0.16844808760E+02 0.14926552232E+02
 0.13279303161E+02 0.12200295992E+02 0.11829455858E+02 0.12200295992E+02 0.13279303161E+02
 0.14926552232E+02 0.16844808760E+02 0.18622237462E+02 0.19873862152E+02 0.20347219867E+02
 0.19873862152E+02 0.18622237462E+02 0.16844808760E+02 0.14926552232E+02 0.13279303161E+02
 0.12200295992E+02 0.11829455858E+02 0.12200295992E+02 0.13279303161E+02 0.14926552232E+02
 0.16844808760E+02 0.18622237462E+02 0.19873862152E+02 0.13758572231E+02 0.13583686467E+02
 0.13106961147E+02 0.12463518483E+02 0.11843105808E+02 0.11447247854E+02 0.11484166935E+02
 0.12200295992E+02 0.13845315903E+02 0.16494233830E+02 0.19848519910E+02 0.23901818058E+02
 0.29848158891E+02 0.35870027137E+02 0.38449512572E+02 0.35870027137E+02 0.29848158891E+02
 0.23901818058E+02 0.19848519910E+02 0.16494233830E+02 0.13845315903E+02 0.12200295992E+02
 0.11484166935E+02 0.11447247854E+02 0.11843105808E+02 0.12463518483E+02 0.13106961147E+02
 0.13583686467E+02 0.10587637694E+02 0.10534874137E+02 0.10418855525E+02 0.10329759016E+02
 0.10356589139E+02 0.10630452755E+02 0.11447247854E+02 0.13279303161E+02 0.16494233830E+02
 0.20914165717E+02 0.28409227058E+02 0.44268230529E+02 0.66802126107E+02 0.87219042959E+02
 0.95481565510E+02 0.87219042959E+02 0.66802126107E+02 0.44268230529E+02 0.28409227058E+02
 0.20914165717E+02 0.16494233830E+02 0.13279303161E+02 0.11447247854E+02 0.10630452755E+02
 0.10356589139E+02 0.10329759016E+02 0.10418855525E+02 0.10534874137E+02 0.91374326876E+01
 0.91015050449E+01 0.90993673148E+01 0.92849147852E+01 0.96756744291E+01 0.10356589139E+02
 0.11843105808E+02 0.14926552232E+02 0.19848519910E+02 0.28409227058E+02 0.51610517109E+02
 0.94420996477E+02 0.14807680909E+03 0.19346475385E+03 0.21129415475E+03 0.19346475385E+03
 0.14807680909E+03 0.94420996477E+02 0.51610517109E+02 0.28409227058E+02 0.19848519910E+02
 0.14926552232E+02 0.11843105808E+02 0.10356589139E+02 0.96756744291E+01 0.92849147852E+01
 0.90993673148E+01 0.91015050449E+01 0.78971145184E+01 0.78605773197E+01 0.79721350879E+01
 0.84916327181E+01 0.92849147852E+01 0.10329759016E+02 0.12463518483E+02 0.16844808760E+02
 0.23901818058E+02 0.44268230529E+02 0.94420996477E+02 0.17634637555E+03 0.27242158120E+03
 0.35100979665E+03 0.38145156453E+03 0.35100979665E+03 0.27242158120E+03 0.17634637555E+03
 0.94420996477E+02 0.44268230529E+02 0.23901818058E+02 0.16844808760E+02 0.12463518483E+02
 0.10329759016E+02 0.92849147852E+01 0.84916327181E+01 0.79721350879E+01 0.78605773197E+01
 0.71665660765E+01 0.70767902911E+01 0.71988033708E+01 0.79721350879E+01 0.90993673148E+01
 0.10418855525E+02 0.13106961147E+02 0.18622237462E+02 0.29848158891E+02 0.66802126107E+02
 0.14807680909E+03 0.27242158120E+03 0.41356523647E+03 0.52727653681E+03 0.57106479794E+03
 0.52727653681E+03 0.41356523647E+03 0.27242158120E+03 0.14807680909E+03 0.66802126107E+02
 0.29848158891E+02 0.18622237462E+02 0.13106961147E+02 0.10418855525E+02 0.90993673148E+01
 0.79721350879E+01 0.71988033708E+01 0.70767902911E+01 0.73310612867E+01 0.71241152418E+01
 0.70767902911E+01 0.78605773197E+01 0.91015050449E+01 0.10534874137E+02 0.13583686467E+02
 0.19873862152E+02 0.35870027137E+02 0.87219042959E+02 0.19346475385E+03 0.35100979665E+03
 0.52727653681E+03 0.66843402660E+03 0.72268044574E+03 0.66843402660E+03 0.52727653681E+03
 0.35100979665E+03 0.19346475385E+03 0.87219042959E+02 0.35870027137E+02 0.19873862152E+02
 0.13583686467E+02 0.10534874137E+02 0.91015050449E+01 0.78605773197E+01 0.70767902911E+01
 0.71241152418E+01 0.76045679151E+01 0.73310612867E+01 0.71665660765E+01 0.78971145184E+01
 0.91374326876E+01 0.10587637694E+02 0.13758572231E+02 0.20347219867E+02 0.38449512572E+02
 0.95481565510E+02 0.21129415475E+03 0.38145156453E+03 0.57106479794E+03 0.72268044574E+03
 0.78091989857E+03 0.72268044574E+03 0.57106479794E+03 0.38145156453E+03 0.21129415475E+03
 0.95481565510E+02 0.38449512572E+02 0.20347219867E+02 0.13758572231E+02 0.10587637694E+02
 0.91374326876E+01 0.78971145184E+01 0.71665660765E+01 0.73310612867E+01 0.73310612867E+01
 0.71241152418E+01 0.70767902911E+01 0.78605773197E+01 0.91015050449E+01 0.10534874137E+02
 0.13583686467E+02 0.19873862152E+02 0.35870027137E+02 0.87219042959E+02 0.19346475385E+03
 0.35100979665E+03 0.52727653681E+03 0.66843402660E+03 0.72268044574E+03 0.66843402660E+03
 0.52727653681E+03 0.35100979665E+03 0.19346475385E+03 0.87219042959E+02 0.35870027137E+02
 0.19873862152E+02 0.13583686467E+02 0.10534874137E+02 0.91015050449E+01 0.78605773197E+01
 0.70767902911E+01 0.71241152418E+01 0.71665660765E+01 0.70767902911E+01 0.71988033708E+01
 0.79721350879E+01 0.90993673148E+01 0.10418855525E+02 0.13106961147E+02 0.18622237462E+02
 0.29848158891E+02 0.66802126107E+02 0.14807680909E+03 0.27242158120E+03 0.41356523647E+03
 0.52727653681E+03 0.57106479794E+03 0.52727653681E+03 0.41356523647E+03 0.27242158120E+03
 0.14807680909E+03 0.66802126107E+02 0.29848158891E+02 0.18622237462E+02 0.13106961147E+02
 0.10418855525E+02 0.90993673148E+01 0.79721350879E+01 0.71988033708E+01 0.70767902911E+01
 0.78971145184E+01 0.78605773197E+01 0.79721350879E+01 0.84916327181E+01 0.92849147852E+01
 0.10329759016E+02 0.12463518483E+02 0.16844808760E+02 0.23901818058E+02 0.44268230529E+02
 0.94420996477E+02 0.17634637555E+03 0.27242158120E+03 0.35100979665E+03 0.38145156453E+03
 0.35100979665E+03 0.27242158120E+03 0.17634637555E+03 0.94420996477E+02 0.44268230529E+02
 0.23901818058E+02 0.16844808760E+02 0.12463518483E+02 0.10329759016E+02 0.92849147852E+01
 0.84916327181E+01 0.79721350879E+01 0.78605773197E+01 0.91374326876E+01 0.91015050449E+01
 0.90993673148E+01 0.92849147852E+01 0.96756744291E+01 0.10356589139E+02 0.11843105808E+02
 0.14926552232E+02 0.19848519910E+02 0.28409227058E+02 0.51610517109E+02 0.94420996477E+02
 0.14807680909E+03 0.19346475385E+03 0.21129415475E+03 0.19346475385E+03 0.14807680909E+03
 0.94420996477E+02 0.51610517109E+02 0.28409227058E+02 0.19848519910E+02 0.14926552232E+02
 0.11843105808E+02 0.10356589139E+02 0.96756744291E+01 0.92849147852E+01 0.90993673148E+01
 0.91015050449E+01 0.10587637694E+02 0.10534874137E+02 0.10418855525E+02 0.10329759016E+02
 0.10356589139E+02 0.10630452755E+02 0.11447247854E+02 0.13279303161E+02 0.16494233830E+02
 0.20914165717E+02 0.28409227058E+02 0.44268230529E+02 0.66802126107E+02 0.87219042959E+02
 0.95481565510E+02 0.87219042959E+02 0.66802126107E+02 0.44268230529E+02 0.28409227058E+02
 0.20914165717E+02 0.16494233830E+02 0.13279303161E+02 0.11447247854E+02 0.10630452755E+02
 0.10356589139E+02 0.10329759016E+02 0.10418855525E+02 0.10534874137E+02 0.13758572231E+02
 0.13583686467E+02 0.13106961147E+02 0.12463518483E+02 0.11843105808E+02 0.11447247854E+02
 0.11484166935E+02 0.12200295992E+02 0.13845315903E+02 0.16494233830E+02 0.19848519910E+02
 0.23901818058E+02 0.29848158891E+02 0.35870027137E+02 0.38449512572E+02 0.35870027137E+02
 0.29848158891E+02 0.23901818058E+02 0.19848519910E+02 0.16494233830E+02 0.13845315903E+02
 0.12200295992E+02 0.11484166935E+02 0.11447247854E+02 0.11843105808E+02 0.12463518483E+02
 0.13106961147E+02 0.13583686467E+02 0.20347219867E+02 0.19873862152E+02 0.18622237462E+02
 0.16844808760E+02 0.14926552232E+02 0.13279303161E+02 0.12200295992E+02 0.11829455858E+02
 0.12200295992E+02 0.13279303161E+02 0.14926552232E+02 0.16844808760E+02 0.18622237462E+02
 0.19873862152E+02 0.20347219867E+02 0.19873862152E+02 0.18622237462E+02 0.16844808760E+02
 0.14926552232E+02 0.13279303161E+02 0.12200295992E+02 0.11829455858E+02 0.12200295992E+02
 0.13279303161E+02 0.14926552232E+02 0.16844808760E+02 0.18622237462E+02 0.19873862152E+02
 0.38449512572E+02 0.35870027137E+02 0.29848158891E+02 0.23901818058E+02 0.19848519910E+02
 0.16494233830E+02 0.13845315903E+02 0.12200295992E+02 0.11484166935E+02 0.11447247854E+02
 0.11843105808E+02 0.12463518483E+02 0.13106961147E+02 0.13583686467E+02 0.13758572231E+02
 0.13583686467E+02 0.13106961147E+02 0.12463518483E+02 0.11843105808E+02 0.11447247854E+02
 0.11484166935E+02 0.12200295992E+02 0.13845315903E+02 0.16494233830E+02 0.19848519910E+02
 0.23901818058E+02 0.29848158891E+02 0.35870027137E+02 0.95481565510E+02 0.87219042959E+02
 0.66802126107E+02 0.44268230529E+02 0.28409227058E+02 0.20914165717E+02 0.16494233830E+02
 0.13279303161E+02 0.11447247854E+02 0.10630452755E+02 0.10356589139E+02 0.10329759016E+02
 0.10418855525E+02 0.10534874137E+02 0.10587637694E+02 0.10534874137E+02 0.10418855525E+02
 0.10329759016E+02 0.10356589139E+02 0.10630452755E+02 0.11447247854E+02 0.13279303161E+02
 0.16494233830E+02 0.20914165717E+02 0.28409227058E+02 0.44268230529E+02 0.66802126107E+02
 0.87219042959E+02 0.21129415475E+03 0.19346475385E+03 0.14807680909E+03 0.94420996477E+02
 0.51610517109E+02 0.28409227058E+02 0.19848519910E+02 0.14926552232E+02 0.11843105808E+02
 0.10356589139E+02 0.96756744291E+01 0.92849147852E+01 0.90993673148E+01 0.91015050449E+01
 0.91374326876E+01 0.91015050449E+01 0.90993673148E+01 0.92849147852E+01 0.96756744291E+01
 0.10356589139E+02 0.11843105808E+02 0.14926552232E+02 0.19848519910E+02 0.28409227058E+02
 0.51610517109E+02 0.94420996477E+02 0.14807680909E+03 0.19346475385E+03 0.38145156453E+03
 0.35100979665E+03 0.27242158120E+03 0.17634637555E+03 0.94420996477E+02 0.44268230529E+02
 0.23901818058E+02 0.16844808760E+02 0.12463518483E+02 0.10329759016E+02 0.92849147852E+01
 0.84916327181E+01 0.79721350879E+01 0.78605773197E+01 0.78971145184E+01 0.78605773197E+01
 0.79721350879E+01 0.84916327181E+01 0.92849147852E+01 0.10329759016E+02 0.12463518483E+02
 0.16844808760E+02 0.23901818058E+02 0.44268230529E+02 0.94420996477E+02 0.17634637555E+03
 0.27242158120E+03 0.35100979665E+03 0.57106479794E+03 0.52727653681E+03 0.41356523647E+03
 0.27242158120E+03 0.14807680909E+03 0.66802126107E+02 0.29848158891E+02 0.18622237462E+02
 0.13106961147E+02 0.10418855525E+02 0.90993673148E+01 0.79721350879E+01 0.71988033708E+01
 0.70767902911E+01 0.71665660765E+01 0.70767902911E+01 0.71988033708E+01 0.79721350879E+01
 0.90993673148E+01 0.10418855525E+02 0.13106961147E+02 0.18622237462E+02 0.29848158891E+02
 0.66802126107E+02 0.14807680909E+03 0.27242158120E+03 0.41356523647E+03 0.52727653681E+03
 0.72268044574E+03 0.66843402660E+03 0.52727653681E+03 0.35100979665E+03 0.19346475385E+03
 0.87219042959E+02 0.35870027137E+02 0.19873862152E+02 0.13583686467E+02 0.10534874137E+02
 0.91015050449E+01 0.78605773197E+01 0.70767902911E+01 0.71241152418E+01 0.73310612867E+01
 0.71241152418E+01 0.70767902911E+01 0.78605773197E+01 0.91015050449E+01 0.10534874137E+02
 0.13583686467E+02 0.19873862152E+02 0.35870027137E+02 0.87219042959E+02 0.19346475385E+03
 0.35100979665E+03 0.52727653681E+03 0.66843402660E+03 0.61811585414E+03 0.57106479794E+03
 0.44878584860E+03 0.29667318623E+03 0.16197348979E+03 0.72958633987E+02 0.31622130161E+02
 0.19038797645E+02 0.13266828205E+02 0.10456409067E+02 0.91029329292E+01 0.79575773520E+01
 0.72095559925E+01 0.71665660765E+01 0.73033747626E+01 0.71665660765E+01 0.72095559925E+01
 0.79575773520E+01 0.91029329292E+01 0.10456409067E+02 0.13266828205E+02 0.19038797645E+02
 0.31622130161E+02 0.72958633987E+02 0.16197348979E+03 0.29667318623E+03 0.44878584860E+03
 0.57106479794E+03 0.57106479794E+03 0.52727653681E+03 0.41356523647E+03 0.27242158120E+03
 0.14807680909E+03 0.66802126107E+02 0.29848158891E+02 0.18622237462E+02 0.13106961147E+02
 0.10418855525E+02 0.90993673148E+01 0.79721350879E+01 0.71988033708E+01 0.70767902911E+01
 0.71665660765E+01 0.70767902911E+01 0.71988033708E+01 0.79721350879E+01 0.90993673148E+01
 0.10418855525E+02 0.13106961147E+02 0.18622237462E+02 0.29848158891E+02 0.66802126107E+02
 0.14807680909E+03 0.27242158120E+03 0.41356523647E+03 0.52727653681E+03 0.44878584860E+03