   4   4   0   0
  0.1200752E+02  0.3635000E-09  0.3635000E-09  0.3635000E-09  0.5000000E-15
  1.000000000000000E-004
  CAR 
 unknown system                          
     27.69001020     -3.83336417  301      7.22687875      1.00000000
     -3.833  0.0000E+00  0.0000E+00
     -3.728  0.0000E+00  0.0000E+00
     -3.623  0.0000E+00  0.0000E+00
     -3.518 -0.5503E-31 -0.5782E-32
     -3.413 -0.2734E-27 -0.2874E-28
     -3.308 -0.7788E-24 -0.8186E-25
     -3.203 -0.1271E-20 -0.1336E-21
     -3.098 -0.1186E-17 -0.1248E-18
     -2.993 -0.6161E-15 -0.6486E-16
     -2.888 -0.1860E-12 -0.1960E-13
     -2.783 -0.3198E-10 -0.3379E-11
     -2.678 -0.3110E-08 -0.3302E-09
     -2.572 -0.1700E-06 -0.1819E-07
     -2.467 -0.5156E-05 -0.5599E-06
     -2.362 -0.8491E-04 -0.9482E-05
     -2.257 -0.7227E-03 -0.8542E-04
     -2.152 -0.2743E-02 -0.3737E-03
     -2.047 -0.1146E-02 -0.4941E-03
     -1.942  0.2090E-01  0.1702E-02
     -1.837  0.5604E-01  0.7591E-02
     -1.732  0.5022E-01  0.1287E-01
     -1.627  0.3580E-02  0.1324E-01
     -1.522  0.3342E-01  0.1676E-01
     -1.417  0.2287E+00  0.4079E-01
     -1.311  0.3801E+00  0.8073E-01
     -1.206  0.2316E+00  0.1051E+00
     -1.101  0.4459E-01  0.1097E+00
     -0.996  0.2510E+00  0.1361E+00
     -0.891  0.6889E+00  0.2085E+00
     -0.786  0.6783E+00  0.2798E+00
     -0.681  0.2425E+00  0.3053E+00
     -0.576  0.1030E+00  0.3161E+00
     -0.471  0.3744E+00  0.3554E+00
     -0.366  0.4868E+00  0.4066E+00
     -0.261  0.2293E+00  0.4307E+00
     -0.156  0.6322E-01  0.4373E+00
     -0.051  0.2217E+00  0.4606E+00
      0.055  0.3408E+00  0.4964E+00
      0.160  0.1649E+00  0.5138E+00
      0.265  0.2245E+00  0.5373E+00
      0.370  0.9827E+00  0.6406E+00
      0.475  0.1490E+01  0.7972E+00
      0.580  0.9399E+00  0.8960E+00
      0.685  0.6371E+00  0.9629E+00
      0.790  0.1280E+01  0.1097E+01
      0.895  0.1403E+01  0.1245E+01
      1.000  0.5849E+00  0.1306E+01
      1.105 -0.8979E-02  0.1305E+01
      1.210 -0.9766E-01  0.1295E+01
      1.315 -0.7061E-01  0.1288E+01
      1.421  0.7197E-01  0.1295E+01
      1.526  0.5139E+00  0.1349E+01
      1.631  0.1225E+01  0.1478E+01
      1.736  0.1932E+01  0.1681E+01
      1.841  0.1812E+01  0.1871E+01
      1.946  0.1009E+01  0.1977E+01
      2.051  0.1173E+01  0.2101E+01
      2.156  0.2034E+01  0.2314E+01
      2.261  0.2166E+01  0.2542E+01
      2.366  0.1765E+01  0.2727E+01
      2.471  0.1589E+01  0.2894E+01
      2.576  0.2409E+01  0.3148E+01
      2.681  0.4404E+01  0.3610E+01
      2.787  0.6394E+01  0.4282E+01
      2.892  0.6679E+01  0.4984E+01
      2.997  0.5478E+01  0.5560E+01
      3.102  0.4570E+01  0.6040E+01
      3.207  0.6221E+01  0.6694E+01
      3.312  0.9726E+01  0.7716E+01
      3.417  0.1043E+02  0.8811E+01
      3.522  0.9103E+01  0.9768E+01
      3.627  0.9288E+01  0.1074E+02
      3.732  0.8762E+01  0.1166E+02
      3.837  0.7309E+01  0.1243E+02
      3.942  0.8572E+01  0.1333E+02
      4.047  0.1151E+02  0.1454E+02
      4.153  0.1370E+02  0.1598E+02
      4.258  0.1592E+02  0.1766E+02
      4.363  0.1702E+02  0.1944E+02
      4.468  0.1636E+02  0.2116E+02
      4.573  0.1461E+02  0.2270E+02
      4.678  0.1213E+02  0.2397E+02
      4.783  0.1130E+02  0.2516E+02
      4.888  0.1305E+02  0.2653E+02
      4.993  0.1473E+02  0.2808E+02
      5.098  0.1429E+02  0.2958E+02
      5.203  0.1513E+02  0.3117E+02
      5.308  0.1645E+02  0.3290E+02
      5.413  0.1352E+02  0.3432E+02
      5.519  0.1198E+02  0.3558E+02
      5.624  0.1663E+02  0.3733E+02
      5.729  0.1986E+02  0.3941E+02
      5.834  0.1518E+02  0.4101E+02
      5.939  0.7920E+01  0.4184E+02
      6.044  0.4054E+01  0.4227E+02
      6.149  0.2662E+01  0.4255E+02
      6.254  0.1899E+01  0.4275E+02
      6.359  0.1056E+01  0.4286E+02
      6.464  0.2182E+00  0.4288E+02
      6.569 -0.1075E+00  0.4287E+02
      6.674 -0.3485E-01  0.4286E+02
      6.780  0.1160E+00  0.4288E+02
      6.885  0.1356E+00  0.4289E+02
      6.990  0.6896E+00  0.4296E+02
      7.095  0.3050E+01  0.4328E+02
      7.200  0.5421E+01  0.4385E+02
      7.305  0.4556E+01  0.4433E+02
      7.410  0.1743E+01  0.4452E+02
      7.515  0.1845E-01  0.4452E+02
      7.620 -0.2340E+00  0.4449E+02
      7.725  0.3580E+00  0.4453E+02
      7.830  0.1307E+01  0.4467E+02
      7.935  0.1467E+01  0.4482E+02
      8.040  0.6265E+00  0.4489E+02
      8.146 -0.4841E-01  0.4488E+02
      8.251 -0.1191E+00  0.4487E+02
      8.356  0.3953E+00  0.4491E+02
      8.461  0.1260E+01  0.4504E+02
      8.566  0.1358E+01  0.4519E+02
      8.671  0.8244E+00  0.4527E+02
      8.776  0.1332E+01  0.4541E+02
      8.881  0.2313E+01  0.4566E+02
      8.986  0.1840E+01  0.4585E+02
      9.091  0.5316E+00  0.4591E+02
      9.196 -0.1223E+00  0.4589E+02
      9.301 -0.1531E+00  0.4588E+02
      9.406  0.2469E+00  0.4590E+02
      9.512  0.1047E+01  0.4601E+02
      9.617  0.1431E+01  0.4616E+02
      9.722  0.1653E+01  0.4634E+02
      9.827  0.2846E+01  0.4664E+02
      9.932  0.3390E+01  0.4699E+02
     10.037  0.2012E+01  0.4720E+02
     10.142  0.4700E+00  0.4725E+02
     10.247 -0.8278E-01  0.4724E+02
     10.352 -0.8689E-01  0.4723E+02
     10.457 -0.4026E-01  0.4723E+02
     10.562 -0.4302E-01  0.4723E+02
     10.667  0.5526E-01  0.4723E+02
     10.772  0.4411E+00  0.4728E+02
     10.878  0.7768E+00  0.4736E+02
     10.983  0.5497E+00  0.4742E+02
     11.088  0.9171E-01  0.4743E+02
     11.193 -0.1167E+00  0.4741E+02
     11.298  0.5361E-01  0.4742E+02
     11.403  0.7750E+00  0.4750E+02
     11.508  0.1462E+01  0.4766E+02
     11.613  0.1404E+01  0.4780E+02
     11.718  0.1454E+01  0.4796E+02
     11.823  0.1962E+01  0.4816E+02
     11.928  0.2085E+01  0.4838E+02
     12.033  0.1529E+01  0.4854E+02
     12.138  0.8639E+00  0.4863E+02
     12.244  0.5868E+00  0.4869E+02
     12.349  0.8877E+00  0.4879E+02
     12.454  0.2216E+01  0.4902E+02
     12.559  0.3008E+01  0.4934E+02
     12.664  0.1788E+01  0.4952E+02
     12.769  0.7970E+00  0.4961E+02
     12.874  0.1242E+01  0.4974E+02
     12.979  0.1293E+01  0.4987E+02
     13.084  0.5649E+00  0.4993E+02
     13.189  0.3116E+00  0.4997E+02
     13.294  0.4543E+00  0.5001E+02
     13.399  0.3025E+00  0.5005E+02
     13.504 -0.1110E-03  0.5005E+02
     13.610 -0.1798E+00  0.5003E+02
     13.715  0.7698E-01  0.5004E+02
     13.820  0.1462E+01  0.5019E+02
     13.925  0.3022E+01  0.5051E+02
     14.030  0.2478E+01  0.5077E+02
     14.135  0.6766E+00  0.5084E+02
     14.240 -0.1552E+00  0.5082E+02
     14.345  0.6281E-01  0.5083E+02
     14.450  0.8876E+00  0.5092E+02
     14.555  0.1859E+01  0.5112E+02
     14.660  0.1904E+01  0.5132E+02
     14.765  0.1005E+01  0.5142E+02
     14.871  0.6395E+00  0.5149E+02
     14.976  0.1218E+01  0.5162E+02
     15.081  0.1546E+01  0.5178E+02
     15.186  0.1598E+01  0.5195E+02
     15.291  0.1894E+01  0.5215E+02
     15.396  0.2000E+01  0.5236E+02
     15.501  0.2518E+01  0.5262E+02
     15.606  0.3089E+01  0.5295E+02
     15.711  0.1973E+01  0.5315E+02
     15.816  0.3063E+00  0.5319E+02
     15.921 -0.1718E+00  0.5317E+02
     16.026  0.4619E+00  0.5322E+02
     16.131  0.1381E+01  0.5336E+02
     16.237  0.1337E+01  0.5350E+02
     16.342  0.5145E+00  0.5356E+02
     16.447  0.3672E+00  0.5359E+02
     16.552  0.9659E+00  0.5370E+02
     16.657  0.1360E+01  0.5384E+02
     16.762  0.1508E+01  0.5400E+02
     16.867  0.1782E+01  0.5418E+02
     16.972  0.2033E+01  0.5440E+02
     17.077  0.2295E+01  0.5464E+02
     17.182  0.2320E+01  0.5488E+02
     17.287  0.1656E+01  0.5506E+02
     17.392  0.7493E+00  0.5514E+02
     17.497  0.2540E+00  0.5516E+02
     17.603  0.3296E+00  0.5520E+02
     17.708  0.1030E+01  0.5531E+02
     17.813  0.1420E+01  0.5545E+02
     17.918  0.9164E+00  0.5555E+02
     18.023  0.1066E+01  0.5566E+02
     18.128  0.2293E+01  0.5590E+02
     18.233  0.2847E+01  0.5620E+02
     18.338  0.2105E+01  0.5642E+02
     18.443  0.8535E+00  0.5651E+02
     18.548  0.3489E+00  0.5655E+02
     18.653  0.1275E+01  0.5668E+02
     18.758  0.2496E+01  0.5695E+02
     18.863  0.2450E+01  0.5720E+02
     18.969  0.1408E+01  0.5735E+02
     19.074  0.1619E+01  0.5752E+02
     19.179  0.3635E+01  0.5790E+02
     19.284  0.4176E+01  0.5834E+02
     19.389  0.2045E+01  0.5856E+02
     19.494  0.1662E+00  0.5858E+02
     19.599 -0.2068E+00  0.5855E+02
     19.704 -0.7906E-01  0.5855E+02
     19.809 -0.1900E-01  0.5854E+02
     19.914 -0.4415E-01  0.5854E+02
     20.019 -0.1091E+00  0.5853E+02
     20.124  0.7946E-01  0.5854E+02
     20.229  0.1038E+01  0.5864E+02
     20.335  0.2371E+01  0.5889E+02
     20.440  0.2677E+01  0.5918E+02
     20.545  0.1589E+01  0.5934E+02
     20.650  0.3551E+00  0.5938E+02
     20.755 -0.9485E-01  0.5937E+02
     20.860 -0.7123E-01  0.5936E+02
     20.965 -0.1577E-01  0.5936E+02
     21.070 -0.1683E-02  0.5936E+02
     21.175 -0.9512E-04  0.5936E+02
     21.280 -0.2950E-05  0.5936E+02
     21.385 -0.5106E-07  0.5936E+02
     21.490 -0.3441E-08  0.5936E+02
     21.595 -0.2437E-06  0.5936E+02
     21.701 -0.1130E-04  0.5936E+02
     21.806 -0.2896E-03  0.5936E+02
     21.911 -0.3990E-02  0.5936E+02
     22.016 -0.2771E-01  0.5936E+02
     22.121 -0.7753E-01  0.5935E+02
     22.226  0.5537E-01  0.5935E+02
     22.331  0.7583E+00  0.5943E+02
     22.436  0.1522E+01  0.5959E+02
     22.541  0.1222E+01  0.5972E+02
     22.646  0.3354E+00  0.5976E+02
     22.751 -0.6164E-01  0.5975E+02
     22.856 -0.5390E-01  0.5975E+02
     22.962 -0.1164E-01  0.5974E+02
     23.067 -0.1180E-02  0.5974E+02
     23.172 -0.6268E-04  0.5974E+02
     23.277 -0.1819E-05  0.5974E+02
     23.382 -0.2940E-07  0.5974E+02
     23.487 -0.2674E-09  0.5974E+02
     23.592 -0.1377E-11  0.5974E+02
     23.697 -0.4057E-14  0.5974E+02
     23.802  0.0000E+00  0.5974E+02
     23.907  0.0000E+00  0.5974E+02
     24.012 -0.1584E-29  0.5974E+02
     24.117 -0.7585E-26  0.5974E+02
     24.222 -0.2081E-22  0.5974E+02
     24.328 -0.3271E-19  0.5974E+02
     24.433 -0.2942E-16  0.5974E+02
     24.538 -0.1471E-13  0.5974E+02
     24.643 -0.4275E-11  0.5974E+02
     24.748 -0.7077E-09  0.5974E+02
     24.853 -0.6625E-07  0.5974E+02
     24.958 -0.3482E-05  0.5974E+02
     25.063 -0.1015E-03  0.5974E+02
     25.168 -0.1602E-02  0.5974E+02
     25.273 -0.1300E-01  0.5974E+02
     25.378 -0.4616E-01  0.5974E+02
     25.483 -0.7927E-02  0.5974E+02
     25.588  0.3749E+00  0.5978E+02
     25.694  0.9483E+00  0.5988E+02
     25.799  0.9207E+00  0.5997E+02
     25.904  0.3363E+00  0.6001E+02
     26.009 -0.1825E-01  0.6001E+02
     26.114 -0.4389E-01  0.6000E+02
     26.219 -0.1156E-01  0.6000E+02
     26.324 -0.1358E-02  0.6000E+02
     26.429 -0.8249E-04  0.6000E+02
     26.534 -0.2719E-05  0.6000E+02
     26.639 -0.4976E-07  0.6000E+02
     26.744 -0.5116E-09  0.6000E+02
     26.849 -0.2975E-11  0.6000E+02
     26.954 -0.9737E-14  0.6000E+02
     27.060  0.0000E+00  0.6000E+02
     27.165  0.0000E+00  0.6000E+02
     27.270  0.0000E+00  0.6000E+02
     27.375  0.0000E+00  0.6000E+02
     27.480  0.0000E+00  0.6000E+02
     27.585  0.0000E+00  0.6000E+02
     27.690  0.0000E+00  0.6000E+02
