       N       E                     dE             d eps       ncg     rms          rms(c)
DAV:   1     0.258551349798E+03    0.25855E+03   -0.13051E+04   616   0.145E+03
DAV:   2    -0.122736439679E+01   -0.25978E+03   -0.24914E+03   600   0.304E+02
DAV:   3    -0.181088727743E+02   -0.16882E+02   -0.16038E+02   666   0.111E+02
DAV:   4    -0.183785340110E+02   -0.26966E+00   -0.26950E+00   678   0.176E+01
DAV:   5    -0.183817648071E+02   -0.32308E-02   -0.32307E-02   688   0.187E+00    0.156E+01
DAV:   6    -0.161560924983E+02    0.22257E+01   -0.31051E+01   648   0.101E+02    0.827E+00
DAV:   7    -0.146076406395E+02    0.15485E+01   -0.57693E+00   672   0.417E+01    0.917E-01
DAV:   8    -0.145803775637E+02    0.27263E-01   -0.58799E-02   702   0.229E+00    0.689E-01
DAV:   9    -0.145721206394E+02    0.82569E-02   -0.15676E-02   666   0.227E+00    0.546E-02
DAV:  10    -0.145721799683E+02   -0.59329E-04   -0.76978E-04   812   0.366E-01    0.264E-02
DAV:  11    -0.145721707056E+02    0.92627E-05   -0.27726E-05   702   0.836E-02    0.358E-03
DAV:  12    -0.145721727213E+02   -0.20158E-05   -0.21837E-06   502   0.122E-02    0.511E-04
DAV:  13    -0.145721732059E+02   -0.48461E-06   -0.11489E-07   330   0.457E-03
   1 F= -.14572173E+02 E0= -.14562848E+02  d E =-.279770E-01
