<?xml version="1.0" encoding="ISO-8859-1"?>
<modeling>
 <generator>
  <i name="program" type="string">vasp </i>
  <i name="version" type="string">6.2.0  </i>
  <i name="subversion" type="string">18Jan21 (build Mar 17 2021 09:06:54) complex                          serial </i>
  <i name="platform" type="string">LinuxIFC </i>
  <i name="date" type="string">2021 08 03 </i>
  <i name="time" type="string">10:19:48 </i>
 </generator>
 <incar>
  <i type="string" name="PREC">normal</i>
  <i type="int" name="ICHARG">     1</i>
  <i type="int" name="IBRION">    -1</i>
  <i name="EDIFF">      0.00000100</i>
  <i type="int" name="NSW">     0</i>
  <i name="ENCUT">    260.00000000</i>
  <i type="int" name="NBANDS">    30</i>
  <i type="int" name="ISMEAR">     1</i>
  <i name="SIGMA">      0.20000000</i>
  <i type="logical" name="LCHARG"> T  </i>
  <i type="int" name="KPAR">     1</i>
  <i type="int" name="NCORE">     1</i>
  <i type="string" name="GGA">PE</i>
 </incar>
 <primitive_cell>
  <structure name="primitive_cell" >
   <crystal>
    <varray name="basis" >
     <v>       1.81750000      -1.81750000       0.00000000 </v>
     <v>       1.81750000       0.00000000       1.81750000 </v>
     <v>       0.00000000      -1.81750000       1.81750000 </v>
    </varray>
    <i name="volume">     12.00751822 </i>
    <varray name="rec_basis" >
     <v>       0.27510316      -0.27510316      -0.27510316 </v>
     <v>       0.27510316       0.27510316       0.27510316 </v>
     <v>      -0.27510316      -0.27510316       0.27510316 </v>
    </varray>
   </crystal>
   <varray name="positions" >
    <v>       0.00000000       0.00000000       0.00000000 </v>
   </varray>
  </structure>
  <varray name="primitive_index" >
   <v type="int" >        1 </v>
  </varray>
 </primitive_cell>
 <kpoints>
  <generation param="Monkhorst-Pack">
   <v type="int" name="divisions">       5        5        5 </v>
   <v name="usershift">      0.00000000       0.00000000       0.00000000 </v>
   <v name="genvec1">      0.20000000       0.00000000       0.00000000 </v>
   <v name="genvec2">      0.00000000       0.20000000       0.00000000 </v>
   <v name="genvec3">      0.00000000       0.00000000       0.20000000 </v>
   <v name="shift">      0.00000000       0.00000000       0.00000000 </v>
  </generation>
  <varray name="kpointlist" >
   <v>       0.00000000       0.00000000       0.00000000 </v>
   <v>       0.20000000       0.00000000       0.00000000 </v>
   <v>       0.40000000       0.00000000       0.00000000 </v>
   <v>       0.20000000       0.20000000       0.00000000 </v>
   <v>       0.40000000       0.20000000       0.00000000 </v>
   <v>       0.40000000       0.40000000       0.00000000 </v>
   <v>       0.20000000       0.20000000       0.20000000 </v>
   <v>       0.40000000       0.20000000       0.20000000 </v>
   <v>       0.40000000       0.40000000       0.20000000 </v>
   <v>       0.40000000       0.40000000       0.40000000 </v>
  </varray>
  <varray name="weights" >
   <v>       0.00800000 </v>
   <v>       0.04800000 </v>
   <v>       0.04800000 </v>
   <v>       0.09600000 </v>
   <v>       0.19200000 </v>
   <v>       0.09600000 </v>
   <v>       0.06400000 </v>
   <v>       0.19200000 </v>
   <v>       0.19200000 </v>
   <v>       0.06400000 </v>
  </varray>
 </kpoints>
 <parameters>
  <separator name="general" >
   <i type="string" name="SYSTEM">unknown system</i>
   <i type="logical" name="LCOMPAT"> F  </i>
  </separator>
  <separator name="electronic" >
   <i type="string" name="PREC">normal</i>
   <i name="ENMAX">    260.00000000</i>
   <i name="ENAUG">    586.98000000</i>
   <i name="EDIFF">      0.00000100</i>
   <i type="int" name="IALGO">    38</i>
   <i type="int" name="IWAVPR">     0</i>
   <i type="int" name="NBANDS">    30</i>
   <i type="int" name="NBANDSLOW">    -1</i>
   <i type="int" name="NBANDSHIGH">    -1</i>
   <i name="NELECT">     44.00000000</i>
   <i type="int" name="TURBO">     0</i>
   <i type="int" name="IRESTART">     0</i>
   <i type="int" name="NREBOOT">     0</i>
   <i type="int" name="NMIN">     0</i>
   <i name="EREF">      0.00000000</i>
   <separator name="electronic smearing" >
    <i type="int" name="ISMEAR">     1</i>
    <i name="SIGMA">      0.20000000</i>
    <i name="KSPACING">      0.50000000</i>
    <i type="logical" name="KGAMMA"> T  </i>
    <i type="logical" name="KBLOWUP"> T  </i>
   </separator>
   <separator name="electronic projectors" >
    <i type="logical" name="LREAL"> F  </i>
    <v name="ROPT">      0.00000000</v>
    <i type="int" name="LMAXPAW">  -100</i>
    <i type="int" name="LMAXMIX">     2</i>
    <i type="logical" name="NLSPLINE"> F  </i>
   </separator>
   <separator name="electronic startup" >
    <i type="int" name="ISTART">     0</i>
    <i type="int" name="ICHARG">     1</i>
    <i type="int" name="INIWAV">     1</i>
   </separator>
   <separator name="electronic spin" >
    <i type="int" name="ISPIN">     1</i>
    <i type="logical" name="LNONCOLLINEAR"> F  </i>
    <v name="MAGMOM">      1.00000000      1.00000000      1.00000000      1.00000000</v>
    <i name="NUPDOWN">     -1.00000000</i>
    <i type="logical" name="LSORBIT"> F  </i>
    <v name="SAXIS">      0.00000000      0.00000000      1.00000000</v>
    <i type="logical" name="LSPIRAL"> F  </i>
    <v name="QSPIRAL">      0.00000000      0.00000000      0.00000000</v>
    <i type="logical" name="LZEROZ"> F  </i>
   </separator>
   <separator name="electronic exchange-correlation" >
    <i type="logical" name="LASPH"> F  </i>
    <i type="logical" name="LMETAGGA"> F  </i>
   </separator>
   <separator name="electronic convergence" >
    <i type="int" name="NELM">    60</i>
    <i type="int" name="NELMDL">    -5</i>
    <i type="int" name="NELMIN">     2</i>
    <i name="ENINI">    260.00000000</i>
    <separator name="electronic convergence detail" >
     <i type="logical" name="LDIAG"> T  </i>
     <i type="logical" name="LSUBROT"> F  </i>
     <i name="WEIMIN">      0.00000000</i>
     <i name="EBREAK">      0.00000001</i>
     <i name="DEPER">      0.30000000</i>
     <i type="int" name="NRMM">     4</i>
     <i name="TIME">      0.40000000</i>
    </separator>
   </separator>
   <separator name="electronic mixer" >
    <i name="AMIX">      0.40000000</i>
    <i name="BMIX">      1.00000000</i>
    <i name="AMIN">      0.10000000</i>
    <i name="AMIX_MAG">      1.60000000</i>
    <i name="BMIX_MAG">      1.00000000</i>
    <separator name="electronic mixer details" >
     <i type="int" name="IMIX">     4</i>
     <i type="logical" name="MIXFIRST"> F  </i>
     <i type="int" name="MAXMIX">   -45</i>
     <i name="WC">    100.00000000</i>
     <i type="int" name="INIMIX">     1</i>
     <i type="int" name="MIXPRE">     1</i>
     <i type="int" name="MREMOVE">     5</i>
    </separator>
   </separator>
   <separator name="electronic dipolcorrection" >
    <i type="logical" name="LDIPOL"> F  </i>
    <i type="logical" name="LMONO"> F  </i>
    <i type="int" name="IDIPOL">     0</i>
    <i name="EPSILON">      1.00000000</i>
    <v name="DIPOL">   -100.00000000   -100.00000000   -100.00000000</v>
    <i name="EFIELD">      0.00000000</i>
   </separator>
  </separator>
  <separator name="grids" >
   <i type="int" name="NGX">    14</i>
   <i type="int" name="NGY">    14</i>
   <i type="int" name="NGZ">    14</i>
   <i type="int" name="NGXF">    28</i>
   <i type="int" name="NGYF">    28</i>
   <i type="int" name="NGZF">    28</i>
   <i type="logical" name="ADDGRID"> F  </i>
  </separator>
  <separator name="ionic" >
   <i type="int" name="NSW">     0</i>
   <i type="int" name="IBRION">    -1</i>
   <i type="int" name="MDALGO">     0</i>
   <i type="int" name="ISIF">     2</i>
   <i name="PSTRESS">      0.00000000</i>
   <i name="EDIFFG">      0.00001000</i>
   <i type="int" name="NFREE">     0</i>
   <i name="POTIM">      0.50000000</i>
   <i name="SMASS">     -3.00000000</i>
   <i name="SCALEE">      1.00000000</i>
  </separator>
  <separator name="ionic md" >
   <i name="TEBEG">      0.00010000</i>
   <i name="TEEND">      0.00010000</i>
   <i type="int" name="NBLOCK">     1</i>
   <i type="int" name="KBLOCK">     1</i>
   <i type="int" name="NPACO">   256</i>
   <i name="APACO">     16.00000000</i>
  </separator>
  <separator name="symmetry" >
   <i type="int" name="ISYM">     2</i>
   <i name="SYMPREC">      0.00001000</i>
  </separator>
  <separator name="dos" >
   <i type="int" name="LORBIT">     0</i>
   <v name="RWIGS">     -1.00000000</v>
   <i type="int" name="NEDOS">   301</i>
   <i name="EMIN">     10.00000000</i>
   <i name="EMAX">    -10.00000000</i>
   <i name="EFERMI">      0.00000000</i>
  </separator>
  <separator name="writing" >
   <i type="int" name="NWRITE">     2</i>
   <i type="logical" name="LWAVE"> T  </i>
   <i type="logical" name="LDOWNSAMPLE"> F  </i>
   <i type="logical" name="LCHARG"> T  </i>
   <i type="logical" name="LPARD"> F  </i>
   <i type="logical" name="LVTOT"> F  </i>
   <i type="logical" name="LVHAR"> F  </i>
   <i type="logical" name="LELF"> F  </i>
   <i type="logical" name="LOPTICS"> F  </i>
   <v name="STM">      0.00000000      0.00000000      0.00000000      0.00000000      0.00000000      0.00000000      0.00000000</v>
  </separator>
  <separator name="performance" >
   <i type="int" name="NPAR">     1</i>
   <i type="int" name="NSIM">     4</i>
   <i type="int" name="NBLK">    -1</i>
   <i type="logical" name="LPLANE"> T  </i>
   <i type="logical" name="LSCALAPACK"> F  </i>
   <i type="logical" name="LSCAAWARE"> F  </i>
   <i type="logical" name="LSCALU"> F  </i>
   <i type="logical" name="LASYNC"> F  </i>
   <i type="logical" name="LORBITALREAL"> F  </i>
  </separator>
  <separator name="miscellaneous" >
   <i type="int" name="IDIOT">     3</i>
   <i type="int" name="PHON_NSTRUCT">    -1</i>
   <i type="logical" name="LMUSIC"> F  </i>
   <v name="POMASS">     63.54600000</v>
   <v name="DARWINR">      0.00000000</v>
   <v name="DARWINV">      1.00000000</v>
   <i type="logical" name="LCORR"> T  </i>
  </separator>
  <i type="logical" name="GGA_COMPAT"> T  </i>
  <i type="logical" name="LBERRY"> F  </i>
  <i type="int" name="ICORELEVEL">     0</i>
  <i type="logical" name="LDAU"> F  </i>
  <i type="int" name="I_CONSTRAINED_M">     0</i>
  <separator name="electronic exchange-correlation" >
   <i type="string" name="GGA">PE</i>
   <i type="int" name="VOSKOWN">     0</i>
   <i type="logical" name="LHFCALC"> F  </i>
   <i type="string" name="PRECFOCK"></i>
   <i type="logical" name="LSYMGRAD"> F  </i>
   <i type="logical" name="LHFONE"> F  </i>
   <i type="logical" name="LRHFCALC"> F  </i>
   <i type="logical" name="LTHOMAS"> F  </i>
   <i type="logical" name="LMODELHF"> F  </i>
   <i type="logical" name="LFOCKACE"> F  </i>
   <i name="ENCUT4O">     -1.00000000</i>
   <i type="int" name="EXXOEP">     0</i>
   <i type="int" name="FOURORBIT">     0</i>
   <i name="AEXX">      0.00000000</i>
   <i name="HFALPHA">      0.00000000</i>
   <i name="MCALPHA">      0.00000000</i>
   <i name="ALDAX">      1.00000000</i>
   <i name="AGGAX">      1.00000000</i>
   <i name="ALDAC">      1.00000000</i>
   <i name="AGGAC">      1.00000000</i>
   <i type="int" name="NKREDX">     1</i>
   <i type="int" name="NKREDY">     1</i>
   <i type="int" name="NKREDZ">     1</i>
   <i type="logical" name="SHIFTRED"> F  </i>
   <i type="logical" name="ODDONLY"> F  </i>
   <i type="logical" name="EVENONLY"> F  </i>
   <i type="int" name="LMAXFOCK">     0</i>
   <i type="int" name="NMAXFOCKAE">     0</i>
   <i type="logical" name="LFOCKAEDFT"> F  </i>
   <i name="HFSCREEN">      0.00000000</i>
   <i name="HFSCREENC">      0.00000000</i>
   <i type="int" name="NBANDSGWLOW">     0</i>
  </separator>
  <separator name="vdW DFT" >
   <i type="logical" name="LUSE_VDW"> F  </i>
   <i name="Zab_VDW">     -0.84910000</i>
   <i name="PARAM1">      0.12340000</i>
   <i name="PARAM2">      1.00000000</i>
   <i name="PARAM3">      0.00000000</i>
  </separator>
  <separator name="model GW" >
   <i type="int" name="MODEL_GW">     0</i>
   <i name="MODEL_EPS0">      7.20451093</i>
   <i name="MODEL_ALPHA">      1.00000000</i>
  </separator>
  <separator name="linear response parameters" >
   <i type="logical" name="LEPSILON"> F  </i>
   <i type="logical" name="LRPA"> F  </i>
   <i type="logical" name="LNABLA"> F  </i>
   <i type="logical" name="LVEL"> F  </i>
   <i type="int" name="KINTER">     0</i>
   <i name="CSHIFT">      0.10000000</i>
   <i name="OMEGAMAX">     -1.00000000</i>
   <i name="DEG_THRESHOLD">      0.00200000</i>
   <i name="RTIME">     -0.10000000</i>
   <i name="WPLASMAI">      0.00000000</i>
   <v name="DFIELD">      0.00000000      0.00000000      0.00000000</v>
   <v name="WPLASMA">      0.00000000      0.00000000      0.00000000      0.00000000      0.00000000      0.00000000      0.00000000      0.00000000      0.00000000</v>
  </separator>
  <separator name="orbital magnetization" >
   <i type="logical" name="NUCIND"> F  </i>
   <v name="MAGPOS">      0.00000000      0.00000000      0.00000000</v>
   <i type="logical" name="LNICSALL"> T  </i>
   <i type="logical" name="ORBITALMAG"> F  </i>
   <i type="logical" name="LMAGBLOCH"> F  </i>
   <i type="logical" name="LCHIMAG"> F  </i>
   <i type="logical" name="LGAUGE"> T  </i>
   <i type="int" name="MAGATOM">     0</i>
   <v name="MAGDIPOL">      0.00000000      0.00000000      0.00000000</v>
   <v name="AVECCONST">      0.00000000      0.00000000      0.00000000</v>
  </separator>
  <separator name="response functions" >
   <i type="logical" name="LFINITE_TEMPERATURE"> F  </i>
   <i type="logical" name="LADDER"> F  </i>
   <i type="logical" name="LRPAFORCE"> F  </i>
   <i type="logical" name="LFXC"> F  </i>
   <i type="logical" name="LHARTREE"> T  </i>
   <i type="int" name="IBSE">     0</i>
   <v type="int" name="KPOINT">    -1     0     0     0</v>
   <i type="logical" name="LTCTC"> F  </i>
   <i type="logical" name="LTCTE"> F  </i>
   <i type="logical" name="LTETE"> F  </i>
   <i type="logical" name="LTRIPLET"> F  </i>
   <i type="logical" name="LFXCEPS"> F  </i>
   <i type="logical" name="LFXHEG"> F  </i>
   <i type="int" name="NATURALO">     2</i>
   <i type="logical" name="LHOLEGF"> F  </i>
   <i type="logical" name="L2ORDER"> F  </i>
   <i type="logical" name="LDMP1"> F  </i>
   <i type="logical" name="LMP2LT"> F  </i>
   <i type="logical" name="LSMP2LT"> F  </i>
   <i type="logical" name="LGWLF"> F  </i>
   <i name="ENCUTGW">     -2.00000000</i>
   <i name="ENCUTGWSOFT">     -2.00000000</i>
   <i name="ENCUTLF">     -1.00000000</i>
   <i type="logical" name="LESF_SPLINES"> F  </i>
   <i type="int" name="LMAXMP2">    -1</i>
   <i name="SCISSOR">      0.00000000</i>
   <i type="int" name="NOMEGA">     0</i>
   <i type="int" name="NOMEGAR">     0</i>
   <i type="int" name="NBANDSGW">    -1</i>
   <i type="int" name="NBANDSO">    -1</i>
   <i type="int" name="NBANDSV">    -1</i>
   <i type="int" name="NELM">     1</i>
   <i type="int" name="NELMHF">     1</i>
   <i type="int" name="DIM">     3</i>
   <i type="int" name="IESPILON">     4</i>
   <i type="int" name="ANTIRES">     0</i>
   <i name="OMEGAMAX">    -30.00000000</i>
   <i name="OMEGAMIN">    -30.00000000</i>
   <i name="OMEGATL">   -200.00000000</i>
   <i type="int" name="OMEGAGRID">     0</i>
   <i name="CSHIFT">     -0.10000000</i>
   <i type="logical" name="LSELFENERGY"> F  </i>
   <i type="logical" name="LSPECTRAL"> F  </i>
   <i type="logical" name="LSPECTRALGW"> F  </i>
   <i type="logical" name="LSINGLES"> F  </i>
   <i type="logical" name="LFERMIGW"> F  </i>
   <i type="logical" name="ODDONLYGW"> F  </i>
   <i type="logical" name="EVENONLYGW"> F  </i>
   <i type="int" name="NKREDLFX">     1</i>
   <i type="int" name="NKREDLFY">     1</i>
   <i type="int" name="NKREDLFZ">     1</i>
   <i type="int" name="MAXMEM">  2800</i>
   <i type="int" name="TELESCOPE">     0</i>
   <i type="int" name="NTAUPAR">    -1</i>
   <i type="int" name="NOMEGAPAR">    -1</i>
   <i name="DAMP_NEWTON">      0.80000001</i>
   <i name="LAMBDA">      1.00000000</i>
  </separator>
  <separator name="External order field" >
   <i name="OFIELD_KAPPA">      0.00000000</i>
   <v name="OFIELD_K">      0.00000000      0.00000000      0.00000000</v>
   <i name="OFIELD_Q6_NEAR">      0.00000000</i>
   <i name="OFIELD_Q6_FAR">      0.00000000</i>
   <i name="OFIELD_A">      0.00000000</i>
  </separator>
 </parameters>
 <atominfo>
  <atoms>       4 </atoms>
  <types>       1 </types>
  <array name="atoms" >
   <dimension dim="1">ion</dimension>
   <field type="string">element</field>
   <field type="int">atomtype</field>
   <set>
    <rc><c>Cu</c><c>   1</c></rc>
    <rc><c>Cu</c><c>   1</c></rc>
    <rc><c>Cu</c><c>   1</c></rc>
    <rc><c>Cu</c><c>   1</c></rc>
   </set>
  </array>
  <array name="atomtypes" >
   <dimension dim="1">type</dimension>
   <field type="int">atomspertype</field>
   <field type="string">element</field>
   <field>mass</field>
   <field>valence</field>
   <field type="string">pseudopotential</field>
   <set>
    <rc><c>   4</c><c>Cu</c><c>     63.54600000</c><c>     11.00000000</c><c>  PAW_PBE Cu 22Jun2005                  </c></rc>
   </set>
  </array>
 </atominfo>
 <structure name="initialpos" >
  <crystal>
   <varray name="basis" >
    <v>       3.63500000       0.00000000       0.00000000 </v>
    <v>       0.00000000       3.63500000       0.00000000 </v>
    <v>       0.00000000       0.00000000       3.63500000 </v>
   </varray>
   <i name="volume">     48.03007287 </i>
   <varray name="rec_basis" >
    <v>       0.27510316       0.00000000       0.00000000 </v>
    <v>       0.00000000       0.27510316       0.00000000 </v>
    <v>       0.00000000       0.00000000       0.27510316 </v>
   </varray>
  </crystal>
  <varray name="positions" >
   <v>       0.00000000       0.00000000       0.00000000 </v>
   <v>       0.50000000       0.50000000       0.00000000 </v>
   <v>       0.50000000       0.00000000       0.50000000 </v>
   <v>       0.00000000       0.50000000       0.50000000 </v>
  </varray>
 </structure>
 <calculation>
  <scstep>
   <time name="dav">    0.10    0.13</time>
   <time name="total">    0.11    0.14</time>
   <energy>
    <i name="alphaZ">    243.62337785 </i>
    <i name="ewald">  -4395.34838493 </i>
    <i name="hartreedc">  -1460.68397360 </i>
    <i name="XCdc">    182.95482720 </i>
    <i name="pawpsdc">   4912.82663951 </i>
    <i name="pawaedc">  -5336.19386850 </i>
    <i name="eentropy">      0.00393897 </i>
    <i name="bandstr">    548.12064912 </i>
    <i name="atom">   5563.24814419 </i>
    <i name="e_fr_energy">    258.55134980 </i>
    <i name="e_wo_entrp">    258.54741083 </i>
    <i name="e_0_energy">    258.55003681 </i>
   </energy>
  </scstep>
  <scstep>
   <time name="dav">    0.09    0.09</time>
   <time name="total">    0.10    0.10</time>
   <energy>
    <i name="e_fr_energy">     -1.22736440 </i>
    <i name="e_wo_entrp">     -1.24254957 </i>
    <i name="e_0_energy">     -1.23242612 </i>
   </energy>
  </scstep>
  <scstep>
   <time name="dav">    0.09    0.09</time>
   <time name="total">    0.09    0.09</time>
   <energy>
    <i name="e_fr_energy">    -18.10887277 </i>
    <i name="e_wo_entrp">    -18.08994357 </i>
    <i name="e_0_energy">    -18.10256304 </i>
   </energy>
  </scstep>
  <scstep>
   <time name="dav">    0.10    0.10</time>
   <time name="total">    0.10    0.10</time>
   <energy>
    <i name="e_fr_energy">    -18.37853401 </i>
    <i name="e_wo_entrp">    -18.35964365 </i>
    <i name="e_0_energy">    -18.37223722 </i>
   </energy>
  </scstep>
  <scstep>
   <time name="dav">    0.10    0.10</time>
   <time name="total">    0.10    0.10</time>
   <energy>
    <i name="e_fr_energy">    -18.38176481 </i>
    <i name="e_wo_entrp">    -18.36287372 </i>
    <i name="e_0_energy">    -18.37546778 </i>
   </energy>
  </scstep>
  <scstep>
   <time name="dav">    0.08    0.08</time>
   <time name="total">    0.10    0.10</time>
   <energy>
    <i name="e_fr_energy">    -16.15609250 </i>
    <i name="e_wo_entrp">    -16.15610558 </i>
    <i name="e_0_energy">    -16.15609686 </i>
   </energy>
  </scstep>
  <scstep>
   <time name="dav">    0.09    0.09</time>
   <time name="total">    0.10    0.10</time>
   <energy>
    <i name="e_fr_energy">    -14.60764064 </i>
    <i name="e_wo_entrp">    -14.57673940 </i>
    <i name="e_0_energy">    -14.59734023 </i>
   </energy>
  </scstep>
  <scstep>
   <time name="dav">    0.09    0.09</time>
   <time name="total">    0.11    0.11</time>
   <energy>
    <i name="e_fr_energy">    -14.58037756 </i>
    <i name="e_wo_entrp">    -14.54903708 </i>
    <i name="e_0_energy">    -14.56993073 </i>
   </energy>
  </scstep>
  <scstep>
   <time name="dav">    0.09    0.09</time>
   <time name="total">    0.10    0.10</time>
   <energy>
    <i name="e_fr_energy">    -14.57212064 </i>
    <i name="e_wo_entrp">    -14.54438685 </i>
    <i name="e_0_energy">    -14.56287604 </i>
   </energy>
  </scstep>
  <scstep>
   <time name="dav">    0.10    0.10</time>
   <time name="total">    0.12    0.12</time>
   <energy>
    <i name="e_fr_energy">    -14.57217997 </i>
    <i name="e_wo_entrp">    -14.54405728 </i>
    <i name="e_0_energy">    -14.56280574 </i>
   </energy>
  </scstep>
  <scstep>
   <time name="dav">    0.09    0.09</time>
   <time name="total">    0.10    0.10</time>
   <energy>
    <i name="e_fr_energy">    -14.57217071 </i>
    <i name="e_wo_entrp">    -14.54418371 </i>
    <i name="e_0_energy">    -14.56284171 </i>
   </energy>
  </scstep>
  <scstep>
   <time name="dav">    0.07    0.07</time>
   <time name="total">    0.09    0.09</time>
   <energy>
    <i name="e_fr_energy">    -14.57217272 </i>
    <i name="e_wo_entrp">    -14.54420016 </i>
    <i name="e_0_energy">    -14.56284853 </i>
   </energy>
  </scstep>
  <scstep>
   <time name="dav">    0.05    0.05</time>
   <time name="total">    0.06    0.06</time>
   <energy>
    <i name="alphaZ">    243.62337785 </i>
    <i name="ewald">  -4395.34838493 </i>
    <i name="hartreedc">  -1369.15140409 </i>
    <i name="XCdc">    178.53965047 </i>
    <i name="pawpsdc">   5263.63178129 </i>
    <i name="pawaedc">  -5692.08538528 </i>
    <i name="eentropy">     -0.02797699 </i>
    <i name="bandstr">    192.99802429 </i>
    <i name="atom">   5563.24814419 </i>
    <i name="e_fr_energy">    -14.57217321 </i>
    <i name="e_wo_entrp">    -14.54419622 </i>
    <i name="e_0_energy">    -14.56284754 </i>
   </energy>
  </scstep>
  <structure>
   <crystal>
    <varray name="basis" >
     <v>       3.63500000       0.00000000       0.00000000 </v>
     <v>       0.00000000       3.63500000       0.00000000 </v>
     <v>       0.00000000       0.00000000       3.63500000 </v>
    </varray>
    <i name="volume">     48.03007287 </i>
    <varray name="rec_basis" >
     <v>       0.27510316       0.00000000       0.00000000 </v>
     <v>       0.00000000       0.27510316       0.00000000 </v>
     <v>       0.00000000       0.00000000       0.27510316 </v>
    </varray>
   </crystal>
   <varray name="positions" >
    <v>       0.00000000       0.00000000       0.00000000 </v>
    <v>       0.50000000       0.50000000       0.00000000 </v>
    <v>       0.50000000       0.00000000       0.50000000 </v>
    <v>       0.00000000       0.50000000       0.50000000 </v>
   </varray>
  </structure>
  <varray name="forces" >
   <v>       0.00000000       0.00000000       0.00000000 </v>
   <v>      -0.00000000      -0.00000000      -0.00000000 </v>
   <v>      -0.00000000       0.00000000       0.00000000 </v>
   <v>       0.00000000      -0.00000000       0.00000000 </v>
  </varray>
  <varray name="stress" >
   <v>    -244.54781087      -0.00000000       0.00000000 </v>
   <v>       0.00000000    -244.54781087      -0.00000000 </v>
   <v>      -0.00000000      -0.00000000    -244.54781087 </v>
  </varray>
  <energy>
   <i name="e_fr_energy">    -14.57217321 </i>
   <i name="e_wo_entrp">    -14.54419622 </i>
   <i name="e_0_energy">    -14.56284754 </i>
  </energy>
  <time name="totalsc">    1.40    1.42</time>
  <eigenvalues>
   <array>
    <dimension dim="1">band</dimension>
    <dimension dim="2">kpoint</dimension>
    <dimension dim="3">spin</dimension>
    <field>eigene</field>
    <field>occ</field>
    <set>
     <set comment="spin 1">
      <set comment="kpoint 1">
       <r>   -1.8334    1.0000 </r>
       <r>    2.5898    1.0000 </r>
       <r>    2.5898    1.0000 </r>
       <r>    2.5898    1.0000 </r>
       <r>    3.0222    1.0000 </r>
       <r>    3.0222    1.0000 </r>
       <r>    3.0222    1.0000 </r>
       <r>    4.4021    1.0000 </r>
       <r>    4.4021    1.0000 </r>
       <r>    4.4021    1.0000 </r>
       <r>    5.1854    1.0000 </r>
       <r>    5.1854    1.0000 </r>
       <r>    5.7111    1.0000 </r>
       <r>    5.7111    1.0000 </r>
       <r>    5.7111    1.0000 </r>
       <r>    5.8652    1.0000 </r>
       <r>    5.8652    1.0000 </r>
       <r>    5.8652    1.0000 </r>
       <r>    5.8652    1.0000 </r>
       <r>    5.8652    1.0000 </r>
       <r>    5.8652    1.0000 </r>
       <r>    8.9057   -0.0000 </r>
       <r>    8.9057   -0.0000 </r>
       <r>    8.9057   -0.0000 </r>
       <r>   14.3661    0.0000 </r>
       <r>   14.3661    0.0000 </r>
       <r>   14.3661    0.0000 </r>
       <r>   20.3480    0.0000 </r>
       <r>   20.3480    0.0000 </r>
       <r>   20.3480    0.0000 </r>
      </set>
      <set comment="kpoint 2">
       <r>   -1.3566    1.0000 </r>
       <r>    2.5517    1.0000 </r>
       <r>    2.8016    1.0000 </r>
       <r>    2.8016    1.0000 </r>
       <r>    3.1625    1.0000 </r>
       <r>    3.1716    1.0000 </r>
       <r>    3.1716    1.0000 </r>
       <r>    4.2670    1.0000 </r>
       <r>    4.5017    1.0000 </r>
       <r>    4.5017    1.0000 </r>
       <r>    5.0628    1.0000 </r>
       <r>    5.2361    1.0000 </r>
       <r>    5.2390    1.0000 </r>
       <r>    5.2390    1.0000 </r>
       <r>    5.5585    1.0000 </r>
       <r>    5.5585    1.0000 </r>
       <r>    5.6621    1.0000 </r>
       <r>    5.6973    1.0000 </r>
       <r>    5.6973    1.0000 </r>
       <r>    5.8712    1.0000 </r>
       <r>    5.8712    1.0000 </r>
       <r>    6.8315    1.0086 </r>
       <r>    9.9750   -0.0000 </r>
       <r>    9.9750   -0.0000 </r>
       <r>   14.5527    0.0000 </r>
       <r>   14.5527    0.0000 </r>
       <r>   17.4188    0.0000 </r>
       <r>   18.0945    0.0000 </r>
       <r>   18.0945    0.0000 </r>
       <r>   18.7596    0.0000 </r>
      </set>
      <set comment="kpoint 3">
       <r>   -0.0005    1.0000 </r>
       <r>    1.7699    1.0000 </r>
       <r>    3.2238    1.0000 </r>
       <r>    3.2238    1.0000 </r>
       <r>    3.4852    1.0000 </r>
       <r>    3.5831    1.0000 </r>
       <r>    3.5831    1.0000 </r>
       <r>    3.8962    1.0000 </r>
       <r>    4.2944    1.0000 </r>
       <r>    4.2944    1.0000 </r>
       <r>    4.8102    1.0000 </r>
       <r>    4.8102    1.0000 </r>
       <r>    4.8255    1.0000 </r>
       <r>    4.9291    1.0000 </r>
       <r>    5.2189    1.0000 </r>
       <r>    5.2189    1.0000 </r>
       <r>    5.2759    1.0000 </r>
       <r>    5.2759    1.0000 </r>
       <r>    5.3551    1.0000 </r>
       <r>    5.5238    1.0000 </r>
       <r>    5.8703    1.0000 </r>
       <r>    5.8703    1.0000 </r>
       <r>   12.1936   -0.0000 </r>
       <r>   12.1936   -0.0000 </r>
       <r>   14.9683    0.0000 </r>
       <r>   14.9683    0.0000 </r>
       <r>   15.1955    0.0000 </r>
       <r>   15.1955    0.0000 </r>
       <r>   16.6377    0.0000 </r>
       <r>   16.6377    0.0000 </r>
      </set>
      <set comment="kpoint 4">
       <r>   -0.8921    1.0000 </r>
       <r>    2.7955    1.0000 </r>
       <r>    2.7955    1.0000 </r>
       <r>    2.9831    1.0000 </r>
       <r>    3.2758    1.0000 </r>
       <r>    3.2758    1.0000 </r>
       <r>    3.2840    1.0000 </r>
       <r>    4.1878    1.0000 </r>
       <r>    4.5420    1.0000 </r>
       <r>    4.5593    1.0000 </r>
       <r>    4.9151    1.0000 </r>
       <r>    4.9151    1.0000 </r>
       <r>    4.9335    1.0000 </r>
       <r>    5.0445    1.0000 </r>
       <r>    5.2503    1.0000 </r>
       <r>    5.4448    1.0000 </r>
       <r>    5.5561    1.0000 </r>
       <r>    5.5561    1.0000 </r>
       <r>    5.6907    1.0000 </r>
       <r>    5.6907    1.0000 </r>
       <r>    5.7491    1.0000 </r>
       <r>    7.8430   -0.0001 </r>
       <r>    7.8430   -0.0001 </r>
       <r>   10.8378   -0.0000 </r>
       <r>   14.5139    0.0000 </r>
       <r>   14.9898    0.0000 </r>
       <r>   17.7514    0.0000 </r>
       <r>   17.7514    0.0000 </r>
       <r>   18.6807    0.0000 </r>
       <r>   18.6807    0.0000 </r>
      </set>
      <set comment="kpoint 5">
       <r>    0.4199    1.0000 </r>
       <r>    2.1009    1.0000 </r>
       <r>    3.3146    1.0000 </r>
       <r>    3.3918    1.0000 </r>
       <r>    3.5455    1.0000 </r>
       <r>    3.5599    1.0000 </r>
       <r>    3.6498    1.0000 </r>
       <r>    3.9243    1.0000 </r>
       <r>    4.0599    1.0000 </r>
       <r>    4.2458    1.0000 </r>
       <r>    4.4323    1.0000 </r>
       <r>    4.5416    1.0000 </r>
       <r>    4.8276    1.0000 </r>
       <r>    4.9906    1.0000 </r>
       <r>    5.1689    1.0000 </r>
       <r>    5.2281    1.0000 </r>
       <r>    5.2562    1.0000 </r>
       <r>    5.3171    1.0000 </r>
       <r>    5.5008    1.0000 </r>
       <r>    5.6892    1.0000 </r>
       <r>    5.6950    1.0000 </r>
       <r>    6.0365    1.0000 </r>
       <r>    9.5431   -0.0000 </r>
       <r>   11.7468   -0.0000 </r>
       <r>   12.8719    0.0000 </r>
       <r>   15.5533    0.0000 </r>
       <r>   15.5629    0.0000 </r>
       <r>   17.0295    0.0000 </r>
       <r>   18.8423    0.0000 </r>
       <r>   20.2849    0.0000 </r>
      </set>
      <set comment="kpoint 6">
       <r>    1.5583    1.0000 </r>
       <r>    2.8650    1.0000 </r>
       <r>    2.8650    1.0000 </r>
       <r>    3.3749    1.0000 </r>
       <r>    3.7892    1.0000 </r>
       <r>    3.7952    1.0000 </r>
       <r>    3.7952    1.0000 </r>
       <r>    3.9002    1.0000 </r>
       <r>    4.0432    1.0000 </r>
       <r>    4.0432    1.0000 </r>
       <r>    4.0678    1.0000 </r>
       <r>    4.3668    1.0000 </r>
       <r>    4.8621    1.0000 </r>
       <r>    4.9478    1.0000 </r>
       <r>    5.0002    1.0000 </r>
       <r>    5.0430    1.0000 </r>
       <r>    5.0430    1.0000 </r>
       <r>    5.2887    1.0000 </r>
       <r>    5.2887    1.0000 </r>
       <r>    5.4089    1.0000 </r>
       <r>    6.0326    1.0000 </r>
       <r>    7.1247    0.8760 </r>
       <r>    7.1247    0.8760 </r>
       <r>    8.8908   -0.0000 </r>
       <r>   14.6517    0.0000 </r>
       <r>   16.5196    0.0000 </r>
       <r>   17.1874    0.0000 </r>
       <r>   17.1874    0.0000 </r>
       <r>   18.2893    0.0000 </r>
       <r>   18.2893    0.0000 </r>
      </set>
      <set comment="kpoint 7">
       <r>   -0.4459    1.0000 </r>
       <r>    2.9684    1.0000 </r>
       <r>    2.9684    1.0000 </r>
       <r>    2.9684    1.0000 </r>
       <r>    3.4037    1.0000 </r>
       <r>    3.4037    1.0000 </r>
       <r>    3.4037    1.0000 </r>
       <r>    4.1734    1.0000 </r>
       <r>    4.5420    1.0000 </r>
       <r>    4.5420    1.0000 </r>
       <r>    4.6846    1.0000 </r>
       <r>    4.6846    1.0000 </r>
       <r>    4.6846    1.0000 </r>
       <r>    5.1787    1.0000 </r>
       <r>    5.1787    1.0000 </r>
       <r>    5.2334    1.0000 </r>
       <r>    5.2334    1.0000 </r>
       <r>    5.2334    1.0000 </r>
       <r>    5.7919    1.0000 </r>
       <r>    5.7919    1.0000 </r>
       <r>    5.7919    1.0000 </r>
       <r>    8.4742   -0.0000 </r>
       <r>    8.4742   -0.0000 </r>
       <r>    8.4742   -0.0000 </r>
       <r>   15.3015    0.0000 </r>
       <r>   15.3015    0.0000 </r>
       <r>   15.3015    0.0000 </r>
       <r>   18.1195    0.0000 </r>
       <r>   18.1195    0.0000 </r>
       <r>   18.1195    0.0000 </r>
      </set>
      <set comment="kpoint 8">
       <r>    0.7971    1.0000 </r>
       <r>    2.3253    1.0000 </r>
       <r>    3.2916    1.0000 </r>
       <r>    3.2916    1.0000 </r>
       <r>    3.6335    1.0000 </r>
       <r>    3.6335    1.0000 </r>
       <r>    3.7080    1.0000 </r>
       <r>    3.9997    1.0000 </r>
       <r>    4.2324    1.0000 </r>
       <r>    4.2324    1.0000 </r>
       <r>    4.3512    1.0000 </r>
       <r>    4.5040    1.0000 </r>
       <r>    4.6423    1.0000 </r>
       <r>    4.8965    1.0000 </r>
       <r>    5.0157    1.0000 </r>
       <r>    5.0157    1.0000 </r>
       <r>    5.2989    1.0000 </r>
       <r>    5.4663    1.0000 </r>
       <r>    5.7017    1.0000 </r>
       <r>    5.7017    1.0000 </r>
       <r>    5.7053    1.0000 </r>
       <r>    6.2292    1.0000 </r>
       <r>    9.8384   -0.0000 </r>
       <r>    9.8384   -0.0000 </r>
       <r>   12.4968   -0.0000 </r>
       <r>   12.4968   -0.0000 </r>
       <r>   16.8339    0.0000 </r>
       <r>   19.1412    0.0000 </r>
       <r>   19.2203    0.0000 </r>
       <r>   19.2203    0.0000 </r>
      </set>
      <set comment="kpoint 9">
       <r>    1.7537    1.0000 </r>
       <r>    2.7276    1.0000 </r>
       <r>    2.7276    1.0000 </r>
       <r>    3.0419    1.0000 </r>
       <r>    3.9376    1.0000 </r>
       <r>    4.0364    1.0000 </r>
       <r>    4.0364    1.0000 </r>
       <r>    4.1952    1.0000 </r>
       <r>    4.2593    1.0000 </r>
       <r>    4.2593    1.0000 </r>
       <r>    4.4061    1.0000 </r>
       <r>    4.4097    1.0000 </r>
       <r>    4.5666    1.0000 </r>
       <r>    4.7305    1.0000 </r>
       <r>    4.7305    1.0000 </r>
       <r>    4.7572    1.0000 </r>
       <r>    5.3121    1.0000 </r>
       <r>    5.5895    1.0000 </r>
       <r>    5.5895    1.0000 </r>
       <r>    5.6122    1.0000 </r>
       <r>    5.9174    1.0000 </r>
       <r>    7.1612    0.7618 </r>
       <r>    7.1612    0.7618 </r>
       <r>    8.8229   -0.0000 </r>
       <r>   11.9298   -0.0000 </r>
       <r>   13.9017    0.0000 </r>
       <r>   13.9017    0.0000 </r>
       <r>   16.1295    0.0000 </r>
       <r>   20.4267    0.0000 </r>
       <r>   22.4101    0.0000 </r>
      </set>
      <set comment="kpoint 10">
       <r>    2.1474    1.0000 </r>
       <r>    2.5659    1.0000 </r>
       <r>    2.5659    1.0000 </r>
       <r>    2.5659    1.0000 </r>
       <r>    4.2464    1.0000 </r>
       <r>    4.2464    1.0000 </r>
       <r>    4.2464    1.0000 </r>
       <r>    4.4074    1.0000 </r>
       <r>    4.4074    1.0000 </r>
       <r>    4.4792    1.0000 </r>
       <r>    4.4792    1.0000 </r>
       <r>    4.4792    1.0000 </r>
       <r>    4.9489    1.0000 </r>
       <r>    4.9489    1.0000 </r>
       <r>    4.9489    1.0000 </r>
       <r>    5.1815    1.0000 </r>
       <r>    5.6344    1.0000 </r>
       <r>    5.6344    1.0000 </r>
       <r>    5.7397    1.0000 </r>
       <r>    5.7397    1.0000 </r>
       <r>    5.7397    1.0000 </r>
       <r>    7.2740    0.3066 </r>
       <r>    7.2740    0.3066 </r>
       <r>    7.2740    0.3066 </r>
       <r>   11.4736   -0.0000 </r>
       <r>   11.4736   -0.0000 </r>
       <r>   11.4736   -0.0000 </r>
       <r>   13.2402    0.0000 </r>
       <r>   25.6900    0.0000 </r>
       <r>   25.6900    0.0000 </r>
      </set>
     </set>
    </set>
   </array>
  </eigenvalues>
  <separator name="orbital magnetization" >
   <v name="MAGDIPOLOUT">      0.00000000      0.00000000      0.00000000</v>
  </separator>
  <dos>
   <i name="efermi">      7.22687875 </i>
   <total>
    <array>
     <dimension dim="1">gridpoints</dimension>
     <dimension dim="2">spin</dimension>
     <field>energy</field>
     <field>total</field>
     <field>integrated</field>
     <set>
      <set comment="spin 1">
       <r>    -3.8334     0.0000     0.0000 </r>
       <r>    -3.7283     0.0000     0.0000 </r>
       <r>    -3.6232     0.0000     0.0000 </r>
       <r>    -3.5181    -0.0000    -0.0000 </r>
       <r>    -3.4131    -0.0000    -0.0000 </r>
       <r>    -3.3080    -0.0000    -0.0000 </r>
       <r>    -3.2029    -0.0000    -0.0000 </r>
       <r>    -3.0978    -0.0000    -0.0000 </r>
       <r>    -2.9927    -0.0000    -0.0000 </r>
       <r>    -2.8877    -0.0000    -0.0000 </r>
       <r>    -2.7826    -0.0000    -0.0000 </r>
       <r>    -2.6775    -0.0000    -0.0000 </r>
       <r>    -2.5724    -0.0000    -0.0000 </r>
       <r>    -2.4674    -0.0000    -0.0000 </r>
       <r>    -2.3623    -0.0001    -0.0000 </r>
       <r>    -2.2572    -0.0007    -0.0001 </r>
       <r>    -2.1521    -0.0027    -0.0004 </r>
       <r>    -2.0470    -0.0011    -0.0005 </r>
       <r>    -1.9420     0.0209     0.0017 </r>
       <r>    -1.8369     0.0560     0.0076 </r>
       <r>    -1.7318     0.0502     0.0129 </r>
       <r>    -1.6267     0.0036     0.0132 </r>
       <r>    -1.5217     0.0334     0.0168 </r>
       <r>    -1.4166     0.2287     0.0408 </r>
       <r>    -1.3115     0.3801     0.0807 </r>
       <r>    -1.2064     0.2316     0.1051 </r>
       <r>    -1.1013     0.0446     0.1097 </r>
       <r>    -0.9963     0.2510     0.1361 </r>
       <r>    -0.8912     0.6889     0.2085 </r>
       <r>    -0.7861     0.6783     0.2798 </r>
       <r>    -0.6810     0.2425     0.3053 </r>
       <r>    -0.5759     0.1030     0.3161 </r>
       <r>    -0.4709     0.3744     0.3554 </r>
       <r>    -0.3658     0.4868     0.4066 </r>
       <r>    -0.2607     0.2293     0.4307 </r>
       <r>    -0.1556     0.0632     0.4373 </r>
       <r>    -0.0506     0.2217     0.4606 </r>
       <r>     0.0545     0.3408     0.4964 </r>
       <r>     0.1596     0.1649     0.5138 </r>
       <r>     0.2647     0.2245     0.5373 </r>
       <r>     0.3698     0.9827     0.6406 </r>
       <r>     0.4748     1.4903     0.7972 </r>
       <r>     0.5799     0.9399     0.8960 </r>
       <r>     0.6850     0.6371     0.9629 </r>
       <r>     0.7901     1.2799     1.0974 </r>
       <r>     0.8951     1.4028     1.2448 </r>
       <r>     1.0002     0.5849     1.3062 </r>
       <r>     1.1053    -0.0090     1.3053 </r>
       <r>     1.2104    -0.0977     1.2950 </r>
       <r>     1.3155    -0.0706     1.2876 </r>
       <r>     1.4205     0.0720     1.2952 </r>
       <r>     1.5256     0.5139     1.3492 </r>
       <r>     1.6307     1.2250     1.4779 </r>
       <r>     1.7358     1.9324     1.6810 </r>
       <r>     1.8408     1.8120     1.8714 </r>
       <r>     1.9459     1.0086     1.9773 </r>
       <r>     2.0510     1.1735     2.1006 </r>
       <r>     2.1561     2.0344     2.3144 </r>
       <r>     2.2612     2.1659     2.5420 </r>
       <r>     2.3662     1.7652     2.7275 </r>
       <r>     2.4713     1.5889     2.8944 </r>
       <r>     2.5764     2.4091     3.1476 </r>
       <r>     2.6815     4.4043     3.6104 </r>
       <r>     2.7865     6.3943     4.2823 </r>
       <r>     2.8916     6.6788     4.9841 </r>
       <r>     2.9967     5.4781     5.5597 </r>
       <r>     3.1018     4.5699     6.0399 </r>
       <r>     3.2069     6.2207     6.6935 </r>
       <r>     3.3119     9.7259     7.7155 </r>
       <r>     3.4170    10.4276     8.8112 </r>
       <r>     3.5221     9.1029     9.7678 </r>
       <r>     3.6272     9.2879    10.7437 </r>
       <r>     3.7322     8.7619    11.6644 </r>
       <r>     3.8373     7.3087    12.4324 </r>
       <r>     3.9424     8.5715    13.3330 </r>
       <r>     4.0475    11.5135    14.5429 </r>
       <r>     4.1526    13.6972    15.9821 </r>
       <r>     4.2576    15.9229    17.6553 </r>
       <r>     4.3627    17.0218    19.4439 </r>
       <r>     4.4678    16.3631    21.1633 </r>
       <r>     4.5729    14.6110    22.6986 </r>
       <r>     4.6779    12.1334    23.9735 </r>
       <r>     4.7830    11.2976    25.1607 </r>
       <r>     4.8881    13.0469    26.5316 </r>
       <r>     4.9932    14.7289    28.0793 </r>
       <r>     5.0983    14.2887    29.5807 </r>
       <r>     5.2033    15.1273    31.1703 </r>
       <r>     5.3084    16.4511    32.8989 </r>
       <r>     5.4135    13.5167    34.3192 </r>
       <r>     5.5186    11.9823    35.5783 </r>
       <r>     5.6236    16.6262    37.3253 </r>
       <r>     5.7287    19.8611    39.4123 </r>
       <r>     5.8338    15.1846    41.0078 </r>
       <r>     5.9389     7.9199    41.8400 </r>
       <r>     6.0440     4.0543    42.2661 </r>
       <r>     6.1490     2.6620    42.5458 </r>
       <r>     6.2541     1.8987    42.7453 </r>
       <r>     6.3592     1.0561    42.8563 </r>
       <r>     6.4643     0.2182    42.8792 </r>
       <r>     6.5693    -0.1075    42.8679 </r>
       <r>     6.6744    -0.0348    42.8642 </r>
       <r>     6.7795     0.1160    42.8764 </r>
       <r>     6.8846     0.1356    42.8907 </r>
       <r>     6.9897     0.6896    42.9631 </r>
       <r>     7.0947     3.0498    43.2836 </r>
       <r>     7.1998     5.4206    43.8532 </r>
       <r>     7.3049     4.5561    44.3319 </r>
       <r>     7.4100     1.7431    44.5151 </r>
       <r>     7.5151     0.0185    44.5170 </r>
       <r>     7.6201    -0.2340    44.4924 </r>
       <r>     7.7252     0.3580    44.5301 </r>
       <r>     7.8303     1.3073    44.6674 </r>
       <r>     7.9354     1.4669    44.8216 </r>
       <r>     8.0404     0.6265    44.8874 </r>
       <r>     8.1455    -0.0484    44.8823 </r>
       <r>     8.2506    -0.1191    44.8698 </r>
       <r>     8.3557     0.3953    44.9113 </r>
       <r>     8.4608     1.2604    45.0438 </r>
       <r>     8.5658     1.3580    45.1865 </r>
       <r>     8.6709     0.8244    45.2731 </r>
       <r>     8.7760     1.3325    45.4131 </r>
       <r>     8.8811     2.3134    45.6562 </r>
       <r>     8.9861     1.8398    45.8495 </r>
       <r>     9.0912     0.5316    45.9054 </r>
       <r>     9.1963    -0.1223    45.8925 </r>
       <r>     9.3014    -0.1531    45.8764 </r>
       <r>     9.4065     0.2469    45.9024 </r>
       <r>     9.5115     1.0471    46.0124 </r>
       <r>     9.6166     1.4307    46.1627 </r>
       <r>     9.7217     1.6527    46.3364 </r>
       <r>     9.8268     2.8458    46.6354 </r>
       <r>     9.9318     3.3896    46.9916 </r>
       <r>    10.0369     2.0116    47.2030 </r>
       <r>    10.1420     0.4700    47.2524 </r>
       <r>    10.2471    -0.0828    47.2437 </r>
       <r>    10.3522    -0.0869    47.2345 </r>
       <r>    10.4572    -0.0403    47.2303 </r>
       <r>    10.5623    -0.0430    47.2258 </r>
       <r>    10.6674     0.0553    47.2316 </r>
       <r>    10.7725     0.4411    47.2779 </r>
       <r>    10.8775     0.7768    47.3596 </r>
       <r>    10.9826     0.5497    47.4173 </r>
       <r>    11.0877     0.0917    47.4270 </r>
       <r>    11.1928    -0.1167    47.4147 </r>
       <r>    11.2979     0.0536    47.4203 </r>
       <r>    11.4029     0.7750    47.5018 </r>
       <r>    11.5080     1.4616    47.6553 </r>
       <r>    11.6131     1.4040    47.8029 </r>
       <r>    11.7182     1.4539    47.9556 </r>
       <r>    11.8232     1.9623    48.1618 </r>
       <r>    11.9283     2.0854    48.3810 </r>
       <r>    12.0334     1.5291    48.5416 </r>
       <r>    12.1385     0.8639    48.6324 </r>
       <r>    12.2436     0.5868    48.6941 </r>
       <r>    12.3486     0.8877    48.7874 </r>
       <r>    12.4537     2.2164    49.0203 </r>
       <r>    12.5588     3.0080    49.3363 </r>
       <r>    12.6639     1.7883    49.5242 </r>
       <r>    12.7689     0.7970    49.6080 </r>
       <r>    12.8740     1.2417    49.7385 </r>
       <r>    12.9791     1.2932    49.8744 </r>
       <r>    13.0842     0.5649    49.9337 </r>
       <r>    13.1893     0.3116    49.9665 </r>
       <r>    13.2943     0.4543    50.0142 </r>
       <r>    13.3994     0.3025    50.0460 </r>
       <r>    13.5045    -0.0001    50.0460 </r>
       <r>    13.6096    -0.1798    50.0271 </r>
       <r>    13.7146     0.0770    50.0352 </r>
       <r>    13.8197     1.4619    50.1888 </r>
       <r>    13.9248     3.0216    50.5063 </r>
       <r>    14.0299     2.4776    50.7666 </r>
       <r>    14.1350     0.6766    50.8377 </r>
       <r>    14.2400    -0.1552    50.8214 </r>
       <r>    14.3451     0.0628    50.8280 </r>
       <r>    14.4502     0.8876    50.9213 </r>
       <r>    14.5553     1.8588    51.1166 </r>
       <r>    14.6603     1.9038    51.3166 </r>
       <r>    14.7654     1.0047    51.4222 </r>
       <r>    14.8705     0.6395    51.4894 </r>
       <r>    14.9756     1.2183    51.6174 </r>
       <r>    15.0807     1.5460    51.7799 </r>
       <r>    15.1857     1.5978    51.9478 </r>
       <r>    15.2908     1.8943    52.1468 </r>
       <r>    15.3959     1.9998    52.3570 </r>
       <r>    15.5010     2.5178    52.6215 </r>
       <r>    15.6061     3.0890    52.9461 </r>
       <r>    15.7111     1.9728    53.1534 </r>
       <r>    15.8162     0.3063    53.1856 </r>
       <r>    15.9213    -0.1718    53.1675 </r>
       <r>    16.0264     0.4619    53.2161 </r>
       <r>    16.1314     1.3811    53.3612 </r>
       <r>    16.2365     1.3374    53.5017 </r>
       <r>    16.3416     0.5145    53.5558 </r>
       <r>    16.4467     0.3672    53.5944 </r>
       <r>    16.5518     0.9659    53.6959 </r>
       <r>    16.6568     1.3601    53.8388 </r>
       <r>    16.7619     1.5078    53.9972 </r>
       <r>    16.8670     1.7823    54.1845 </r>
       <r>    16.9721     2.0329    54.3981 </r>
       <r>    17.0771     2.2951    54.6393 </r>
       <r>    17.1822     2.3200    54.8831 </r>
       <r>    17.2873     1.6555    55.0570 </r>
       <r>    17.3924     0.7493    55.1358 </r>
       <r>    17.4975     0.2540    55.1624 </r>
       <r>    17.6025     0.3296    55.1971 </r>
       <r>    17.7076     1.0303    55.3053 </r>
       <r>    17.8127     1.4204    55.4546 </r>
       <r>    17.9178     0.9164    55.5509 </r>
       <r>    18.0228     1.0658    55.6629 </r>
       <r>    18.1279     2.2926    55.9038 </r>
       <r>    18.2330     2.8469    56.2029 </r>
       <r>    18.3381     2.1052    56.4241 </r>
       <r>    18.4432     0.8535    56.5138 </r>
       <r>    18.5482     0.3489    56.5505 </r>
       <r>    18.6533     1.2751    56.6845 </r>
       <r>    18.7584     2.4958    56.9467 </r>
       <r>    18.8635     2.4501    57.2042 </r>
       <r>    18.9685     1.4079    57.3521 </r>
       <r>    19.0736     1.6191    57.5222 </r>
       <r>    19.1787     3.6349    57.9042 </r>
       <r>    19.2838     4.1764    58.3430 </r>
       <r>    19.3889     2.0447    58.5579 </r>
       <r>    19.4939     0.1662    58.5753 </r>
       <r>    19.5990    -0.2068    58.5536 </r>
       <r>    19.7041    -0.0791    58.5453 </r>
       <r>    19.8092    -0.0190    58.5433 </r>
       <r>    19.9142    -0.0442    58.5387 </r>
       <r>    20.0193    -0.1091    58.5272 </r>
       <r>    20.1244     0.0795    58.5355 </r>
       <r>    20.2295     1.0376    58.6446 </r>
       <r>    20.3346     2.3708    58.8937 </r>
       <r>    20.4396     2.6774    59.1750 </r>
       <r>    20.5447     1.5888    59.3420 </r>
       <r>    20.6498     0.3551    59.3793 </r>
       <r>    20.7549    -0.0948    59.3693 </r>
       <r>    20.8599    -0.0712    59.3618 </r>
       <r>    20.9650    -0.0158    59.3602 </r>
       <r>    21.0701    -0.0017    59.3600 </r>
       <r>    21.1752    -0.0001    59.3600 </r>
       <r>    21.2803    -0.0000    59.3600 </r>
       <r>    21.3853    -0.0000    59.3600 </r>
       <r>    21.4904    -0.0000    59.3600 </r>
       <r>    21.5955    -0.0000    59.3600 </r>
       <r>    21.7006    -0.0000    59.3600 </r>
       <r>    21.8056    -0.0003    59.3600 </r>
       <r>    21.9107    -0.0040    59.3595 </r>
       <r>    22.0158    -0.0277    59.3566 </r>
       <r>    22.1209    -0.0775    59.3485 </r>
       <r>    22.2260     0.0554    59.3543 </r>
       <r>    22.3310     0.7583    59.4340 </r>
       <r>    22.4361     1.5216    59.5939 </r>
       <r>    22.5412     1.2217    59.7222 </r>
       <r>    22.6463     0.3354    59.7575 </r>
       <r>    22.7513    -0.0616    59.7510 </r>
       <r>    22.8564    -0.0539    59.7454 </r>
       <r>    22.9615    -0.0116    59.7441 </r>
       <r>    23.0666    -0.0012    59.7440 </r>
       <r>    23.1717    -0.0001    59.7440 </r>
       <r>    23.2767    -0.0000    59.7440 </r>
       <r>    23.3818    -0.0000    59.7440 </r>
       <r>    23.4869    -0.0000    59.7440 </r>
       <r>    23.5920    -0.0000    59.7440 </r>
       <r>    23.6970    -0.0000    59.7440 </r>
       <r>    23.8021     0.0000    59.7440 </r>
       <r>    23.9072     0.0000    59.7440 </r>
       <r>    24.0123    -0.0000    59.7440 </r>
       <r>    24.1174    -0.0000    59.7440 </r>
       <r>    24.2224    -0.0000    59.7440 </r>
       <r>    24.3275    -0.0000    59.7440 </r>
       <r>    24.4326    -0.0000    59.7440 </r>
       <r>    24.5377    -0.0000    59.7440 </r>
       <r>    24.6428    -0.0000    59.7440 </r>
       <r>    24.7478    -0.0000    59.7440 </r>
       <r>    24.8529    -0.0000    59.7440 </r>
       <r>    24.9580    -0.0000    59.7440 </r>
       <r>    25.0631    -0.0001    59.7440 </r>
       <r>    25.1681    -0.0016    59.7438 </r>
       <r>    25.2732    -0.0130    59.7425 </r>
       <r>    25.3783    -0.0462    59.7376 </r>
       <r>    25.4834    -0.0079    59.7368 </r>
       <r>    25.5885     0.3749    59.7762 </r>
       <r>    25.6935     0.9483    59.8758 </r>
       <r>    25.7986     0.9207    59.9726 </r>
       <r>    25.9037     0.3363    60.0079 </r>
       <r>    26.0088    -0.0183    60.0060 </r>
       <r>    26.1138    -0.0439    60.0014 </r>
       <r>    26.2189    -0.0116    60.0002 </r>
       <r>    26.3240    -0.0014    60.0000 </r>
       <r>    26.4291    -0.0001    60.0000 </r>
       <r>    26.5342    -0.0000    60.0000 </r>
       <r>    26.6392    -0.0000    60.0000 </r>
       <r>    26.7443    -0.0000    60.0000 </r>
       <r>    26.8494    -0.0000    60.0000 </r>
       <r>    26.9545    -0.0000    60.0000 </r>
       <r>    27.0595     0.0000    60.0000 </r>
       <r>    27.1646     0.0000    60.0000 </r>
       <r>    27.2697     0.0000    60.0000 </r>
       <r>    27.3748     0.0000    60.0000 </r>
       <r>    27.4799     0.0000    60.0000 </r>
       <r>    27.5849     0.0000    60.0000 </r>
       <r>    27.6900     0.0000    60.0000 </r>
      </set>
     </set>
    </array>
   </total>
  </dos>
 </calculation>
 <structure name="finalpos" >
  <crystal>
   <varray name="basis" >
    <v>       3.63500000       0.00000000       0.00000000 </v>
    <v>       0.00000000       3.63500000       0.00000000 </v>
    <v>       0.00000000       0.00000000       3.63500000 </v>
   </varray>
   <i name="volume">     48.03007287 </i>
   <varray name="rec_basis" >
    <v>       0.27510316       0.00000000       0.00000000 </v>
    <v>       0.00000000       0.27510316       0.00000000 </v>
    <v>       0.00000000       0.00000000       0.27510316 </v>
   </varray>
  </crystal>
  <varray name="positions" >
   <v>       0.00000000       0.00000000       0.00000000 </v>
   <v>       0.50000000       0.50000000       0.00000000 </v>
   <v>       0.50000000       0.00000000       0.50000000 </v>
   <v>       0.00000000       0.50000000       0.50000000 </v>
  </varray>
 </structure>
</modeling>
