unknown system                          
   1.00000000000000     
     3.866000    0.000000    0.000000
     0.000000    3.866000    0.000000
     0.000000    0.000000    3.866000
   Pd   Ir   Pt   Cu
     1     1     1     1
Direct
  0.000000  0.000000  0.000000
  0.500000  0.500000  0.000000
  0.500000  0.000000  0.500000
  0.000000  0.500000  0.500000
 
   28   28   28
  356.43      335.69      283.96      222.21      164.15      112.53      68.913      38.476      22.898      15.841    
  12.619      10.530      9.4090      9.6065      9.9849      9.6065      9.4090      10.530      12.619      15.841    
  22.898      38.476      68.913      112.53      164.15      222.21      283.96      335.69      335.82      316.37    
  267.75      209.51      154.58      105.89      65.093      36.898      22.430      15.705      12.618      10.613    
  9.5200      9.6612      9.9949      9.6612      9.5200      10.613      12.618      15.705      22.430      36.898    
  65.093      105.89      154.58      209.51      267.75      316.37      283.49      267.23      226.36      176.92    
  130.02      88.919      55.461      32.984      21.241      15.445      12.780      11.071      10.126      10.178    
  10.418      10.178      10.126      11.071      12.780      15.445      21.241      32.984      55.461      88.919    
  130.02      176.92      226.36      267.23      219.39      206.88      175.19      136.41      99.610      68.258    
  44.046      28.458      19.812      15.373      13.401      12.236      11.641      11.704      11.871      11.704    
  11.641      12.236      13.401      15.373      19.812      28.458      44.046      68.258      99.610      136.41    
  175.19      206.88      158.69      149.61      126.48      98.037      71.394      49.786      34.281      24.586    
  18.669      15.794      14.721      14.303      14.254      14.500      14.669      14.500      14.254      14.303    
  14.721      15.794      18.669      24.586      34.281      49.786      71.394      98.037      126.48      149.61    
  106.69      100.64      85.222      66.389      49.246      36.178      27.406      21.647      18.277      17.061    
  17.110      17.678      18.423      19.107      19.397      19.107      18.423      17.678      17.110      17.061    
  18.277      21.647      27.406      36.178      49.246      66.389      85.222      100.64      65.135      61.752    
  53.186      42.911      33.889      27.310      22.767      19.962      19.035      19.628      21.164      23.277    
  25.599      27.488      28.227      27.488      25.599      23.277      21.164      19.628      19.035      19.962    
  22.767      27.310      33.889      42.911      53.186      61.752      36.882      35.493      32.016      27.916    
  24.308      21.503      19.890      19.788      21.174      23.853      27.836      32.872      38.140      42.258    
  43.830      42.258      38.140      32.872      27.836      23.853      21.174      19.788      19.890      21.503    
  24.308      27.916      32.016      35.493      22.063      21.655      20.610      19.342      18.326      18.020    
  18.841      21.050      24.753      30.291      37.687      46.407      55.115      61.735      64.229      61.735    
  55.115      46.407      37.687      30.291      24.753      21.050      18.841      18.020      18.326      19.342    
  20.610      21.655      15.044      14.938      14.752      14.765      15.270      16.615      19.241      23.503    
  29.990      38.838      49.584      61.359      72.616      81.003      84.142      81.003      72.616      61.359    
  49.584      38.838      29.990      23.503      19.241      16.615      15.270      14.765      14.752      14.938    
  11.748      11.762      11.958      12.621      13.994      16.442      20.513      27.066      36.740      48.816    
  62.087      75.588      88.106      97.425      100.93      97.425      88.106      75.588      62.087      48.816    
  36.740      27.066      20.513      16.442      13.994      12.621      11.958      11.762      9.6748      9.7580    
  10.207      11.353      13.411      16.776      22.267      31.441      44.468      59.479      74.561      89.105    
  102.66      113.10      117.12      113.10      102.66      89.105      74.561      59.479      44.468      31.441    
  22.267      16.776      13.411      11.353      10.207      9.7580      8.6102      8.7074      9.2631      10.693    
  13.219      17.284      24.158      35.920      52.089      69.676      86.355      102.25      117.76      130.34    
  135.35      130.34      117.76      102.25      86.355      69.676      52.089      35.920      24.158      17.284    
  13.219      10.693      9.2631      8.7074      8.8096      8.8444      9.2897      10.692      13.345      17.769    
  25.673      39.384      57.880      77.380      95.440      112.94      130.83      145.94      152.06      145.94    
  130.83      112.94      95.440      77.380      57.880      39.384      25.673      17.769      13.345      10.692    
  9.2897      8.8444      9.1713      9.1605      9.5067      10.826      13.462      17.979      26.261      40.702    
  60.067      80.295      98.937      117.19      136.21      152.46      159.08      152.46      136.21      117.19    
  98.937      80.295      60.067      40.702      26.261      17.979      13.462      10.826      9.5067      9.1605    
  8.8096      8.8444      9.2897      10.692      13.345      17.769      25.673      39.384      57.880      77.380    
  95.440      112.94      130.83      145.94      152.06      145.94      130.83      112.94      95.440      77.380    
  57.880      39.384      25.673      17.769      13.345      10.692      9.2897      8.8444      8.6102      8.7074    
  9.2631      10.693      13.219      17.284      24.158      35.920      52.089      69.676      86.355      102.25    
  117.76      130.34      135.35      130.34      117.76      102.25      86.355      69.676      52.089      35.920    
  24.158      17.284      13.219      10.693      9.2631      8.7074      9.6748      9.7580      10.207      11.353    
  13.411      16.776      22.267      31.441      44.468      59.479      74.561      89.105      102.66      113.10    
  117.12      113.10      102.66      89.105      74.561      59.479      44.468      31.441      22.267      16.776    
  13.411      11.353      10.207      9.7580      11.748      11.762      11.958      12.621      13.994      16.442    
  20.513      27.066      36.740      48.816      62.087      75.588      88.106      97.425      100.93      97.425    
  88.106      75.588      62.087      48.816      36.740      27.066      20.513      16.442      13.994      12.621    
  11.958      11.762      15.044      14.938      14.752      14.765      15.270      16.615      19.241      23.503    
  29.990      38.838      49.584      61.359      72.616      81.003      84.142      81.003      72.616      61.359    
  49.584      38.838      29.990      23.503      19.241      16.615      15.270      14.765      14.752      14.938    
  22.063      21.655      20.610      19.342      18.326      18.020      18.841      21.050      24.753      30.291    
  37.687      46.407      55.115      61.735      64.229      61.735      55.115      46.407      37.687      30.291    
  24.753      21.050      18.841      18.020      18.326      19.342      20.610      21.655      36.882      35.493    
  32.016      27.916      24.308      21.503      19.890      19.788      21.174      23.853      27.836      32.872    
  38.140      42.258      43.830      42.258      38.140      32.872      27.836      23.853      21.174      19.788    
  19.890      21.503      24.308      27.916      32.016      35.493      65.135      61.752      53.186      42.911    
  33.889      27.310      22.767      19.962      19.035      19.628      21.164      23.277      25.599      27.488    
  28.227      27.488      25.599      23.277      21.164      19.628      19.035      19.962      22.767      27.310    
  33.889      42.911      53.186      61.752      106.69      100.64      85.222      66.389      49.246      36.178    
  27.406      21.647      18.277      17.061      17.110      17.678      18.423      19.107      19.397      19.107    
  18.423      17.678      17.110      17.061      18.277      21.647      27.406      36.178      49.246      66.389    
  85.222      100.64      158.69      149.61      126.48      98.037      71.394      49.786      34.281      24.586    
  18.669      15.794      14.721      14.303      14.254      14.500      14.669      14.500      14.254      14.303    
  14.721      15.794      18.669      24.586      34.281      49.786      71.394      98.037      126.48      149.61    
  219.39      206.88      175.19      136.41      99.610      68.258      44.046      28.458      19.812      15.373    
  13.401      12.236      11.641      11.704      11.871      11.704      11.641      12.236      13.401      15.373    
  19.812      28.458      44.046      68.258      99.610      136.41      175.19      206.88      283.49      267.23    
  226.36      176.92      130.02      88.919      55.461      32.984      21.241      15.445      12.780      11.071    
  10.126      10.178      10.418      10.178      10.126      11.071      12.780      15.445      21.241      32.984    
  55.461      88.919      130.02      176.92      226.36      267.23      335.82      316.37      267.75      209.51    
  154.58      105.89      65.093      36.898      22.430      15.705      12.618      10.613      9.5200      9.6612    
  9.9949      9.6612      9.5200      10.613      12.618      15.705      22.430      36.898      65.093      105.89    
  154.58      209.51      267.75      316.37      336.17      316.81      268.38      210.20      155.16      106.22    
  65.215      36.918      22.426      15.690      12.582      10.540      9.4029      9.5078      9.8274      9.5078    
  9.4029      10.540      12.582      15.690      22.426      36.918      65.215      106.22      155.16      210.20    
  268.38      316.81      317.55      299.33      253.63      198.56      146.33      100.07      61.693      35.468    
  21.983      15.567      12.592      10.635      9.5311      9.5890      9.8691      9.5890      9.5311      10.635    
  12.592      15.567      21.983      35.468      61.693      100.07      146.33      198.56      253.63      299.33    
  269.87      254.48      215.67      168.48      123.55      84.342      52.795      31.859      20.848      15.332    
  12.773      11.113      10.165      10.155      10.353      10.155      10.165      11.113      12.773      15.332    
  20.848      31.859      52.795      84.342      123.55      168.48      215.67      254.48      210.44      198.45    
  167.99      130.60      95.107      65.085      42.217      27.656      19.482      15.276      13.396      12.272    
  11.677      11.698      11.837      11.698      11.677      12.272      13.396      15.276      19.482      27.656    
  42.217      65.085      95.107      130.60      167.99      198.45      152.82      144.06      121.69      94.158    
  68.437      47.760      33.119      23.994      18.386      15.685      14.680      14.288      14.234      14.450    
  14.600      14.450      14.234      14.288      14.680      15.685      18.386      23.994      33.119      47.760    
  68.437      94.158      121.69      144.06      102.61      96.785      81.928      63.801      47.367      34.939    
  26.649      21.169      18.007      16.896      16.977      17.542      18.264      18.912      19.184      18.912    
  18.264      17.542      16.977      16.896      18.007      21.169      26.649      34.939      47.367      63.801    
  81.928      96.785      62.518      59.290      51.124      41.345      32.784      26.546      22.201      19.559    
  18.728      19.346      20.853      22.878      25.077      26.855      27.548      26.855      25.077      22.878    
  20.853      19.346      18.728      19.559      22.201      26.546      32.784      41.345      51.124      59.290    
  35.622      34.310      31.024      27.140      23.686      20.987      19.463      19.406      20.781      23.375    
  27.179      31.956      36.930      40.807      42.285      40.807      36.930      31.956      27.179      23.375    
  20.781      19.406      19.463      20.987      23.686      27.140      31.024      34.310      21.609      21.214    
  20.197      18.964      17.981      17.690      18.494      20.642      24.211      29.518      36.584      44.878    
  53.117      59.354      61.698      59.354      53.117      44.878      36.584      29.518      24.211      20.642    
  18.494      17.690      17.981      18.964      20.197      21.214      14.845      14.751      14.585      14.608    
  15.097      16.390      18.921      23.022      29.254      37.781      48.133      59.399      70.064      77.943    
  80.877      77.943      70.064      59.399      48.133      37.781      29.254      23.022      18.921      16.390    
  15.097      14.608      14.585      14.751      11.612      11.645      11.876      12.555      13.901      16.265    
  20.189      26.479      35.826      47.589      60.516      73.510      85.330      93.985      97.215      93.985    
  85.330      73.510      60.516      47.589      35.826      26.479      20.189      16.265      13.901      12.555    
  11.876      11.645      9.4972      9.6116      10.124      11.311      13.351      16.623      21.914      30.745    
  43.431      58.212      73.060      87.086      99.741      109.23      112.85      109.23      99.741      87.086    
  73.060      58.212      43.431      30.745      21.914      16.623      13.351      11.311      10.124      9.6116    
  8.2964      8.4416      9.1013      10.615      13.152      17.135      23.765      35.133      50.978      68.440    
  84.971      100.25      114.49      125.71      130.11      125.71      114.49      100.25      84.971      68.440    
  50.978      35.133      23.765      17.135      13.152      10.615      9.1013      8.4416      8.2975      8.3986    
  8.9931      10.531      13.239      17.606      25.243      38.536      56.730      76.180      94.121      110.83    
  127.09      140.41      145.74      140.41      127.09      110.83      94.121      76.180      56.730      38.536    
  25.243      17.606      13.239      10.531      8.9931      8.3986      8.5582      8.6222      9.1391      10.619    
  13.332      17.806      25.816      39.831      58.905      79.108      97.633      115.02      132.24      146.53    
  152.29      146.53      132.24      115.02      97.633      79.108      58.905      39.831      25.816      17.806    
  13.332      10.619      9.1391      8.6222      8.2975      8.3986      8.9931      10.531      13.239      17.606    
  25.243      38.536      56.730      76.180      94.121      110.83      127.09      140.41      145.74      140.41    
  127.09      110.83      94.121      76.180      56.730      38.536      25.243      17.606      13.239      10.531    
  8.9931      8.3986      8.2964      8.4416      9.1013      10.615      13.152      17.135      23.765      35.133    
  50.978      68.440      84.971      100.25      114.49      125.71      130.11      125.71      114.49      100.25    
  84.971      68.440      50.978      35.133      23.765      17.135      13.152      10.615      9.1013      8.4416    
  9.4972      9.6116      10.124      11.311      13.351      16.623      21.914      30.745      43.431      58.212    
  73.060      87.086      99.741      109.23      112.85      109.23      99.741      87.086      73.060      58.212    
  43.431      30.745      21.914      16.623      13.351      11.311      10.124      9.6116      11.612      11.645    
  11.876      12.555      13.901      16.265      20.189      26.479      35.826      47.589      60.516      73.510    
  85.330      93.985      97.215      93.985      85.330      73.510      60.516      47.589      35.826      26.479    
  20.189      16.265      13.901      12.555      11.876      11.645      14.845      14.751      14.585      14.608    
  15.097      16.390      18.921      23.022      29.254      37.781      48.133      59.399      70.064      77.943    
  80.877      77.943      70.064      59.399      48.133      37.781      29.254      23.022      18.921      16.390    
  15.097      14.608      14.585      14.751      21.609      21.214      20.197      18.964      17.981      17.690    
  18.494      20.642      24.211      29.518      36.584      44.878      53.117      59.354      61.698      59.354    
  53.117      44.878      36.584      29.518      24.211      20.642      18.494      17.690      17.981      18.964    
  20.197      21.214      35.622      34.310      31.024      27.140      23.686      20.987      19.463      19.406    
  20.781      23.375      27.179      31.956      36.930      40.807      42.285      40.807      36.930      31.956    
  27.179      23.375      20.781      19.406      19.463      20.987      23.686      27.140      31.024      34.310    
  62.518      59.290      51.124      41.345      32.784      26.546      22.201      19.559      18.728      19.346    
  20.853      22.878      25.077      26.855      27.548      26.855      25.077      22.878      20.853      19.346    
  18.728      19.559      22.201      26.546      32.784      41.345      51.124      59.290      102.61      96.785    
  81.928      63.801      47.367      34.939      26.649      21.169      18.007      16.896      16.977      17.542    
  18.264      18.912      19.184      18.912      18.264      17.542      16.977      16.896      18.007      21.169    
  26.649      34.939      47.367      63.801      81.928      96.785      152.82      144.06      121.69      94.158    
  68.437      47.760      33.119      23.994      18.386      15.685      14.680      14.288      14.234      14.450    
  14.600      14.450      14.234      14.288      14.680      15.685      18.386      23.994      33.119      47.760    
  68.437      94.158      121.69      144.06      210.44      198.45      167.99      130.60      95.107      65.085    
  42.217      27.656      19.482      15.276      13.396      12.272      11.677      11.698      11.837      11.698    
  11.677      12.272      13.396      15.276      19.482      27.656      42.217      65.085      95.107      130.60    
  167.99      198.45      269.87      254.48      215.67      168.48      123.55      84.342      52.795      31.859    
  20.848      15.332      12.773      11.113      10.165      10.155      10.353      10.155      10.165      11.113    
  12.773      15.332      20.848      31.859      52.795      84.342      123.55      168.48      215.67      254.48    
  317.55      299.33      253.63      198.56      146.33      100.07      61.693      35.468      21.983      15.567    
  12.592      10.635      9.5311      9.5890      9.8691      9.5890      9.5311      10.635      12.592      15.567    
  21.983      35.468      61.693      100.07      146.33      198.56      253.63      299.33      284.46      268.49    
  228.19      178.98      131.69      89.852      55.773      33.017      21.217      15.401      12.693      10.911    
  9.8779      9.8552      10.065      9.8552      9.8779      10.911      12.693      15.401      21.217      33.017    
  55.773      89.852      131.69      178.98      228.19      268.49      270.51      255.33      216.91      169.87    
  124.68      84.961      52.995      31.876      20.829      15.301      12.717      11.016      10.019      9.9657    
  10.146      9.9657      10.019      11.016      12.717      15.301      20.829      31.876      52.995      84.961    
  124.68      169.87      216.91      255.33      233.82      220.64      187.13      145.87      106.34      72.340    
  45.946      29.008      19.833      15.113      12.911      11.482      10.639      10.553      10.677      10.553    
  10.639      11.482      12.911      15.113      19.833      29.008      45.946      72.340      106.34      145.87    
  187.13      220.64      185.60      175.01      147.98      114.56      82.880      56.674      37.482      25.577    
  18.626      15.074      13.490      12.548      12.033      12.007      12.097      12.007      12.033      12.548    
  13.490      15.074      18.626      25.577      37.482      56.674      82.880      114.56      147.98      175.01    
  135.85      128.00      107.93      83.208      60.307      42.356      30.078      22.403      17.651      15.430    
  14.637      14.354      14.333      14.509      14.626      14.509      14.333      14.354      14.637      15.430    
  17.651      22.403      30.078      42.356      60.307      83.208      107.93      128.00      90.841      85.680    
  72.535      56.559      42.241      31.633      24.616      19.896      17.300      16.475      16.652      17.228    
  17.912      18.496      18.732      18.496      17.912      17.228      16.652      16.475      17.300      19.896    
  24.616      31.633      42.241      56.559      72.535      85.680      55.227      52.453      45.447      37.095    
  29.822      24.482      20.678      18.488      17.917      18.600      20.039      21.855      23.757      25.266    
  25.849      25.266      23.757      21.855      20.039      18.600      17.917      18.488      20.678      24.482    
  29.822      37.095      45.447      52.453      32.236      31.135      28.368      25.051      21.988      19.600    
  18.328      18.387      19.725      22.102      25.443      29.553      33.775      37.038      38.276      37.038    
  33.775      29.553      25.443      22.102      19.725      18.387      18.328      19.600      21.988      25.051    
  28.368      31.135      20.320      19.961      19.037      17.923      17.048      16.813      17.570      19.542    
  22.753      27.431      33.612      40.786      47.815      53.073      55.036      53.073      47.815      40.786    
  33.612      27.431      22.753      19.542      17.570      16.813      17.048      17.923      19.037      19.961    
  14.298      14.228      14.111      14.160      14.615      15.781      18.054      21.724      27.236      34.849    
  44.104      54.030      63.195      69.808      72.237      69.808      63.195      54.030      44.104      34.849    
  27.236      21.724      18.054      15.781      14.615      14.160      14.111      14.228      11.352      11.414    
  11.695      12.374      13.625      15.765      19.299      24.864      33.249      44.048      55.978      67.665    
  77.795      84.873      87.443      84.873      77.795      67.665      55.978      44.048      33.249      24.864    
  19.299      15.765      13.625      12.374      11.695      11.414      9.3526      9.5063      10.083      11.264    
  13.178      16.168      20.926      28.782      40.395      54.366      68.496      81.265      91.845      99.176    
  101.85      99.176      91.845      81.265      68.496      54.366      40.395      28.782      20.926      16.168    
  13.178      11.264      10.083      9.5063      8.0838      8.2859      9.0452      10.579      12.997      16.685    
  22.644      32.857      47.609      64.481      80.532      94.384      105.81      113.94      116.97      113.94    
  105.81      94.384      80.532      64.481      47.609      32.857      22.644      16.685      12.997      10.579    
  9.0452      8.2859      7.8157      8.0005      8.7577      10.384      13.025      17.128      24.006      36.039    
  53.151      72.175      89.735      104.71      117.33      126.62      130.17      126.62      117.33      104.71    
  89.735      72.175      53.151      36.039      24.006      17.128      13.025      10.384      8.7577      8.0005    
  7.9116      8.0737      8.7882      10.397      13.078      17.307      24.530      37.253      55.253      75.086    
  93.246      108.74      121.94      131.80      135.60      131.80      121.94      108.74      93.246      75.086    
  55.253      37.253      24.530      17.307      13.078      10.397      8.7882      8.0737      7.8157      8.0005    
  8.7577      10.384      13.025      17.128      24.006      36.039      53.151      72.175      89.735      104.71    
  117.33      126.62      130.17      126.62      117.33      104.71      89.735      72.175      53.151      36.039    
  24.006      17.128      13.025      10.384      8.7577      8.0005      8.0838      8.2859      9.0452      10.579    
  12.997      16.685      22.644      32.857      47.609      64.481      80.532      94.384      105.81      113.94    
  116.97      113.94      105.81      94.384      80.532      64.481      47.609      32.857      22.644      16.685    
  12.997      10.579      9.0452      8.2859      9.3526      9.5063      10.083      11.264      13.178      16.168    
  20.926      28.782      40.395      54.366      68.496      81.265      91.845      99.176      101.85      99.176    
  91.845      81.265      68.496      54.366      40.395      28.782      20.926      16.168      13.178      11.264    
  10.083      9.5063      11.352      11.414      11.695      12.374      13.625      15.765      19.299      24.864    
  33.249      44.048      55.978      67.665      77.795      84.873      87.443      84.873      77.795      67.665    
  55.978      44.048      33.249      24.864      19.299      15.765      13.625      12.374      11.695      11.414    
  14.298      14.228      14.111      14.160      14.615      15.781      18.054      21.724      27.236      34.849    
  44.104      54.030      63.195      69.808      72.237      69.808      63.195      54.030      44.104      34.849    
  27.236      21.724      18.054      15.781      14.615      14.160      14.111      14.228      20.320      19.961    
  19.037      17.923      17.048      16.813      17.570      19.542      22.753      27.431      33.612      40.786    
  47.815      53.073      55.036      53.073      47.815      40.786      33.612      27.431      22.753      19.542    
  17.570      16.813      17.048      17.923      19.037      19.961      32.236      31.135      28.368      25.051    
  21.988      19.600      18.328      18.387      19.725      22.102      25.443      29.553      33.775      37.038    
  38.276      37.038      33.775      29.553      25.443      22.102      19.725      18.387      18.328      19.600    
  21.988      25.051      28.368      31.135      55.227      52.453      45.447      37.095      29.822      24.482    
  20.678      18.488      17.917      18.600      20.039      21.855      23.757      25.266      25.849      25.266    
  23.757      21.855      20.039      18.600      17.917      18.488      20.678      24.482      29.822      37.095    
  45.447      52.453      90.841      85.680      72.535      56.559      42.241      31.633      24.616      19.896    
  17.300      16.475      16.652      17.228      17.912      18.496      18.732      18.496      17.912      17.228    
  16.652      16.475      17.300      19.896      24.616      31.633      42.241      56.559      72.535      85.680    
  135.85      128.00      107.93      83.208      60.307      42.356      30.078      22.403      17.651      15.430    
  14.637      14.354      14.333      14.509      14.626      14.509      14.333      14.354      14.637      15.430    
  17.651      22.403      30.078      42.356      60.307      83.208      107.93      128.00      185.60      175.01    
  147.98      114.56      82.880      56.674      37.482      25.577      18.626      15.074      13.490      12.548    
  12.033      12.007      12.097      12.007      12.033      12.548      13.490      15.074      18.626      25.577    
  37.482      56.674      82.880      114.56      147.98      175.01      233.82      220.64      187.13      145.87    
  106.34      72.340      45.946      29.008      19.833      15.113      12.911      11.482      10.639      10.553    
  10.677      10.553      10.639      11.482      12.911      15.113      19.833      29.008      45.946      72.340    
  106.34      145.87      187.13      220.64      270.51      255.33      216.91      169.87      124.68      84.961    
  52.995      31.876      20.829      15.301      12.717      11.016      10.019      9.9657      10.146      9.9657    
  10.019      11.016      12.717      15.301      20.829      31.876      52.995      84.961      124.68      169.87    
  216.91      255.33      220.50      208.43      177.58      139.13      101.75      69.361      44.336      28.428    
  19.732      15.290      13.304      12.108      11.469      11.490      11.640      11.490      11.469      12.108    
  13.304      15.290      19.732      28.428      44.336      69.361      101.75      139.13      177.58      208.43    
  211.29      199.66      169.89      132.76      96.799      65.939      42.428      27.621      19.410      15.203    
  13.319      12.182      11.567      11.567      11.697      11.567      11.567      12.182      13.319      15.203    
  19.410      27.621      42.428      65.939      96.799      132.76      169.89      199.66      185.94      175.52    
  148.81      115.51      83.611      57.019      37.546      25.544      18.579      15.030      13.451      12.518    
  12.012      11.992      12.084      11.992      12.012      12.518      13.451      15.030      18.579      25.544    
  37.546      57.019      83.611      115.51      148.81      175.52      149.99      141.39      119.33      91.945    