unknown system                          
   1.00000000000000     
     3.866000    0.000000    0.000000
     0.000000    3.866000    0.000000
     0.000000    0.000000    3.866000
   Pd   Ir   Pt   Cu
     1     1     1     1
Direct
  0.000000  0.000000  0.000000
  0.500000  0.500000  0.000000
  0.500000  0.000000  0.500000
  0.000000  0.500000  0.500000
 
   28   28   28
 0.35643051344E+03 0.33569207354E+03 0.28395975040E+03 0.22220599442E+03 0.16414500976E+03
 0.11252990655E+03 0.68912628361E+02 0.38475639308E+02 0.22897891421E+02 0.15840991324E+02
 0.12619103341E+02 0.10529805651E+02 0.94089702061E+01 0.96064921360E+01 0.99849192159E+01
 0.96064921360E+01 0.94089702061E+01 0.10529805651E+02 0.12619103341E+02 0.15840991324E+02
 0.22897891421E+02 0.38475639308E+02 0.68912628361E+02 0.11252990655E+03 0.16414500976E+03
 0.22220599442E+03 0.28395975040E+03 0.33569207354E+03 0.33582024930E+03 0.31637063921E+03
 0.26775452444E+03 0.20950580611E+03 0.15458176692E+03 0.10588589113E+03 0.65093464351E+02
 0.36898385354E+02 0.22430231267E+02 0.15705079614E+02 0.12618477422E+02 0.10613272109E+02
 0.95200091712E+01 0.96611891793E+01 0.99949491519E+01 0.96611891793E+01 0.95200091712E+01
 0.10613272109E+02 0.12618477422E+02 0.15705079614E+02 0.22430231267E+02 0.36898385354E+02
 0.65093464351E+02 0.10588589113E+03 0.15458176692E+03 0.20950580611E+03 0.26775452444E+03
 0.31637063921E+03 0.28348668490E+03 0.26723169404E+03 0.22636449690E+03 0.17691601477E+03
 0.13001962356E+03 0.88919309952E+02 0.55460802536E+02 0.32983836970E+02 0.21240568534E+02
 0.15445193838E+02 0.12779805318E+02 0.11071371022E+02 0.10126395968E+02 0.10178470029E+02
 0.10417624396E+02 0.10178470029E+02 0.10126395968E+02 0.11071371022E+02 0.12779805318E+02
 0.15445193838E+02 0.21240568534E+02 0.32983836970E+02 0.55460802536E+02 0.88919309952E+02
 0.13001962356E+03 0.17691601477E+03 0.22636449690E+03 0.26723169404E+03 0.21938615920E+03
 0.20687976635E+03 0.17518970246E+03 0.13641039725E+03 0.99609595309E+02 0.68258247268E+02
 0.44046177796E+02 0.28457576419E+02 0.19811659359E+02 0.15373027184E+02 0.13400997783E+02
 0.12236398649E+02 0.11640533196E+02 0.11703807652E+02 0.11871084647E+02 0.11703807652E+02
 0.11640533196E+02 0.12236398649E+02 0.13400997783E+02 0.15373027184E+02 0.19811659359E+02
 0.28457576419E+02 0.44046177796E+02 0.68258247268E+02 0.99609595309E+02 0.13641039725E+03
 0.17518970246E+03 0.20687976635E+03 0.15868997007E+03 0.14961497925E+03 0.12648364261E+03
 0.98037115643E+02 0.71394454375E+02 0.49785762401E+02 0.34281026446E+02 0.24585856361E+02
 0.18669299648E+02 0.15794090376E+02 0.14720886971E+02 0.14303427189E+02 0.14254052892E+02
 0.14500334049E+02 0.14668794422E+02 0.14500334049E+02 0.14254052892E+02 0.14303427189E+02
 0.14720886971E+02 0.15794090376E+02 0.18669299648E+02 0.24585856361E+02 0.34281026446E+02
 0.49785762401E+02 0.71394454375E+02 0.98037115643E+02 0.12648364261E+03 0.14961497925E+03
 0.10669091666E+03 0.10064183829E+03 0.85222340424E+02 0.66388827865E+02 0.49246115821E+02
 0.36178243213E+02 0.27406272056E+02 0.21647121713E+02 0.18277137387E+02 0.17061342794E+02
 0.17110264998E+02 0.17678065119E+02 0.18423263468E+02 0.19106640316E+02 0.19396517729E+02
 0.19106640316E+02 0.18423263468E+02 0.17678065119E+02 0.17110264998E+02 0.17061342794E+02
 0.18277137387E+02 0.21647121713E+02 0.27406272056E+02 0.36178243213E+02 0.49246115821E+02
 0.66388827865E+02 0.85222340424E+02 0.10064183829E+03 0.65135086269E+02 0.61751624485E+02
 0.53185971192E+02 0.42911366550E+02 0.33889320750E+02 0.27309999482E+02 0.22767278314E+02
 0.19962292554E+02 0.19035365659E+02 0.19627584806E+02 0.21164388505E+02 0.23277254800E+02
 0.25599034024E+02 0.27488485352E+02 0.28226581446E+02 0.27488485352E+02 0.25599034024E+02
 0.23277254800E+02 0.21164388505E+02 0.19627584806E+02 0.19035365659E+02 0.19962292554E+02
 0.22767278314E+02 0.27309999482E+02 0.33889320750E+02 0.42911366550E+02 0.53185971192E+02
 0.61751624485E+02 0.36881552137E+02 0.35492693315E+02 0.32015819804E+02 0.27916299213E+02
 0.24307601325E+02 0.21502937335E+02 0.19889544292E+02 0.19787857472E+02 0.21174280677E+02
 0.23853429486E+02 0.27836263878E+02 0.32871944331E+02 0.38139531019E+02 0.42257866687E+02
 0.43829885297E+02 0.42257866687E+02 0.38139531019E+02 0.32871944331E+02 0.27836263878E+02
 0.23853429486E+02 0.21174280677E+02 0.19787857472E+02 0.19889544292E+02 0.21502937335E+02
 0.24307601325E+02 0.27916299213E+02 0.32015819804E+02 0.35492693315E+02 0.22063497196E+02
 0.21655226269E+02 0.20609958916E+02 0.19341788681E+02 0.18326287873E+02 0.18019505784E+02
 0.18840702146E+02 0.21049618484E+02 0.24752542908E+02 0.30290826203E+02 0.37686993578E+02
 0.46406726672E+02 0.55114783162E+02 0.61734883548E+02 0.64229091166E+02 0.61734883548E+02
 0.55114783162E+02 0.46406726672E+02 0.37686993578E+02 0.30290826203E+02 0.24752542908E+02
 0.21049618484E+02 0.18840702146E+02 0.18019505784E+02 0.18326287873E+02 0.19341788681E+02
 0.20609958916E+02 0.21655226269E+02 0.15043772606E+02 0.14938106513E+02 0.14751689192E+02
 0.14765444304E+02 0.15270221560E+02 0.16615059345E+02 0.19241396689E+02 0.23502580609E+02
 0.29989521726E+02 0.38837632640E+02 0.49584227376E+02 0.61358715496E+02 0.72615699351E+02
 0.81003160456E+02 0.84141544911E+02 0.81003160456E+02 0.72615699351E+02 0.61358715496E+02
 0.49584227376E+02 0.38837632640E+02 0.29989521726E+02 0.23502580609E+02 0.19241396689E+02
 0.16615059345E+02 0.15270221560E+02 0.14765444304E+02 0.14751689192E+02 0.14938106513E+02
 0.11748052345E+02 0.11762431754E+02 0.11957959289E+02 0.12620620769E+02 0.13994169502E+02
 0.16441516412E+02 0.20513339657E+02 0.27066216881E+02 0.36739533118E+02 0.48815877908E+02
 0.62086946206E+02 0.75588013665E+02 0.88105964095E+02 0.97424768425E+02 0.10093279987E+03
 0.97424768425E+02 0.88105964095E+02 0.75588013665E+02 0.62086946206E+02 0.48815877908E+02
 0.36739533118E+02 0.27066216881E+02 0.20513339657E+02 0.16441516412E+02 0.13994169502E+02
 0.12620620769E+02 0.11957959289E+02 0.11762431754E+02 0.96748163842E+01 0.97579669879E+01
 0.10206705513E+02 0.11352533473E+02 0.13410739423E+02 0.16775781108E+02 0.22266858219E+02
 0.31440594272E+02 0.44468145066E+02 0.59478855713E+02 0.74560539622E+02 0.89105305258E+02
 0.10266308100E+03 0.11309893809E+03 0.11712498738E+03 0.11309893809E+03 0.10266308100E+03
 0.89105305258E+02 0.74560539622E+02 0.59478855713E+02 0.44468145066E+02 0.31440594272E+02
 0.22266858219E+02 0.16775781108E+02 0.13410739423E+02 0.11352533473E+02 0.10206705513E+02
 0.97579669879E+01 0.86102334090E+01 0.87073901659E+01 0.92630919866E+01 0.10693215761E+02
 0.13219357837E+02 0.17283893035E+02 0.24157980725E+02 0.35919531282E+02 0.52089216141E+02
 0.69676332880E+02 0.86355106302E+02 0.10225485734E+03 0.11775751648E+03 0.13034397670E+03
 0.13534546860E+03 0.13034397670E+03 0.11775751648E+03 0.10225485734E+03 0.86355106302E+02
 0.69676332880E+02 0.52089216141E+02 0.35919531282E+02 0.24157980725E+02 0.17283893035E+02
 0.13219357837E+02 0.10693215761E+02 0.92630919866E+01 0.87073901659E+01 0.88096292670E+01
 0.88443546368E+01 0.92896673482E+01 0.10691649696E+02 0.13344889283E+02 0.17769281672E+02
 0.25673283725E+02 0.39384289310E+02 0.57879549233E+02 0.77379763154E+02 0.95440068955E+02
 0.11293768404E+03 0.13083470650E+03 0.14594221179E+03 0.15205513547E+03 0.14594221179E+03
 0.13083470650E+03 0.11293768404E+03 0.95440068955E+02 0.77379763154E+02 0.57879549233E+02
 0.39384289310E+02 0.25673283725E+02 0.17769281672E+02 0.13344889283E+02 0.10691649696E+02
 0.92896673482E+01 0.88443546368E+01 0.91713274168E+01 0.91604795393E+01 0.95066549736E+01
 0.10825872210E+02 0.13461945727E+02 0.17978847549E+02 0.26260892711E+02 0.40702003054E+02
 0.60066560632E+02 0.80294501998E+02 0.98937178854E+02 0.11718702011E+03 0.13620502741E+03
 0.15246490510E+03 0.15907958945E+03 0.15246490510E+03 0.13620502741E+03 0.11718702011E+03
 0.98937178854E+02 0.80294501998E+02 0.60066560632E+02 0.40702003054E+02 0.26260892711E+02
 0.17978847549E+02 0.13461945727E+02 0.10825872210E+02 0.95066549736E+01 0.91604795393E+01
 0.88096292670E+01 0.88443546368E+01 0.92896673482E+01 0.10691649696E+02 0.13344889283E+02
 0.17769281672E+02 0.25673283725E+02 0.39384289310E+02 0.57879549233E+02 0.77379763154E+02
 0.95440068955E+02 0.11293768404E+03 0.13083470650E+03 0.14594221179E+03 0.15205513547E+03
 0.14594221179E+03 0.13083470650E+03 0.11293768404E+03 0.95440068955E+02 0.77379763154E+02
 0.57879549233E+02 0.39384289310E+02 0.25673283725E+02 0.17769281672E+02 0.13344889283E+02
 0.10691649696E+02 0.92896673482E+01 0.88443546368E+01 0.86102334090E+01 0.87073901659E+01
 0.92630919866E+01 0.10693215761E+02 0.13219357837E+02 0.17283893035E+02 0.24157980725E+02
 0.35919531282E+02 0.52089216141E+02 0.69676332880E+02 0.86355106302E+02 0.10225485734E+03
 0.11775751648E+03 0.13034397670E+03 0.13534546860E+03 0.13034397670E+03 0.11775751648E+03
 0.10225485734E+03 0.86355106302E+02 0.69676332880E+02 0.52089216141E+02 0.35919531282E+02
 0.24157980725E+02 0.17283893035E+02 0.13219357837E+02 0.10693215761E+02 0.92630919866E+01
 0.87073901659E+01 0.96748163842E+01 0.97579669879E+01 0.10206705513E+02 0.11352533473E+02
 0.13410739423E+02 0.16775781108E+02 0.22266858219E+02 0.31440594272E+02 0.44468145066E+02
 0.59478855713E+02 0.74560539622E+02 0.89105305258E+02 0.10266308100E+03 0.11309893809E+03
 0.11712498738E+03 0.11309893809E+03 0.10266308100E+03 0.89105305258E+02 0.74560539622E+02
 0.59478855713E+02 0.44468145066E+02 0.31440594272E+02 0.22266858219E+02 0.16775781108E+02
 0.13410739423E+02 0.11352533473E+02 0.10206705513E+02 0.97579669879E+01 0.11748052345E+02
 0.11762431754E+02 0.11957959289E+02 0.12620620769E+02 0.13994169502E+02 0.16441516412E+02
 0.20513339657E+02 0.27066216881E+02 0.36739533118E+02 0.48815877908E+02 0.62086946206E+02
 0.75588013665E+02 0.88105964095E+02 0.97424768425E+02 0.10093279987E+03 0.97424768425E+02
 0.88105964095E+02 0.75588013665E+02 0.62086946206E+02 0.48815877908E+02 0.36739533118E+02
 0.27066216881E+02 0.20513339657E+02 0.16441516412E+02 0.13994169502E+02 0.12620620769E+02
 0.11957959289E+02 0.11762431754E+02 0.15043772606E+02 0.14938106513E+02 0.14751689192E+02
 0.14765444304E+02 0.15270221560E+02 0.16615059345E+02 0.19241396689E+02 0.23502580609E+02
 0.29989521726E+02 0.38837632640E+02 0.49584227376E+02 0.61358715496E+02 0.72615699351E+02
 0.81003160456E+02 0.84141544911E+02 0.81003160456E+02 0.72615699351E+02 0.61358715496E+02
 0.49584227376E+02 0.38837632640E+02 0.29989521726E+02 0.23502580609E+02 0.19241396689E+02
 0.16615059345E+02 0.15270221560E+02 0.14765444304E+02 0.14751689192E+02 0.14938106513E+02
 0.22063497196E+02 0.21655226269E+02 0.20609958916E+02 0.19341788681E+02 0.18326287873E+02
 0.18019505784E+02 0.18840702146E+02 0.21049618484E+02 0.24752542908E+02 0.30290826203E+02
 0.37686993578E+02 0.46406726672E+02 0.55114783162E+02 0.61734883548E+02 0.64229091166E+02
 0.61734883548E+02 0.55114783162E+02 0.46406726672E+02 0.37686993578E+02 0.30290826203E+02
 0.24752542908E+02 0.21049618484E+02 0.18840702146E+02 0.18019505784E+02 0.18326287873E+02
 0.19341788681E+02 0.20609958916E+02 0.21655226269E+02 0.36881552137E+02 0.35492693315E+02
 0.32015819804E+02 0.27916299213E+02 0.24307601325E+02 0.21502937335E+02 0.19889544292E+02
 0.19787857472E+02 0.21174280677E+02 0.23853429486E+02 0.27836263878E+02 0.32871944331E+02
 0.38139531019E+02 0.42257866687E+02 0.43829885297E+02 0.42257866687E+02 0.38139531019E+02
 0.32871944331E+02 0.27836263878E+02 0.23853429486E+02 0.21174280677E+02 0.19787857472E+02
 0.19889544292E+02 0.21502937335E+02 0.24307601325E+02 0.27916299213E+02 0.32015819804E+02
 0.35492693315E+02 0.65135086269E+02 0.61751624485E+02 0.53185971192E+02 0.42911366550E+02
 0.33889320750E+02 0.27309999482E+02 0.22767278314E+02 0.19962292554E+02 0.19035365659E+02
 0.19627584806E+02 0.21164388505E+02 0.23277254800E+02 0.25599034024E+02 0.27488485352E+02
 0.28226581446E+02 0.27488485352E+02 0.25599034024E+02 0.23277254800E+02 0.21164388505E+02
 0.19627584806E+02 0.19035365659E+02 0.19962292554E+02 0.22767278314E+02 0.27309999482E+02
 0.33889320750E+02 0.42911366550E+02 0.53185971192E+02 0.61751624485E+02 0.10669091666E+03
 0.10064183829E+03 0.85222340424E+02 0.66388827865E+02 0.49246115821E+02 0.36178243213E+02
 0.27406272056E+02 0.21647121713E+02 0.18277137387E+02 0.17061342794E+02 0.17110264998E+02
 0.17678065119E+02 0.18423263468E+02 0.19106640316E+02 0.19396517729E+02 0.19106640316E+02
 0.18423263468E+02 0.17678065119E+02 0.17110264998E+02 0.17061342794E+02 0.18277137387E+02
 0.21647121713E+02 0.27406272056E+02 0.36178243213E+02 0.49246115821E+02 0.66388827865E+02
 0.85222340424E+02 0.10064183829E+03 0.15868997007E+03 0.14961497925E+03 0.12648364261E+03
 0.98037115643E+02 0.71394454375E+02 0.49785762401E+02 0.34281026446E+02 0.24585856361E+02
 0.18669299648E+02 0.15794090376E+02 0.14720886971E+02 0.14303427189E+02 0.14254052892E+02
 0.14500334049E+02 0.14668794422E+02 0.14500334049E+02 0.14254052892E+02 0.14303427189E+02
 0.14720886971E+02 0.15794090376E+02 0.18669299648E+02 0.24585856361E+02 0.34281026446E+02
 0.49785762401E+02 0.71394454375E+02 0.98037115643E+02 0.12648364261E+03 0.14961497925E+03
 0.21938615920E+03 0.20687976635E+03 0.17518970246E+03 0.13641039725E+03 0.99609595309E+02
 0.68258247268E+02 0.44046177796E+02 0.28457576419E+02 0.19811659359E+02 0.15373027184E+02
 0.13400997783E+02 0.12236398649E+02 0.11640533196E+02 0.11703807652E+02 0.11871084647E+02
 0.11703807652E+02 0.11640533196E+02 0.12236398649E+02 0.13400997783E+02 0.15373027184E+02
 0.19811659359E+02 0.28457576419E+02 0.44046177796E+02 0.68258247268E+02 0.99609595309E+02
 0.13641039725E+03 0.17518970246E+03 0.20687976635E+03 0.28348668490E+03 0.26723169404E+03
 0.22636449690E+03 0.17691601477E+03 0.13001962356E+03 0.88919309952E+02 0.55460802536E+02
 0.32983836970E+02 0.21240568534E+02 0.15445193838E+02 0.12779805318E+02 0.11071371022E+02
 0.10126395968E+02 0.10178470029E+02 0.10417624396E+02 0.10178470029E+02 0.10126395968E+02
 0.11071371022E+02 0.12779805318E+02 0.15445193838E+02 0.21240568534E+02 0.32983836970E+02
 0.55460802536E+02 0.88919309952E+02 0.13001962356E+03 0.17691601477E+03 0.22636449690E+03
 0.26723169404E+03 0.33582024930E+03 0.31637063921E+03 0.26775452444E+03 0.20950580611E+03
 0.15458176692E+03 0.10588589113E+03 0.65093464351E+02 0.36898385354E+02 0.22430231267E+02
 0.15705079614E+02 0.12618477422E+02 0.10613272109E+02 0.95200091712E+01 0.96611891793E+01
 0.99949491519E+01 0.96611891793E+01 0.95200091712E+01 0.10613272109E+02 0.12618477422E+02
 0.15705079614E+02 0.22430231267E+02 0.36898385354E+02 0.65093464351E+02 0.10588589113E+03
 0.15458176692E+03 0.20950580611E+03 0.26775452444E+03 0.31637063921E+03 0.33617002933E+03
 0.31681322214E+03 0.26837739274E+03 0.21020422440E+03 0.15515683454E+03 0.10621818056E+03
 0.65214758824E+02 0.36918311447E+02 0.22426308265E+02 0.15690425000E+02 0.12581625417E+02
 0.10539693171E+02 0.94028612445E+01 0.95078494874E+01 0.98274174599E+01 0.95078494874E+01
 0.94028612445E+01 0.10539693171E+02 0.12581625417E+02 0.15690425000E+02 0.22426308265E+02
 0.36918311447E+02 0.65214758824E+02 0.10621818056E+03 0.15515683454E+03 0.21020422440E+03
 0.26837739274E+03 0.31681322214E+03 0.31755232660E+03 0.29932791355E+03 0.25363250273E+03
 0.19855824949E+03 0.14633006583E+03 0.10007425282E+03 0.61692711759E+02 0.35468135261E+02
 0.21982974253E+02 0.15566663805E+02 0.12591976986E+02 0.10635468033E+02 0.95310530302E+01
 0.95889550526E+01 0.98690664242E+01 0.95889550526E+01 0.95310530302E+01 0.10635468033E+02
 0.12591976986E+02 0.15566663805E+02 0.21982974253E+02 0.35468135261E+02 0.61692711759E+02
 0.10007425282E+03 0.14633006583E+03 0.19855824949E+03 0.25363250273E+03 0.29932791355E+03
 0.26987479398E+03 0.25448333337E+03 0.21567317649E+03 0.16847513054E+03 0.12355407481E+03
 0.84341752454E+02 0.52795217213E+02 0.31859279590E+02 0.20848318691E+02 0.15332115328E+02
 0.12772596436E+02 0.11112703498E+02 0.10165191534E+02 0.10154922289E+02 0.10352792987E+02
 0.10154922289E+02 0.10165191534E+02 0.11112703498E+02 0.12772596436E+02 0.15332115328E+02
 0.20848318691E+02 0.31859279590E+02 0.52795217213E+02 0.84341752454E+02 0.12355407481E+03
 0.16847513054E+03 0.21567317649E+03 0.25448333337E+03 0.21043914341E+03 0.19844685246E+03
 0.16799110471E+03 0.13060226314E+03 0.95107012827E+02 0.65084640366E+02 0.42216986161E+02
 0.27655509915E+02 0.19482061737E+02 0.15276032355E+02 0.13395727044E+02 0.12272364051E+02
 0.11677142722E+02 0.11698294550E+02 0.11837489783E+02 0.11698294550E+02 0.11677142722E+02
 0.12272364051E+02 0.13395727044E+02 0.15276032355E+02 0.19482061737E+02 0.27655509915E+02
 0.42216986161E+02 0.65084640366E+02 0.95107012827E+02 0.13060226314E+03 0.16799110471E+03
 0.19844685246E+03 0.15282213954E+03 0.14405602635E+03 0.12168825522E+03 0.94158039346E+02
 0.68436989636E+02 0.47760313775E+02 0.33119037538E+02 0.23993696891E+02 0.18386450574E+02
 0.15685129180E+02 0.14680465856E+02 0.14288442220E+02 0.14233930892E+02 0.14449845784E+02
 0.14599694545E+02 0.14449845784E+02 0.14233930892E+02 0.14288442220E+02 0.14680465856E+02
 0.15685129180E+02 0.18386450574E+02 0.23993696891E+02 0.33119037538E+02 0.47760313775E+02
 0.68436989636E+02 0.94158039346E+02 0.12168825522E+03 0.14405602635E+03 0.10261398566E+03
 0.96785134492E+02 0.81928029487E+02 0.63801068129E+02 0.47366904527E+02 0.34938857774E+02
 0.26648726540E+02 0.21169249572E+02 0.18006669150E+02 0.16895778156E+02 0.16976694179E+02
 0.17541898494E+02 0.18263828080E+02 0.18911960136E+02 0.19183737937E+02 0.18911960136E+02
 0.18263828080E+02 0.17541898494E+02 0.16976694179E+02 0.16895778156E+02 0.18006669150E+02
 0.21169249572E+02 0.26648726540E+02 0.34938857774E+02 0.47366904527E+02 0.63801068129E+02
 0.81928029487E+02 0.96785134492E+02 0.62517848961E+02 0.59290087799E+02 0.51123966974E+02
 0.41345426383E+02 0.32784358205E+02 0.26545668953E+02 0.22201272687E+02 0.19559140394E+02
 0.18728406322E+02 0.19345658241E+02 0.20853104997E+02 0.22877965664E+02 0.25077042252E+02
 0.26855447022E+02 0.27548214829E+02 0.26855447022E+02 0.25077042252E+02 0.22877965664E+02
 0.20853104997E+02 0.19345658241E+02 0.18728406322E+02 0.19559140394E+02 0.22201272687E+02
 0.26545668953E+02 0.32784358205E+02 0.41345426383E+02 0.51123966974E+02 0.59290087799E+02
 0.35621828766E+02 0.34310196694E+02 0.31024381389E+02 0.27139624073E+02 0.23686008081E+02
 0.20986557843E+02 0.19463427726E+02 0.19406055173E+02 0.20781292702E+02 0.23374725018E+02
 0.27178718567E+02 0.31955979733E+02 0.36930283426E+02 0.40807381246E+02 0.42285041217E+02
 0.40807381246E+02 0.36930283426E+02 0.31955979733E+02 0.27178718567E+02 0.23374725018E+02
 0.20781292702E+02 0.19406055173E+02 0.19463427726E+02 0.20986557843E+02 0.23686008081E+02
 0.27139624073E+02 0.31024381389E+02 0.34310196694E+02 0.21608996690E+02 0.21213901088E+02
 0.20197246505E+02 0.18964282841E+02 0.17980765197E+02 0.17690102534E+02 0.18493965049E+02
 0.20641979683E+02 0.24211088762E+02 0.29517756411E+02 0.36584189295E+02 0.44878200463E+02
 0.53117482726E+02 0.59353885504E+02 0.61697938054E+02 0.59353885504E+02 0.53117482726E+02
 0.44878200463E+02 0.36584189295E+02 0.29517756411E+02 0.24211088762E+02 0.20641979683E+02
 0.18493965049E+02 0.17690102534E+02 0.17980765197E+02 0.18964282841E+02 0.20197246505E+02
 0.21213901088E+02 0.14845454122E+02 0.14750541529E+02 0.14585013663E+02 0.14608243041E+02
 0.15096689789E+02 0.16390026906E+02 0.18920538542E+02 0.23022255622E+02 0.29253523878E+02
 0.37781089251E+02 0.48132514270E+02 0.59398523489E+02 0.70064093281E+02 0.77942664803E+02
 0.80876616105E+02 0.77942664803E+02 0.70064093281E+02 0.59398523489E+02 0.48132514270E+02
 0.37781089251E+02 0.29253523878E+02 0.23022255622E+02 0.18920538542E+02 0.16390026906E+02
 0.15096689789E+02 0.14608243041E+02 0.14585013663E+02 0.14750541529E+02 0.11611985122E+02
 0.11644897449E+02 0.11876385431E+02 0.12555232913E+02 0.13900998697E+02 0.16264861649E+02
 0.20189499580E+02 0.26478900718E+02 0.35826432210E+02 0.47589091498E+02 0.60515858853E+02
 0.73509694699E+02 0.85330387733E+02 0.93985476747E+02 0.97214931329E+02 0.93985476747E+02
 0.85330387733E+02 0.73509694699E+02 0.60515858853E+02 0.47589091498E+02 0.35826432210E+02
 0.26478900718E+02 0.20189499580E+02 0.16264861649E+02 0.13900998697E+02 0.12555232913E+02
 0.11876385431E+02 0.11644897449E+02 0.94972028301E+01 0.96115748635E+01 0.10124465584E+02
 0.11311391617E+02 0.13351162979E+02 0.16622881054E+02 0.21914235650E+02 0.30744816664E+02
 0.43430618616E+02 0.58211954983E+02 0.73060290719E+02 0.87086318586E+02 0.99741451778E+02
 0.10923276390E+03 0.11284871247E+03 0.10923276390E+03 0.99741451778E+02 0.87086318586E+02
 0.73060290719E+02 0.58211954983E+02 0.43430618616E+02 0.30744816664E+02 0.21914235650E+02
 0.16622881054E+02 0.13351162979E+02 0.11311391617E+02 0.10124465584E+02 0.96115748635E+01
 0.82963649321E+01 0.84415844374E+01 0.91013010184E+01 0.10614637525E+02 0.13152066864E+02
 0.17135365866E+02 0.23764974285E+02 0.35132795791E+02 0.50978117066E+02 0.68440291763E+02
 0.84971318748E+02 0.10024518277E+03 0.11448866310E+03 0.12570618714E+03 0.13010668429E+03
 0.12570618714E+03 0.11448866310E+03 0.10024518277E+03 0.84971318748E+02 0.68440291763E+02
 0.50978117066E+02 0.35132795791E+02 0.23764974285E+02 0.17135365866E+02 0.13152066864E+02
 0.10614637525E+02 0.91013010184E+01 0.84415844374E+01 0.82974726627E+01 0.83985607865E+01
 0.89930866252E+01 0.10530528747E+02 0.13238535526E+02 0.17606496127E+02 0.25243405821E+02
 0.38535885854E+02 0.56730008110E+02 0.76180021625E+02 0.94121085981E+02 0.11083294224E+03
 0.12709334279E+03 0.14041460217E+03 0.14574327437E+03 0.14041460217E+03 0.12709334279E+03
 0.11083294224E+03 0.94121085981E+02 0.76180021625E+02 0.56730008110E+02 0.38535885854E+02
 0.25243405821E+02 0.17606496127E+02 0.13238535526E+02 0.10530528747E+02 0.89930866252E+01
 0.83985607865E+01 0.85581890715E+01 0.86222451127E+01 0.91390804184E+01 0.10619309535E+02
 0.13332342778E+02 0.17805882747E+02 0.25815713362E+02 0.39831463310E+02 0.58904731169E+02
 0.79108116445E+02 0.97632934338E+02 0.11501910128E+03 0.13223553527E+03 0.14653223337E+03
 0.15228577348E+03 0.14653223337E+03 0.13223553527E+03 0.11501910128E+03 0.97632934338E+02
 0.79108116445E+02 0.58904731169E+02 0.39831463310E+02 0.25815713362E+02 0.17805882747E+02
 0.13332342778E+02 0.10619309535E+02 0.91390804184E+01 0.86222451127E+01 0.82974726627E+01
 0.83985607865E+01 0.89930866252E+01 0.10530528747E+02 0.13238535526E+02 0.17606496127E+02
 0.25243405821E+02 0.38535885854E+02 0.56730008110E+02 0.76180021625E+02 0.94121085981E+02
 0.11083294224E+03 0.12709334279E+03 0.14041460217E+03 0.14574327437E+03 0.14041460217E+03
 0.12709334279E+03 0.11083294224E+03 0.94121085981E+02 0.76180021625E+02 0.56730008110E+02
 0.38535885854E+02 0.25243405821E+02 0.17606496127E+02 0.13238535526E+02 0.10530528747E+02
 0.89930866252E+01 0.83985607865E+01 0.82963649321E+01 0.84415844374E+01 0.91013010184E+01
 0.10614637525E+02 0.13152066864E+02 0.17135365866E+02 0.23764974285E+02 0.35132795791E+02
 0.50978117066E+02 0.68440291763E+02 0.84971318748E+02 0.10024518277E+03 0.11448866310E+03
 0.12570618714E+03 0.13010668429E+03 0.12570618714E+03 0.11448866310E+03 0.10024518277E+03
 0.84971318748E+02 0.68440291763E+02 0.50978117066E+02 0.35132795791E+02 0.23764974285E+02
 0.17135365866E+02 0.13152066864E+02 0.10614637525E+02 0.91013010184E+01 0.84415844374E+01
 0.94972028301E+01 0.96115748635E+01 0.10124465584E+02 0.11311391617E+02 0.13351162979E+02
 0.16622881054E+02 0.21914235650E+02 0.30744816664E+02 0.43430618616E+02 0.58211954983E+02
 0.73060290719E+02 0.87086318586E+02 0.99741451778E+02 0.10923276390E+03 0.11284871247E+03
 0.10923276390E+03 0.99741451778E+02 0.87086318586E+02 0.73060290719E+02 0.58211954983E+02
 0.43430618616E+02 0.30744816664E+02 0.21914235650E+02 0.16622881054E+02 0.13351162979E+02
 0.11311391617E+02 0.10124465584E+02 0.96115748635E+01 0.11611985122E+02 0.11644897449E+02
 0.11876385431E+02 0.12555232913E+02 0.13900998697E+02 0.16264861649E+02 0.20189499580E+02
 0.26478900718E+02 0.35826432210E+02 0.47589091498E+02 0.60515858853E+02 0.73509694699E+02
 0.85330387733E+02 0.93985476747E+02 0.97214931329E+02 0.93985476747E+02 0.85330387733E+02
 0.73509694699E+02 0.60515858853E+02 0.47589091498E+02 0.35826432210E+02 0.26478900718E+02
 0.20189499580E+02 0.16264861649E+02 0.13900998697E+02 0.12555232913E+02 0.11876385431E+02
 0.11644897449E+02 0.14845454122E+02 0.14750541529E+02 0.14585013663E+02 0.14608243041E+02
 0.15096689789E+02 0.16390026906E+02 0.18920538542E+02 0.23022255622E+02 0.29253523878E+02
 0.37781089251E+02 0.48132514270E+02 0.59398523489E+02 0.70064093281E+02 0.77942664803E+02
 0.80876616105E+02 0.77942664803E+02 0.70064093281E+02 0.59398523489E+02 0.48132514270E+02
 0.37781089251E+02 0.29253523878E+02 0.23022255622E+02 0.18920538542E+02 0.16390026906E+02
 0.15096689789E+02 0.14608243041E+02 0.14585013663E+02 0.14750541529E+02 0.21608996690E+02
 0.21213901088E+02 0.20197246505E+02 0.18964282841E+02 0.17980765197E+02 0.17690102534E+02
 0.18493965049E+02 0.20641979683E+02 0.24211088762E+02 0.29517756411E+02 0.36584189295E+02
 0.44878200463E+02 0.53117482726E+02 0.59353885504E+02 0.61697938054E+02 0.59353885504E+02
 0.53117482726E+02 0.44878200463E+02 0.36584189295E+02 0.29517756411E+02 0.24211088762E+02
 0.20641979683E+02 0.18493965049E+02 0.17690102534E+02 0.17980765197E+02 0.18964282841E+02
 0.20197246505E+02 0.21213901088E+02 0.35621828766E+02 0.34310196694E+02 0.31024381389E+02
 0.27139624073E+02 0.23686008081E+02 0.20986557843E+02 0.19463427726E+02 0.19406055173E+02
 0.20781292702E+02 0.23374725018E+02 0.27178718567E+02 0.31955979733E+02 0.36930283426E+02
 0.40807381246E+02 0.42285041217E+02 0.40807381246E+02 0.36930283426E+02 0.31955979733E+02
 0.27178718567E+02 0.23374725018E+02 0.20781292702E+02 0.19406055173E+02 0.19463427726E+02
 0.20986557843E+02 0.23686008081E+02 0.27139624073E+02 0.31024381389E+02 0.34310196694E+02
 0.62517848961E+02 0.59290087799E+02 0.51123966974E+02 0.41345426383E+02 0.32784358205E+02
 0.26545668953E+02 0.22201272687E+02 0.19559140394E+02 0.18728406322E+02 0.19345658241E+02
 0.20853104997E+02 0.22877965664E+02 0.25077042252E+02 0.26855447022E+02 0.27548214829E+02
 0.26855447022E+02 0.25077042252E+02 0.22877965664E+02 0.20853104997E+02 0.19345658241E+02
 0.18728406322E+02 0.19559140394E+02 0.22201272687E+02 0.26545668953E+02 0.32784358205E+02
 0.41345426383E+02 0.51123966974E+02 0.59290087799E+02 0.10261398566E+03 0.96785134492E+02
 0.81928029487E+02 0.63801068129E+02 0.47366904527E+02 0.34938857774E+02 0.26648726540E+02
 0.21169249572E+02 0.18006669150E+02 0.16895778156E+02 0.16976694179E+02 0.17541898494E+02
 0.18263828080E+02 0.18911960136E+02 0.19183737937E+02 0.18911960136E+02 0.18263828080E+02
 0.17541898494E+02 0.16976694179E+02 0.16895778156E+02 0.18006669150E+02 0.21169249572E+02
 0.26648726540E+02 0.34938857774E+02 0.47366904527E+02 0.63801068129E+02 0.81928029487E+02
 0.96785134492E+02 0.15282213954E+03 0.14405602635E+03 0.12168825522E+03 0.94158039346E+02
 0.68436989636E+02 0.47760313775E+02 0.33119037538E+02 0.23993696891E+02 0.18386450574E+02
 0.15685129180E+02 0.14680465856E+02 0.14288442220E+02 0.14233930892E+02 0.14449845784E+02
 0.14599694545E+02 0.14449845784E+02 0.14233930892E+02 0.14288442220E+02 0.14680465856E+02
 0.15685129180E+02 0.18386450574E+02 0.23993696891E+02 0.33119037538E+02 0.47760313775E+02
 0.68436989636E+02 0.94158039346E+02 0.12168825522E+03 0.14405602635E+03 0.21043914341E+03
 0.19844685246E+03 0.16799110471E+03 0.13060226314E+03 0.95107012827E+02 0.65084640366E+02
 0.42216986161E+02 0.27655509915E+02 0.19482061737E+02 0.15276032355E+02 0.13395727044E+02
 0.12272364051E+02 0.11677142722E+02 0.11698294550E+02 0.11837489783E+02 0.11698294550E+02
 0.11677142722E+02 0.12272364051E+02 0.13395727044E+02 0.15276032355E+02 0.19482061737E+02
 0.27655509915E+02 0.42216986161E+02 0.65084640366E+02 0.95107012827E+02 0.13060226314E+03
 0.16799110471E+03 0.19844685246E+03 0.26987479398E+03 0.25448333337E+03 0.21567317649E+03
 0.16847513054E+03 0.12355407481E+03 0.84341752454E+02 0.52795217213E+02 0.31859279590E+02
 0.20848318691E+02 0.15332115328E+02 0.12772596436E+02 0.11112703498E+02 0.10165191534E+02
 0.10154922289E+02 0.10352792987E+02 0.10154922289E+02 0.10165191534E+02 0.11112703498E+02
 0.12772596436E+02 0.15332115328E+02 0.20848318691E+02 0.31859279590E+02 0.52795217213E+02
 0.84341752454E+02 0.12355407481E+03 0.16847513054E+03 0.21567317649E+03 0.25448333337E+03
 0.31755232660E+03 0.29932791355E+03 0.25363250273E+03 0.19855824949E+03 0.14633006583E+03
 0.10007425282E+03 0.61692711759E+02 0.35468135261E+02 0.21982974253E+02 0.15566663805E+02
 0.12591976986E+02 0.10635468033E+02 0.95310530302E+01 0.95889550526E+01 0.98690664242E+01
 0.95889550526E+01 0.95310530302E+01 0.10635468033E+02 0.12591976986E+02 0.15566663805E+02
 0.21982974253E+02 0.35468135261E+02 0.61692711759E+02 0.10007425282E+03 0.14633006583E+03
 0.19855824949E+03 0.25363250273E+03 0.29932791355E+03 0.28445553168E+03 0.26849355061E+03
 0.22819268405E+03 0.17897661305E+03 0.13169337778E+03 0.89852294059E+02 0.55772695185E+02
 0.33016558642E+02 0.21216603004E+02 0.15400854299E+02 0.12692725212E+02 0.10911171487E+02
 0.98778867003E+01 0.98551935581E+01 0.10064634519E+02 0.98551935580E+01 0.98778867003E+01
 0.10911171487E+02 0.12692725212E+02 0.15400854299E+02 0.21216603004E+02 0.33016558642E+02
 0.55772695185E+02 0.89852294059E+02 0.13169337778E+03 0.17897661305E+03 0.22819268405E+03
 0.26849355061E+03 0.27051452647E+03 0.25532586302E+03 0.21690692939E+03 0.16986813433E+03
 0.12467985086E+03 0.84961008641E+02 0.52995361861E+02 0.31875539588E+02 0.20828870327E+02
 0.15301048915E+02 0.12717491865E+02 0.11016268949E+02 0.10018679040E+02 0.99656754450E+01
 0.10146450838E+02 0.99656754450E+01 0.10018679040E+02 0.11016268949E+02 0.12717491865E+02
 0.15301048915E+02 0.20828870327E+02 0.31875539588E+02 0.52995361861E+02 0.84961008641E+02
 0.12467985086E+03 0.16986813433E+03 0.21690692939E+03 0.25532586302E+03 0.23382156658E+03