   4   4   0   0
  0.1444527E+02  0.3866000E-09  0.3866000E-09  0.3866000E-09  0.5000000E-15
  1.000000000000000E-004
  CAR 
 unknown system                          
     27.41394226     -1.89007308  301      9.15478990      1.00000000
     -1.890  0.0000E+00  0.0000E+00
     -1.792  0.0000E+00  0.0000E+00
     -1.695  0.0000E+00  0.0000E+00
     -1.597  0.0000E+00  0.0000E+00
     -1.499 -0.2832E-28 -0.2766E-29
     -1.402 -0.5427E-25 -0.5304E-26
     -1.304 -0.6427E-22 -0.6284E-23
     -1.206 -0.4701E-19 -0.4598E-20
     -1.109 -0.2121E-16 -0.2077E-17
     -1.011 -0.5717E-14 -0.5606E-15
     -0.913 -0.9716E-12 -0.9547E-13
     -0.816 -0.1012E-09 -0.9984E-11
     -0.718 -0.6436E-08 -0.6387E-09
     -0.620 -0.2481E-06 -0.2488E-07
     -0.523 -0.5741E-05 -0.5856E-06
     -0.425 -0.7819E-04 -0.8224E-05
     -0.327 -0.6030E-03 -0.6712E-04
     -0.230 -0.2371E-02 -0.2987E-03
     -0.132 -0.2745E-02 -0.5668E-03
     -0.034  0.1121E-01  0.5281E-03
      0.064  0.4483E-01  0.4907E-02
      0.161  0.6236E-01  0.1100E-01
      0.259  0.3098E-01  0.1402E-01
      0.357 -0.6134E-02  0.1342E-01
      0.454  0.5046E-01  0.1835E-01
      0.552  0.2375E+00  0.4155E-01
      0.650  0.3725E+00  0.7794E-01
      0.747  0.2553E+00  0.1029E+00
      0.845  0.5740E-01  0.1085E+00
      0.943  0.1453E+00  0.1227E+00
      1.040  0.5474E+00  0.1761E+00
      1.138  0.7565E+00  0.2500E+00
      1.236  0.4680E+00  0.2957E+00
      1.333  0.1748E+00  0.3128E+00
      1.431  0.2985E+00  0.3420E+00
      1.529  0.5187E+00  0.3926E+00
      1.626  0.4460E+00  0.4362E+00
      1.724  0.2052E+00  0.4563E+00
      1.822  0.5184E-01  0.4613E+00
      1.919  0.9682E-01  0.4708E+00
      2.017  0.3336E+00  0.5034E+00
      2.115  0.5677E+00  0.5588E+00
      2.212  0.7242E+00  0.6296E+00
      2.310  0.1119E+01  0.7388E+00
      2.408  0.1690E+01  0.9039E+00
      2.506  0.1840E+01  0.1084E+01
      2.603  0.1410E+01  0.1221E+01
      2.701  0.7289E+00  0.1293E+01
      2.799  0.4847E+00  0.1340E+01
      2.896  0.1181E+01  0.1455E+01
      2.994  0.2302E+01  0.1680E+01
      3.092  0.2902E+01  0.1964E+01
      3.189  0.2793E+01  0.2237E+01
      3.287  0.2280E+01  0.2459E+01
      3.385  0.1680E+01  0.2623E+01
      3.482  0.2110E+01  0.2829E+01
      3.580  0.4086E+01  0.3229E+01
      3.678  0.5651E+01  0.3781E+01
      3.775  0.5581E+01  0.4326E+01
      3.873  0.5545E+01  0.4867E+01
      3.971  0.6358E+01  0.5488E+01
      4.068  0.7046E+01  0.6177E+01
      4.166  0.7216E+01  0.6882E+01
      4.264  0.6740E+01  0.7540E+01
      4.361  0.5548E+01  0.8082E+01
      4.459  0.4841E+01  0.8555E+01
      4.557  0.5469E+01  0.9089E+01
      4.654  0.6287E+01  0.9703E+01
      4.752  0.6075E+01  0.1030E+02
      4.850  0.5149E+01  0.1080E+02
      4.948  0.4433E+01  0.1123E+02
      5.045  0.4359E+01  0.1166E+02
      5.143  0.4601E+01  0.1211E+02
      5.241  0.4436E+01  0.1254E+02
      5.338  0.4230E+01  0.1295E+02
      5.436  0.4905E+01  0.1343E+02
      5.534  0.6053E+01  0.1402E+02
      5.631  0.6821E+01  0.1469E+02
      5.729  0.7004E+01  0.1538E+02
      5.827  0.6544E+01  0.1601E+02
      5.924  0.6327E+01  0.1663E+02
      6.022  0.7348E+01  0.1735E+02
      6.120  0.8248E+01  0.1816E+02
      6.217  0.7852E+01  0.1892E+02
      6.315  0.8278E+01  0.1973E+02
      6.413  0.1097E+02  0.2080E+02
      6.510  0.1290E+02  0.2206E+02
      6.608  0.1102E+02  0.2314E+02
      6.706  0.7255E+01  0.2385E+02
      6.803  0.5567E+01  0.2439E+02
      6.901  0.6863E+01  0.2506E+02
      6.999  0.9281E+01  0.2597E+02
      7.096  0.1097E+02  0.2704E+02
      7.194  0.1106E+02  0.2812E+02
      7.292  0.9629E+01  0.2906E+02
      7.390  0.7333E+01  0.2978E+02
      7.487  0.5396E+01  0.3030E+02
      7.585  0.4704E+01  0.3076E+02
      7.683  0.4789E+01  0.3123E+02
      7.780  0.4794E+01  0.3170E+02
      7.878  0.4716E+01  0.3216E+02
      7.976  0.5223E+01  0.3267E+02
      8.073  0.6551E+01  0.3331E+02
      8.171  0.7902E+01  0.3408E+02
      8.269  0.8216E+01  0.3489E+02
      8.366  0.7414E+01  0.3561E+02
      8.464  0.6164E+01  0.3621E+02
      8.562  0.5162E+01  0.3672E+02
      8.659  0.4589E+01  0.3716E+02
      8.757  0.4432E+01  0.3760E+02
      8.855  0.5108E+01  0.3810E+02
      8.952  0.6208E+01  0.3870E+02
      9.050  0.6620E+01  0.3935E+02
      9.148  0.6237E+01  0.3996E+02
      9.245  0.5533E+01  0.4050E+02
      9.343  0.4735E+01  0.4096E+02
      9.441  0.3973E+01  0.4135E+02
      9.538  0.3368E+01  0.4168E+02
      9.636  0.3365E+01  0.4201E+02
      9.734  0.3758E+01  0.4237E+02
      9.832  0.3167E+01  0.4268E+02
      9.929  0.1627E+01  0.4284E+02
     10.027  0.8060E+00  0.4292E+02
     10.125  0.1081E+01  0.4303E+02
     10.222  0.1298E+01  0.4315E+02
     10.320  0.9715E+00  0.4325E+02
     10.418  0.7816E+00  0.4333E+02
     10.515  0.9725E+00  0.4342E+02
     10.613  0.9922E+00  0.4352E+02
     10.711  0.8171E+00  0.4360E+02
     10.808  0.9531E+00  0.4369E+02
     10.906  0.1344E+01  0.4382E+02
     11.004  0.1623E+01  0.4398E+02
     11.101  0.1652E+01  0.4414E+02
     11.199  0.1199E+01  0.4426E+02
     11.297  0.5324E+00  0.4431E+02
     11.394  0.4488E+00  0.4435E+02
     11.492  0.8802E+00  0.4444E+02
     11.590  0.1003E+01  0.4454E+02
     11.687  0.7361E+00  0.4461E+02
     11.785  0.7077E+00  0.4468E+02
     11.883  0.9363E+00  0.4477E+02
     11.980  0.9434E+00  0.4486E+02
     12.078  0.7147E+00  0.4493E+02
     12.176  0.5452E+00  0.4499E+02
     12.274  0.4304E+00  0.4503E+02
     12.371  0.3303E+00  0.4506E+02
     12.469  0.4639E+00  0.4511E+02
     12.567  0.9204E+00  0.4520E+02
     12.664  0.1490E+01  0.4534E+02
     12.762  0.1731E+01  0.4551E+02
     12.860  0.1556E+01  0.4566E+02
     12.957  0.1363E+01  0.4579E+02
     13.055  0.1244E+01  0.4592E+02
     13.153  0.1040E+01  0.4602E+02
     13.250  0.7874E+00  0.4609E+02
     13.348  0.7137E+00  0.4616E+02
     13.446  0.8740E+00  0.4625E+02
     13.543  0.9696E+00  0.4634E+02
     13.641  0.1011E+01  0.4644E+02
     13.739  0.1525E+01  0.4659E+02
     13.836  0.2179E+01  0.4681E+02
     13.934  0.2064E+01  0.4701E+02
     14.032  0.1410E+01  0.4714E+02
     14.129  0.7402E+00  0.4722E+02
     14.227  0.1962E+00  0.4724E+02
     14.325  0.3046E-01  0.4724E+02
     14.422  0.3065E+00  0.4727E+02
     14.520  0.6583E+00  0.4733E+02
     14.618  0.6259E+00  0.4739E+02
     14.716  0.2686E+00  0.4742E+02
     14.813  0.9622E-01  0.4743E+02
     14.911  0.3067E+00  0.4746E+02
     15.009  0.6752E+00  0.4753E+02
     15.106  0.1092E+01  0.4763E+02
     15.204  0.1426E+01  0.4777E+02
     15.302  0.1367E+01  0.4791E+02
     15.399  0.1234E+01  0.4803E+02
     15.497  0.1630E+01  0.4819E+02
     15.595  0.2131E+01  0.4839E+02
     15.692  0.2057E+01  0.4859E+02
     15.790  0.1702E+01  0.4876E+02
     15.888  0.1315E+01  0.4889E+02
     15.985  0.9162E+00  0.4898E+02
     16.083  0.1022E+01  0.4908E+02
     16.181  0.1672E+01  0.4924E+02
     16.278  0.1904E+01  0.4943E+02
     16.376  0.1205E+01  0.4955E+02
     16.474  0.2931E+00  0.4957E+02
     16.571 -0.1018E+00  0.4956E+02
     16.669  0.1454E+00  0.4958E+02
     16.767  0.9980E+00  0.4968E+02
     16.864  0.1992E+01  0.4987E+02
     16.962  0.2285E+01  0.5009E+02
     17.060  0.1735E+01  0.5026E+02
     17.158  0.8709E+00  0.5035E+02
     17.255  0.2085E+00  0.5037E+02
     17.353  0.1455E+00  0.5038E+02
     17.451  0.6761E+00  0.5045E+02
     17.548  0.1245E+01  0.5057E+02
     17.646  0.1411E+01  0.5071E+02
     17.744  0.1464E+01  0.5085E+02
     17.841  0.2059E+01  0.5105E+02
     17.939  0.2946E+01  0.5134E+02
     18.037  0.2832E+01  0.5162E+02
     18.134  0.1594E+01  0.5177E+02
     18.232  0.5595E+00  0.5183E+02
     18.330  0.4067E+00  0.5187E+02
     18.427  0.7244E+00  0.5194E+02
     18.525  0.1157E+01  0.5205E+02
     18.623  0.1625E+01  0.5221E+02
     18.720  0.1805E+01  0.5239E+02
     18.818  0.1655E+01  0.5255E+02
     18.916  0.1589E+01  0.5270E+02
     19.013  0.1502E+01  0.5285E+02
     19.111  0.9998E+00  0.5295E+02
     19.209  0.4366E+00  0.5299E+02
     19.306  0.4758E+00  0.5304E+02
     19.404  0.1066E+01  0.5314E+02
     19.502  0.1512E+01  0.5329E+02
     19.600  0.1402E+01  0.5342E+02
     19.697  0.1153E+01  0.5354E+02
     19.795  0.1415E+01  0.5368E+02
     19.893  0.2061E+01  0.5388E+02
     19.990  0.2546E+01  0.5413E+02
     20.088  0.2659E+01  0.5439E+02
     20.186  0.2275E+01  0.5461E+02
     20.283  0.1658E+01  0.5477E+02
     20.381  0.1620E+01  0.5493E+02
     20.479  0.2031E+01  0.5513E+02
     20.576  0.1922E+01  0.5531E+02
     20.674  0.1287E+01  0.5544E+02
     20.772  0.7205E+00  0.5551E+02
     20.869  0.4716E+00  0.5556E+02
     20.967  0.7899E+00  0.5563E+02
     21.065  0.1632E+01  0.5579E+02
     21.162  0.2247E+01  0.5601E+02
     21.260  0.2070E+01  0.5621E+02
     21.358  0.1609E+01  0.5637E+02
     21.455  0.1744E+01  0.5654E+02
     21.553  0.2397E+01  0.5678E+02
     21.651  0.2707E+01  0.5704E+02
     21.748  0.2371E+01  0.5727E+02
     21.846  0.1865E+01  0.5745E+02
     21.944  0.1559E+01  0.5761E+02
     22.042  0.1459E+01  0.5775E+02
     22.139  0.1586E+01  0.5790E+02
     22.237  0.1796E+01  0.5808E+02
     22.335  0.1850E+01  0.5826E+02
     22.432  0.1700E+01  0.5843E+02
     22.530  0.1265E+01  0.5855E+02
     22.628  0.7988E+00  0.5863E+02
     22.725  0.7709E+00  0.5870E+02
     22.823  0.1132E+01  0.5881E+02
     22.921  0.1499E+01  0.5896E+02
     23.018  0.1476E+01  0.5910E+02
     23.116  0.9702E+00  0.5920E+02
     23.214  0.4417E+00  0.5924E+02
     23.311  0.3229E+00  0.5927E+02
     23.409  0.4227E+00  0.5932E+02
     23.507  0.3523E+00  0.5935E+02
     23.604  0.1358E+00  0.5936E+02
     23.702  0.5078E-03  0.5936E+02
     23.800 -0.1961E-01  0.5936E+02
     23.897 -0.8075E-02  0.5936E+02
     23.995 -0.5653E-02  0.5936E+02
     24.093 -0.1915E-01  0.5936E+02
     24.191 -0.3504E-01  0.5935E+02
     24.288  0.3577E-01  0.5936E+02
     24.386  0.3069E+00  0.5939E+02
     24.484  0.7211E+00  0.5946E+02
     24.581  0.1072E+01  0.5956E+02
     24.679  0.1095E+01  0.5967E+02
     24.777  0.6717E+00  0.5974E+02
     24.874  0.1677E+00  0.5975E+02
     24.972 -0.5906E-01  0.5975E+02
     25.070 -0.7837E-01  0.5974E+02
     25.167  0.4826E-01  0.5974E+02
     25.265  0.4294E+00  0.5979E+02
     25.363  0.8716E+00  0.5987E+02
     25.460  0.8824E+00  0.5996E+02
     25.558  0.4493E+00  0.6000E+02
     25.656  0.6761E-01  0.6001E+02
     25.753 -0.4069E-01  0.6000E+02
     25.851 -0.2369E-01  0.6000E+02
     25.949 -0.5432E-02  0.6000E+02
     26.046 -0.6699E-03  0.6000E+02
     26.144 -0.4783E-04  0.6000E+02
     26.242 -0.2034E-05  0.6000E+02
     26.339 -0.5226E-07  0.6000E+02
     26.437 -0.8172E-09  0.6000E+02
     26.535 -0.7815E-11  0.6000E+02
     26.633 -0.4597E-13  0.6000E+02
     26.730 -0.2910E-15  0.6000E+02
     26.828  0.0000E+00  0.6000E+02
     26.926  0.0000E+00  0.6000E+02
     27.023  0.0000E+00  0.6000E+02
     27.121  0.0000E+00  0.6000E+02
     27.219  0.0000E+00  0.6000E+02
     27.316  0.0000E+00  0.6000E+02
     27.414  0.0000E+00  0.6000E+02
