    4    4    1    1
  0.1444527E+02  0.3866000E-09  0.3866000E-09  0.3866000E-09  0.5000000E-15
  1.000000000000000E-004
  CAR 
 unknown system                          
     40     27     30
 
  0.0000000E+00  0.0000000E+00  0.0000000E+00  0.8000000E-02
    1        0.109927   1.000000
    2        2.561065   1.000000
    3        3.531279   1.000000
    4        3.587350   1.000000
    5        3.679922   1.000000
    6        3.721100   1.000000
    7        3.780736   1.000000
    8        6.170696   1.000000
    9        6.206483   1.000000
   10        6.323402   1.000000
   11        7.363425   1.000000
   12        7.485901   1.000000
   13        8.151871   1.000000
   14        8.356096   1.000000
   15        8.490389   1.000014
   16        9.203388   0.300943
   17        9.366003  -0.030010
   18        9.435667  -0.031611
   19        9.747268  -0.000115
   20       10.208452  -0.000000
   21       10.784186  -0.000000
   22       11.411440  -0.000000
   23       11.420399  -0.000000
   24       11.432505  -0.000000
   25       17.882345   0.000000
   26       18.171453   0.000000
   27       19.751584   0.000000
   28       20.325609   0.000000
   29       20.472155   0.000000
   30       20.717431   0.000000
 
  0.2000000E+00  0.0000000E+00  0.0000000E+00  0.1600000E-01
    1        0.574774   1.000000
    2        2.856453   1.000000
    3        3.679625   1.000000
    4        3.699068   1.000000
    5        3.870914   1.000000
    6        3.956286   1.000000
    7        4.012608   1.000000
    8        5.939889   1.000000
    9        6.296841   1.000000
   10        6.453705   1.000000
   11        7.271436   1.000000
   12        7.359530   1.000000
   13        7.594630   1.000000
   14        7.795792   1.000000
   15        7.898583   1.000000
   16        8.061683   1.000000
   17        8.956937   1.023977
   18        9.048969   0.885663
   19        9.196355   0.328265
   20        9.427519  -0.033015
   21        9.709802  -0.000311
   22       10.767475  -0.000000
   23       13.173935  -0.000000
   24       13.177392  -0.000000
   25       17.858911   0.000000
   26       18.016881   0.000000
   27       20.416729   0.000000
   28       20.460616   0.000000
   29       20.608968   0.000000
   30       20.982289   0.000000
 
  0.0000000E+00  0.2000000E+00  0.0000000E+00  0.1600000E-01
    1        0.628446   1.000000
    2        2.872825   1.000000
    3        3.626219   1.000000
    4        3.773904   1.000000
    5        3.817590   1.000000
    6        3.956572   1.000000
    7        4.049076   1.000000
    8        6.086547   1.000000
    9        6.318352   1.000000
   10        6.320475   1.000000
   11        7.195262   1.000000
   12        7.489882   1.000000
   13        7.518610   1.000000
   14        7.694624   1.000000
   15        8.185317   1.000000
   16        8.698613   1.002912
   17        8.966785   1.017731
   18        9.109866   0.684873
   19        9.184414   0.376161
   20        9.231975   0.198806
   21        9.386381  -0.034706
   22        9.695345  -0.000446
   23       13.286376  -0.000000
   24       13.407221  -0.000000
   25       17.420462   0.000000
   26       18.645901   0.000000
   27       20.351144   0.000000
   28       20.410808   0.000000
   29       20.613876   0.000000
   30       21.277047   0.000000
 
  0.0000000E+00  0.0000000E+00  0.2000000E+00  0.1600000E-01
    1        0.630212   1.000000
    2        2.885707   1.000000
    3        3.778486   1.000000
    4        3.825150   1.000000
    5        3.864762   1.000000
    6        3.879206   1.000000
    7        3.900072   1.000000
    8        5.906747   1.000000
    9        6.292153   1.000000
   10        6.449046   1.000000
   11        7.203061   1.000000
   12        7.458197   1.000000
   13        7.484693   1.000000
   14        7.890473   1.000000
   15        7.988683   1.000000
   16        8.394536   1.000001
   17        8.781134   1.011948
   18        9.072100   0.818934
   19        9.120282   0.643632
   20        9.264337   0.104818
   21        9.721674  -0.000229
   22       10.166102  -0.000000
   23       13.255247  -0.000000
   24       13.372728  -0.000000
   25       17.109887   0.000000
   26       18.849940   0.000000
   27       20.443479   0.000000
   28       20.462889   0.000000
   29       20.727713   0.000000
   30       21.204989   0.000000
 
  0.4000000E+00  0.0000000E+00  0.0000000E+00  0.1600000E-01
    1        1.674208   1.000000
    2        3.495951   1.000000
    3        3.799101   1.000000
    4        4.020263   1.000000
    5        4.669711   1.000000
    6        4.710979   1.000000
    7        4.777000   1.000000
    8        5.482998   1.000000
    9        5.984430   1.000000
   10        6.085219   1.000000
   11        6.834474   1.000000
   12        6.964706   1.000000
   13        6.995553   1.000000
   14        7.152008   1.000000
   15        7.253532   1.000000
   16        7.488709   1.000000
   17        8.035167   1.000000
   18        8.180123   1.000000
   19        8.207339   1.000000
   20        8.515204   1.000030
   21        9.298785   0.033346
   22       10.762133  -0.000000
   23       15.715352   0.000000
   24       15.788836   0.000000
   25       17.060643   0.000000
   26       17.996602   0.000000
   27       18.629766   0.000000
   28       18.751905   0.000000
   29       19.126136   0.000000
   30       21.830660   0.000000
 
  0.0000000E+00  0.4000000E+00  0.0000000E+00  0.1600000E-01
    1        2.000339   1.000000
    2        3.300026   1.000000
    3        3.737738   1.000000
    4        4.063942   1.000000
    5        4.603179   1.000000
    6        4.650388   1.000000
    7        4.937401   1.000000
    8        5.699344   1.000000
    9        6.312511   1.000000
   10        6.350676   1.000000
   11        6.777112   1.000000
   12        6.904860   1.000000
   13        6.922059   1.000000
   14        7.088189   1.000000
   15        7.477377   1.000000
   16        7.829796   1.000000
   17        7.839028   1.000000
   18        8.025411   1.000000
   19        8.138427   1.000000
   20        8.369141   1.000000
   21        9.027101   0.936520
   22        9.363050  -0.028900
   23       15.923774   0.000000
   24       15.965006   0.000000
   25       16.691881   0.000000
   26       18.474061   0.000000
   27       18.480218   0.000000
   28       18.631239   0.000000
   29       20.453522   0.000000
   30       20.740385   0.000000
 
  0.0000000E+00  0.0000000E+00  0.4000000E+00  0.1600000E-01
    1        2.017429   1.000000
    2        3.297877   1.000000
    3        3.951272   1.000000
    4        4.303309   1.000000
    5        4.599000   1.000000
    6        4.695069   1.000000
    7        4.703587   1.000000
    8        5.384847   1.000000
    9        5.984707   1.000000
   10        6.112657   1.000000
   11        6.797166   1.000000
   12        7.002314   1.000000
   13        7.003546   1.000000
   14        7.104943   1.000000
   15        7.315622   1.000000
   16        7.619766   1.000000
   17        7.977965   1.000000
   18        8.002500   1.000000
   19        8.347586   1.000000
   20        8.383863   1.000000
   21        8.875253   1.031856
   22       10.137513  -0.000000
   23       15.898606   0.000000
   24       16.017155   0.000000
   25       16.248556   0.000000
   26       18.453373   0.000000
   27       18.726573   0.000000
   28       18.965805   0.000000
   29       20.046193   0.000000
   30       21.101479   0.000000
 
  0.2000000E+00  0.2000000E+00  0.0000000E+00  0.3200000E-01
    1        1.071554   1.000000
    2        3.165946   1.000000
    3        3.901325   1.000000
    4        3.903518   1.000000
    5        4.084341   1.000000
    6        4.092602   1.000000
    7        4.360210   1.000000
    8        5.919196   1.000000
    9        6.377528   1.000000
   10        6.511294   1.000000
   11        7.020875   1.000000
   12        7.171539   1.000000
   13        7.232979   1.000000
   14        7.304604   1.000000
   15        7.731584   1.000000
   16        7.929688   1.000000
   17        8.267763   1.000000
   18        8.852040   1.027034
   19        8.903759   1.035321
   20        9.008355   0.970606
   21        9.680809  -0.000635
   22       10.865980  -0.000000
   23       11.862889  -0.000000
   24       14.545802  -0.000000
   25       16.972665   0.000000
   26       18.997142   0.000000
   27       20.046697   0.000000
   28       20.408753   0.000000
   29       21.078812   0.000000
   30       21.700442   0.000000
 
  0.0000000E+00  0.2000000E+00  0.2000000E+00  0.3200000E-01
    1        1.099262   1.000000
    2        3.198896   1.000000
    3        3.883934   1.000000
    4        3.947126   1.000000
    5        4.019671   1.000000
    6        4.208167   1.000000
    7        4.309813   1.000000
    8        5.900942   1.000000
    9        6.382480   1.000000
   10        6.511298   1.000000
   11        7.028035   1.000000
   12        7.186567   1.000000
   13        7.233916   1.000000
   14        7.291463   1.000000
   15        7.705494   1.000000
   16        8.016275   1.000000
   17        8.358227   1.000000
   18        8.654160   1.001142
   19        8.861257   1.029067
   20        8.868255   1.030519
   21        9.506216  -0.016132
   22       10.909635  -0.000000
   23       12.225221  -0.000000
   24       14.446722  -0.000000
   25       16.831201   0.000000
   26       19.054685   0.000000
   27       19.533518   0.000000
   28       20.942643   0.000000
   29       21.230635   0.000000
   30       21.890107   0.000000
 
  0.2000000E+00  0.0000000E+00  0.2000000E+00  0.3200000E-01
    1        1.071530   1.000000
    2        3.181761   1.000000
    3        3.909713   1.000000
    4        3.928505   1.000000
    5        4.048301   1.000000
    6        4.208181   1.000000
    7        4.288132   1.000000
    8        5.776928   1.000000
    9        6.433754   1.000000
   10        6.550710   1.000000
   11        6.978177   1.000000
   12        7.152274   1.000000
   13        7.201327   1.000000
   14        7.259093   1.000000
   15        7.730550   1.000000
   16        7.789556   1.000000
   17        8.134915   1.000000
   18        8.949831   1.027513
   19        9.006141   0.974070
   20        9.210300   0.274850
   21        9.800282  -0.000025
   22       11.109500  -0.000000
   23       11.524447  -0.000000
   24       14.541683  -0.000000
   25       16.939057   0.000000
   26       18.929330   0.000000
   27       19.993377   0.000000
   28       20.530273   0.000000
   29       21.160568   0.000000
   30       21.838079   0.000000
 
  0.4000000E+00  0.2000000E+00  0.0000000E+00  0.3200000E-01
    1        2.139372   1.000000
    2        3.777982   1.000000
    3        4.117215   1.000000
    4        4.269910   1.000000
    5        4.664100   1.000000
    6        4.801345   1.000000
    7        4.985737   1.000000
    8        5.506171   1.000000
    9        5.626987   1.000000
   10        6.052961   1.000000
   11        6.376811   1.000000
   12        6.480737   1.000000
   13        6.957695   1.000000
   14        7.163536   1.000000
   15        7.259234   1.000000
   16        7.641541   1.000000
   17        7.765927   1.000000
   18        8.350515   1.000000
   19        8.414114   1.000001
   20        8.913905   1.035392
   21        9.517792  -0.013861
   22        9.775820  -0.000051
   23       13.097441  -0.000000
   24       15.198574   0.000000
   25       16.913569   0.000000
   26       18.082103   0.000000
   27       19.570538   0.000000
   28       19.813923   0.000000
   29       21.854825   0.000000
   30       23.092293   0.000000
 
  0.0000000E+00  0.4000000E+00  0.2000000E+00  0.3200000E-01
    1        2.351335   1.000000
    2        3.640877   1.000000
    3        4.000310   1.000000
    4        4.276375   1.000000
    5        4.572335   1.000000
    6        4.777795   1.000000
    7        5.139401   1.000000
    8        5.665868   1.000000
    9        5.761190   1.000000
   10        6.258091   1.000000
   11        6.345448   1.000000
   12        6.500558   1.000000
   13        6.913107   1.000000
   14        7.128535   1.000000
   15        7.554972   1.000000
   16        7.661535   1.000000
   17        7.716823   1.000000
   18        8.133852   1.000000
   19        8.342404   1.000000
   20        8.895798   1.034768
   21        9.016041   0.957672
   22        9.336090  -0.012507
   23       13.584980  -0.000000
   24       15.151396   0.000000
   25       16.786991   0.000000
   26       18.365870   0.000000
   27       19.386220   0.000000
   28       19.572995   0.000000
   29       21.692385   0.000000
   30       23.324127   0.000000
 
  0.2000000E+00  0.0000000E+00  0.4000000E+00  0.3200000E-01
    1        2.389943   1.000000
    2        3.648293   1.000000
    3        4.223473   1.000000
    4        4.411051   1.000000
    5        4.612791   1.000000
    6        4.928478   1.000000
    7        4.932444   1.000000
    8        5.312891   1.000000
    9        5.531335   1.000000
   10        6.121204   1.000000
   11        6.444651   1.000000
   12        6.512114   1.000000
   13        6.958656   1.000000
   14        7.140342   1.000000
   15        7.321131   1.000000
   16        7.634199   1.000000
   17        7.943778   1.000000
   18        8.206422   1.000000
   19        8.427077   1.000002
   20        8.660365   1.001310
   21        9.241665   0.168043
   22        9.405327  -0.035342
   23       13.441828  -0.000000
   24       15.195386   0.000000
   25       16.848026   0.000000
   26       17.952706   0.000000
   27       19.376599   0.000000
   28       20.129106   0.000000
   29       21.961187   0.000000
   30       22.976204   0.000000
 
 -0.2000000E+00  0.4000000E+00  0.0000000E+00  0.3200000E-01
    1        2.386206   1.000000
    2        3.626464   1.000000
    3        4.051079   1.000000
    4        4.292119   1.000000
    5        4.593504   1.000000
    6        4.739205   1.000000
    7        5.126515   1.000000
    8        5.671916   1.000000
    9        5.935876   1.000000
   10        6.232089   1.000000
   11        6.272270   1.000000
   12        6.471924   1.000000
   13        6.906484   1.000000
   14        7.154068   1.000000
   15        7.475426   1.000000
   16        7.675764   1.000000
   17        7.757851   1.000000
   18        8.158470   1.000000
   19        8.418940   1.000001
   20        8.811894   1.017921
   21        8.905914   1.035400
   22        9.195458   0.331800
   23       13.497424  -0.000000
   24       15.187188   0.000000
   25       16.841230   0.000000
   26       18.329894   0.000000
   27       19.359506   0.000000
   28       19.745558   0.000000
   29       22.001656   0.000000
   30       23.006045   0.000000
 
 -0.4000000E+00  0.0000000E+00  0.2000000E+00  0.3200000E-01
    1        2.135387   1.000000
    2        3.813792   1.000000
    3        4.080115   1.000000
    4        4.237813   1.000000
    5        4.608012   1.000000
    6        4.854594   1.000000
    7        5.035785   1.000000
    8        5.436728   1.000000
    9        5.541929   1.000000
   10        6.128822   1.000000
   11        6.453860   1.000000
   12        6.529193   1.000000
   13        6.959221   1.000000
   14        7.142713   1.000000
   15        7.246997   1.000000
   16        7.622006   1.000000
   17        7.963634   1.000000
   18        8.120590   1.000000
   19        8.511632   1.000027
   20        8.943390   1.030076
   21        9.485339  -0.020649
   22        9.727870  -0.000194
   23       13.074046  -0.000000
   24       15.261532   0.000000
   25       16.870524   0.000000
   26       18.047243   0.000000
   27       19.476646   0.000000
   28       19.750580   0.000000
   29       21.959788   0.000000
   30       22.976888   0.000000
 
  0.0000000E+00  0.2000000E+00  0.4000000E+00  0.3200000E-01
    1        2.360815   1.000000
    2        3.623320   1.000000
    3        4.224505   1.000000
    4        4.443362   1.000000
    5        4.630513   1.000000
    6        4.883744   1.000000
    7        4.897658   1.000000
    8        5.384395   1.000000
    9        5.519763   1.000000
   10        6.072410   1.000000
   11        6.342064   1.000000
   12        6.511661   1.000000
   13        6.975496   1.000000
   14        7.129749   1.000000
   15        7.390284   1.000000
   16        7.663697   1.000000
   17        7.702116   1.000000
   18        8.267867   1.000000
   19        8.551407   1.000085
   20        8.593689   1.000266
   21        9.428914  -0.032791
   22        9.526490  -0.012286
   23       13.542240  -0.000000
   24       15.094778   0.000000
   25       16.843600   0.000000
   26       18.009681   0.000000
   27       19.491078   0.000000
   28       20.017667   0.000000
   29       21.577014   0.000000
   30       23.425817   0.000000
 
  0.4000000E+00  0.4000000E+00  0.0000000E+00  0.3200000E-01
    1        3.281966   1.000000
    2        4.195898   1.000000
    3        4.452548   1.000000
    4        4.771860   1.000000
    5        4.858384   1.000000
    6        5.058526   1.000000
    7        5.185562   1.000000
    8        5.319672   1.000000
    9        5.345599   1.000000
   10        5.852132   1.000000
   11        5.990897   1.000000
   12        6.253219   1.000000
   13        6.882598   1.000000
   14        7.080372   1.000000
   15        7.115012   1.000000
   16        7.303006   1.000000
   17        7.487152   1.000000
   18        8.066840   1.000000
   19        8.371356   1.000000
   20        8.405222   1.000001
   21        9.088807   0.763064
   22       10.091130  -0.000000
   23       11.593225  -0.000000
   24       12.948222  -0.000000
   25       18.825965   0.000000
   26       18.958082   0.000000
   27       20.497937   0.000000
   28       21.207190   0.000000
   29       21.233816   0.000000
   30       21.695880   0.000000
 
  0.0000000E+00  0.4000000E+00  0.4000000E+00  0.3200000E-01
    1        3.177995   1.000000
    2        3.974207   1.000000
    3        4.357938   1.000000
    4        4.737048   1.000000
    5        4.944111   1.000000
    6        5.101973   1.000000
    7        5.104697   1.000000
    8        5.385532   1.000000
    9        5.405474   1.000000
   10        5.874133   1.000000
   11        6.085126   1.000000
   12        6.256894   1.000000
   13        6.897796   1.000000
   14        7.083343   1.000000
   15        7.117625   1.000000
   16        7.212738   1.000000
   17        7.381051   1.000000
   18        8.009215   1.000000
   19        8.600622   1.000317
   20        8.654882   1.001160
   21        9.157639   0.487945
   22        9.916511  -0.000001
   23       12.161745  -0.000000
   24       13.005658  -0.000000
   25       18.566822   0.000000
   26       18.688203   0.000000
   27       20.390385   0.000000
   28       20.515805   0.000000
   29       21.084914   0.000000
   30       22.160019   0.000000
 
  0.4000000E+00  0.0000000E+00  0.4000000E+00  0.3200000E-01
    1        3.249631   1.000000
    2        4.339674   1.000000
    3        4.425165   1.000000
    4        4.638633   1.000000
    5        4.732743   1.000000
    6        4.984005   1.000000
    7        5.028956   1.000000
    8        5.229987   1.000000
    9        5.571332   1.000000
   10        6.009712   1.000000
   11        6.151971   1.000000
   12        6.357278   1.000000
   13        6.829790   1.000000
   14        7.094578   1.000000
   15        7.104705   1.000000
   16        7.293463   1.000000
   17        7.769862   1.000000
   18        7.931568   1.000000
   19        8.178258   1.000000
   20        8.266082   1.000000
   21        9.293546   0.042317
   22       10.485860  -0.000000
   23       11.134270  -0.000000
   24       12.831189  -0.000000
   25       18.737562   0.000000
   26       18.925740   0.000000
   27       20.712777   0.000000
   28       21.030290   0.000000
   29       21.425979   0.000000
   30       21.512560   0.000000
 
  0.2000000E+00  0.2000000E+00  0.2000000E+00  0.6400000E-01
    1        1.484917   1.000000
    2        3.407231   1.000000
    3        3.975281   1.000000
    4        4.101980   1.000000
    5        4.172152   1.000000
    6        4.528263   1.000000
    7        4.658814   1.000000
    8        5.734494   1.000000
    9        6.441693   1.000000
   10        6.537729   1.000000
   11        6.619108   1.000000
   12        6.816899   1.000000
   13        7.015031   1.000000
   14        7.278951   1.000000
   15        7.362035   1.000000
   16        7.582844   1.000000
   17        8.255662   1.000000
   18        8.325406   1.000000
   19        8.506247   1.000023
   20        9.031295   0.927703
   21        9.777673  -0.000049
   22       11.804029  -0.000000
   23       12.482764  -0.000000
   24       12.698640  -0.000000
   25       17.679685   0.000000
   26       17.907860   0.000000
   27       18.615592   0.000000
   28       21.113377   0.000000
   29       21.529999   0.000000
   30       21.711661   0.000000
 
  0.4000000E+00  0.2000000E+00  0.2000000E+00  0.6400000E-01
    1        2.388374   1.000000
    2        3.734665   1.000000
    3        4.201129   1.000000
    4        4.522728   1.000000
    5        4.535764   1.000000
    6        4.821455   1.000000
    7        5.315990   1.000000
    8        5.531828   1.000000
    9        5.782847   1.000000
   10        5.991270   1.000000
   11        6.382770   1.000000
   12        6.487292   1.000000
   13        6.647180   1.000000
   14        7.019818   1.000000
   15        7.085883   1.000000
   16        7.522011   1.000000
   17        8.024280   1.000000
   18        8.164705   1.000000
   19        8.603568   1.000342
   20        8.971951   1.013779
   21        9.482405  -0.021315
   22        9.756061  -0.000090
   23       13.790015  -0.000000
   24       13.807721  -0.000000
   25       15.520032   0.000000
   26       16.295862   0.000000
   27       20.123530   0.000000
   28       21.534201   0.000000
   29       22.114044   0.000000
   30       22.371676   0.000000
 
  0.2000000E+00  0.4000000E+00  0.2000000E+00  0.6400000E-01
    1        2.563526   1.000000
    2        3.626646   1.000000
    3        4.000997   1.000000
    4        4.480446   1.000000
    5        4.662541   1.000000
    6        4.855427   1.000000
    7        5.525737   1.000000
    8        5.607410   1.000000
    9        5.769924   1.000000
   10        6.090790   1.000000
   11        6.464894   1.000000
   12        6.508837   1.000000
   13        6.557175   1.000000
   14        7.003667   1.000000
   15        7.137655   1.000000
   16        7.261040   1.000000
   17        8.138015   1.000000
   18        8.209431   1.000000
   19        8.369714   1.000000
   20        8.882690   1.033113
   21        9.315953   0.008479
   22        9.630623  -0.001953
   23       13.798164  -0.000000
   24       14.039373  -0.000000
   25       15.596422   0.000000
   26       16.133272   0.000000
   27       20.208324   0.000000
   28       21.598678   0.000000
   29       22.245782   0.000000
   30       22.410392   0.000000
 
  0.2000000E+00  0.2000000E+00  0.4000000E+00  0.6400000E-01
    1        2.568839   1.000000
    2        3.626334   1.000000
    3        4.151121   1.000000
    4        4.481939   1.000000
    5        4.663849   1.000000
    6        5.034341   1.000000
    7        5.176613   1.000000
    8        5.515353   1.000000
    9        5.732756   1.000000
   10        5.961680   1.000000
   11        6.367946   1.000000
   12        6.493288   1.000000
   13        6.649858   1.000000
   14        7.040162   1.000000
   15        7.131418   1.000000
   16        7.383830   1.000000
   17        8.141610   1.000000
   18        8.159758   1.000000
   19        8.518120   1.000032
   20        8.819625   1.019613
   21        9.413449  -0.034799
   22        9.704474  -0.000356
   23       13.802427  -0.000000
   24       13.979400  -0.000000
   25       15.579403   0.000000
   26       16.222177   0.000000
   27       20.118841   0.000000
   28       21.377876   0.000000
   29       22.205507   0.000000
   30       22.475335   0.000000
 
  0.4000000E+00  0.4000000E+00  0.2000000E+00  0.6400000E-01
    1        3.033446   1.000000
    2        3.546641   1.000000
    3        3.854448   1.000000
    4        4.250277   1.000000
    5        5.171840   1.000000
    6        5.463981   1.000000
    7        5.713823   1.000000
    8        5.891216   1.000000
    9        6.060460   1.000000
   10        6.112324   1.000000
   11        6.322172   1.000000
   12        6.485927   1.000000
   13        6.585955   1.000000
   14        6.725769   1.000000
   15        6.872914   1.000000
   16        7.040581   1.000000
   17        7.876719   1.000000
   18        8.320141   1.000000
   19        8.714547   1.003958
   20        9.029153   0.932260
   21        9.183280   0.380795
   22       10.229033  -0.000000
   23       11.484203  -0.000000
   24       12.707741  -0.000000
   25       15.801812   0.000000
   26       17.486484   0.000000
   27       17.900314   0.000000
   28       19.892327   0.000000
   29       22.812877   0.000000
   30       24.593990   0.000000
 
  0.2000000E+00  0.4000000E+00  0.4000000E+00  0.6400000E-01
    1        3.021737   1.000000
    2        3.575516   1.000000
    3        3.635719   1.000000
    4        4.254428   1.000000
    5        5.175178   1.000000
    6        5.471478   1.000000
    7        5.700464   1.000000
    8        5.946135   1.000000
    9        6.063250   1.000000
   10        6.110360   1.000000
   11        6.308418   1.000000
   12        6.493601   1.000000
   13        6.599137   1.000000
   14        6.731270   1.000000
   15        6.863026   1.000000
   16        7.030688   1.000000
   17        7.916916   1.000000
   18        8.341442   1.000000
   19        8.846109   1.025682
   20        9.014016   0.961217
   21        9.165197   0.456031
   22       10.109534  -0.000000
   23       11.970614  -0.000000
   24       12.892657  -0.000000
   25       15.541950   0.000000
   26       17.050925   0.000000
   27       17.947755   0.000000
   28       19.861412   0.000000
   29       22.898929   0.000000
   30       24.440694   0.000000
 
  0.4000000E+00  0.2000000E+00  0.4000000E+00  0.6400000E-01
    1        3.027522   1.000000
    2        3.578577   1.000000
    3        3.892016   1.000000
    4        4.082082   1.000000
    5        5.142726   1.000000
    6        5.363607   1.000000
    7        5.684914   1.000000
    8        6.061781   1.000000
    9        6.167538   1.000000
   10        6.212799   1.000000
   11        6.407207   1.000000
   12        6.429838   1.000000
   13        6.602435   1.000000
   14        6.796013   1.000000
   15        6.881600   1.000000
   16        6.884498   1.000000
   17        8.043706   1.000000
   18        8.082420   1.000000
   19        8.535602   1.000054
   20        9.165159   0.456191
   21        9.311820   0.013850
   22       10.592650  -0.000000
   23       11.031847  -0.000000
   24       12.641304  -0.000000
   25       15.779327   0.000000
   26       17.529887   0.000000
   27       17.887330   0.000000
   28       19.953754   0.000000
   29       22.679745   0.000000
   30       24.664808   0.000000
 
  0.4000000E+00  0.4000000E+00  0.4000000E+00  0.6400000E-01
    1        2.898327   1.000000
    2        3.028713   1.000000
    3        3.255731   1.000000
    4        3.639718   1.000000
    5        5.590759   1.000000
    6        5.706550   1.000000
    7        5.812253   1.000000
    8        6.068726   1.000000
    9        6.168340   1.000000
   10        6.420311   1.000000
   11        6.460832   1.000000
   12        6.664812   1.000000
   13        7.255158   1.000000
   14        7.328268   1.000000
   15        7.500891   1.000000
   16        7.837366   1.000000
   17        8.211029   1.000000
   18        8.643837   1.000903
   19        8.721856   1.004532
   20        9.131250   0.598847
   21        9.669930  -0.000820
   22       10.463751  -0.000000
   23       10.872605  -0.000000
   24       11.104870  -0.000000
   25       14.946809   0.000000
   26       15.375617   0.000000
   27       16.184356   0.000000
   28       17.690324   0.000000
   29       25.315060   0.000000
   30       25.413942   0.000000
