 vasp.6.2.0 18Jan21 (build Mar 17 2021 09:06:54) complex                        
  
 executed on             LinuxIFC date 2021.06.11  11:56:34
 serial version


--------------------------------------------------------------------------------------------------------


 INCAR:
   ENCUT = 210.000000
   SIGMA = 0.200000
   EDIFF = 1.00e-06
   GGA = PE
   PREC = normal
   IBRION = -1
   ICHARG = 1
   ISMEAR = 1
   KPAR = 1
   NBANDS = 30
   NSW = 0
   NCORE = 1
   LCHARG = .TRUE.

 POTCAR:    PAW_PBE Pd 04Jan2005                  
 POTCAR:    PAW_PBE Ir 06Sep2000                  
 POTCAR:    PAW_PBE Pt 04Feb2005                  
 POTCAR:    PAW_PBE Cu 22Jun2005                  
 POTCAR:    PAW_PBE Pd 04Jan2005                  
   SHA256 =  dd6f6f02930356371984e2b707ff5e456046761dc76b07c1eba30abd15eb3c39 Pd/POTCAR             
   COPYR  = (c) Copyright 04Jan2005 Georg Kresse                                                    
   COPYR  = This file is part of the software VASP. Any use, copying, and all other rights are regul
   COPYR  = If you do not have a valid VASP license, you may not use, copy or distribute this file. 
   VRHFIN =Pd : s1 d9                                                                               
   LEXCH  = PE                                                                                      
   EATOM  =   809.7530 eV,   59.5152 Ry                                                             
                                                                                                    
   TITEL  = PAW_PBE Pd 04Jan2005                                                                    
   LULTRA =        F    use ultrasoft PP ?                                                          
   IUNSCR =        1    unscreen: 0-lin 1-nonlin 2-no                                               
   RPACOR =    2.000    partial core radius                                                         
   POMASS =  106.420; ZVAL   =   10.000    mass and valenz                                          
   RCORE  =    2.600    outmost cutoff radius                                                       
   RWIGS  =    2.710; RWIGS  =    1.434    wigner-seitz radius (au A)                               
   ENMAX  =  250.925; ENMIN  =  188.194 eV                                                          
   ICORE  =        3    local potential                                                             
   LCOR   =        T    correct aug charges                                                         
   LPAW   =        T    paw PP                                                                      
   EAUG   =  416.230                                                                                
   DEXC   =    0.000                                                                                
   RMAX   =    2.653    core radius for proj-oper                                                   
   RAUG   =    1.300    factor for augmentation sphere                                              
   RDEP   =    2.734    radius for radial grids                                                     
   RDEPT  =    2.103    core radius for aug-charge                                                  
                                                                                                    
   Atomic configuration                                                                             
   12 entries                                                                                       
     n  l   j            E        occ.                                                              
     1  0  0.50    -24164.6631   2.0000                                                             
     2  0  0.50     -3530.9218   2.0000                                                             
     2  1  1.50     -3165.6822   6.0000                                                             
     3  0  0.50      -639.4577   2.0000                                                             
     3  1  1.50      -519.4532   6.0000                                                             
     3  2  2.50      -328.9757  10.0000                                                             
     4  0  0.50       -88.7014   2.0000                                                             
     4  1  1.50       -54.4540   6.0000                                                             
     4  2  2.50        -6.6878   9.0000                                                             
     5  0  0.50        -4.3543   1.0000                                                             
     5  1  0.50        -1.3606   0.0000                                                             
     4  3  2.50        -1.3606   0.0000                                                             
   Description                                                                                      
     l       E           TYP  RCUT    TYP  RCUT                                                     
     2     -6.6878251     23  2.400                                                                 
     2     -8.0484077     23  2.400                                                                 
     0     -4.3542939     23  2.400                                                                 
     0      4.3406793     23  2.400                                                                 
     1     -4.0817478     23  2.600                                                                 
     1     15.8380318     23  2.600                                                                 
     3     -4.0817478     23  2.400                                                                 
  local pseudopotential read in
  partial core-charges read in
  partial kinetic energy density read in
  atomic valenz-charges read in
  non local Contribution for L=           2  read in
    real space projection operators read in
  non local Contribution for L=           2  read in
    real space projection operators read in
  non local Contribution for L=           0  read in
    real space projection operators read in
  non local Contribution for L=           0  read in
    real space projection operators read in
  non local Contribution for L=           1  read in
    real space projection operators read in
  non local Contribution for L=           1  read in
    real space projection operators read in
    PAW grid and wavefunctions read in
 
   number of l-projection  operators is LMAX  =           6
   number of lm-projection operators is LMMAX =          18
 
 POTCAR:    PAW_PBE Ir 06Sep2000                  
   SHA256 =  7c6af8d4d487b237782eb51e6f62977b27a1da78c3c96acd1cebefd6c308f120 Ir/POTCAR             
   COPYR  = (c) Copyright 06Sep2000 Georg Kresse                                                    
   COPYR  = This file is part of the software VASP. Any use, copying, and all other rights are regul
   COPYR  = If you do not have a valid VASP license, you may not use, copy or distribute this file. 
   VRHFIN =Ir: s1d8                                                                                 
   LEXCH  = PE                                                                                      
   EATOM  =   560.1833 eV,   41.1723 Ry                                                             
                                                                                                    
   TITEL  = PAW_PBE Ir 06Sep2000                                                                    
   LULTRA =        F    use ultrasoft PP ?                                                          
   IUNSCR =        1    unscreen: 0-lin 1-nonlin 2-no                                               
   RPACOR =    2.250    partial core radius                                                         
   POMASS =  192.220; ZVAL   =    9.000    mass and valenz                                          
   RCORE  =    2.600    outmost cutoff radius                                                       
   RWIGS  =    2.690; RWIGS  =    1.423    wigner-seitz radius (au A)                               
   ENMAX  =  210.864; ENMIN  =  158.148 eV                                                          
   RCLOC  =    1.857    cutoff for local pot                                                        
   LCOR   =        T    correct aug charges                                                         
   LPAW   =        T    paw PP                                                                      
   EAUG   =  318.962                                                                                
   DEXC   =    0.000                                                                                
   RMAX   =    2.667    core radius for proj-oper                                                   
   RAUG   =    1.300    factor for augmentation sphere                                              
   RDEP   =    2.748    radius for radial grids                                                     
   RDEPT  =    2.300    core radius for aug-charge                                                  
                                                                                                    
   Atomic configuration                                                                             
   16 entries                                                                                       
     n  l   j            E        occ.                                                              
     1  0  0.50    -76100.0449   2.0000                                                             
     2  0  0.50    -13308.1683   2.0000                                                             
     2  1  1.50    -11558.0021   6.0000                                                             
     3  0  0.50     -3110.7274   2.0000                                                             
     3  1  1.50     -2599.2109   6.0000                                                             
     3  2  2.50     -2037.1515  10.0000                                                             
     4  0  0.50      -661.6001   2.0000                                                             
     4  1  1.50      -493.8981   6.0000                                                             
     4  2  2.50      -288.1909  10.0000                                                             
     4  3  3.50       -59.5718  14.0000                                                             
     5  0  0.50       -95.3879   2.0000                                                             
     5  1  1.50       -52.2747   6.0000                                                             
     5  2  2.50        -5.4180   8.0000                                                             
     6  0  0.50        -5.5479   1.0000                                                             
     6  1  1.50        -6.8029   0.0000                                                             
     5  3  2.50        -1.3606   0.0000                                                             
   Description                                                                                      
     l       E           TYP  RCUT    TYP  RCUT                                                     
     2     -5.4179967     23  2.600                                                                 
     2     -6.7785793     23  2.600                                                                 
     0     -5.5478636     23  2.600                                                                 
     0      2.2542272     23  2.600                                                                 
     1     -2.7211652     23  2.600                                                                 
     1     20.4087390     23  2.600                                                                 
  local pseudopotential read in
  partial core-charges read in
  partial kinetic energy density read in
  atomic valenz-charges read in
  non local Contribution for L=           2  read in
    real space projection operators read in
  non local Contribution for L=           2  read in
    real space projection operators read in
  non local Contribution for L=           0  read in
    real space projection operators read in
  non local Contribution for L=           0  read in
    real space projection operators read in
  non local Contribution for L=           1  read in
    real space projection operators read in
  non local Contribution for L=           1  read in
    real space projection operators read in
    PAW grid and wavefunctions read in
 
   number of l-projection  operators is LMAX  =           6
   number of lm-projection operators is LMMAX =          18
 
 POTCAR:    PAW_PBE Pt 04Feb2005                  
   SHA256 =  3ed90460adef76debcff1cfb73ee1349b515b1a3db03439735b44de3a8db7dc8 Pt/POTCAR             
   COPYR  = (c) Copyright 04Feb2005 Georg Kresse                                                    
   COPYR  = This file is part of the software VASP. Any use, copying, and all other rights are regul
   COPYR  = If you do not have a valid VASP license, you may not use, copy or distribute this file. 
   VRHFIN =Pt: s1d9                                                                                 
   LEXCH  = PE                                                                                      
   EATOM  =   729.1176 eV,   53.5886 Ry                                                             
                                                                                                    
   TITEL  = PAW_PBE Pt 04Feb2005                                                                    
   LULTRA =        F    use ultrasoft PP ?                                                          
   IUNSCR =        1    unscreen: 0-lin 1-nonlin 2-no                                               
   RPACOR =    2.330    partial core radius                                                         
   POMASS =  195.080; ZVAL   =   10.000    mass and valenz                                          
   RCORE  =    2.600    outmost cutoff radius                                                       
   RWIGS  =    2.750; RWIGS  =    1.455    wigner-seitz radius (au A)                               
   ENMAX  =  230.283; ENMIN  =  172.712 eV                                                          
   ICORE  =        3    local potential                                                             
   LCOR   =        T    correct aug charges                                                         
   LPAW   =        T    paw PP                                                                      
   EAUG   =  358.966                                                                                
   DEXC   =    0.000                                                                                
   RMAX   =    2.658    core radius for proj-oper                                                   
   RAUG   =    1.300    factor for augmentation sphere                                              
   RDEP   =    2.761    radius for radial grids                                                     
   RDEPT  =    2.203    core radius for aug-charge                                                  
                                                                                                    
   Atomic configuration                                                                             
   16 entries                                                                                       
     n  l   j            E        occ.                                                              
     1  0  0.50    -78401.1885   2.0000                                                             
     2  0  0.50    -13770.7750   2.0000                                                             
     2  1  1.50    -11931.0468   6.0000                                                             
     3  0  0.50     -3234.7234   2.0000                                                             
     3  1  1.50     -2699.2216   6.0000                                                             
     3  2  2.50     -2119.5714  10.0000                                                             
     4  0  0.50      -695.1528   2.0000                                                             
     4  1  1.50      -519.6034   6.0000                                                             
     4  2  2.50      -306.6786  10.0000                                                             
     4  3  3.50       -70.1041  14.0000                                                             
     5  0  0.50      -101.7747   2.0000                                                             
     5  1  1.50       -55.9873   6.0000                                                             
     5  2  2.50        -6.1423   9.0000                                                             
     6  0  0.50        -5.6573   1.0000                                                             
     6  1  1.50        -6.8029   0.0000                                                             
     5  3  2.50        -1.3606   0.0000                                                             
   Description                                                                                      
     l       E           TYP  RCUT    TYP  RCUT                                                     
     2     -6.1423404     23  2.500                                                                 
     2     -7.5029230     23  2.500                                                                 
     0     -5.6573207     23  2.500                                                                 
     0      0.7416693     23  2.500                                                                 
     1     -2.7211652     23  2.600                                                                 
     1     20.4087390     23  2.600                                                                 
     3     -1.3605826     23  2.500                                                                 
  local pseudopotential read in
  partial core-charges read in
  partial kinetic energy density read in
  atomic valenz-charges read in
  non local Contribution for L=           2  read in
    real space projection operators read in
  non local Contribution for L=           2  read in
    real space projection operators read in
  non local Contribution for L=           0  read in
    real space projection operators read in
  non local Contribution for L=           0  read in
    real space projection operators read in
  non local Contribution for L=           1  read in
    real space projection operators read in
  non local Contribution for L=           1  read in
    real space projection operators read in
    PAW grid and wavefunctions read in
 
   number of l-projection  operators is LMAX  =           6
   number of lm-projection operators is LMMAX =          18
 
 POTCAR:    PAW_PBE Cu 22Jun2005                  
   SHA256 =  0e71e558f37a4e8407882b4609ceaae59938afaad9ced71dfe8490308a0ab630 Cu/POTCAR             
   COPYR  = (c) Copyright 22Jun2005 Georg Kresse                                                    
   COPYR  = This file is part of the software VASP. Any use, copying, and all other rights are regul
   COPYR  = If you do not have a valid VASP license, you may not use, copy or distribute this file. 
   VRHFIN =Cu: d10 p1                                                                               
   LEXCH  = PE                                                                                      
   EATOM  =  1390.9808 eV,  102.2342 Ry                                                             
                                                                                                    
   TITEL  = PAW_PBE Cu 22Jun2005                                                                    
   LULTRA =        F    use ultrasoft PP ?                                                          
   IUNSCR =        1    unscreen: 0-lin 1-nonlin 2-no                                               
   RPACOR =    2.000    partial core radius                                                         
   POMASS =   63.546; ZVAL   =   11.000    mass and valenz                                          
   RCORE  =    2.300    outmost cutoff radius                                                       
   RWIGS  =    2.200; RWIGS  =    1.164    wigner-seitz radius (au A)                               
   ENMAX  =  295.446; ENMIN  =  221.585 eV                                                          
   ICORE  =        3    local potential                                                             
   LCOR   =        T    correct aug charges                                                         
   LPAW   =        T    paw PP                                                                      
   EAUG   =  586.980                                                                                
   DEXC   =    0.000                                                                                
   RMAX   =    2.344    core radius for proj-oper                                                   
   RAUG   =    1.300    factor for augmentation sphere                                              
   RDEP   =    2.302    radius for radial grids                                                     
   RDEPT  =    1.771    core radius for aug-charge                                                  
                                                                                                    
   Atomic configuration                                                                             
    9 entries                                                                                       
     n  l   j            E        occ.                                                              
     1  0  0.50     -8850.2468   2.0000                                                             
     2  0  0.50     -1062.3498   2.0000                                                             
     2  1  1.50      -916.8226   6.0000                                                             
     3  0  0.50      -114.6929   2.0000                                                             
     3  1  1.50       -72.1325   6.0000                                                             
     3  2  2.50        -5.0394  10.0000                                                             
     4  0  0.50        -4.6097   1.0000                                                             
     4  1  0.50        -4.0817   0.0000                                                             
     4  3  2.50        -1.3606   0.0000                                                             
   Description                                                                                      
     l       E           TYP  RCUT    TYP  RCUT                                                     
     2     -5.0393973     23  2.200                                                                 
     2     10.8846608     23  2.200                                                                 
     0     -4.6097109     23  2.200                                                                 
     0      8.2520465     23  2.200                                                                 
     1     -2.7211652     23  2.200                                                                 
     1     21.7055443     23  2.200                                                                 
     3      2.7211652     23  2.300                                                                 
  local pseudopotential read in
  partial core-charges read in
  partial kinetic energy density read in
  atomic valenz-charges read in
  non local Contribution for L=           2  read in
    real space projection operators read in
  non local Contribution for L=           2  read in
    real space projection operators read in
  non local Contribution for L=           0  read in
    real space projection operators read in
  non local Contribution for L=           0  read in
    real space projection operators read in
  non local Contribution for L=           1  read in
    real space projection operators read in
  non local Contribution for L=           1  read in
    real space projection operators read in
    PAW grid and wavefunctions read in
 
   number of l-projection  operators is LMAX  =           6
   number of lm-projection operators is LMMAX =          18
 
  PAW_PBE Pd 04Jan2005                  :
 energy of atom  1       EATOM= -809.7530
 kinetic energy error for atom=    0.4294 (will be added to EATOM!!)
  PAW_PBE Ir 06Sep2000                  :
 energy of atom  2       EATOM= -560.1833
 kinetic energy error for atom=    0.0554 (will be added to EATOM!!)
  PAW_PBE Pt 04Feb2005                  :
 energy of atom  3       EATOM= -729.1176
 kinetic energy error for atom=    0.1656 (will be added to EATOM!!)
  PAW_PBE Cu 22Jun2005                  :
 energy of atom  4       EATOM=-1390.9808
 kinetic energy error for atom=    1.4163 (will be added to EATOM!!)
 
 
 POSCAR: Pd Ir Pt Cu
  positions in cartesian coordinates
  No initial velocities read in
 exchange correlation table for  LEXCH =        8
   RHO(1)=    0.500       N(1)  =     2000
   RHO(2)=  100.500       N(2)  =     4000
 


--------------------------------------------------------------------------------------------------------


 ion  position               nearest neighbor table
   1  0.000  0.000  0.000-   2 2.73   3 2.73   4 2.73   3 2.73   4 2.73   2 2.73   4 2.73   4 2.73
                             2 2.73   3 2.73   3 2.73   2 2.73
   2  0.500  0.500  0.000-   1 2.73   3 2.73   4 2.73   3 2.73   4 2.73   1 2.73   3 2.73   3 2.73
                             1 2.73   4 2.73   4 2.73   1 2.73
   3  0.500  0.000  0.500-   1 2.73   2 2.73   4 2.73   1 2.73   2 2.73   2 2.73   4 2.73   2 2.73
                             1 2.73   4 2.73   1 2.73   4 2.73
   4  0.000  0.500  0.500-   1 2.73   2 2.73   3 2.73   1 2.73   2 2.73   1 2.73   3 2.73   1 2.73
                             2 2.73   3 2.73   2 2.73   3 2.73
 
  LATTYP: Found a simple cubic cell.
 ALAT       =     3.8660000000
  
  Lattice vectors:
  
 A1 = (   3.8660000000,   0.0000000000,   0.0000000000)
 A2 = (   0.0000000000,   3.8660000000,   0.0000000000)
 A3 = (   0.0000000000,   0.0000000000,   3.8660000000)


Analysis of symmetry for initial positions (statically):
=====================================================================
 Subroutine PRICEL returns:
 Original cell was already a primitive cell.
 

 Routine SETGRP: Setting up the symmetry group for a 
 simple cubic supercell.


 Subroutine GETGRP returns: Found  8 space group operations
 (whereof  8 operations were pure point group operations)
 out of a pool of 48 trial point group operations.


The static configuration has the point symmetry D_2h.


Analysis of symmetry for dynamics (positions and initial velocities):
=====================================================================
 Subroutine PRICEL returns:
 Original cell was already a primitive cell.
 

 Routine SETGRP: Setting up the symmetry group for a 
 simple cubic supercell.


 Subroutine GETGRP returns: Found  8 space group operations
 (whereof  8 operations were pure point group operations)
 out of a pool of 48 trial point group operations.


The dynamic configuration has the point symmetry D_2h.


 Subroutine INISYM returns: Found  8 space group operations
 (whereof  8 operations are pure point group operations),
 and found     1 'primitive' translations


----------------------------------------------------------------------------------------

                                     Primitive cell                                     

  volume of cell :      57.7811

  direct lattice vectors                    reciprocal lattice vectors
     3.866000000  0.000000000  0.000000000     0.258665287  0.000000000  0.000000000
     0.000000000  3.866000000  0.000000000     0.000000000  0.258665287  0.000000000
     0.000000000  0.000000000  3.866000000     0.000000000  0.000000000  0.258665287

  length of vectors
     3.866000000  3.866000000  3.866000000     0.258665287  0.258665287  0.258665287

  position of ions in fractional coordinates (direct lattice)
     0.000000000  0.000000000  0.000000000
     0.500000000  0.500000000  0.000000000
     0.500000000  0.000000000  0.500000000
     0.000000000  0.500000000  0.500000000

  ion indices of the primitive-cell ions
   primitive index   ion index
                 1           1
                 2           2
                 3           3
                 4           4

----------------------------------------------------------------------------------------

 
 
 KPOINTS: KPOINTS created by Atomic Simulation Env

Automatic generation of k-mesh.
 Grid dimensions read from file:
 generate k-points for:    5    5    5

 Generating k-lattice:

  Cartesian coordinates                     Fractional coordinates (reciprocal lattice)
     0.051733057  0.000000000  0.000000000     0.200000000  0.000000000  0.000000000
     0.000000000  0.051733057  0.000000000     0.000000000  0.200000000  0.000000000
     0.000000000  0.000000000  0.051733057     0.000000000  0.000000000  0.200000000

  Length of vectors
     0.051733057  0.051733057  0.051733057

  Shift w.r.t. Gamma in fractional coordinates (k-lattice)
     0.000000000  0.000000000  0.000000000

 
 Subroutine IBZKPT returns following result:
 ===========================================
 
 Found     27 irreducible k-points:
 
 Following reciprocal coordinates:
            Coordinates               Weight
  0.000000  0.000000  0.000000      1.000000
  0.200000  0.000000  0.000000      2.000000
  0.000000  0.200000  0.000000      2.000000
  0.000000  0.000000  0.200000      2.000000
  0.400000  0.000000  0.000000      2.000000
  0.000000  0.400000  0.000000      2.000000
  0.000000  0.000000  0.400000      2.000000
  0.200000  0.200000  0.000000      4.000000
  0.000000  0.200000  0.200000      4.000000
  0.200000  0.000000  0.200000      4.000000
  0.400000  0.200000  0.000000      4.000000
  0.000000  0.400000  0.200000      4.000000
  0.200000  0.000000  0.400000      4.000000
 -0.200000  0.400000  0.000000      4.000000
 -0.400000  0.000000  0.200000      4.000000
  0.000000  0.200000  0.400000      4.000000
  0.400000  0.400000  0.000000      4.000000
  0.000000  0.400000  0.400000      4.000000
  0.400000  0.000000  0.400000      4.000000
  0.200000  0.200000  0.200000      8.000000
  0.400000  0.200000  0.200000      8.000000
  0.200000  0.400000  0.200000      8.000000
  0.200000  0.200000  0.400000      8.000000
  0.400000  0.400000  0.200000      8.000000
  0.200000  0.400000  0.400000      8.000000
  0.400000  0.200000  0.400000      8.000000
  0.400000  0.400000  0.400000      8.000000
 
 Following cartesian coordinates:
            Coordinates               Weight
  0.000000  0.000000  0.000000      1.000000
  0.051733  0.000000  0.000000      2.000000
  0.000000  0.051733  0.000000      2.000000
  0.000000  0.000000  0.051733      2.000000
  0.103466  0.000000  0.000000      2.000000
  0.000000  0.103466  0.000000      2.000000
  0.000000  0.000000  0.103466      2.000000
  0.051733  0.051733  0.000000      4.000000
  0.000000  0.051733  0.051733      4.000000
  0.051733  0.000000  0.051733      4.000000
  0.103466  0.051733  0.000000      4.000000
  0.000000  0.103466  0.051733      4.000000
  0.051733  0.000000  0.103466      4.000000
 -0.051733  0.103466  0.000000      4.000000
 -0.103466  0.000000  0.051733      4.000000
  0.000000  0.051733  0.103466      4.000000
  0.103466  0.103466  0.000000      4.000000
  0.000000  0.103466  0.103466      4.000000
  0.103466  0.000000  0.103466      4.000000
  0.051733  0.051733  0.051733      8.000000
  0.103466  0.051733  0.051733      8.000000
  0.051733  0.103466  0.051733      8.000000
  0.051733  0.051733  0.103466      8.000000
  0.103466  0.103466  0.051733      8.000000
  0.051733  0.103466  0.103466      8.000000
  0.103466  0.051733  0.103466      8.000000
  0.103466  0.103466  0.103466      8.000000
 


--------------------------------------------------------------------------------------------------------




 Dimension of arrays:
   k-points           NKPTS =     27   k-points in BZ     NKDIM =     27   number of bands    NBANDS=     30
   number of dos      NEDOS =    301   number of ions     NIONS =      4
   non local maximal  LDIM  =      6   non local SUM 2l+1 LMDIM =     18
   total plane-waves  NPLWV =   2744
   max r-space proj   IRMAX =      1   max aug-charges    IRDMAX=   3633
   dimension x,y,z NGX =    14 NGY =   14 NGZ =   14
   dimension x,y,z NGXF=    28 NGYF=   28 NGZF=   28
   support grid    NGXF=    28 NGYF=   28 NGZF=   28
   ions per type =               1   1   1   1
   NGX,Y,Z   is equivalent  to a cutoff of   6.02,  6.02,  6.02 a.u.
   NGXF,Y,Z  is equivalent  to a cutoff of  12.04, 12.04, 12.04 a.u.

 SYSTEM =  unknown system                          
 POSCAR =  Pd Ir Pt Cu                             

 Startparameter for this run:
   NWRITE =      2    write-flag & timer
   PREC   = normal    normal or accurate (medium, high low for compatibility)
   ISTART =      1    job   : 0-new  1-cont  2-samecut
   ICHARG =      1    charge: 1-file 2-atom 10-const
   ISPIN  =      1    spin polarized calculation?
   LNONCOLLINEAR =      F non collinear calculations
   LSORBIT =      F    spin-orbit coupling
   INIWAV =      1    electr: 0-lowe 1-rand  2-diag
   LASPH  =      F    aspherical Exc in radial PAW
   METAGGA=      F    non-selfconsistent MetaGGA calc.

 Electronic Relaxation 1
   ENCUT  =  210.0 eV  15.43 Ry    3.93 a.u.   4.57  4.57  4.57*2*pi/ulx,y,z
   ENINI  =  210.0     initial cutoff
   ENAUG  =  587.0 eV  augmentation charge cutoff
   NELM   =     60;   NELMIN=  2; NELMDL=  0     # of ELM steps 
   EDIFF  = 0.1E-05   stopping-criterion for ELM
   LREAL  =      F    real-space projection
   NLSPLINE    = F    spline interpolate recip. space projectors
   LCOMPAT=      F    compatible to vasp.4.4
   GGA_COMPAT  = T    GGA compatible to vasp.4.4-vasp.4.6
   LMAXPAW     = -100 max onsite density
   LMAXMIX     =    2 max onsite mixed and CHGCAR
   VOSKOWN=      0    Vosko Wilk Nusair interpolation
   ROPT   =    0.00000   0.00000   0.00000   0.00000
 Ionic relaxation
   EDIFFG = 0.1E-04   stopping-criterion for IOM
   NSW    =      0    number of steps for IOM
   NBLOCK =      1;   KBLOCK =      1    inner block; outer block 
   IBRION =     -1    ionic relax: 0-MD 1-quasi-New 2-CG
   NFREE  =      0    steps in history (QN), initial steepest desc. (CG)
   ISIF   =      2    stress and relaxation
   IWAVPR =      0    prediction:  0-non 1-charg 2-wave 3-comb
   ISYM   =      2    0-nonsym 1-usesym 2-fastsym
   LCORR  =      T    Harris-Foulkes like correction to forces

   POTIM  = 0.5000    time-step for ionic-motion
   TEIN   =    0.0    initial temperature
   TEBEG  =    0.0;   TEEND  =   0.0 temperature during run
   SMASS  =  -3.00    Nose mass-parameter (am)
   estimated Nose-frequenzy (Omega)   =  0.10E-29 period in steps = 0.13E+47 mass=  -0.342E-27a.u.
   SCALEE = 1.0000    scale energy and forces
   NPACO  =    256;   APACO  = 16.0  distance and # of slots for P.C.
   PSTRESS=    0.0 pullay stress

  Mass of Ions in am
   POMASS = 106.42192.22195.08 63.55
  Ionic Valenz
   ZVAL   =  10.00  9.00 10.00 11.00
  Atomic Wigner-Seitz radii
   RWIGS  =  -1.00 -1.00 -1.00 -1.00
  virtual crystal weights 
   VCA    =   1.00  1.00  1.00  1.00
   NELECT =      40.0000    total number of electrons
   NUPDOWN=      -1.0000    fix difference up-down

 DOS related values:
   EMIN   =  10.00;   EMAX   =-10.00  energy-range for DOS
   EFERMI =   0.00
   ISMEAR =     1;   SIGMA  =   0.20  broadening in eV -4-tet -1-fermi 0-gaus

 Electronic relaxation 2 (details)
   IALGO  =     38    algorithm
   LDIAG  =      T    sub-space diagonalisation (order eigenvalues)
   LSUBROT=      F    optimize rotation matrix (better conditioning)
   TURBO    =      0    0=normal 1=particle mesh
   IRESTART =      0    0=no restart 2=restart with 2 vectors
   NREBOOT  =      0    no. of reboots
   NMIN     =      0    reboot dimension
   EREF     =   0.00    reference energy to select bands
   IMIX   =      4    mixing-type and parameters
     AMIX     =   0.40;   BMIX     =  1.00
     AMIX_MAG =   1.60;   BMIX_MAG =  1.00
     AMIN     =   0.10
     WC   =   100.;   INIMIX=   1;  MIXPRE=   1;  MAXMIX= -45

 Intra band minimization:
   WEIMIN = 0.0000     energy-eigenvalue tresh-hold
   EBREAK =  0.83E-08  absolut break condition
   DEPER  =   0.30     relativ break condition  

   TIME   =   0.40     timestep for ELM

  volume/ion in A,a.u.               =      14.45        97.48
  Fermi-wavevector in a.u.,A,eV,Ry     =   1.448215  2.736729 28.535854  2.097326
  Thomas-Fermi vector in A             =   2.566081
 
 Write flags
   LWAVE        =      T    write WAVECAR
   LDOWNSAMPLE  =      F    k-point downsampling of WAVECAR
   LCHARG       =      T    write CHGCAR
   LVTOT        =      F    write LOCPOT, total local potential
   LVHAR        =      F    write LOCPOT, Hartree potential only
   LELF         =      F    write electronic localiz. function (ELF)
   LORBIT       =      0    0 simple, 1 ext, 2 COOP (PROOUT), +10 PAW based schemes


 Dipole corrections
   LMONO  =      F    monopole corrections only (constant potential shift)
   LDIPOL =      F    correct potential (dipole corrections)
   IDIPOL =      0    1-x, 2-y, 3-z, 4-all directions 
   EPSILON=  1.0000000 bulk dielectric constant

 Exchange correlation treatment:
   GGA     =    PE    GGA type
   LEXCH   =     8    internal setting for exchange type
   VOSKOWN=      0    Vosko Wilk Nusair interpolation
   LHFCALC =     F    Hartree Fock is set to
   LHFONE  =     F    Hartree Fock one center treatment
   AEXX    =    0.0000 exact exchange contribution

 Linear response parameters
   LEPSILON=     F    determine dielectric tensor
   LRPA    =     F    only Hartree local field effects (RPA)
   LNABLA  =     F    use nabla operator in PAW spheres
   LVEL    =     F    velocity operator in full k-point grid
   LINTERFAST=   F  fast interpolation
   KINTER  =     0    interpolate to denser k-point grid
   CSHIFT  =0.1000    complex shift for real part using Kramers Kronig
   OMEGAMAX=  -1.0    maximum frequency
   DEG_THRESHOLD= 0.2000000E-02 threshold for treating states as degnerate
   RTIME   =   -0.100 relaxation time in fs
  (WPLASMAI=    0.000 imaginary part of plasma frequency in eV, 0.658/RTIME)
   DFIELD  = 0.0000000 0.0000000 0.0000000 field for delta impulse in time
 
 Orbital magnetization related:
   ORBITALMAG=     F  switch on orbital magnetization
   LCHIMAG   =     F  perturbation theory with respect to B field
   DQ        =  0.001000  dq finite difference perturbation B field
   LLRAUG    =     F  two centre corrections for induced B field



--------------------------------------------------------------------------------------------------------


 Static calculation
 charge density and potential will be updated during run
 non-spin polarized calculation
 Variant of blocked Davidson
 Davidson routine will perform the subspace rotation
 perform sub-space diagonalisation
    after iterative eigenvector-optimisation
 modified Broyden-mixing scheme, WC =      100.0
 initial mixing is a Kerker type mixing with AMIX =  0.4000 and BMIX =      1.0000
 Hartree-type preconditioning will be used
 using additional bands           10
 reciprocal scheme for non local part
 use partial core corrections
 calculate Harris-corrections to forces 
   (improved forces if not selfconsistent)
 use gradient corrections 
 use of overlap-Matrix (Vanderbilt PP)
 Methfessel and Paxton  Order N= 1 SIGMA  =   0.20


--------------------------------------------------------------------------------------------------------


  energy-cutoff  :      210.00
  volume of cell :       57.78
      direct lattice vectors                 reciprocal lattice vectors
     3.866000000  0.000000000  0.000000000     0.258665287  0.000000000  0.000000000
     0.000000000  3.866000000  0.000000000     0.000000000  0.258665287  0.000000000
     0.000000000  0.000000000  3.866000000     0.000000000  0.000000000  0.258665287

  length of vectors
     3.866000000  3.866000000  3.866000000     0.258665287  0.258665287  0.258665287


 
 old parameters found on file WAVECAR:
  energy-cutoff  :      210.00
  volume of cell :       57.78
      direct lattice vectors                 reciprocal lattice vectors
     3.866000000  0.000000000  0.000000000     0.258665287  0.000000000  0.000000000
     0.000000000  3.866000000  0.000000000     0.000000000  0.258665287  0.000000000
     0.000000000  0.000000000  3.866000000     0.000000000  0.000000000  0.258665287

  length of vectors

 
 k-points in units of 2pi/SCALE and weight: KPOINTS created by Atomic Simulation Env
   0.00000000  0.00000000  0.00000000       0.008
   0.05173306  0.00000000  0.00000000       0.016
   0.00000000  0.05173306  0.00000000       0.016
   0.00000000  0.00000000  0.05173306       0.016
   0.10346611  0.00000000  0.00000000       0.016
   0.00000000  0.10346611  0.00000000       0.016
   0.00000000  0.00000000  0.10346611       0.016
   0.05173306  0.05173306  0.00000000       0.032
   0.00000000  0.05173306  0.05173306       0.032
   0.05173306  0.00000000  0.05173306       0.032
   0.10346611  0.05173306  0.00000000       0.032
   0.00000000  0.10346611  0.05173306       0.032
   0.05173306  0.00000000  0.10346611       0.032
  -0.05173306  0.10346611  0.00000000       0.032
  -0.10346611  0.00000000  0.05173306       0.032
   0.00000000  0.05173306  0.10346611       0.032
   0.10346611  0.10346611  0.00000000       0.032
   0.00000000  0.10346611  0.10346611       0.032
   0.10346611  0.00000000  0.10346611       0.032
   0.05173306  0.05173306  0.05173306       0.064
   0.10346611  0.05173306  0.05173306       0.064
   0.05173306  0.10346611  0.05173306       0.064
   0.05173306  0.05173306  0.10346611       0.064
   0.10346611  0.10346611  0.05173306       0.064
   0.05173306  0.10346611  0.10346611       0.064
   0.10346611  0.05173306  0.10346611       0.064
   0.10346611  0.10346611  0.10346611       0.064
 
 k-points in reciprocal lattice and weights: KPOINTS created by Atomic Simulation Env
   0.00000000  0.00000000  0.00000000       0.008
   0.20000000  0.00000000  0.00000000       0.016
   0.00000000  0.20000000  0.00000000       0.016
   0.00000000  0.00000000  0.20000000       0.016
   0.40000000  0.00000000  0.00000000       0.016
   0.00000000  0.40000000  0.00000000       0.016
   0.00000000  0.00000000  0.40000000       0.016
   0.20000000  0.20000000  0.00000000       0.032
   0.00000000  0.20000000  0.20000000       0.032
   0.20000000  0.00000000  0.20000000       0.032
   0.40000000  0.20000000  0.00000000       0.032
   0.00000000  0.40000000  0.20000000       0.032
   0.20000000  0.00000000  0.40000000       0.032
  -0.20000000  0.40000000  0.00000000       0.032
  -0.40000000  0.00000000  0.20000000       0.032
   0.00000000  0.20000000  0.40000000       0.032
   0.40000000  0.40000000  0.00000000       0.032
   0.00000000  0.40000000  0.40000000       0.032
   0.40000000  0.00000000  0.40000000       0.032
   0.20000000  0.20000000  0.20000000       0.064
   0.40000000  0.20000000  0.20000000       0.064
   0.20000000  0.40000000  0.20000000       0.064
   0.20000000  0.20000000  0.40000000       0.064
   0.40000000  0.40000000  0.20000000       0.064
   0.20000000  0.40000000  0.40000000       0.064
   0.40000000  0.20000000  0.40000000       0.064
   0.40000000  0.40000000  0.40000000       0.064
 
 position of ions in fractional coordinates (direct lattice) 
   0.00000000  0.00000000  0.00000000
   0.50000000  0.50000000  0.00000000
   0.50000000  0.00000000  0.50000000
   0.00000000  0.50000000  0.50000000
 
 position of ions in cartesian coordinates  (Angst):
   0.00000000  0.00000000  0.00000000
   1.93300000  1.93300000  0.00000000
   1.93300000  0.00000000  1.93300000
   0.00000000  1.93300000  1.93300000
 


--------------------------------------------------------------------------------------------------------


 k-point   1 :   0.0000 0.0000 0.0000  plane waves:     389
 k-point   2 :   0.2000 0.0000 0.0000  plane waves:     417
 k-point   3 :   0.0000 0.2000 0.0000  plane waves:     417
 k-point   4 :   0.0000 0.0000 0.2000  plane waves:     417
 k-point   5 :   0.4000 0.0000 0.0000  plane waves:     405
 k-point   6 :   0.0000 0.4000 0.0000  plane waves:     405
 k-point   7 :   0.0000 0.0000 0.4000  plane waves:     405
 k-point   8 :   0.2000 0.2000 0.0000  plane waves:     405
 k-point   9 :   0.0000 0.2000 0.2000  plane waves:     405
 k-point  10 :   0.2000 0.0000 0.2000  plane waves:     405
 k-point  11 :   0.4000 0.2000 0.0000  plane waves:     396
 k-point  12 :   0.0000 0.4000 0.2000  plane waves:     396
 k-point  13 :   0.2000 0.0000 0.4000  plane waves:     396
 k-point  14 :  -0.2000 0.4000 0.0000  plane waves:     396
 k-point  15 :  -0.4000 0.0000 0.2000  plane waves:     396
 k-point  16 :   0.0000 0.2000 0.4000  plane waves:     396
 k-point  17 :   0.4000 0.4000 0.0000  plane waves:     396
 k-point  18 :   0.0000 0.4000 0.4000  plane waves:     396
 k-point  19 :   0.4000 0.0000 0.4000  plane waves:     396
 k-point  20 :   0.2000 0.2000 0.2000  plane waves:     401
 k-point  21 :   0.4000 0.2000 0.2000  plane waves:     402
 k-point  22 :   0.2000 0.4000 0.2000  plane waves:     402
 k-point  23 :   0.2000 0.2000 0.4000  plane waves:     402
 k-point  24 :   0.4000 0.4000 0.2000  plane waves:     395
 k-point  25 :   0.2000 0.4000 0.4000  plane waves:     395
 k-point  26 :   0.4000 0.2000 0.4000  plane waves:     395
 k-point  27 :   0.4000 0.4000 0.4000  plane waves:     396

 maximum number of plane-waves:       417
 maximum index in each direction: 
   IXMAX=    4   IYMAX=    4   IZMAX=    4
   IXMIN=   -4   IYMIN=   -4   IZMIN=   -4


 total amount of memory used by VASP MPI-rank0    44691. kBytes
=======================================================================

   base      :      30000. kBytes
   nonl-proj :       6511. kBytes
   grid      :       1781. kBytes
   one-center:         62. kBytes
   wavefun   :       6337. kBytes
 
     INWAV:  cpu time    0.0073: real time    0.0073
 Broyden mixing: mesh for mixing (old mesh)
   NGX =  9   NGY =  9   NGZ =  9
  (NGX  = 28   NGY  = 28   NGZ  = 28)
  gives a total of    729 points

 initial charge density was supplied:
 number of electron      39.9998795 magnetization 
 keeping initial charge density in first step


--------------------------------------------------------------------------------------------------------


 Maximum index for augmentation-charges         3287 (set IRDMAX)


--------------------------------------------------------------------------------------------------------


 First call to EWALD:  gamma=   0.458
 Maximum number of real-space cells 3x 3x 3
 Maximum number of reciprocal cells 3x 3x 3

    FEWALD:  cpu time    0.0009: real time    0.0009


--------------------------------------- Iteration      1(   1)  ---------------------------------------


    POTLOK:  cpu time    0.0057: real time    0.0057
    SETDIJ:  cpu time    0.0040: real time    0.0040
     EDDAV:  cpu time    0.2723: real time    0.2921
       DOS:  cpu time    0.0024: real time    0.0024
    CHARGE:  cpu time    0.0155: real time    0.0155
    MIXING:  cpu time    0.0002: real time    0.0002
    --------------------------------------------
      LOOP:  cpu time    0.3000: real time    0.3198

 eigenvalue-minimisations  :  2008
 total energy-change (2. order) :-0.2246623E+02  (-0.5891436E-03)
 number of electron      39.9998794 magnetization 
 augmentation part       16.8453242 magnetization 

 Broyden mixing:
  rms(total) = 0.12859E-01    rms(broyden)= 0.12250E-01
  rms(prec ) = 0.23968E-01
  weight for this iteration     100.00

 Free energy of the ion-electron system (eV)
  ---------------------------------------------------
  alpha Z        PSCENC =       244.65455147
  Ewald energy   TEWEN  =     -3423.86860972
  -Hartree energ DENC   =      -595.84773412
  -exchange      EXHF   =         0.00000000
  -V(xc)+E(xc)   XCENC  =         1.57255837
  PAW double counting   =      3940.88543120    -3922.46051053
  entropy T*S    EENTRO =        -0.00301804
  eigenvalues    EBANDS =       244.63310594
  atomic energy  EATOM  =      3487.96799218
  Solvation  Ediel_sol  =         0.00000000
  ---------------------------------------------------
  free energy    TOTEN  =       -22.46623326 eV

  energy without entropy =      -22.46321522  energy(sigma->0) =      -22.46522724


--------------------------------------------------------------------------------------------------------




--------------------------------------- Iteration      1(   2)  ---------------------------------------


    POTLOK:  cpu time    0.0054: real time    0.0053
    SETDIJ:  cpu time    0.0039: real time    0.0038
     EDDAV:  cpu time    0.2546: real time    0.2546
       DOS:  cpu time    0.0025: real time    0.0025
    CHARGE:  cpu time    0.0164: real time    0.0164
    MIXING:  cpu time    0.0003: real time    0.0003
    --------------------------------------------
      LOOP:  cpu time    0.2829: real time    0.2829

 eigenvalue-minimisations  :  1996
 total energy-change (2. order) : 0.2709481E-01  (-0.9202568E-03)
 number of electron      39.9998797 magnetization 
 augmentation part       16.8407330 magnetization 

 Broyden mixing:
  rms(total) = 0.20535E-01    rms(broyden)= 0.20144E-01
  rms(prec ) = 0.54510E-01
  weight for this iteration     100.00

 eigenvalues of (default mixing * dielectric matrix)
  average eigenvalue GAMMA=   0.3691
  0.3691

 Free energy of the ion-electron system (eV)
  ---------------------------------------------------
  alpha Z        PSCENC =       244.65455147
  Ewald energy   TEWEN  =     -3423.86860972
  -Hartree energ DENC   =      -595.92581014
  -exchange      EXHF   =         0.00000000
  -V(xc)+E(xc)   XCENC  =         1.57824387
  PAW double counting   =      3941.21367792    -3922.87222123
  entropy T*S    EENTRO =        -0.00480831
  eigenvalues    EBANDS =       244.81784552
  atomic energy  EATOM  =      3487.96799218
  Solvation  Ediel_sol  =         0.00000000
  ---------------------------------------------------
  free energy    TOTEN  =       -22.43913845 eV

  energy without entropy =      -22.43433014  energy(sigma->0) =      -22.43753568


--------------------------------------------------------------------------------------------------------




--------------------------------------- Iteration      1(   3)  ---------------------------------------


    POTLOK:  cpu time    0.0053: real time    0.0053
    SETDIJ:  cpu time    0.0039: real time    0.0039
     EDDAV:  cpu time    0.2655: real time    0.2655
       DOS:  cpu time    0.0024: real time    0.0024
    CHARGE:  cpu time    0.0156: real time    0.0156
    MIXING:  cpu time    0.0002: real time    0.0002
    --------------------------------------------
      LOOP:  cpu time    0.2930: real time    0.2930

 eigenvalue-minimisations  :  2190
 total energy-change (2. order) : 0.6277987E-03  (-0.1222175E-03)
 number of electron      39.9998795 magnetization 
 augmentation part       16.8456171 magnetization 

 Broyden mixing:
  rms(total) = 0.46936E-02    rms(broyden)= 0.46500E-02
  rms(prec ) = 0.10032E-01
  weight for this iteration     100.00

 eigenvalues of (default mixing * dielectric matrix)
  average eigenvalue GAMMA=   0.4594
  0.5489  0.3700

 Free energy of the ion-electron system (eV)
  ---------------------------------------------------
  alpha Z        PSCENC =       244.65455147
  Ewald energy   TEWEN  =     -3423.86860972
  -Hartree energ DENC   =      -595.83228501
  -exchange      EXHF   =         0.00000000
  -V(xc)+E(xc)   XCENC  =         1.57314763
  PAW double counting   =      3941.12675289    -3922.72956352
  entropy T*S    EENTRO =        -0.00412975
  eigenvalues    EBANDS =       244.67363319
  atomic energy  EATOM  =      3487.96799218
  Solvation  Ediel_sol  =         0.00000000
  ---------------------------------------------------
  free energy    TOTEN  =       -22.43851065 eV

  energy without entropy =      -22.43438090  energy(sigma->0) =      -22.43713407


--------------------------------------------------------------------------------------------------------




--------------------------------------- Iteration      1(   4)  ---------------------------------------


    POTLOK:  cpu time    0.0052: real time    0.0052
    SETDIJ:  cpu time    0.0037: real time    0.0037
     EDDAV:  cpu time    0.2845: real time    0.2845
       DOS:  cpu time    0.0024: real time    0.0024
    CHARGE:  cpu time    0.0181: real time    0.0233
    MIXING:  cpu time    0.0003: real time    0.0003
    --------------------------------------------
      LOOP:  cpu time    0.3142: real time    0.3193

 eigenvalue-minimisations  :  2342
 total energy-change (2. order) : 0.2995460E-05  (-0.7129668E-05)
 number of electron      39.9998796 magnetization 
 augmentation part       16.8444010 magnetization 

 Broyden mixing:
  rms(total) = 0.38920E-02    rms(broyden)= 0.38909E-02
  rms(prec ) = 0.81866E-02
  weight for this iteration     100.00

 eigenvalues of (default mixing * dielectric matrix)
  average eigenvalue GAMMA=   0.4396
  0.5174  0.5174  0.2841

 Free energy of the ion-electron system (eV)
  ---------------------------------------------------
  alpha Z        PSCENC =       244.65455147
  Ewald energy   TEWEN  =     -3423.86860972
  -Hartree energ DENC   =      -595.86785632
  -exchange      EXHF   =         0.00000000
  -V(xc)+E(xc)   XCENC  =         1.57434247
  PAW double counting   =      3941.11211923    -3922.72326492
  entropy T*S    EENTRO =        -0.00423513
  eigenvalues    EBANDS =       244.71645309
  atomic energy  EATOM  =      3487.96799218
  Solvation  Ediel_sol  =         0.00000000
  ---------------------------------------------------
  free energy    TOTEN  =       -22.43850766 eV

  energy without entropy =      -22.43427253  energy(sigma->0) =      -22.43709595


--------------------------------------------------------------------------------------------------------




--------------------------------------- Iteration      1(   5)  ---------------------------------------


    POTLOK:  cpu time    0.0052: real time    0.0052
    SETDIJ:  cpu time    0.0037: real time    0.0037
     EDDAV:  cpu time    0.2356: real time    0.2356
       DOS:  cpu time    0.0023: real time    0.0023
    CHARGE:  cpu time    0.0154: real time    0.0154
    MIXING:  cpu time    0.0003: real time    0.0003
    --------------------------------------------
      LOOP:  cpu time    0.2625: real time    0.2625

 eigenvalue-minimisations  :  1890
 total energy-change (2. order) : 0.5078625E-05  (-0.1022006E-05)
 number of electron      39.9998795 magnetization 
 augmentation part       16.8450048 magnetization 

 Broyden mixing:
  rms(total) = 0.28971E-02    rms(broyden)= 0.28962E-02
  rms(prec ) = 0.56966E-02
  weight for this iteration     100.00

 eigenvalues of (default mixing * dielectric matrix)
  average eigenvalue GAMMA=   0.5371
  0.7455  0.7455  0.3288  0.3288

 Free energy of the ion-electron system (eV)
  ---------------------------------------------------
  alpha Z        PSCENC =       244.65455147
  Ewald energy   TEWEN  =     -3423.86860972
  -Hartree energ DENC   =      -595.84965475
  -exchange      EXHF   =         0.00000000
  -V(xc)+E(xc)   XCENC  =         1.57346036
  PAW double counting   =      3941.07919672    -3922.68403175
  entropy T*S    EENTRO =        -0.00417263
  eigenvalues    EBANDS =       244.69276556
  atomic energy  EATOM  =      3487.96799218
  Solvation  Ediel_sol  =         0.00000000
  ---------------------------------------------------
  free energy    TOTEN  =       -22.43850258 eV

  energy without entropy =      -22.43432995  energy(sigma->0) =      -22.43711170


--------------------------------------------------------------------------------------------------------




--------------------------------------- Iteration      1(   6)  ---------------------------------------


    POTLOK:  cpu time    0.0052: real time    0.0052
    SETDIJ:  cpu time    0.0038: real time    0.0038
     EDDAV:  cpu time    0.1537: real time    0.1537
       DOS:  cpu time    0.0025: real time    0.0025
    --------------------------------------------
      LOOP:  cpu time    0.1651: real time    0.1651

 eigenvalue-minimisations  :   960
 total energy-change (2. order) : 0.5280435E-07  (-0.1059706E-06)
 number of electron      39.9998795 magnetization 
 augmentation part       16.8450048 magnetization 

 Free energy of the ion-electron system (eV)
  ---------------------------------------------------
  alpha Z        PSCENC =       244.65455147
  Ewald energy   TEWEN  =     -3423.86860972
  -Hartree energ DENC   =      -595.84805460
  -exchange      EXHF   =         0.00000000
  -V(xc)+E(xc)   XCENC  =         1.57322875
  PAW double counting   =      3941.04313554    -3922.64672507
  entropy T*S    EENTRO =        -0.00416803
  eigenvalues    EBANDS =       244.69014697
  atomic energy  EATOM  =      3487.96799218
  Solvation  Ediel_sol  =         0.00000000
  ---------------------------------------------------
  free energy    TOTEN  =       -22.43850252 eV

  energy without entropy =      -22.43433450  energy(sigma->0) =      -22.43711318


--------------------------------------------------------------------------------------------------------




 average (electrostatic) potential at core
  the test charge radii are     1.1199  1.2793  1.2059  0.9430
  (the norm of the test charge is              1.0000)
       1 -71.9505       2 -48.8543       3 -64.9714       4 -61.9545
 
 
 
 E-fermi :   9.1548     XC(G=0): -13.1426     alpha+bet :-15.1862

 Fermi energy:         9.1547898979

 k-point     1 :       0.0000    0.0000    0.0000
  band No.  band energies     occupation 
      1       0.1099      2.00000
      2       2.5611      2.00000
      3       3.5313      2.00000
      4       3.5874      2.00000
      5       3.6799      2.00000
      6       3.7211      2.00000
      7       3.7807      2.00000
      8       6.1707      2.00000
      9       6.2065      2.00000
     10       6.3234      2.00000
     11       7.3634      2.00000
     12       7.4859      2.00000
     13       8.1519      2.00000
     14       8.3561      2.00000
     15       8.4904      2.00003
     16       9.2034      0.60189
     17       9.3660     -0.06002
     18       9.4357     -0.06322
     19       9.7473     -0.00023
     20      10.2085     -0.00000
     21      10.7842     -0.00000
     22      11.4114     -0.00000
     23      11.4204     -0.00000
     24      11.4325     -0.00000
     25      17.8823      0.00000
     26      18.1715      0.00000
     27      19.7516      0.00000
     28      20.3256      0.00000
     29      20.4722      0.00000
     30      20.7174      0.00000

 k-point     2 :       0.2000    0.0000    0.0000
  band No.  band energies     occupation 
      1       0.5748      2.00000
      2       2.8565      2.00000
      3       3.6796      2.00000
      4       3.6991      2.00000
      5       3.8709      2.00000
      6       3.9563      2.00000
      7       4.0126      2.00000
      8       5.9399      2.00000
      9       6.2968      2.00000
     10       6.4537      2.00000
     11       7.2714      2.00000
     12       7.3595      2.00000
     13       7.5946      2.00000
     14       7.7958      2.00000
     15       7.8986      2.00000
     16       8.0617      2.00000
     17       8.9569      2.04795
     18       9.0490      1.77133
     19       9.1964      0.65653
     20       9.4275     -0.06603
     21       9.7098     -0.00062
     22      10.7675     -0.00000
     23      13.1739     -0.00000
     24      13.1774     -0.00000
     25      17.8589      0.00000
     26      18.0169      0.00000
     27      20.4167      0.00000
     28      20.4606      0.00000
     29      20.6090      0.00000
     30      20.9823      0.00000

 k-point     3 :       0.0000    0.2000    0.0000
  band No.  band energies     occupation 
      1       0.6284      2.00000
      2       2.8728      2.00000
      3       3.6262      2.00000
      4       3.7739      2.00000
      5       3.8176      2.00000
      6       3.9566      2.00000
      7       4.0491      2.00000
      8       6.0865      2.00000
      9       6.3184      2.00000
     10       6.3205      2.00000
     11       7.1953      2.00000
     12       7.4899      2.00000
     13       7.5186      2.00000
     14       7.6946      2.00000
     15       8.1853      2.00000
     16       8.6986      2.00582
     17       8.9668      2.03546
     18       9.1099      1.36975
     19       9.1844      0.75232
     20       9.2320      0.39761
     21       9.3864     -0.06941
     22       9.6953     -0.00089
     23      13.2864     -0.00000
     24      13.4072     -0.00000
     25      17.4205      0.00000
     26      18.6459      0.00000
     27      20.3511      0.00000
     28      20.4108      0.00000
     29      20.6139      0.00000
     30      21.2770      0.00000

 k-point     4 :       0.0000    0.0000    0.2000
  band No.  band energies     occupation 
      1       0.6302      2.00000
      2       2.8857      2.00000
      3       3.7785      2.00000
      4       3.8252      2.00000
      5       3.8648      2.00000
      6       3.8792      2.00000
      7       3.9001      2.00000
      8       5.9067      2.00000
      9       6.2922      2.00000
     10       6.4490      2.00000
     11       7.2031      2.00000
     12       7.4582      2.00000
     13       7.4847      2.00000
     14       7.8905      2.00000
     15       7.9887      2.00000
     16       8.3945      2.00000
     17       8.7811      2.02390
     18       9.0721      1.63787
     19       9.1203      1.28726
     20       9.2643      0.20964
     21       9.7217     -0.00046
     22      10.1661     -0.00000
     23      13.2552     -0.00000
     24      13.3727     -0.00000
     25      17.1099      0.00000
     26      18.8499      0.00000
     27      20.4435      0.00000
     28      20.4629      0.00000
     29      20.7277      0.00000
     30      21.2050      0.00000

 k-point     5 :       0.4000    0.0000    0.0000
  band No.  band energies     occupation 
      1       1.6742      2.00000
      2       3.4960      2.00000
      3       3.7991      2.00000
      4       4.0203      2.00000
      5       4.6697      2.00000
      6       4.7110      2.00000
      7       4.7770      2.00000
      8       5.4830      2.00000
      9       5.9844      2.00000
     10       6.0852      2.00000
     11       6.8345      2.00000
     12       6.9647      2.00000
     13       6.9956      2.00000
     14       7.1520      2.00000
     15       7.2535      2.00000
     16       7.4887      2.00000
     17       8.0352      2.00000
     18       8.1801      2.00000
     19       8.2073      2.00000
     20       8.5152      2.00006
     21       9.2988      0.06669
     22      10.7621     -0.00000
     23      15.7154      0.00000
     24      15.7888      0.00000
     25      17.0606      0.00000
     26      17.9966      0.00000
     27      18.6298      0.00000
     28      18.7519      0.00000
     29      19.1261      0.00000
     30      21.8307      0.00000

 k-point     6 :       0.0000    0.4000    0.0000
  band No.  band energies     occupation 
      1       2.0003      2.00000
      2       3.3000      2.00000
      3       3.7377      2.00000
      4       4.0639      2.00000
      5       4.6032      2.00000
      6       4.6504      2.00000
      7       4.9374      2.00000
      8       5.6993      2.00000
      9       6.3125      2.00000
     10       6.3507      2.00000
     11       6.7771      2.00000
     12       6.9049      2.00000
     13       6.9221      2.00000
     14       7.0882      2.00000
     15       7.4774      2.00000
     16       7.8298      2.00000
     17       7.8390      2.00000
     18       8.0254      2.00000
     19       8.1384      2.00000
     20       8.3691      2.00000
     21       9.0271      1.87304
     22       9.3631     -0.05780
     23      15.9238      0.00000
     24      15.9650      0.00000
     25      16.6919      0.00000
     26      18.4741      0.00000
     27      18.4802      0.00000
     28      18.6312      0.00000
     29      20.4535      0.00000
     30      20.7404      0.00000

 k-point     7 :       0.0000    0.0000    0.4000
  band No.  band energies     occupation 
      1       2.0174      2.00000
      2       3.2979      2.00000
      3       3.9513      2.00000
      4       4.3033      2.00000
      5       4.5990      2.00000
      6       4.6951      2.00000
      7       4.7036      2.00000
      8       5.3848      2.00000
      9       5.9847      2.00000
     10       6.1127      2.00000
     11       6.7972      2.00000
     12       7.0023      2.00000
     13       7.0035      2.00000
     14       7.1049      2.00000
     15       7.3156      2.00000
     16       7.6198      2.00000
     17       7.9780      2.00000
     18       8.0025      2.00000
     19       8.3476      2.00000
     20       8.3839      2.00000
     21       8.8753      2.06371
     22      10.1375     -0.00000
     23      15.8986      0.00000
     24      16.0172      0.00000
     25      16.2486      0.00000
     26      18.4534      0.00000
     27      18.7266      0.00000
     28      18.9658      0.00000
     29      20.0462      0.00000
     30      21.1015      0.00000

 k-point     8 :       0.2000    0.2000    0.0000
  band No.  band energies     occupation 
      1       1.0716      2.00000
      2       3.1659      2.00000
      3       3.9013      2.00000
      4       3.9035      2.00000
      5       4.0843      2.00000
      6       4.0926      2.00000
      7       4.3602      2.00000
      8       5.9192      2.00000
      9       6.3775      2.00000
     10       6.5113      2.00000
     11       7.0209      2.00000
     12       7.1715      2.00000
     13       7.2330      2.00000
     14       7.3046      2.00000
     15       7.7316      2.00000
     16       7.9297      2.00000
     17       8.2678      2.00000
     18       8.8520      2.05407
     19       8.9038      2.07064
     20       9.0084      1.94121
     21       9.6808     -0.00127
     22      10.8660     -0.00000
     23      11.8629     -0.00000
     24      14.5458     -0.00000
     25      16.9727      0.00000
     26      18.9971      0.00000
     27      20.0467      0.00000
     28      20.4088      0.00000
     29      21.0788      0.00000
     30      21.7004      0.00000

 k-point     9 :       0.0000    0.2000    0.2000
  band No.  band energies     occupation 
      1       1.0993      2.00000
      2       3.1989      2.00000
      3       3.8839      2.00000
      4       3.9471      2.00000
      5       4.0197      2.00000
      6       4.2082      2.00000
      7       4.3098      2.00000
      8       5.9009      2.00000
      9       6.3825      2.00000
     10       6.5113      2.00000
     11       7.0280      2.00000
     12       7.1866      2.00000
     13       7.2339      2.00000
     14       7.2915      2.00000
     15       7.7055      2.00000
     16       8.0163      2.00000
     17       8.3582      2.00000
     18       8.6542      2.00228
     19       8.8613      2.05813
     20       8.8683      2.06104
     21       9.5062     -0.03226
     22      10.9096     -0.00000
     23      12.2252     -0.00000
     24      14.4467     -0.00000
     25      16.8312      0.00000
     26      19.0547      0.00000
     27      19.5335      0.00000
     28      20.9426      0.00000
     29      21.2306      0.00000
     30      21.8901      0.00000

 k-point    10 :       0.2000    0.0000    0.2000
  band No.  band energies     occupation 
      1       1.0715      2.00000
      2       3.1818      2.00000
      3       3.9097      2.00000
      4       3.9285      2.00000
      5       4.0483      2.00000
      6       4.2082      2.00000
      7       4.2881      2.00000
      8       5.7769      2.00000
      9       6.4338      2.00000
     10       6.5507      2.00000
     11       6.9782      2.00000
     12       7.1523      2.00000
     13       7.2013      2.00000
     14       7.2591      2.00000
     15       7.7305      2.00000
     16       7.7896      2.00000
     17       8.1349      2.00000
     18       8.9498      2.05503
     19       9.0061      1.94814
     20       9.2103      0.54970
     21       9.8003     -0.00005
     22      11.1095     -0.00000
     23      11.5244     -0.00000
     24      14.5417     -0.00000
     25      16.9391      0.00000
     26      18.9293      0.00000
     27      19.9934      0.00000
     28      20.5303      0.00000
     29      21.1606      0.00000
     30      21.8381      0.00000

 k-point    11 :       0.4000    0.2000    0.0000
  band No.  band energies     occupation 
      1       2.1394      2.00000
      2       3.7780      2.00000
      3       4.1172      2.00000
      4       4.2699      2.00000
      5       4.6641      2.00000
      6       4.8013      2.00000
      7       4.9857      2.00000
      8       5.5062      2.00000
      9       5.6270      2.00000
     10       6.0530      2.00000
     11       6.3768      2.00000
     12       6.4807      2.00000
     13       6.9577      2.00000
     14       7.1635      2.00000
     15       7.2592      2.00000
     16       7.6415      2.00000
     17       7.7659      2.00000
     18       8.3505      2.00000
     19       8.4141      2.00000
     20       8.9139      2.07078
     21       9.5178     -0.02772
     22       9.7758     -0.00010
     23      13.0974     -0.00000
     24      15.1986      0.00000
     25      16.9136      0.00000
     26      18.0821      0.00000
     27      19.5705      0.00000
     28      19.8139      0.00000
     29      21.8548      0.00000
     30      23.0923      0.00000

 k-point    12 :       0.0000    0.4000    0.2000
  band No.  band energies     occupation 
      1       2.3513      2.00000
      2       3.6409      2.00000
      3       4.0003      2.00000
      4       4.2764      2.00000
      5       4.5723      2.00000
      6       4.7778      2.00000
      7       5.1394      2.00000
      8       5.6659      2.00000
      9       5.7612      2.00000
     10       6.2581      2.00000
     11       6.3454      2.00000
     12       6.5006      2.00000
     13       6.9131      2.00000
     14       7.1285      2.00000
     15       7.5550      2.00000
     16       7.6615      2.00000
     17       7.7168      2.00000
     18       8.1339      2.00000
     19       8.3424      2.00000
     20       8.8958      2.06954
     21       9.0160      1.91534
     22       9.3361     -0.02501
     23      13.5850     -0.00000
     24      15.1514      0.00000
     25      16.7870      0.00000
     26      18.3659      0.00000
     27      19.3862      0.00000
     28      19.5730      0.00000
     29      21.6924      0.00000
     30      23.3241      0.00000

 k-point    13 :       0.2000    0.0000    0.4000
  band No.  band energies     occupation 
      1       2.3899      2.00000
      2       3.6483      2.00000
      3       4.2235      2.00000
      4       4.4111      2.00000
      5       4.6128      2.00000
      6       4.9285      2.00000
      7       4.9324      2.00000
      8       5.3129      2.00000
      9       5.5313      2.00000
     10       6.1212      2.00000
     11       6.4447      2.00000
     12       6.5121      2.00000
     13       6.9587      2.00000
     14       7.1403      2.00000
     15       7.3211      2.00000
     16       7.6342      2.00000
     17       7.9438      2.00000
     18       8.2064      2.00000
     19       8.4271      2.00000
     20       8.6604      2.00262
     21       9.2417      0.33609
     22       9.4053     -0.07068
     23      13.4418     -0.00000
     24      15.1954      0.00000
     25      16.8480      0.00000
     26      17.9527      0.00000
     27      19.3766      0.00000
     28      20.1291      0.00000
     29      21.9612      0.00000
     30      22.9762      0.00000

 k-point    14 :      -0.2000    0.4000    0.0000
  band No.  band energies     occupation 
      1       2.3862      2.00000
      2       3.6265      2.00000
      3       4.0511      2.00000
      4       4.2921      2.00000
      5       4.5935      2.00000
      6       4.7392      2.00000
      7       5.1265      2.00000
      8       5.6719      2.00000
      9       5.9359      2.00000
     10       6.2321      2.00000
     11       6.2723      2.00000
     12       6.4719      2.00000
     13       6.9065      2.00000
     14       7.1541      2.00000
     15       7.4754      2.00000
     16       7.6758      2.00000
     17       7.7579      2.00000
     18       8.1585      2.00000
     19       8.4189      2.00000
     20       8.8119      2.03584
     21       8.9059      2.07080
     22       9.1955      0.66360
     23      13.4974     -0.00000
     24      15.1872      0.00000
     25      16.8412      0.00000
     26      18.3299      0.00000
     27      19.3595      0.00000
     28      19.7456      0.00000
     29      22.0017      0.00000
     30      23.0060      0.00000

 k-point    15 :      -0.4000    0.0000    0.2000
  band No.  band energies     occupation 
      1       2.1354      2.00000
      2       3.8138      2.00000
      3       4.0801      2.00000
      4       4.2378      2.00000
      5       4.6080      2.00000
      6       4.8546      2.00000
      7       5.0358      2.00000
      8       5.4367      2.00000
      9       5.5419      2.00000
     10       6.1288      2.00000
     11       6.4539      2.00000
     12       6.5292      2.00000
     13       6.9592      2.00000
     14       7.1427      2.00000
     15       7.2470      2.00000
     16       7.6220      2.00000
     17       7.9636      2.00000
     18       8.1206      2.00000
     19       8.5116      2.00005
     20       8.9434      2.06015
     21       9.4853     -0.04130
     22       9.7279     -0.00039
     23      13.0740     -0.00000
     24      15.2615      0.00000
     25      16.8705      0.00000
     26      18.0472      0.00000
     27      19.4766      0.00000
     28      19.7506      0.00000
     29      21.9598      0.00000
     30      22.9769      0.00000

 k-point    16 :       0.0000    0.2000    0.4000
  band No.  band energies     occupation 
      1       2.3608      2.00000
      2       3.6233      2.00000
      3       4.2245      2.00000
      4       4.4434      2.00000
      5       4.6305      2.00000
      6       4.8837      2.00000
      7       4.8977      2.00000
      8       5.3844      2.00000
      9       5.5198      2.00000
     10       6.0724      2.00000
     11       6.3421      2.00000
     12       6.5117      2.00000
     13       6.9755      2.00000
     14       7.1297      2.00000
     15       7.3903      2.00000
     16       7.6637      2.00000
     17       7.7021      2.00000
     18       8.2679      2.00000
     19       8.5514      2.00017
     20       8.5937      2.00053
     21       9.4289     -0.06558
     22       9.5265     -0.02457
     23      13.5422     -0.00000
     24      15.0948      0.00000
     25      16.8436      0.00000
     26      18.0097      0.00000
     27      19.4911      0.00000
     28      20.0177      0.00000
     29      21.5770      0.00000
     30      23.4258      0.00000

 k-point    17 :       0.4000    0.4000    0.0000
  band No.  band energies     occupation 
      1       3.2820      2.00000
      2       4.1959      2.00000
      3       4.4525      2.00000
      4       4.7719      2.00000
      5       4.8584      2.00000
      6       5.0585      2.00000
      7       5.1856      2.00000
      8       5.3197      2.00000
      9       5.3456      2.00000
     10       5.8521      2.00000
     11       5.9909      2.00000
     12       6.2532      2.00000
     13       6.8826      2.00000
     14       7.0804      2.00000
     15       7.1150      2.00000
     16       7.3030      2.00000
     17       7.4872      2.00000
     18       8.0668      2.00000
     19       8.3714      2.00000
     20       8.4052      2.00000
     21       9.0888      1.52613
     22      10.0911     -0.00000
     23      11.5932     -0.00000
     24      12.9482     -0.00000
     25      18.8260      0.00000
     26      18.9581      0.00000
     27      20.4979      0.00000
     28      21.2072      0.00000
     29      21.2338      0.00000
     30      21.6959      0.00000

 k-point    18 :       0.0000    0.4000    0.4000
  band No.  band energies     occupation 
      1       3.1780      2.00000
      2       3.9742      2.00000
      3       4.3579      2.00000
      4       4.7370      2.00000
      5       4.9441      2.00000
      6       5.1020      2.00000
      7       5.1047      2.00000
      8       5.3855      2.00000
      9       5.4055      2.00000
     10       5.8741      2.00000
     11       6.0851      2.00000
     12       6.2569      2.00000
     13       6.8978      2.00000
     14       7.0833      2.00000
     15       7.1176      2.00000
     16       7.2127      2.00000
     17       7.3811      2.00000
     18       8.0092      2.00000
     19       8.6006      2.00063
     20       8.6549      2.00232
     21       9.1576      0.97589
     22       9.9165     -0.00000
     23      12.1617     -0.00000
     24      13.0057     -0.00000
     25      18.5668      0.00000
     26      18.6882      0.00000
     27      20.3904      0.00000
     28      20.5158      0.00000
     29      21.0849      0.00000
     30      22.1600      0.00000

 k-point    19 :       0.4000    0.0000    0.4000
  band No.  band energies     occupation 
      1       3.2496      2.00000
      2       4.3397      2.00000
      3       4.4252      2.00000
      4       4.6386      2.00000
      5       4.7327      2.00000
      6       4.9840      2.00000
      7       5.0290      2.00000
      8       5.2300      2.00000
      9       5.5713      2.00000
     10       6.0097      2.00000
     11       6.1520      2.00000
     12       6.3573      2.00000
     13       6.8298      2.00000
     14       7.0946      2.00000
     15       7.1047      2.00000
     16       7.2935      2.00000
     17       7.7699      2.00000
     18       7.9316      2.00000
     19       8.1783      2.00000
     20       8.2661      2.00000
     21       9.2935      0.08463
     22      10.4859     -0.00000
     23      11.1343     -0.00000
     24      12.8312     -0.00000
     25      18.7376      0.00000
     26      18.9257      0.00000
     27      20.7128      0.00000
     28      21.0303      0.00000
     29      21.4260      0.00000
     30      21.5126      0.00000

 k-point    20 :       0.2000    0.2000    0.2000
  band No.  band energies     occupation 
      1       1.4849      2.00000
      2       3.4072      2.00000
      3       3.9753      2.00000
      4       4.1020      2.00000
      5       4.1722      2.00000
      6       4.5283      2.00000
      7       4.6588      2.00000
      8       5.7345      2.00000
      9       6.4417      2.00000
     10       6.5377      2.00000
     11       6.6191      2.00000
     12       6.8169      2.00000
     13       7.0150      2.00000
     14       7.2790      2.00000
     15       7.3620      2.00000
     16       7.5828      2.00000
     17       8.2557      2.00000
     18       8.3254      2.00000
     19       8.5062      2.00005
     20       9.0313      1.85541
     21       9.7777     -0.00010
     22      11.8040     -0.00000
     23      12.4828     -0.00000
     24      12.6986     -0.00000
     25      17.6797      0.00000
     26      17.9079      0.00000
     27      18.6156      0.00000
     28      21.1134      0.00000
     29      21.5300      0.00000
     30      21.7117      0.00000

 k-point    21 :       0.4000    0.2000    0.2000
  band No.  band energies     occupation 
      1       2.3884      2.00000
      2       3.7347      2.00000
      3       4.2011      2.00000
      4       4.5227      2.00000
      5       4.5358      2.00000
      6       4.8215      2.00000
      7       5.3160      2.00000
      8       5.5318      2.00000
      9       5.7828      2.00000
     10       5.9913      2.00000
     11       6.3828      2.00000
     12       6.4873      2.00000
     13       6.6472      2.00000
     14       7.0198      2.00000
     15       7.0859      2.00000
     16       7.5220      2.00000
     17       8.0243      2.00000
     18       8.1647      2.00000
     19       8.6036      2.00068
     20       8.9720      2.02756
     21       9.4824     -0.04263
     22       9.7561     -0.00018
     23      13.7900     -0.00000
     24      13.8077     -0.00000
     25      15.5200      0.00000
     26      16.2959      0.00000
     27      20.1235      0.00000
     28      21.5342      0.00000
     29      22.1140      0.00000
     30      22.3717      0.00000

 k-point    22 :       0.2000    0.4000    0.2000
  band No.  band energies     occupation 
      1       2.5635      2.00000
      2       3.6266      2.00000
      3       4.0010      2.00000
      4       4.4804      2.00000
      5       4.6625      2.00000
      6       4.8554      2.00000
      7       5.5257      2.00000
      8       5.6074      2.00000
      9       5.7699      2.00000
     10       6.0908      2.00000
     11       6.4649      2.00000
     12       6.5088      2.00000
     13       6.5572      2.00000
     14       7.0037      2.00000
     15       7.1377      2.00000
     16       7.2610      2.00000
     17       8.1380      2.00000
     18       8.2094      2.00000
     19       8.3697      2.00000
     20       8.8827      2.06623
     21       9.3160      0.01696
     22       9.6306     -0.00391
     23      13.7982     -0.00000
     24      14.0394     -0.00000
     25      15.5964      0.00000
     26      16.1333      0.00000
     27      20.2083      0.00000
     28      21.5987      0.00000
     29      22.2458      0.00000
     30      22.4104      0.00000

 k-point    23 :       0.2000    0.2000    0.4000
  band No.  band energies     occupation 
      1       2.5688      2.00000
      2       3.6263      2.00000
      3       4.1511      2.00000
      4       4.4819      2.00000
      5       4.6638      2.00000
      6       5.0343      2.00000
      7       5.1766      2.00000
      8       5.5154      2.00000
      9       5.7328      2.00000
     10       5.9617      2.00000
     11       6.3679      2.00000
     12       6.4933      2.00000
     13       6.6499      2.00000
     14       7.0402      2.00000
     15       7.1314      2.00000
     16       7.3838      2.00000
     17       8.1416      2.00000
     18       8.1598      2.00000
     19       8.5181      2.00006
     20       8.8196      2.03923
     21       9.4134     -0.06960
     22       9.7045     -0.00071
     23      13.8024     -0.00000
     24      13.9794     -0.00000
     25      15.5794      0.00000
     26      16.2222      0.00000
     27      20.1188      0.00000
     28      21.3779      0.00000
     29      22.2055      0.00000
     30      22.4753      0.00000

 k-point    24 :       0.4000    0.4000    0.2000
  band No.  band energies     occupation 
      1       3.0334      2.00000
      2       3.5466      2.00000
      3       3.8544      2.00000
      4       4.2503      2.00000
      5       5.1718      2.00000
      6       5.4640      2.00000
      7       5.7138      2.00000
      8       5.8912      2.00000
      9       6.0605      2.00000
     10       6.1123      2.00000
     11       6.3222      2.00000
     12       6.4859      2.00000
     13       6.5860      2.00000
     14       6.7258      2.00000
     15       6.8729      2.00000
     16       7.0406      2.00000
     17       7.8767      2.00000
     18       8.3201      2.00000
     19       8.7145      2.00792
     20       9.0292      1.86452
     21       9.1833      0.76159
     22      10.2290     -0.00000
     23      11.4842     -0.00000
     24      12.7077     -0.00000
     25      15.8018      0.00000
     26      17.4865      0.00000
     27      17.9003      0.00000
     28      19.8923      0.00000
     29      22.8129      0.00000
     30      24.5940      0.00000

 k-point    25 :       0.2000    0.4000    0.4000
  band No.  band energies     occupation 
      1       3.0217      2.00000
      2       3.5755      2.00000
      3       3.6357      2.00000
      4       4.2544      2.00000
      5       5.1752      2.00000
      6       5.4715      2.00000
      7       5.7005      2.00000
      8       5.9461      2.00000
      9       6.0632      2.00000
     10       6.1104      2.00000
     11       6.3084      2.00000
     12       6.4936      2.00000
     13       6.5991      2.00000
     14       6.7313      2.00000
     15       6.8630      2.00000
     16       7.0307      2.00000
     17       7.9169      2.00000
     18       8.3414      2.00000
     19       8.8461      2.05136
     20       9.0140      1.92243
     21       9.1652      0.91206
     22      10.1095     -0.00000
     23      11.9706     -0.00000
     24      12.8927     -0.00000
     25      15.5419      0.00000
     26      17.0509      0.00000
     27      17.9478      0.00000
     28      19.8614      0.00000
     29      22.8989      0.00000
     30      24.4407      0.00000

 k-point    26 :       0.4000    0.2000    0.4000
  band No.  band energies     occupation 
      1       3.0275      2.00000
      2       3.5786      2.00000
      3       3.8920      2.00000
      4       4.0821      2.00000
      5       5.1427      2.00000
      6       5.3636      2.00000
      7       5.6849      2.00000
      8       6.0618      2.00000
      9       6.1675      2.00000
     10       6.2128      2.00000
     11       6.4072      2.00000
     12       6.4298      2.00000
     13       6.6024      2.00000
     14       6.7960      2.00000
     15       6.8816      2.00000
     16       6.8845      2.00000
     17       8.0437      2.00000
     18       8.0824      2.00000
     19       8.5356      2.00011
     20       9.1652      0.91238
     21       9.3118      0.02770
     22      10.5926     -0.00000
     23      11.0318     -0.00000
     24      12.6413     -0.00000
     25      15.7793      0.00000
     26      17.5299      0.00000
     27      17.8873      0.00000
     28      19.9538      0.00000
     29      22.6797      0.00000
     30      24.6648      0.00000

 k-point    27 :       0.4000    0.4000    0.4000
  band No.  band energies     occupation 
      1       2.8983      2.00000
      2       3.0287      2.00000
      3       3.2557      2.00000
      4       3.6397      2.00000
      5       5.5908      2.00000
      6       5.7066      2.00000
      7       5.8123      2.00000
      8       6.0687      2.00000
      9       6.1683      2.00000
     10       6.4203      2.00000
     11       6.4608      2.00000
     12       6.6648      2.00000
     13       7.2552      2.00000
     14       7.3283      2.00000
     15       7.5009      2.00000
     16       7.8374      2.00000
     17       8.2110      2.00000
     18       8.6438      2.00181
     19       8.7219      2.00906
     20       9.1312      1.19769
     21       9.6699     -0.00164
     22      10.4638     -0.00000
     23      10.8726     -0.00000
     24      11.1049     -0.00000
     25      14.9468      0.00000
     26      15.3756      0.00000
     27      16.1844      0.00000
     28      17.6903      0.00000
     29      25.3151      0.00000
     30      25.4139      0.00000


--------------------------------------------------------------------------------------------------------


 soft charge-density along one line, spin component           1
         0         1         2         3         4         5         6         7         8         9
x    23.1549    0.0000   -1.3938    0.0000    0.8102    0.0000    0.2536    0.0000   -0.4978    0.0000
x    -0.0388    0.0000    0.1074    0.0000    0.0000    0.0000
y    23.1549    0.0000    1.4405    0.0000    0.8574    0.0000   -0.2847   -0.0000   -0.4708    0.0000
y     0.0146   -0.0000    0.1049    0.0000    0.0000    0.0000
z    23.1549    0.0000    0.4062    0.0000    0.8561    0.0000   -0.1654   -0.0000   -0.4826    0.0000
z     0.0113   -0.0000    0.1059    0.0000    0.0000    0.0000
 total charge-density along one line
x    39.9999    0.0000    3.7528    0.0000   10.8432    0.0000    3.1749    0.0000    1.3441    0.0000
x     0.4264    0.0000    0.1438    0.0000   -0.0176    0.0000    0.0021    0.0000    0.0068   -0.0000
x     0.0017    0.0000   -0.0014    0.0000   -0.0011    0.0000    0.0002    0.0000    0.0009    0.0000
y    39.9999    0.0000   -0.9316   -0.0000   10.9309   -0.0000   -1.8271    0.0000    1.4011    0.0000
y    -0.3409    0.0000    0.1249   -0.0000    0.0351    0.0000   -0.0019   -0.0000   -0.0093   -0.0000
y     0.0018   -0.0000    0.0030    0.0000   -0.0011   -0.0000   -0.0007    0.0000    0.0008    0.0000
z    39.9999    0.0000   -2.7295    0.0000   10.8987    0.0000   -2.1358    0.0000    1.3612   -0.0000
z    -0.3850    0.0000    0.1308   -0.0000    0.0230    0.0000    0.0000   -0.0000   -0.0077    0.0000
z     0.0018   -0.0000    0.0023   -0.0000   -0.0011    0.0000   -0.0005    0.0000    0.0008    0.0000
 
 pseudopotential strength for first ion, spin component:           1
 -2.830   0.000  -0.000  -0.000   0.000  -3.048   0.000  -0.000
  0.000  -2.744  -0.000   0.000   0.000   0.000  -2.966  -0.000
 -0.000  -0.000  -2.756   0.000  -0.008  -0.000  -0.000  -2.977
 -0.000   0.000   0.000  -2.802   0.000  -0.000   0.000   0.000
  0.000   0.000  -0.008   0.000  -2.765   0.000   0.000  -0.008
 -3.048   0.000  -0.000  -0.000   0.000  -3.234   0.000  -0.000
  0.000  -2.966  -0.000   0.000   0.000   0.000  -3.155  -0.000
 -0.000  -0.000  -2.977   0.000  -0.008  -0.000  -0.000  -3.165
 -0.000   0.000   0.000  -3.021   0.000  -0.000   0.000   0.000
  0.000   0.000  -0.008   0.000  -2.986   0.000   0.000  -0.008
 -0.000   0.000  -0.009  -0.000   0.006  -0.000   0.000  -0.008
 -0.000   0.000  -0.015  -0.000   0.011  -0.000   0.000  -0.014
  0.000   0.000   0.000  -0.000   0.000   0.000   0.000   0.000
 -0.000  -0.000   0.000   0.000   0.000  -0.000  -0.000   0.000
 -0.000  -0.000  -0.000   0.000   0.000  -0.000  -0.000  -0.000
  0.000   0.000   0.000  -0.000   0.000   0.000   0.000   0.000
 -0.000  -0.000   0.000   0.000   0.000  -0.000  -0.000   0.000
 -0.000  -0.000  -0.000   0.000   0.000  -0.000  -0.000  -0.000
 total augmentation occupancy for first ion, spin component:           1
  1.767   0.000   0.000   0.000   0.000  -1.399   0.000   0.000   0.000   0.000   0.000  -0.000   0.000   0.000   0.000   0.000
  0.000   3.269   0.000   0.000   0.000   0.000  -2.042   0.000  -0.000   0.000   0.000   0.000   0.000   0.000   0.000   0.000
 -0.000   0.000   2.609   0.000  -0.536   0.000   0.000  -1.520   0.000   0.346   0.242  -0.052   0.000   0.000   0.000   0.000
  0.000  -0.000   0.000   2.796   0.000   0.000   0.000   0.000  -2.185   0.000   0.000   0.000   0.000   0.000   0.000   0.000
 -0.000   0.000  -0.536   0.000   3.646   0.000   0.000   0.344   0.000  -2.282  -0.388   0.078   0.000   0.000   0.000   0.000
 -1.399   0.000   0.000   0.000  -0.000   2.701   0.000  -0.000   0.000   0.000   0.000  -0.000   0.000   0.000   0.000   0.000
  0.000  -2.042   0.000  -0.000   0.000   0.000   2.710   0.000  -0.000   0.000   0.000   0.000   0.000   0.000   0.000   0.000
  0.000   0.000  -1.520   0.000   0.344  -0.000   0.000   2.277   0.000  -0.213  -0.182   0.017   0.000   0.000   0.000   0.000
  0.000  -0.000   0.000  -2.185   0.000   0.000  -0.000   0.000   3.289   0.000   0.000   0.000   0.000   0.000   0.000   0.000
  0.000   0.000   0.346   0.000  -2.282  -0.000   0.000  -0.213   0.000   2.830   0.312  -0.055   0.000   0.000   0.000   0.000
  0.000   0.000   0.242   0.000  -0.388   0.000   0.000  -0.182   0.000   0.312   2.019  -0.304   0.000   0.000   0.000   0.000
  0.000   0.000  -0.052   0.000   0.078   0.000   0.000   0.017   0.000  -0.055  -0.304   0.058   0.000   0.000   0.000   0.000
  0.000   0.000   0.000   0.000   0.000   0.000   0.000   0.000   0.000   0.000   0.000   0.000   0.274   0.000   0.000  -0.013
  0.000   0.000   0.000   0.000   0.000   0.000   0.000   0.000   0.000   0.000   0.000   0.000   0.000   0.263   0.000   0.000
  0.000   0.000   0.000   0.000   0.000   0.000   0.000   0.000   0.000   0.000   0.000   0.000  -0.000   0.000   0.334   0.000
  0.000   0.000   0.000   0.000   0.000   0.000   0.000   0.000   0.000   0.000   0.000   0.000  -0.013   0.000   0.000   0.002
  0.000   0.000   0.000   0.000   0.000   0.000   0.000   0.000   0.000   0.000   0.000   0.000   0.000  -0.013   0.000   0.000
  0.000   0.000   0.000   0.000   0.000   0.000   0.000   0.000   0.000   0.000   0.000   0.000   0.000   0.000  -0.019   0.000


------------------------ aborting loop because EDIFF is reached ----------------------------------------


    CHARGE:  cpu time    0.0154: real time    0.0154
    FORLOC:  cpu time    0.0009: real time    0.0009
    FORNL :  cpu time    0.0770: real time    0.0770
    STRESS:  cpu time    0.1245: real time    0.1245
    FORCOR:  cpu time    0.0062: real time    0.0062
    FORHAR:  cpu time    0.0018: real time    0.0018
    MIXING:  cpu time    0.0003: real time    0.0003

  FORCE on cell =-STRESS in cart. coord.  units (eV):
  Direction    XX          YY          ZZ          XY          YZ          ZX
  --------------------------------------------------------------------------------------
  Alpha Z   244.65455   244.65455   244.65455
  Ewald   -1143.04101 -1137.78808 -1143.04101     0.00000     0.00000     0.00000
  Hartree   193.67993   204.94727   197.18150    -0.00000    -0.00000    -0.00000
  E(xc)    -202.72959  -202.59282  -202.69376     0.00000    -0.00000    -0.00000
  Local     178.14084   164.84838   177.33232    -0.00000     0.00000     0.00000
  n-local   -52.18700   -50.53082   -53.19925     5.72904     7.42089     6.14148
  augment   261.11671   259.54248   260.70697    -0.00000     0.00000     0.00000
  Kinetic   500.31903   496.49210   498.10217     1.99645     2.88638     1.50258
  Fock        0.00000     0.00000     0.00000     0.00000     0.00000     0.00000
  -------------------------------------------------------------------------------------
  Total     -20.04655   -20.42695   -20.95652    -0.00000     0.00000     0.00000
  in kB    -555.85892  -566.40683  -581.09108    -0.00000     0.00000     0.00000
  external pressure =     -567.79 kB  Pullay stress =        0.00 kB


 VOLUME and BASIS-vectors are now :
 -----------------------------------------------------------------------------
  energy-cutoff  :      210.00
  volume of cell :       57.78
      direct lattice vectors                 reciprocal lattice vectors
     3.866000000  0.000000000  0.000000000     0.258665287  0.000000000  0.000000000
     0.000000000  3.866000000  0.000000000     0.000000000  0.258665287  0.000000000
     0.000000000  0.000000000  3.866000000     0.000000000  0.000000000  0.258665287

  length of vectors
     3.866000000  3.866000000  3.866000000     0.258665287  0.258665287  0.258665287


 FORCES acting on ions
    electron-ion (+dipol)            ewald-force                    non-local-force                 convergence-correction
 -----------------------------------------------------------------------------------------------
   -.610E-13 -.123E-13 -.242E-13   0.892E-14 -.838E-14 -.466E-14   0.256E-25 0.545E-25 -.469E-24   -.200E-13 0.969E-12 0.397E-14
   0.579E-13 0.957E-13 -.204E-13   0.112E-14 0.145E-13 -.285E-14   0.268E-24 -.145E-25 0.221E-24   -.198E-13 -.844E-12 0.922E-14
   0.107E-12 -.836E-14 0.154E-12   -.749E-14 -.139E-13 0.598E-14   -.360E-23 0.493E-25 0.426E-24   -.367E-13 0.489E-12 -.783E-14
   -.122E-12 0.766E-12 0.775E-12   -.120E-14 0.656E-14 0.190E-14   -.830E-24 0.172E-24 0.715E-25   -.702E-13 -.551E-12 -.106E-12
 -----------------------------------------------------------------------------------------------
   -.179E-13 0.841E-12 0.885E-12   0.135E-14 -.120E-14 0.371E-15   -.413E-23 0.261E-24 0.250E-24   -.147E-12 0.631E-13 -.100E-12
 
 
 POSITION                                       TOTAL-FORCE (eV/Angst)
 -----------------------------------------------------------------------------------
      0.00000      0.00000      0.00000         0.000000     -0.000000     -0.000000
      1.93300      1.93300      0.00000        -0.000000      0.000000     -0.000000
      1.93300      0.00000      1.93300        -0.000000      0.000000      0.000000
      0.00000      1.93300      1.93300         0.000000     -0.000000     -0.000000
 -----------------------------------------------------------------------------------
    total drift:                               -0.000000      0.000000      0.000000


--------------------------------------------------------------------------------------------------------



  FREE ENERGIE OF THE ION-ELECTRON SYSTEM (eV)
  ---------------------------------------------------
  free  energy   TOTEN  =       -22.43850252 eV

  energy  without entropy=      -22.43433450  energy(sigma->0) =      -22.43711318
 


--------------------------------------------------------------------------------------------------------


    POTLOK:  cpu time    0.0090: real time    0.0090


--------------------------------------------------------------------------------------------------------


 writing wavefunctions
     LOOP+:  cpu time    1.8778: real time    1.9028
    4ORBIT:  cpu time    0.0000: real time    0.0000

 total amount of memory used by VASP MPI-rank0    44691. kBytes
=======================================================================

   base      :      30000. kBytes
   nonl-proj :       6511. kBytes
   grid      :       1781. kBytes
   one-center:         62. kBytes
   wavefun   :       6337. kBytes
 
  
  
 General timing and accounting informations for this job:
 ========================================================
  
                  Total CPU time used (sec):        2.060
                            User time (sec):        2.024
                          System time (sec):        0.036
                         Elapsed time (sec):        2.079
  
                   Maximum memory used (kb):       52544.
                   Average memory used (kb):          N/A
  
                          Minor page faults:         6555
                          Major page faults:            0
                 Voluntary context switches:           27
