<?xml version="1.0" encoding="ISO-8859-1"?>
<modeling>
 <generator>
  <i name="program" type="string">vasp </i>
  <i name="version" type="string">6.2.0  </i>
  <i name="subversion" type="string">18Jan21 (build Mar 17 2021 09:06:54) complex                          serial </i>
  <i name="platform" type="string">LinuxIFC </i>
  <i name="date" type="string">2021 06 11 </i>
  <i name="time" type="string">11:56:34 </i>
 </generator>
 <incar>
  <i type="string" name="PREC">normal</i>
  <i type="int" name="ICHARG">     1</i>
  <i type="int" name="IBRION">    -1</i>
  <i name="EDIFF">      0.00000100</i>
  <i type="int" name="NSW">     0</i>
  <i name="ENCUT">    210.00000000</i>
  <i type="int" name="NBANDS">    30</i>
  <i type="int" name="ISMEAR">     1</i>
  <i name="SIGMA">      0.20000000</i>
  <i type="logical" name="LCHARG"> T  </i>
  <i type="int" name="KPAR">     1</i>
  <i type="int" name="NCORE">     1</i>
  <i type="string" name="GGA">PE</i>
 </incar>
 <primitive_cell>
  <structure name="primitive_cell" >
   <crystal>
    <varray name="basis" >
     <v>       3.86600000       0.00000000       0.00000000 </v>
     <v>       0.00000000       3.86600000       0.00000000 </v>
     <v>       0.00000000       0.00000000       3.86600000 </v>
    </varray>
    <i name="volume">     57.78106590 </i>
    <varray name="rec_basis" >
     <v>       0.25866529       0.00000000       0.00000000 </v>
     <v>       0.00000000       0.25866529       0.00000000 </v>
     <v>       0.00000000       0.00000000       0.25866529 </v>
    </varray>
   </crystal>
   <varray name="positions" >
    <v>       0.00000000       0.00000000       0.00000000 </v>
    <v>       0.50000000       0.50000000       0.00000000 </v>
    <v>       0.50000000       0.00000000       0.50000000 </v>
    <v>       0.00000000       0.50000000       0.50000000 </v>
   </varray>
  </structure>
  <varray name="primitive_index" >
   <v type="int" >        1 </v>
   <v type="int" >        2 </v>
   <v type="int" >        3 </v>
   <v type="int" >        4 </v>
  </varray>
 </primitive_cell>
 <kpoints>
  <generation param="Monkhorst-Pack">
   <v type="int" name="divisions">       5        5        5 </v>
   <v name="usershift">      0.00000000       0.00000000       0.00000000 </v>
   <v name="genvec1">      0.20000000       0.00000000       0.00000000 </v>
   <v name="genvec2">      0.00000000       0.20000000       0.00000000 </v>
   <v name="genvec3">      0.00000000       0.00000000       0.20000000 </v>
   <v name="shift">      0.00000000       0.00000000       0.00000000 </v>
  </generation>
  <varray name="kpointlist" >
   <v>       0.00000000       0.00000000       0.00000000 </v>
   <v>       0.20000000       0.00000000       0.00000000 </v>
   <v>       0.00000000       0.20000000       0.00000000 </v>
   <v>       0.00000000       0.00000000       0.20000000 </v>
   <v>       0.40000000       0.00000000       0.00000000 </v>
   <v>       0.00000000       0.40000000       0.00000000 </v>
   <v>       0.00000000       0.00000000       0.40000000 </v>
   <v>       0.20000000       0.20000000       0.00000000 </v>
   <v>       0.00000000       0.20000000       0.20000000 </v>
   <v>       0.20000000       0.00000000       0.20000000 </v>
   <v>       0.40000000       0.20000000       0.00000000 </v>
   <v>       0.00000000       0.40000000       0.20000000 </v>
   <v>       0.20000000       0.00000000       0.40000000 </v>
   <v>      -0.20000000       0.40000000       0.00000000 </v>
   <v>      -0.40000000       0.00000000       0.20000000 </v>
   <v>       0.00000000       0.20000000       0.40000000 </v>
   <v>       0.40000000       0.40000000       0.00000000 </v>
   <v>       0.00000000       0.40000000       0.40000000 </v>
   <v>       0.40000000       0.00000000       0.40000000 </v>
   <v>       0.20000000       0.20000000       0.20000000 </v>
   <v>       0.40000000       0.20000000       0.20000000 </v>
   <v>       0.20000000       0.40000000       0.20000000 </v>
   <v>       0.20000000       0.20000000       0.40000000 </v>
   <v>       0.40000000       0.40000000       0.20000000 </v>
   <v>       0.20000000       0.40000000       0.40000000 </v>
   <v>       0.40000000       0.20000000       0.40000000 </v>
   <v>       0.40000000       0.40000000       0.40000000 </v>
  </varray>
  <varray name="weights" >
   <v>       0.00800000 </v>
   <v>       0.01600000 </v>
   <v>       0.01600000 </v>
   <v>       0.01600000 </v>
   <v>       0.01600000 </v>
   <v>       0.01600000 </v>
   <v>       0.01600000 </v>
   <v>       0.03200000 </v>
   <v>       0.03200000 </v>
   <v>       0.03200000 </v>
   <v>       0.03200000 </v>
   <v>       0.03200000 </v>
   <v>       0.03200000 </v>
   <v>       0.03200000 </v>
   <v>       0.03200000 </v>
   <v>       0.03200000 </v>
   <v>       0.03200000 </v>
   <v>       0.03200000 </v>
   <v>       0.03200000 </v>
   <v>       0.06400000 </v>
   <v>       0.06400000 </v>
   <v>       0.06400000 </v>
   <v>       0.06400000 </v>
   <v>       0.06400000 </v>
   <v>       0.06400000 </v>
   <v>       0.06400000 </v>
   <v>       0.06400000 </v>
  </varray>
 </kpoints>
 <parameters>
  <separator name="general" >
   <i type="string" name="SYSTEM">unknown system</i>
   <i type="logical" name="LCOMPAT"> F  </i>
  </separator>
  <separator name="electronic" >
   <i type="string" name="PREC">normal</i>
   <i name="ENMAX">    210.00000000</i>
   <i name="ENAUG">    586.98000000</i>
   <i name="EDIFF">      0.00000100</i>
   <i type="int" name="IALGO">    38</i>
   <i type="int" name="IWAVPR">     0</i>
   <i type="int" name="NBANDS">    30</i>
   <i type="int" name="NBANDSLOW">    -1</i>
   <i type="int" name="NBANDSHIGH">    -1</i>
   <i name="NELECT">     40.00000000</i>
   <i type="int" name="TURBO">     0</i>
   <i type="int" name="IRESTART">     0</i>
   <i type="int" name="NREBOOT">     0</i>
   <i type="int" name="NMIN">     0</i>
   <i name="EREF">      0.00000000</i>
   <separator name="electronic smearing" >
    <i type="int" name="ISMEAR">     1</i>
    <i name="SIGMA">      0.20000000</i>
    <i name="KSPACING">      0.50000000</i>
    <i type="logical" name="KGAMMA"> T  </i>
    <i type="logical" name="KBLOWUP"> T  </i>
   </separator>
   <separator name="electronic projectors" >
    <i type="logical" name="LREAL"> F  </i>
    <v name="ROPT">      0.00000000      0.00000000      0.00000000      0.00000000</v>
    <i type="int" name="LMAXPAW">  -100</i>
    <i type="int" name="LMAXMIX">     2</i>
    <i type="logical" name="NLSPLINE"> F  </i>
   </separator>
   <separator name="electronic startup" >
    <i type="int" name="ISTART">     1</i>
    <i type="int" name="ICHARG">     1</i>
    <i type="int" name="INIWAV">     1</i>
   </separator>
   <separator name="electronic spin" >
    <i type="int" name="ISPIN">     1</i>
    <i type="logical" name="LNONCOLLINEAR"> F  </i>
    <v name="MAGMOM">      1.00000000      1.00000000      1.00000000      1.00000000</v>
    <i name="NUPDOWN">     -1.00000000</i>
    <i type="logical" name="LSORBIT"> F  </i>
    <v name="SAXIS">      0.00000000      0.00000000      1.00000000</v>
    <i type="logical" name="LSPIRAL"> F  </i>
    <v name="QSPIRAL">      0.00000000      0.00000000      0.00000000</v>
    <i type="logical" name="LZEROZ"> F  </i>
   </separator>
   <separator name="electronic exchange-correlation" >
    <i type="logical" name="LASPH"> F  </i>
    <i type="logical" name="LMETAGGA"> F  </i>
   </separator>
   <separator name="electronic convergence" >
    <i type="int" name="NELM">    60</i>
    <i type="int" name="NELMDL">     0</i>
    <i type="int" name="NELMIN">     2</i>
    <i name="ENINI">    210.00000000</i>
    <separator name="electronic convergence detail" >
     <i type="logical" name="LDIAG"> T  </i>
     <i type="logical" name="LSUBROT"> F  </i>
     <i name="WEIMIN">      0.00000000</i>
     <i name="EBREAK">      0.00000001</i>
     <i name="DEPER">      0.30000000</i>
     <i type="int" name="NRMM">     4</i>
     <i name="TIME">      0.40000000</i>
    </separator>
   </separator>
   <separator name="electronic mixer" >
    <i name="AMIX">      0.40000000</i>
    <i name="BMIX">      1.00000000</i>
    <i name="AMIN">      0.10000000</i>
    <i name="AMIX_MAG">      1.60000000</i>
    <i name="BMIX_MAG">      1.00000000</i>
    <separator name="electronic mixer details" >
     <i type="int" name="IMIX">     4</i>
     <i type="logical" name="MIXFIRST"> F  </i>
     <i type="int" name="MAXMIX">   -45</i>
     <i name="WC">    100.00000000</i>
     <i type="int" name="INIMIX">     1</i>
     <i type="int" name="MIXPRE">     1</i>
     <i type="int" name="MREMOVE">     5</i>
    </separator>
   </separator>
   <separator name="electronic dipolcorrection" >
    <i type="logical" name="LDIPOL"> F  </i>
    <i type="logical" name="LMONO"> F  </i>
    <i type="int" name="IDIPOL">     0</i>
    <i name="EPSILON">      1.00000000</i>
    <v name="DIPOL">   -100.00000000   -100.00000000   -100.00000000</v>
    <i name="EFIELD">      0.00000000</i>
   </separator>
  </separator>
  <separator name="grids" >
   <i type="int" name="NGX">    14</i>
   <i type="int" name="NGY">    14</i>
   <i type="int" name="NGZ">    14</i>
   <i type="int" name="NGXF">    28</i>
   <i type="int" name="NGYF">    28</i>
   <i type="int" name="NGZF">    28</i>
   <i type="logical" name="ADDGRID"> F  </i>
  </separator>
  <separator name="ionic" >
   <i type="int" name="NSW">     0</i>
   <i type="int" name="IBRION">    -1</i>
   <i type="int" name="MDALGO">     0</i>
   <i type="int" name="ISIF">     2</i>
   <i name="PSTRESS">      0.00000000</i>
   <i name="EDIFFG">      0.00001000</i>
   <i type="int" name="NFREE">     0</i>
   <i name="POTIM">      0.50000000</i>
   <i name="SMASS">     -3.00000000</i>
   <i name="SCALEE">      1.00000000</i>
  </separator>
  <separator name="ionic md" >
   <i name="TEBEG">      0.00010000</i>
   <i name="TEEND">      0.00010000</i>
   <i type="int" name="NBLOCK">     1</i>
   <i type="int" name="KBLOCK">     1</i>
   <i type="int" name="NPACO">   256</i>
   <i name="APACO">     16.00000000</i>
  </separator>
  <separator name="symmetry" >
   <i type="int" name="ISYM">     2</i>
   <i name="SYMPREC">      0.00001000</i>
  </separator>
  <separator name="dos" >
   <i type="int" name="LORBIT">     0</i>
   <v name="RWIGS">     -1.00000000     -1.00000000     -1.00000000     -1.00000000</v>
   <i type="int" name="NEDOS">   301</i>
   <i name="EMIN">     10.00000000</i>
   <i name="EMAX">    -10.00000000</i>
   <i name="EFERMI">      0.00000000</i>
  </separator>
  <separator name="writing" >
   <i type="int" name="NWRITE">     2</i>
   <i type="logical" name="LWAVE"> T  </i>
   <i type="logical" name="LDOWNSAMPLE"> F  </i>
   <i type="logical" name="LCHARG"> T  </i>
   <i type="logical" name="LPARD"> F  </i>
   <i type="logical" name="LVTOT"> F  </i>
   <i type="logical" name="LVHAR"> F  </i>
   <i type="logical" name="LELF"> F  </i>
   <i type="logical" name="LOPTICS"> F  </i>
   <v name="STM">      0.00000000      0.00000000      0.00000000      0.00000000      0.00000000      0.00000000      0.00000000</v>
  </separator>
  <separator name="performance" >
   <i type="int" name="NPAR">     1</i>
   <i type="int" name="NSIM">     4</i>
   <i type="int" name="NBLK">    -1</i>
   <i type="logical" name="LPLANE"> T  </i>
   <i type="logical" name="LSCALAPACK"> F  </i>
   <i type="logical" name="LSCAAWARE"> F  </i>
   <i type="logical" name="LSCALU"> F  </i>
   <i type="logical" name="LASYNC"> F  </i>
   <i type="logical" name="LORBITALREAL"> F  </i>
  </separator>
  <separator name="miscellaneous" >
   <i type="int" name="IDIOT">     3</i>
   <i type="int" name="PHON_NSTRUCT">    -1</i>
   <i type="logical" name="LMUSIC"> F  </i>
   <v name="POMASS">    106.42000000    192.22000000    195.08000000     63.54600000</v>
   <v name="DARWINR">      0.00000000      0.00000000      0.00000000      0.00000000</v>
   <v name="DARWINV">      1.00000000      1.00000000      1.00000000      1.00000000</v>
   <i type="logical" name="LCORR"> T  </i>
  </separator>
  <i type="logical" name="GGA_COMPAT"> T  </i>
  <i type="logical" name="LBERRY"> F  </i>
  <i type="int" name="ICORELEVEL">     0</i>
  <i type="logical" name="LDAU"> F  </i>
  <i type="int" name="I_CONSTRAINED_M">     0</i>
  <separator name="electronic exchange-correlation" >
   <i type="string" name="GGA">PE</i>
   <i type="int" name="VOSKOWN">     0</i>
   <i type="logical" name="LHFCALC"> F  </i>
   <i type="string" name="PRECFOCK"></i>
   <i type="logical" name="LSYMGRAD"> F  </i>
   <i type="logical" name="LHFONE"> F  </i>
   <i type="logical" name="LRHFCALC"> F  </i>
   <i type="logical" name="LTHOMAS"> F  </i>
   <i type="logical" name="LMODELHF"> F  </i>
   <i type="logical" name="LFOCKACE"> F  </i>
   <i name="ENCUT4O">     -1.00000000</i>
   <i type="int" name="EXXOEP">     0</i>
   <i type="int" name="FOURORBIT">     0</i>
   <i name="AEXX">      0.00000000</i>
   <i name="HFALPHA">      0.00000000</i>
   <i name="MCALPHA">      0.00000000</i>
   <i name="ALDAX">      1.00000000</i>
   <i name="AGGAX">      1.00000000</i>
   <i name="ALDAC">      1.00000000</i>
   <i name="AGGAC">      1.00000000</i>
   <i type="int" name="NKREDX">     1</i>
   <i type="int" name="NKREDY">     1</i>
   <i type="int" name="NKREDZ">     1</i>
   <i type="logical" name="SHIFTRED"> F  </i>
   <i type="logical" name="ODDONLY"> F  </i>
   <i type="logical" name="EVENONLY"> F  </i>
   <i type="int" name="LMAXFOCK">     0</i>
   <i type="int" name="NMAXFOCKAE">     0</i>
   <i type="logical" name="LFOCKAEDFT"> F  </i>
   <i name="HFSCREEN">      0.00000000</i>
   <i name="HFSCREENC">      0.00000000</i>
   <i type="int" name="NBANDSGWLOW">     0</i>
  </separator>
  <separator name="vdW DFT" >
   <i type="logical" name="LUSE_VDW"> F  </i>
   <i name="Zab_VDW">     -0.84910000</i>
   <i name="PARAM1">      0.12340000</i>
   <i name="PARAM2">      1.00000000</i>
   <i name="PARAM3">      0.00000000</i>
  </separator>
  <separator name="model GW" >
   <i type="int" name="MODEL_GW">     0</i>
   <i name="MODEL_EPS0">      8.66715988</i>
   <i name="MODEL_ALPHA">      1.00000000</i>
  </separator>
  <separator name="linear response parameters" >
   <i type="logical" name="LEPSILON"> F  </i>
   <i type="logical" name="LRPA"> F  </i>
   <i type="logical" name="LNABLA"> F  </i>
   <i type="logical" name="LVEL"> F  </i>
   <i type="int" name="KINTER">     0</i>
   <i name="CSHIFT">      0.10000000</i>
   <i name="OMEGAMAX">     -1.00000000</i>
   <i name="DEG_THRESHOLD">      0.00200000</i>
   <i name="RTIME">     -0.10000000</i>
   <i name="WPLASMAI">      0.00000000</i>
   <v name="DFIELD">      0.00000000      0.00000000      0.00000000</v>
   <v name="WPLASMA">      0.00000000      0.00000000      0.00000000      0.00000000      0.00000000      0.00000000      0.00000000      0.00000000      0.00000000</v>
  </separator>
  <separator name="orbital magnetization" >
   <i type="logical" name="NUCIND"> F  </i>
   <v name="MAGPOS">      0.00000000      0.00000000      0.00000000</v>
   <i type="logical" name="LNICSALL"> T  </i>
   <i type="logical" name="ORBITALMAG"> F  </i>
   <i type="logical" name="LMAGBLOCH"> F  </i>
   <i type="logical" name="LCHIMAG"> F  </i>
   <i type="logical" name="LGAUGE"> T  </i>
   <i type="int" name="MAGATOM">     0</i>
   <v name="MAGDIPOL">      0.00000000      0.00000000      0.00000000</v>
   <v name="AVECCONST">      0.00000000      0.00000000      0.00000000</v>
  </separator>
  <separator name="response functions" >
   <i type="logical" name="LFINITE_TEMPERATURE"> F  </i>
   <i type="logical" name="LADDER"> F  </i>
   <i type="logical" name="LRPAFORCE"> F  </i>
   <i type="logical" name="LFXC"> F  </i>
   <i type="logical" name="LHARTREE"> T  </i>
   <i type="int" name="IBSE">     0</i>
   <v type="int" name="KPOINT">    -1     0     0     0</v>
   <i type="logical" name="LTCTC"> F  </i>
   <i type="logical" name="LTCTE"> F  </i>
   <i type="logical" name="LTETE"> F  </i>
   <i type="logical" name="LTRIPLET"> F  </i>
   <i type="logical" name="LFXCEPS"> F  </i>
   <i type="logical" name="LFXHEG"> F  </i>
   <i type="int" name="NATURALO">     2</i>
   <i type="logical" name="LHOLEGF"> F  </i>
   <i type="logical" name="L2ORDER"> F  </i>
   <i type="logical" name="LDMP1"> F  </i>
   <i type="logical" name="LMP2LT"> F  </i>
   <i type="logical" name="LSMP2LT"> F  </i>
   <i type="logical" name="LGWLF"> F  </i>
   <i name="ENCUTGW">     -2.00000000</i>
   <i name="ENCUTGWSOFT">     -2.00000000</i>
   <i name="ENCUTLF">     -1.00000000</i>
   <i type="logical" name="LESF_SPLINES"> F  </i>
   <i type="int" name="LMAXMP2">    -1</i>
   <i name="SCISSOR">      0.00000000</i>
   <i type="int" name="NOMEGA">     0</i>
   <i type="int" name="NOMEGAR">     0</i>
   <i type="int" name="NBANDSGW">    -1</i>
   <i type="int" name="NBANDSO">    -1</i>
   <i type="int" name="NBANDSV">    -1</i>
   <i type="int" name="NELM">     1</i>
   <i type="int" name="NELMHF">     1</i>
   <i type="int" name="DIM">     3</i>
   <i type="int" name="IESPILON">     4</i>
   <i type="int" name="ANTIRES">     0</i>
   <i name="OMEGAMAX">    -30.00000000</i>
   <i name="OMEGAMIN">    -30.00000000</i>
   <i name="OMEGATL">   -200.00000000</i>
   <i type="int" name="OMEGAGRID">     0</i>
   <i name="CSHIFT">     -0.10000000</i>
   <i type="logical" name="LSELFENERGY"> F  </i>
   <i type="logical" name="LSPECTRAL"> F  </i>
   <i type="logical" name="LSPECTRALGW"> F  </i>
   <i type="logical" name="LSINGLES"> F  </i>
   <i type="logical" name="LFERMIGW"> F  </i>
   <i type="logical" name="ODDONLYGW"> F  </i>
   <i type="logical" name="EVENONLYGW"> F  </i>
   <i type="int" name="NKREDLFX">     1</i>
   <i type="int" name="NKREDLFY">     1</i>
   <i type="int" name="NKREDLFZ">     1</i>
   <i type="int" name="MAXMEM">  2800</i>
   <i type="int" name="TELESCOPE">     0</i>
   <i type="int" name="NTAUPAR">    -1</i>
   <i type="int" name="NOMEGAPAR">    -1</i>
   <i name="DAMP_NEWTON">      0.80000001</i>
   <i name="LAMBDA">      1.00000000</i>
  </separator>
  <separator name="External order field" >
   <i name="OFIELD_KAPPA">      0.00000000</i>
   <v name="OFIELD_K">      0.00000000      0.00000000      0.00000000</v>
   <i name="OFIELD_Q6_NEAR">      0.00000000</i>
   <i name="OFIELD_Q6_FAR">      0.00000000</i>
   <i name="OFIELD_A">      0.00000000</i>
  </separator>
 </parameters>
 <atominfo>
  <atoms>       4 </atoms>
  <types>       4 </types>
  <array name="atoms" >
   <dimension dim="1">ion</dimension>
   <field type="string">element</field>
   <field type="int">atomtype</field>
   <set>
    <rc><c>Pd</c><c>   1</c></rc>
    <rc><c>Ir</c><c>   2</c></rc>
    <rc><c>Pt</c><c>   3</c></rc>
    <rc><c>Cu</c><c>   4</c></rc>
   </set>
  </array>
  <array name="atomtypes" >
   <dimension dim="1">type</dimension>
   <field type="int">atomspertype</field>
   <field type="string">element</field>
   <field>mass</field>
   <field>valence</field>
   <field type="string">pseudopotential</field>
   <set>
    <rc><c>   1</c><c>Pd</c><c>    106.42000000</c><c>     10.00000000</c><c>  PAW_PBE Pd 04Jan2005                  </c></rc>
    <rc><c>   1</c><c>Ir</c><c>    192.22000000</c><c>      9.00000000</c><c>  PAW_PBE Ir 06Sep2000                  </c></rc>
    <rc><c>   1</c><c>Pt</c><c>    195.08000000</c><c>     10.00000000</c><c>  PAW_PBE Pt 04Feb2005                  </c></rc>
    <rc><c>   1</c><c>Cu</c><c>     63.54600000</c><c>     11.00000000</c><c>  PAW_PBE Cu 22Jun2005                  </c></rc>
   </set>
  </array>
 </atominfo>
 <structure name="initialpos" >
  <crystal>
   <varray name="basis" >
    <v>       3.86600000       0.00000000       0.00000000 </v>
    <v>       0.00000000       3.86600000       0.00000000 </v>
    <v>       0.00000000       0.00000000       3.86600000 </v>
   </varray>
   <i name="volume">     57.78106590 </i>
   <varray name="rec_basis" >
    <v>       0.25866529       0.00000000       0.00000000 </v>
    <v>       0.00000000       0.25866529       0.00000000 </v>
    <v>       0.00000000       0.00000000       0.25866529 </v>
   </varray>
  </crystal>
  <varray name="positions" >
   <v>       0.00000000       0.00000000       0.00000000 </v>
   <v>       0.50000000       0.50000000       0.00000000 </v>
   <v>       0.50000000       0.00000000       0.50000000 </v>
   <v>       0.00000000       0.50000000       0.50000000 </v>
  </varray>
 </structure>
 <calculation>
  <scstep>
   <time name="dav">    0.27    0.29</time>
   <time name="total">    0.30    0.32</time>
   <energy>
    <i name="alphaZ">    244.65455147 </i>
    <i name="ewald">  -3423.86860972 </i>
    <i name="hartreedc">   -595.84773412 </i>
    <i name="XCdc">      1.57255837 </i>
    <i name="pawpsdc">   3940.88543120 </i>
    <i name="pawaedc">  -3922.46051053 </i>
    <i name="eentropy">     -0.00301804 </i>
    <i name="bandstr">    244.63310594 </i>
    <i name="atom">   3487.96799218 </i>
    <i name="e_fr_energy">    -22.46623326 </i>
    <i name="e_wo_entrp">    -22.46321522 </i>
    <i name="e_0_energy">    -22.46522724 </i>
   </energy>
  </scstep>
  <scstep>
   <time name="dav">    0.25    0.25</time>
   <time name="total">    0.28    0.28</time>
   <energy>
    <i name="e_fr_energy">    -22.43913845 </i>
    <i name="e_wo_entrp">    -22.43433014 </i>
    <i name="e_0_energy">    -22.43753568 </i>
   </energy>
  </scstep>
  <scstep>
   <time name="dav">    0.27    0.27</time>
   <time name="total">    0.29    0.29</time>
   <energy>
    <i name="e_fr_energy">    -22.43851065 </i>
    <i name="e_wo_entrp">    -22.43438090 </i>
    <i name="e_0_energy">    -22.43713407 </i>
   </energy>
  </scstep>
  <scstep>
   <time name="dav">    0.28    0.28</time>
   <time name="total">    0.31    0.32</time>
   <energy>
    <i name="e_fr_energy">    -22.43850766 </i>
    <i name="e_wo_entrp">    -22.43427253 </i>
    <i name="e_0_energy">    -22.43709595 </i>
   </energy>
  </scstep>
  <scstep>
   <time name="dav">    0.24    0.24</time>
   <time name="total">    0.26    0.26</time>
   <energy>
    <i name="e_fr_energy">    -22.43850258 </i>
    <i name="e_wo_entrp">    -22.43432995 </i>
    <i name="e_0_energy">    -22.43711170 </i>
   </energy>
  </scstep>
  <scstep>
   <time name="dav">    0.15    0.15</time>
   <time name="total">    0.17    0.17</time>
   <energy>
    <i name="alphaZ">    244.65455147 </i>
    <i name="ewald">  -3423.86860972 </i>
    <i name="hartreedc">   -595.84805460 </i>
    <i name="XCdc">      1.57322875 </i>
    <i name="pawpsdc">   3941.04313554 </i>
    <i name="pawaedc">  -3922.64672507 </i>
    <i name="eentropy">     -0.00416803 </i>
    <i name="bandstr">    244.69014697 </i>
    <i name="atom">   3487.96799218 </i>
    <i name="e_fr_energy">    -22.43850252 </i>
    <i name="e_wo_entrp">    -22.43433450 </i>
    <i name="e_0_energy">    -22.43711318 </i>
   </energy>
  </scstep>
  <structure>
   <crystal>
    <varray name="basis" >
     <v>       3.86600000       0.00000000       0.00000000 </v>
     <v>       0.00000000       3.86600000       0.00000000 </v>
     <v>       0.00000000       0.00000000       3.86600000 </v>
    </varray>
    <i name="volume">     57.78106590 </i>
    <varray name="rec_basis" >
     <v>       0.25866529       0.00000000       0.00000000 </v>
     <v>       0.00000000       0.25866529       0.00000000 </v>
     <v>       0.00000000       0.00000000       0.25866529 </v>
    </varray>
   </crystal>
   <varray name="positions" >
    <v>       0.00000000       0.00000000       0.00000000 </v>
    <v>       0.50000000       0.50000000       0.00000000 </v>
    <v>       0.50000000       0.00000000       0.50000000 </v>
    <v>       0.00000000       0.50000000       0.50000000 </v>
   </varray>
  </structure>
  <varray name="forces" >
   <v>       0.00000000      -0.00000000      -0.00000000 </v>
   <v>      -0.00000000       0.00000000      -0.00000000 </v>
   <v>      -0.00000000       0.00000000       0.00000000 </v>
   <v>       0.00000000      -0.00000000      -0.00000000 </v>
  </varray>
  <varray name="stress" >
   <v>    -555.85891688      -0.00000000       0.00000000 </v>
   <v>      -0.00000000    -566.40682885       0.00000000 </v>
   <v>       0.00000000       0.00000000    -581.09108233 </v>
  </varray>
  <energy>
   <i name="e_fr_energy">    -22.43850252 </i>
   <i name="e_wo_entrp">    -22.43433450 </i>
   <i name="e_0_energy">    -22.43711318 </i>
  </energy>
  <time name="totalsc">    1.88    1.90</time>
  <eigenvalues>
   <array>
    <dimension dim="1">band</dimension>
    <dimension dim="2">kpoint</dimension>
    <dimension dim="3">spin</dimension>
    <field>eigene</field>
    <field>occ</field>
    <set>
     <set comment="spin 1">
      <set comment="kpoint 1">
       <r>    0.1099    1.0000 </r>
       <r>    2.5611    1.0000 </r>
       <r>    3.5313    1.0000 </r>
       <r>    3.5874    1.0000 </r>
       <r>    3.6799    1.0000 </r>
       <r>    3.7211    1.0000 </r>
       <r>    3.7807    1.0000 </r>
       <r>    6.1707    1.0000 </r>
       <r>    6.2065    1.0000 </r>
       <r>    6.3234    1.0000 </r>
       <r>    7.3634    1.0000 </r>
       <r>    7.4859    1.0000 </r>
       <r>    8.1519    1.0000 </r>
       <r>    8.3561    1.0000 </r>
       <r>    8.4904    1.0000 </r>
       <r>    9.2034    0.3009 </r>
       <r>    9.3660   -0.0300 </r>
       <r>    9.4357   -0.0316 </r>
       <r>    9.7473   -0.0001 </r>
       <r>   10.2085   -0.0000 </r>
       <r>   10.7842   -0.0000 </r>
       <r>   11.4114   -0.0000 </r>
       <r>   11.4204   -0.0000 </r>
       <r>   11.4325   -0.0000 </r>
       <r>   17.8823    0.0000 </r>
       <r>   18.1715    0.0000 </r>
       <r>   19.7516    0.0000 </r>
       <r>   20.3256    0.0000 </r>
       <r>   20.4722    0.0000 </r>
       <r>   20.7174    0.0000 </r>
      </set>
      <set comment="kpoint 2">
       <r>    0.5748    1.0000 </r>
       <r>    2.8565    1.0000 </r>
       <r>    3.6796    1.0000 </r>
       <r>    3.6991    1.0000 </r>
       <r>    3.8709    1.0000 </r>
       <r>    3.9563    1.0000 </r>
       <r>    4.0126    1.0000 </r>
       <r>    5.9399    1.0000 </r>
       <r>    6.2968    1.0000 </r>
       <r>    6.4537    1.0000 </r>
       <r>    7.2714    1.0000 </r>
       <r>    7.3595    1.0000 </r>
       <r>    7.5946    1.0000 </r>
       <r>    7.7958    1.0000 </r>
       <r>    7.8986    1.0000 </r>
       <r>    8.0617    1.0000 </r>
       <r>    8.9569    1.0240 </r>
       <r>    9.0490    0.8857 </r>
       <r>    9.1964    0.3283 </r>
       <r>    9.4275   -0.0330 </r>
       <r>    9.7098   -0.0003 </r>
       <r>   10.7675   -0.0000 </r>
       <r>   13.1739   -0.0000 </r>
       <r>   13.1774   -0.0000 </r>
       <r>   17.8589    0.0000 </r>
       <r>   18.0169    0.0000 </r>
       <r>   20.4167    0.0000 </r>
       <r>   20.4606    0.0000 </r>
       <r>   20.6090    0.0000 </r>
       <r>   20.9823    0.0000 </r>
      </set>
      <set comment="kpoint 3">
       <r>    0.6284    1.0000 </r>
       <r>    2.8728    1.0000 </r>
       <r>    3.6262    1.0000 </r>
       <r>    3.7739    1.0000 </r>
       <r>    3.8176    1.0000 </r>
       <r>    3.9566    1.0000 </r>
       <r>    4.0491    1.0000 </r>
       <r>    6.0865    1.0000 </r>
       <r>    6.3184    1.0000 </r>
       <r>    6.3205    1.0000 </r>
       <r>    7.1953    1.0000 </r>
       <r>    7.4899    1.0000 </r>
       <r>    7.5186    1.0000 </r>
       <r>    7.6946    1.0000 </r>
       <r>    8.1853    1.0000 </r>
       <r>    8.6986    1.0029 </r>
       <r>    8.9668    1.0177 </r>
       <r>    9.1099    0.6849 </r>
       <r>    9.1844    0.3762 </r>
       <r>    9.2320    0.1988 </r>
       <r>    9.3864   -0.0347 </r>
       <r>    9.6953   -0.0004 </r>
       <r>   13.2864   -0.0000 </r>
       <r>   13.4072   -0.0000 </r>
       <r>   17.4205    0.0000 </r>
       <r>   18.6459    0.0000 </r>
       <r>   20.3511    0.0000 </r>
       <r>   20.4108    0.0000 </r>
       <r>   20.6139    0.0000 </r>
       <r>   21.2770    0.0000 </r>
      </set>
      <set comment="kpoint 4">
       <r>    0.6302    1.0000 </r>
       <r>    2.8857    1.0000 </r>
       <r>    3.7785    1.0000 </r>
       <r>    3.8252    1.0000 </r>
       <r>    3.8648    1.0000 </r>
       <r>    3.8792    1.0000 </r>
       <r>    3.9001    1.0000 </r>
       <r>    5.9067    1.0000 </r>
       <r>    6.2922    1.0000 </r>
       <r>    6.4490    1.0000 </r>
       <r>    7.2031    1.0000 </r>
       <r>    7.4582    1.0000 </r>
       <r>    7.4847    1.0000 </r>
       <r>    7.8905    1.0000 </r>
       <r>    7.9887    1.0000 </r>
       <r>    8.3945    1.0000 </r>
       <r>    8.7811    1.0119 </r>
       <r>    9.0721    0.8189 </r>
       <r>    9.1203    0.6436 </r>
       <r>    9.2643    0.1048 </r>
       <r>    9.7217   -0.0002 </r>
       <r>   10.1661   -0.0000 </r>
       <r>   13.2552   -0.0000 </r>
       <r>   13.3727   -0.0000 </r>
       <r>   17.1099    0.0000 </r>
       <r>   18.8499    0.0000 </r>
       <r>   20.4435    0.0000 </r>
       <r>   20.4629    0.0000 </r>
       <r>   20.7277    0.0000 </r>
       <r>   21.2050    0.0000 </r>
      </set>
      <set comment="kpoint 5">
       <r>    1.6742    1.0000 </r>
       <r>    3.4960    1.0000 </r>
       <r>    3.7991    1.0000 </r>
       <r>    4.0203    1.0000 </r>
       <r>    4.6697    1.0000 </r>
       <r>    4.7110    1.0000 </r>
       <r>    4.7770    1.0000 </r>
       <r>    5.4830    1.0000 </r>
       <r>    5.9844    1.0000 </r>
       <r>    6.0852    1.0000 </r>
       <r>    6.8345    1.0000 </r>
       <r>    6.9647    1.0000 </r>
       <r>    6.9956    1.0000 </r>
       <r>    7.1520    1.0000 </r>
       <r>    7.2535    1.0000 </r>
       <r>    7.4887    1.0000 </r>
       <r>    8.0352    1.0000 </r>
       <r>    8.1801    1.0000 </r>
       <r>    8.2073    1.0000 </r>
       <r>    8.5152    1.0000 </r>
       <r>    9.2988    0.0333 </r>
       <r>   10.7621   -0.0000 </r>
       <r>   15.7154    0.0000 </r>
       <r>   15.7888    0.0000 </r>
       <r>   17.0606    0.0000 </r>
       <r>   17.9966    0.0000 </r>
       <r>   18.6298    0.0000 </r>
       <r>   18.7519    0.0000 </r>
       <r>   19.1261    0.0000 </r>
       <r>   21.8307    0.0000 </r>
      </set>
      <set comment="kpoint 6">
       <r>    2.0003    1.0000 </r>
       <r>    3.3000    1.0000 </r>
       <r>    3.7377    1.0000 </r>
       <r>    4.0639    1.0000 </r>
       <r>    4.6032    1.0000 </r>
       <r>    4.6504    1.0000 </r>
       <r>    4.9374    1.0000 </r>
       <r>    5.6993    1.0000 </r>
       <r>    6.3125    1.0000 </r>
       <r>    6.3507    1.0000 </r>
       <r>    6.7771    1.0000 </r>
       <r>    6.9049    1.0000 </r>
       <r>    6.9221    1.0000 </r>
       <r>    7.0882    1.0000 </r>
       <r>    7.4774    1.0000 </r>
       <r>    7.8298    1.0000 </r>
       <r>    7.8390    1.0000 </r>
       <r>    8.0254    1.0000 </r>
       <r>    8.1384    1.0000 </r>
       <r>    8.3691    1.0000 </r>
       <r>    9.0271    0.9365 </r>
       <r>    9.3631   -0.0289 </r>
       <r>   15.9238    0.0000 </r>
       <r>   15.9650    0.0000 </r>
       <r>   16.6919    0.0000 </r>
       <r>   18.4741    0.0000 </r>
       <r>   18.4802    0.0000 </r>
       <r>   18.6312    0.0000 </r>
       <r>   20.4535    0.0000 </r>
       <r>   20.7404    0.0000 </r>
      </set>
      <set comment="kpoint 7">
       <r>    2.0174    1.0000 </r>
       <r>    3.2979    1.0000 </r>
       <r>    3.9513    1.0000 </r>
       <r>    4.3033    1.0000 </r>
       <r>    4.5990    1.0000 </r>
       <r>    4.6951    1.0000 </r>
       <r>    4.7036    1.0000 </r>
       <r>    5.3848    1.0000 </r>
       <r>    5.9847    1.0000 </r>
       <r>    6.1127    1.0000 </r>
       <r>    6.7972    1.0000 </r>
       <r>    7.0023    1.0000 </r>
       <r>    7.0035    1.0000 </r>
       <r>    7.1049    1.0000 </r>
       <r>    7.3156    1.0000 </r>
       <r>    7.6198    1.0000 </r>
       <r>    7.9780    1.0000 </r>
       <r>    8.0025    1.0000 </r>
       <r>    8.3476    1.0000 </r>
       <r>    8.3839    1.0000 </r>
       <r>    8.8753    1.0319 </r>
       <r>   10.1375   -0.0000 </r>
       <r>   15.8986    0.0000 </r>
       <r>   16.0172    0.0000 </r>
       <r>   16.2486    0.0000 </r>
       <r>   18.4534    0.0000 </r>
       <r>   18.7266    0.0000 </r>
       <r>   18.9658    0.0000 </r>
       <r>   20.0462    0.0000 </r>
       <r>   21.1015    0.0000 </r>
      </set>
      <set comment="kpoint 8">
       <r>    1.0716    1.0000 </r>
       <r>    3.1659    1.0000 </r>
       <r>    3.9013    1.0000 </r>
       <r>    3.9035    1.0000 </r>
       <r>    4.0843    1.0000 </r>
       <r>    4.0926    1.0000 </r>
       <r>    4.3602    1.0000 </r>
       <r>    5.9192    1.0000 </r>
       <r>    6.3775    1.0000 </r>
       <r>    6.5113    1.0000 </r>
       <r>    7.0209    1.0000 </r>
       <r>    7.1715    1.0000 </r>
       <r>    7.2330    1.0000 </r>
       <r>    7.3046    1.0000 </r>
       <r>    7.7316    1.0000 </r>
       <r>    7.9297    1.0000 </r>
       <r>    8.2678    1.0000 </r>
       <r>    8.8520    1.0270 </r>
       <r>    8.9038    1.0353 </r>
       <r>    9.0084    0.9706 </r>
       <r>    9.6808   -0.0006 </r>
       <r>   10.8660   -0.0000 </r>
       <r>   11.8629   -0.0000 </r>
       <r>   14.5458   -0.0000 </r>
       <r>   16.9727    0.0000 </r>
       <r>   18.9971    0.0000 </r>
       <r>   20.0467    0.0000 </r>
       <r>   20.4088    0.0000 </r>
       <r>   21.0788    0.0000 </r>
       <r>   21.7004    0.0000 </r>
      </set>
      <set comment="kpoint 9">
       <r>    1.0993    1.0000 </r>
       <r>    3.1989    1.0000 </r>
       <r>    3.8839    1.0000 </r>
       <r>    3.9471    1.0000 </r>
       <r>    4.0197    1.0000 </r>
       <r>    4.2082    1.0000 </r>
       <r>    4.3098    1.0000 </r>
       <r>    5.9009    1.0000 </r>
       <r>    6.3825    1.0000 </r>
       <r>    6.5113    1.0000 </r>
       <r>    7.0280    1.0000 </r>
       <r>    7.1866    1.0000 </r>
       <r>    7.2339    1.0000 </r>
       <r>    7.2915    1.0000 </r>
       <r>    7.7055    1.0000 </r>
       <r>    8.0163    1.0000 </r>
       <r>    8.3582    1.0000 </r>
       <r>    8.6542    1.0011 </r>
       <r>    8.8613    1.0291 </r>
       <r>    8.8683    1.0305 </r>
       <r>    9.5062   -0.0161 </r>
       <r>   10.9096   -0.0000 </r>
       <r>   12.2252   -0.0000 </r>
       <r>   14.4467   -0.0000 </r>
       <r>   16.8312    0.0000 </r>
       <r>   19.0547    0.0000 </r>
       <r>   19.5335    0.0000 </r>
       <r>   20.9426    0.0000 </r>
       <r>   21.2306    0.0000 </r>
       <r>   21.8901    0.0000 </r>
      </set>
      <set comment="kpoint 10">
       <r>    1.0715    1.0000 </r>
       <r>    3.1818    1.0000 </r>
       <r>    3.9097    1.0000 </r>
       <r>    3.9285    1.0000 </r>
       <r>    4.0483    1.0000 </r>
       <r>    4.2082    1.0000 </r>
       <r>    4.2881    1.0000 </r>
       <r>    5.7769    1.0000 </r>
       <r>    6.4338    1.0000 </r>
       <r>    6.5507    1.0000 </r>
       <r>    6.9782    1.0000 </r>
       <r>    7.1523    1.0000 </r>
       <r>    7.2013    1.0000 </r>
       <r>    7.2591    1.0000 </r>
       <r>    7.7305    1.0000 </r>
       <r>    7.7896    1.0000 </r>
       <r>    8.1349    1.0000 </r>
       <r>    8.9498    1.0275 </r>
       <r>    9.0061    0.9741 </r>
       <r>    9.2103    0.2748 </r>
       <r>    9.8003   -0.0000 </r>
       <r>   11.1095   -0.0000 </r>
       <r>   11.5244   -0.0000 </r>
       <r>   14.5417   -0.0000 </r>
       <r>   16.9391    0.0000 </r>
       <r>   18.9293    0.0000 </r>
       <r>   19.9934    0.0000 </r>
       <r>   20.5303    0.0000 </r>
       <r>   21.1606    0.0000 </r>
       <r>   21.8381    0.0000 </r>
      </set>
      <set comment="kpoint 11">
       <r>    2.1394    1.0000 </r>
       <r>    3.7780    1.0000 </r>
       <r>    4.1172    1.0000 </r>
       <r>    4.2699    1.0000 </r>
       <r>    4.6641    1.0000 </r>
       <r>    4.8013    1.0000 </r>
       <r>    4.9857    1.0000 </r>
       <r>    5.5062    1.0000 </r>
       <r>    5.6270    1.0000 </r>
       <r>    6.0530    1.0000 </r>
       <r>    6.3768    1.0000 </r>
       <r>    6.4807    1.0000 </r>
       <r>    6.9577    1.0000 </r>
       <r>    7.1635    1.0000 </r>
       <r>    7.2592    1.0000 </r>
       <r>    7.6415    1.0000 </r>
       <r>    7.7659    1.0000 </r>
       <r>    8.3505    1.0000 </r>
       <r>    8.4141    1.0000 </r>
       <r>    8.9139    1.0354 </r>
       <r>    9.5178   -0.0139 </r>
       <r>    9.7758   -0.0001 </r>
       <r>   13.0974   -0.0000 </r>
       <r>   15.1986    0.0000 </r>
       <r>   16.9136    0.0000 </r>
       <r>   18.0821    0.0000 </r>
       <r>   19.5705    0.0000 </r>
       <r>   19.8139    0.0000 </r>
       <r>   21.8548    0.0000 </r>
       <r>   23.0923    0.0000 </r>
      </set>
      <set comment="kpoint 12">
       <r>    2.3513    1.0000 </r>
       <r>    3.6409    1.0000 </r>
       <r>    4.0003    1.0000 </r>
       <r>    4.2764    1.0000 </r>
       <r>    4.5723    1.0000 </r>
       <r>    4.7778    1.0000 </r>
       <r>    5.1394    1.0000 </r>
       <r>    5.6659    1.0000 </r>
       <r>    5.7612    1.0000 </r>
       <r>    6.2581    1.0000 </r>
       <r>    6.3454    1.0000 </r>
       <r>    6.5006    1.0000 </r>
       <r>    6.9131    1.0000 </r>
       <r>    7.1285    1.0000 </r>
       <r>    7.5550    1.0000 </r>
       <r>    7.6615    1.0000 </r>
       <r>    7.7168    1.0000 </r>
       <r>    8.1339    1.0000 </r>
       <r>    8.3424    1.0000 </r>
       <r>    8.8958    1.0348 </r>
       <r>    9.0160    0.9577 </r>
       <r>    9.3361   -0.0125 </r>
       <r>   13.5850   -0.0000 </r>
       <r>   15.1514    0.0000 </r>
       <r>   16.7870    0.0000 </r>
       <r>   18.3659    0.0000 </r>
       <r>   19.3862    0.0000 </r>
       <r>   19.5730    0.0000 </r>
       <r>   21.6924    0.0000 </r>
       <r>   23.3241    0.0000 </r>
      </set>
      <set comment="kpoint 13">
       <r>    2.3899    1.0000 </r>
       <r>    3.6483    1.0000 </r>
       <r>    4.2235    1.0000 </r>
       <r>    4.4111    1.0000 </r>
       <r>    4.6128    1.0000 </r>
       <r>    4.9285    1.0000 </r>
       <r>    4.9324    1.0000 </r>
       <r>    5.3129    1.0000 </r>
       <r>    5.5313    1.0000 </r>
       <r>    6.1212    1.0000 </r>
       <r>    6.4447    1.0000 </r>
       <r>    6.5121    1.0000 </r>
       <r>    6.9587    1.0000 </r>
       <r>    7.1403    1.0000 </r>
       <r>    7.3211    1.0000 </r>
       <r>    7.6342    1.0000 </r>
       <r>    7.9438    1.0000 </r>
       <r>    8.2064    1.0000 </r>
       <r>    8.4271    1.0000 </r>
       <r>    8.6604    1.0013 </r>
       <r>    9.2417    0.1680 </r>
       <r>    9.4053   -0.0353 </r>
       <r>   13.4418   -0.0000 </r>
       <r>   15.1954    0.0000 </r>
       <r>   16.8480    0.0000 </r>
       <r>   17.9527    0.0000 </r>
       <r>   19.3766    0.0000 </r>
       <r>   20.1291    0.0000 </r>
       <r>   21.9612    0.0000 </r>
       <r>   22.9762    0.0000 </r>
      </set>
      <set comment="kpoint 14">
       <r>    2.3862    1.0000 </r>
       <r>    3.6265    1.0000 </r>
       <r>    4.0511    1.0000 </r>
       <r>    4.2921    1.0000 </r>
       <r>    4.5935    1.0000 </r>
       <r>    4.7392    1.0000 </r>
       <r>    5.1265    1.0000 </r>
       <r>    5.6719    1.0000 </r>
       <r>    5.9359    1.0000 </r>
       <r>    6.2321    1.0000 </r>
       <r>    6.2723    1.0000 </r>
       <r>    6.4719    1.0000 </r>
       <r>    6.9065    1.0000 </r>
       <r>    7.1541    1.0000 </r>
       <r>    7.4754    1.0000 </r>
       <r>    7.6758    1.0000 </r>
       <r>    7.7579    1.0000 </r>
       <r>    8.1585    1.0000 </r>
       <r>    8.4189    1.0000 </r>
       <r>    8.8119    1.0179 </r>
       <r>    8.9059    1.0354 </r>
       <r>    9.1955    0.3318 </r>
       <r>   13.4974   -0.0000 </r>
       <r>   15.1872    0.0000 </r>
       <r>   16.8412    0.0000 </r>
       <r>   18.3299    0.0000 </r>
       <r>   19.3595    0.0000 </r>
       <r>   19.7456    0.0000 </r>
       <r>   22.0017    0.0000 </r>
       <r>   23.0060    0.0000 </r>
      </set>
      <set comment="kpoint 15">
       <r>    2.1354    1.0000 </r>
       <r>    3.8138    1.0000 </r>
       <r>    4.0801    1.0000 </r>
       <r>    4.2378    1.0000 </r>
       <r>    4.6080    1.0000 </r>
       <r>    4.8546    1.0000 </r>
       <r>    5.0358    1.0000 </r>
       <r>    5.4367    1.0000 </r>
       <r>    5.5419    1.0000 </r>
       <r>    6.1288    1.0000 </r>
       <r>    6.4539    1.0000 </r>
       <r>    6.5292    1.0000 </r>
       <r>    6.9592    1.0000 </r>
       <r>    7.1427    1.0000 </r>
       <r>    7.2470    1.0000 </r>
       <r>    7.6220    1.0000 </r>
       <r>    7.9636    1.0000 </r>
       <r>    8.1206    1.0000 </r>
       <r>    8.5116    1.0000 </r>
       <r>    8.9434    1.0301 </r>
       <r>    9.4853   -0.0206 </r>
       <r>    9.7279   -0.0002 </r>
       <r>   13.0740   -0.0000 </r>
       <r>   15.2615    0.0000 </r>
       <r>   16.8705    0.0000 </r>
       <r>   18.0472    0.0000 </r>
       <r>   19.4766    0.0000 </r>
       <r>   19.7506    0.0000 </r>
       <r>   21.9598    0.0000 </r>
       <r>   22.9769    0.0000 </r>
      </set>
      <set comment="kpoint 16">
       <r>    2.3608    1.0000 </r>
       <r>    3.6233    1.0000 </r>
       <r>    4.2245    1.0000 </r>
       <r>    4.4434    1.0000 </r>
       <r>    4.6305    1.0000 </r>
       <r>    4.8837    1.0000 </r>
       <r>    4.8977    1.0000 </r>
       <r>    5.3844    1.0000 </r>
       <r>    5.5198    1.0000 </r>
       <r>    6.0724    1.0000 </r>
       <r>    6.3421    1.0000 </r>
       <r>    6.5117    1.0000 </r>
       <r>    6.9755    1.0000 </r>
       <r>    7.1297    1.0000 </r>
       <r>    7.3903    1.0000 </r>
       <r>    7.6637    1.0000 </r>
       <r>    7.7021    1.0000 </r>
       <r>    8.2679    1.0000 </r>
       <r>    8.5514    1.0001 </r>
       <r>    8.5937    1.0003 </r>
       <r>    9.4289   -0.0328 </r>
       <r>    9.5265   -0.0123 </r>
       <r>   13.5422   -0.0000 </r>
       <r>   15.0948    0.0000 </r>
       <r>   16.8436    0.0000 </r>
       <r>   18.0097    0.0000 </r>
       <r>   19.4911    0.0000 </r>
       <r>   20.0177    0.0000 </r>
       <r>   21.5770    0.0000 </r>
       <r>   23.4258    0.0000 </r>
      </set>
      <set comment="kpoint 17">
       <r>    3.2820    1.0000 </r>
       <r>    4.1959    1.0000 </r>
       <r>    4.4525    1.0000 </r>
       <r>    4.7719    1.0000 </r>
       <r>    4.8584    1.0000 </r>
       <r>    5.0585    1.0000 </r>
       <r>    5.1856    1.0000 </r>
       <r>    5.3197    1.0000 </r>
       <r>    5.3456    1.0000 </r>
       <r>    5.8521    1.0000 </r>
       <r>    5.9909    1.0000 </r>
       <r>    6.2532    1.0000 </r>
       <r>    6.8826    1.0000 </r>
       <r>    7.0804    1.0000 </r>
       <r>    7.1150    1.0000 </r>
       <r>    7.3030    1.0000 </r>
       <r>    7.4872    1.0000 </r>
       <r>    8.0668    1.0000 </r>
       <r>    8.3714    1.0000 </r>
       <r>    8.4052    1.0000 </r>
       <r>    9.0888    0.7631 </r>
       <r>   10.0911   -0.0000 </r>
       <r>   11.5932   -0.0000 </r>
       <r>   12.9482   -0.0000 </r>
       <r>   18.8260    0.0000 </r>
       <r>   18.9581    0.0000 </r>
       <r>   20.4979    0.0000 </r>
       <r>   21.2072    0.0000 </r>
       <r>   21.2338    0.0000 </r>
       <r>   21.6959    0.0000 </r>
      </set>
      <set comment="kpoint 18">
       <r>    3.1780    1.0000 </r>
       <r>    3.9742    1.0000 </r>
       <r>    4.3579    1.0000 </r>
       <r>    4.7370    1.0000 </r>
       <r>    4.9441    1.0000 </r>
       <r>    5.1020    1.0000 </r>
       <r>    5.1047    1.0000 </r>
       <r>    5.3855    1.0000 </r>
       <r>    5.4055    1.0000 </r>
       <r>    5.8741    1.0000 </r>
       <r>    6.0851    1.0000 </r>
       <r>    6.2569    1.0000 </r>
       <r>    6.8978    1.0000 </r>
       <r>    7.0833    1.0000 </r>
       <r>    7.1176    1.0000 </r>
       <r>    7.2127    1.0000 </r>
       <r>    7.3811    1.0000 </r>
       <r>    8.0092    1.0000 </r>
       <r>    8.6006    1.0003 </r>
       <r>    8.6549    1.0012 </r>
       <r>    9.1576    0.4879 </r>
       <r>    9.9165   -0.0000 </r>
       <r>   12.1617   -0.0000 </r>
       <r>   13.0057   -0.0000 </r>
       <r>   18.5668    0.0000 </r>
       <r>   18.6882    0.0000 </r>
       <r>   20.3904    0.0000 </r>
       <r>   20.5158    0.0000 </r>
       <r>   21.0849    0.0000 </r>
       <r>   22.1600    0.0000 </r>
      </set>
      <set comment="kpoint 19">
       <r>    3.2496    1.0000 </r>
       <r>    4.3397    1.0000 </r>
       <r>    4.4252    1.0000 </r>
       <r>    4.6386    1.0000 </r>
       <r>    4.7327    1.0000 </r>
       <r>    4.9840    1.0000 </r>
       <r>    5.0290    1.0000 </r>
       <r>    5.2300    1.0000 </r>
       <r>    5.5713    1.0000 </r>
       <r>    6.0097    1.0000 </r>
       <r>    6.1520    1.0000 </r>
       <r>    6.3573    1.0000 </r>
       <r>    6.8298    1.0000 </r>
       <r>    7.0946    1.0000 </r>
       <r>    7.1047    1.0000 </r>
       <r>    7.2935    1.0000 </r>
       <r>    7.7699    1.0000 </r>
       <r>    7.9316    1.0000 </r>
       <r>    8.1783    1.0000 </r>
       <r>    8.2661    1.0000 </r>
       <r>    9.2935    0.0423 </r>
       <r>   10.4859   -0.0000 </r>
       <r>   11.1343   -0.0000 </r>
       <r>   12.8312   -0.0000 </r>
       <r>   18.7376    0.0000 </r>
       <r>   18.9257    0.0000 </r>
       <r>   20.7128    0.0000 </r>
       <r>   21.0303    0.0000 </r>
       <r>   21.4260    0.0000 </r>
       <r>   21.5126    0.0000 </r>
      </set>
      <set comment="kpoint 20">
       <r>    1.4849    1.0000 </r>
       <r>    3.4072    1.0000 </r>
       <r>    3.9753    1.0000 </r>
       <r>    4.1020    1.0000 </r>
       <r>    4.1722    1.0000 </r>
       <r>    4.5283    1.0000 </r>
       <r>    4.6588    1.0000 </r>
       <r>    5.7345    1.0000 </r>
       <r>    6.4417    1.0000 </r>
       <r>    6.5377    1.0000 </r>
       <r>    6.6191    1.0000 </r>
       <r>    6.8169    1.0000 </r>
       <r>    7.0150    1.0000 </r>
       <r>    7.2790    1.0000 </r>
       <r>    7.3620    1.0000 </r>
       <r>    7.5828    1.0000 </r>
       <r>    8.2557    1.0000 </r>
       <r>    8.3254    1.0000 </r>
       <r>    8.5062    1.0000 </r>
       <r>    9.0313    0.9277 </r>
       <r>    9.7777   -0.0000 </r>
       <r>   11.8040   -0.0000 </r>
       <r>   12.4828   -0.0000 </r>
       <r>   12.6986   -0.0000 </r>
       <r>   17.6797    0.0000 </r>
       <r>   17.9079    0.0000 </r>
       <r>   18.6156    0.0000 </r>
       <r>   21.1134    0.0000 </r>
       <r>   21.5300    0.0000 </r>
       <r>   21.7117    0.0000 </r>
      </set>
      <set comment="kpoint 21">
       <r>    2.3884    1.0000 </r>
       <r>    3.7347    1.0000 </r>
       <r>    4.2011    1.0000 </r>
       <r>    4.5227    1.0000 </r>
       <r>    4.5358    1.0000 </r>
       <r>    4.8215    1.0000 </r>
       <r>    5.3160    1.0000 </r>
       <r>    5.5318    1.0000 </r>
       <r>    5.7828    1.0000 </r>
       <r>    5.9913    1.0000 </r>
       <r>    6.3828    1.0000 </r>
       <r>    6.4873    1.0000 </r>
       <r>    6.6472    1.0000 </r>
       <r>    7.0198    1.0000 </r>
       <r>    7.0859    1.0000 </r>
       <r>    7.5220    1.0000 </r>
       <r>    8.0243    1.0000 </r>
       <r>    8.1647    1.0000 </r>
       <r>    8.6036    1.0003 </r>
       <r>    8.9720    1.0138 </r>
       <r>    9.4824   -0.0213 </r>
       <r>    9.7561   -0.0001 </r>
       <r>   13.7900   -0.0000 </r>
       <r>   13.8077   -0.0000 </r>
       <r>   15.5200    0.0000 </r>
       <r>   16.2959    0.0000 </r>
       <r>   20.1235    0.0000 </r>
       <r>   21.5342    0.0000 </r>
       <r>   22.1140    0.0000 </r>
       <r>   22.3717    0.0000 </r>
      </set>
      <set comment="kpoint 22">
       <r>    2.5635    1.0000 </r>
       <r>    3.6266    1.0000 </r>
       <r>    4.0010    1.0000 </r>
       <r>    4.4804    1.0000 </r>
       <r>    4.6625    1.0000 </r>
       <r>    4.8554    1.0000 </r>
       <r>    5.5257    1.0000 </r>
       <r>    5.6074    1.0000 </r>
       <r>    5.7699    1.0000 </r>
       <r>    6.0908    1.0000 </r>
       <r>    6.4649    1.0000 </r>
       <r>    6.5088    1.0000 </r>
       <r>    6.5572    1.0000 </r>
       <r>    7.0037    1.0000 </r>
       <r>    7.1377    1.0000 </r>
       <r>    7.2610    1.0000 </r>
       <r>    8.1380    1.0000 </r>
       <r>    8.2094    1.0000 </r>
       <r>    8.3697    1.0000 </r>
       <r>    8.8827    1.0331 </r>
       <r>    9.3160    0.0085 </r>
       <r>    9.6306   -0.0020 </r>
       <r>   13.7982   -0.0000 </r>
       <r>   14.0394   -0.0000 </r>
       <r>   15.5964    0.0000 </r>
       <r>   16.1333    0.0000 </r>
       <r>   20.2083    0.0000 </r>
       <r>   21.5987    0.0000 </r>
       <r>   22.2458    0.0000 </r>
       <r>   22.4104    0.0000 </r>
      </set>
      <set comment="kpoint 23">
       <r>    2.5688    1.0000 </r>
       <r>    3.6263    1.0000 </r>
       <r>    4.1511    1.0000 </r>
       <r>    4.4819    1.0000 </r>
       <r>    4.6638    1.0000 </r>
       <r>    5.0343    1.0000 </r>
       <r>    5.1766    1.0000 </r>
       <r>    5.5154    1.0000 </r>
       <r>    5.7328    1.0000 </r>
       <r>    5.9617    1.0000 </r>
       <r>    6.3679    1.0000 </r>
       <r>    6.4933    1.0000 </r>
       <r>    6.6499    1.0000 </r>
       <r>    7.0402    1.0000 </r>
       <r>    7.1314    1.0000 </r>
       <r>    7.3838    1.0000 </r>
       <r>    8.1416    1.0000 </r>
       <r>    8.1598    1.0000 </r>
       <r>    8.5181    1.0000 </r>
       <r>    8.8196    1.0196 </r>
       <r>    9.4134   -0.0348 </r>
       <r>    9.7045   -0.0004 </r>
       <r>   13.8024   -0.0000 </r>
       <r>   13.9794   -0.0000 </r>
       <r>   15.5794    0.0000 </r>
       <r>   16.2222    0.0000 </r>
       <r>   20.1188    0.0000 </r>
       <r>   21.3779    0.0000 </r>
       <r>   22.2055    0.0000 </r>
       <r>   22.4753    0.0000 </r>
      </set>
      <set comment="kpoint 24">
       <r>    3.0334    1.0000 </r>
       <r>    3.5466    1.0000 </r>
       <r>    3.8544    1.0000 </r>
       <r>    4.2503    1.0000 </r>
       <r>    5.1718    1.0000 </r>
       <r>    5.4640    1.0000 </r>
       <r>    5.7138    1.0000 </r>
       <r>    5.8912    1.0000 </r>
       <r>    6.0605    1.0000 </r>
       <r>    6.1123    1.0000 </r>
       <r>    6.3222    1.0000 </r>
       <r>    6.4859    1.0000 </r>
       <r>    6.5860    1.0000 </r>
       <r>    6.7258    1.0000 </r>
       <r>    6.8729    1.0000 </r>
       <r>    7.0406    1.0000 </r>
       <r>    7.8767    1.0000 </r>
       <r>    8.3201    1.0000 </r>
       <r>    8.7145    1.0040 </r>
       <r>    9.0292    0.9323 </r>
       <r>    9.1833    0.3808 </r>
       <r>   10.2290   -0.0000 </r>
       <r>   11.4842   -0.0000 </r>
       <r>   12.7077   -0.0000 </r>
       <r>   15.8018    0.0000 </r>
       <r>   17.4865    0.0000 </r>
       <r>   17.9003    0.0000 </r>
       <r>   19.8923    0.0000 </r>
       <r>   22.8129    0.0000 </r>
       <r>   24.5940    0.0000 </r>
      </set>
      <set comment="kpoint 25">
       <r>    3.0217    1.0000 </r>
       <r>    3.5755    1.0000 </r>
       <r>    3.6357    1.0000 </r>
       <r>    4.2544    1.0000 </r>
       <r>    5.1752    1.0000 </r>
       <r>    5.4715    1.0000 </r>
       <r>    5.7005    1.0000 </r>
       <r>    5.9461    1.0000 </r>
       <r>    6.0632    1.0000 </r>
       <r>    6.1104    1.0000 </r>
       <r>    6.3084    1.0000 </r>
       <r>    6.4936    1.0000 </r>
       <r>    6.5991    1.0000 </r>
       <r>    6.7313    1.0000 </r>
       <r>    6.8630    1.0000 </r>
       <r>    7.0307    1.0000 </r>
       <r>    7.9169    1.0000 </r>
       <r>    8.3414    1.0000 </r>
       <r>    8.8461    1.0257 </r>
       <r>    9.0140    0.9612 </r>
       <r>    9.1652    0.4560 </r>
       <r>   10.1095   -0.0000 </r>
       <r>   11.9706   -0.0000 </r>
       <r>   12.8927   -0.0000 </r>
       <r>   15.5419    0.0000 </r>
       <r>   17.0509    0.0000 </r>
       <r>   17.9478    0.0000 </r>
       <r>   19.8614    0.0000 </r>
       <r>   22.8989    0.0000 </r>
       <r>   24.4407    0.0000 </r>
      </set>
      <set comment="kpoint 26">
       <r>    3.0275    1.0000 </r>
       <r>    3.5786    1.0000 </r>
       <r>    3.8920    1.0000 </r>
       <r>    4.0821    1.0000 </r>
       <r>    5.1427    1.0000 </r>
       <r>    5.3636    1.0000 </r>
       <r>    5.6849    1.0000 </r>
       <r>    6.0618    1.0000 </r>
       <r>    6.1675    1.0000 </r>
       <r>    6.2128    1.0000 </r>
       <r>    6.4072    1.0000 </r>
       <r>    6.4298    1.0000 </r>
       <r>    6.6024    1.0000 </r>
       <r>    6.7960    1.0000 </r>
       <r>    6.8816    1.0000 </r>
       <r>    6.8845    1.0000 </r>
       <r>    8.0437    1.0000 </r>
       <r>    8.0824    1.0000 </r>
       <r>    8.5356    1.0001 </r>
       <r>    9.1652    0.4562 </r>
       <r>    9.3118    0.0138 </r>
       <r>   10.5926   -0.0000 </r>
       <r>   11.0318   -0.0000 </r>
       <r>   12.6413   -0.0000 </r>
       <r>   15.7793    0.0000 </r>
       <r>   17.5299    0.0000 </r>
       <r>   17.8873    0.0000 </r>
       <r>   19.9538    0.0000 </r>
       <r>   22.6797    0.0000 </r>
       <r>   24.6648    0.0000 </r>
      </set>
      <set comment="kpoint 27">
       <r>    2.8983    1.0000 </r>
       <r>    3.0287    1.0000 </r>
       <r>    3.2557    1.0000 </r>
       <r>    3.6397    1.0000 </r>
       <r>    5.5908    1.0000 </r>
       <r>    5.7066    1.0000 </r>
       <r>    5.8123    1.0000 </r>
       <r>    6.0687    1.0000 </r>
       <r>    6.1683    1.0000 </r>
       <r>    6.4203    1.0000 </r>
       <r>    6.4608    1.0000 </r>
       <r>    6.6648    1.0000 </r>
       <r>    7.2552    1.0000 </r>
       <r>    7.3283    1.0000 </r>
       <r>    7.5009    1.0000 </r>
       <r>    7.8374    1.0000 </r>
       <r>    8.2110    1.0000 </r>
       <r>    8.6438    1.0009 </r>
       <r>    8.7219    1.0045 </r>
       <r>    9.1312    0.5988 </r>
       <r>    9.6699   -0.0008 </r>
       <r>   10.4638   -0.0000 </r>
       <r>   10.8726   -0.0000 </r>
       <r>   11.1049   -0.0000 </r>
       <r>   14.9468    0.0000 </r>
       <r>   15.3756    0.0000 </r>
       <r>   16.1844    0.0000 </r>
       <r>   17.6903    0.0000 </r>
       <r>   25.3151    0.0000 </r>
       <r>   25.4139    0.0000 </r>
      </set>
     </set>
    </set>
   </array>
  </eigenvalues>
  <separator name="orbital magnetization" >
   <v name="MAGDIPOLOUT">      0.00000000      0.00000000      0.00000000</v>
  </separator>
  <dos>
   <i name="efermi">      9.15478990 </i>
   <total>
    <array>
     <dimension dim="1">gridpoints</dimension>
     <dimension dim="2">spin</dimension>
     <field>energy</field>
     <field>total</field>
     <field>integrated</field>
     <set>
      <set comment="spin 1">
       <r>    -1.8901     0.0000     0.0000 </r>
       <r>    -1.7924     0.0000     0.0000 </r>
       <r>    -1.6947     0.0000     0.0000 </r>
       <r>    -1.5970     0.0000     0.0000 </r>
       <r>    -1.4994    -0.0000    -0.0000 </r>
       <r>    -1.4017    -0.0000    -0.0000 </r>
       <r>    -1.3040    -0.0000    -0.0000 </r>
       <r>    -1.2063    -0.0000    -0.0000 </r>
       <r>    -1.1086    -0.0000    -0.0000 </r>
       <r>    -1.0110    -0.0000    -0.0000 </r>
       <r>    -0.9133    -0.0000    -0.0000 </r>
       <r>    -0.8156    -0.0000    -0.0000 </r>
       <r>    -0.7179    -0.0000    -0.0000 </r>
       <r>    -0.6202    -0.0000    -0.0000 </r>
       <r>    -0.5226    -0.0000    -0.0000 </r>
       <r>    -0.4249    -0.0001    -0.0000 </r>
       <r>    -0.3272    -0.0006    -0.0001 </r>
       <r>    -0.2295    -0.0024    -0.0003 </r>
       <r>    -0.1318    -0.0027    -0.0006 </r>
       <r>    -0.0342     0.0112     0.0005 </r>
       <r>     0.0635     0.0448     0.0049 </r>
       <r>     0.1612     0.0624     0.0110 </r>
       <r>     0.2589     0.0310     0.0140 </r>
       <r>     0.3566    -0.0061     0.0134 </r>
       <r>     0.4542     0.0505     0.0184 </r>
       <r>     0.5519     0.2375     0.0416 </r>
       <r>     0.6496     0.3725     0.0779 </r>
       <r>     0.7473     0.2553     0.1029 </r>
       <r>     0.8450     0.0574     0.1085 </r>
       <r>     0.9426     0.1453     0.1227 </r>
       <r>     1.0403     0.5474     0.1761 </r>
       <r>     1.1380     0.7565     0.2500 </r>
       <r>     1.2357     0.4680     0.2957 </r>
       <r>     1.3334     0.1748     0.3128 </r>
       <r>     1.4310     0.2985     0.3420 </r>
       <r>     1.5287     0.5187     0.3926 </r>
       <r>     1.6264     0.4460     0.4362 </r>
       <r>     1.7241     0.2052     0.4563 </r>
       <r>     1.8218     0.0518     0.4613 </r>
       <r>     1.9194     0.0968     0.4708 </r>
       <r>     2.0171     0.3336     0.5034 </r>
       <r>     2.1148     0.5677     0.5588 </r>
       <r>     2.2125     0.7242     0.6296 </r>
       <r>     2.3102     1.1185     0.7388 </r>
       <r>     2.4078     1.6902     0.9039 </r>
       <r>     2.5055     1.8399     1.0836 </r>
       <r>     2.6032     1.4098     1.2213 </r>
       <r>     2.7009     0.7289     1.2925 </r>
       <r>     2.7986     0.4847     1.3399 </r>
       <r>     2.8962     1.1814     1.4553 </r>
       <r>     2.9939     2.3024     1.6802 </r>
       <r>     3.0916     2.9024     1.9637 </r>
       <r>     3.1893     2.7931     2.2365 </r>
       <r>     3.2870     2.2802     2.4592 </r>
       <r>     3.3846     1.6801     2.6234 </r>
       <r>     3.4823     2.1104     2.8295 </r>
       <r>     3.5800     4.0860     3.2286 </r>
       <r>     3.6777     5.6511     3.7806 </r>
       <r>     3.7754     5.5808     4.3257 </r>
       <r>     3.8730     5.5446     4.8673 </r>
       <r>     3.9707     6.3584     5.4884 </r>
       <r>     4.0684     7.0461     6.1767 </r>
       <r>     4.1661     7.2162     6.8816 </r>
       <r>     4.2638     6.7398     7.5399 </r>
       <r>     4.3615     5.5484     8.0819 </r>
       <r>     4.4591     4.8413     8.5548 </r>
       <r>     4.5568     5.4686     9.0889 </r>
       <r>     4.6545     6.2875     9.7031 </r>
       <r>     4.7522     6.0750    10.2965 </r>
       <r>     4.8499     5.1492    10.7995 </r>
       <r>     4.9475     4.4333    11.2325 </r>
       <r>     5.0452     4.3592    11.6583 </r>
       <r>     5.1429     4.6006    12.1077 </r>
       <r>     5.2406     4.4358    12.5410 </r>
       <r>     5.3383     4.2298    12.9542 </r>
       <r>     5.4359     4.9054    13.4333 </r>
       <r>     5.5336     6.0529    14.0246 </r>
       <r>     5.6313     6.8210    14.6909 </r>
       <r>     5.7290     7.0043    15.3750 </r>
       <r>     5.8267     6.5441    16.0143 </r>
       <r>     5.9243     6.3272    16.6323 </r>
       <r>     6.0220     7.3478    17.3500 </r>
       <r>     6.1197     8.2482    18.1557 </r>
       <r>     6.2174     7.8518    18.9227 </r>
       <r>     6.3151     8.2784    19.7313 </r>
       <r>     6.4127    10.9696    20.8028 </r>
       <r>     6.5104    12.9036    22.0633 </r>
       <r>     6.6081    11.0229    23.1400 </r>
       <r>     6.7058     7.2552    23.8487 </r>
       <r>     6.8035     5.5670    24.3924 </r>
       <r>     6.9011     6.8627    25.0628 </r>
       <r>     6.9988     9.2807    25.9693 </r>
       <r>     7.0965    10.9665    27.0405 </r>
       <r>     7.1942    11.0621    28.1211 </r>
       <r>     7.2919     9.6291    29.0617 </r>
       <r>     7.3895     7.3332    29.7780 </r>
       <r>     7.4872     5.3955    30.3050 </r>
       <r>     7.5849     4.7042    30.7645 </r>
       <r>     7.6826     4.7894    31.2323 </r>
       <r>     7.7803     4.7940    31.7006 </r>
       <r>     7.8779     4.7155    32.1612 </r>
       <r>     7.9756     5.2232    32.6714 </r>
       <r>     8.0733     6.5506    33.3113 </r>
       <r>     8.1710     7.9024    34.0832 </r>
       <r>     8.2687     8.2162    34.8858 </r>
       <r>     8.3663     7.4142    35.6100 </r>
       <r>     8.4640     6.1641    36.2121 </r>
       <r>     8.5617     5.1623    36.7164 </r>
       <r>     8.6594     4.5885    37.1646 </r>
       <r>     8.7571     4.4318    37.5975 </r>
       <r>     8.8547     5.1083    38.0964 </r>
       <r>     8.9524     6.2078    38.7028 </r>
       <r>     9.0501     6.6199    39.3494 </r>
       <r>     9.1478     6.2371    39.9587 </r>
       <r>     9.2455     5.5329    40.4991 </r>
       <r>     9.3431     4.7346    40.9616 </r>
       <r>     9.4408     3.9734    41.3497 </r>
       <r>     9.5385     3.3685    41.6788 </r>
       <r>     9.6362     3.3652    42.0075 </r>
       <r>     9.7339     3.7579    42.3745 </r>
       <r>     9.8315     3.1671    42.6839 </r>
       <r>     9.9292     1.6267    42.8428 </r>
       <r>    10.0269     0.8060    42.9215 </r>
       <r>    10.1246     1.0812    43.0271 </r>
       <r>    10.2223     1.2985    43.1540 </r>
       <r>    10.3199     0.9715    43.2489 </r>
       <r>    10.4176     0.7816    43.3252 </r>
       <r>    10.5153     0.9725    43.4202 </r>
       <r>    10.6130     0.9922    43.5171 </r>
       <r>    10.7107     0.8171    43.5970 </r>
       <r>    10.8083     0.9531    43.6901 </r>
       <r>    10.9060     1.3435    43.8213 </r>
       <r>    11.0037     1.6232    43.9798 </r>
       <r>    11.1014     1.6517    44.1412 </r>
       <r>    11.1991     1.1991    44.2583 </r>
       <r>    11.2967     0.5324    44.3103 </r>
       <r>    11.3944     0.4488    44.3542 </r>
       <r>    11.4921     0.8802    44.4401 </r>
       <r>    11.5898     1.0027    44.5381 </r>
       <r>    11.6875     0.7361    44.6100 </r>
       <r>    11.7851     0.7077    44.6791 </r>
       <r>    11.8828     0.9363    44.7706 </r>
       <r>    11.9805     0.9434    44.8627 </r>
       <r>    12.0782     0.7147    44.9325 </r>
       <r>    12.1759     0.5452    44.9858 </r>
       <r>    12.2735     0.4304    45.0278 </r>
       <r>    12.3712     0.3303    45.0601 </r>
       <r>    12.4689     0.4639    45.1054 </r>
       <r>    12.5666     0.9204    45.1953 </r>
       <r>    12.6643     1.4895    45.3408 </r>
       <r>    12.7619     1.7306    45.5098 </r>
       <r>    12.8596     1.5559    45.6618 </r>
       <r>    12.9573     1.3628    45.7949 </r>
       <r>    13.0550     1.2437    45.9164 </r>
       <r>    13.1527     1.0396    46.0180 </r>
       <r>    13.2503     0.7874    46.0949 </r>
       <r>    13.3480     0.7137    46.1646 </r>
       <r>    13.4457     0.8740    46.2500 </r>
       <r>    13.5434     0.9696    46.3447 </r>
       <r>    13.6411     1.0115    46.4435 </r>
       <r>    13.7387     1.5255    46.5925 </r>
       <r>    13.8364     2.1795    46.8054 </r>
       <r>    13.9341     2.0644    47.0070 </r>
       <r>    14.0318     1.4099    47.1448 </r>
       <r>    14.1295     0.7402    47.2171 </r>
       <r>    14.2271     0.1962    47.2362 </r>
       <r>    14.3248     0.0305    47.2392 </r>
       <r>    14.4225     0.3065    47.2691 </r>
       <r>    14.5202     0.6583    47.3334 </r>
       <r>    14.6179     0.6259    47.3946 </r>
       <r>    14.7155     0.2686    47.4208 </r>
       <r>    14.8132     0.0962    47.4302 </r>
       <r>    14.9109     0.3067    47.4602 </r>
       <r>    15.0086     0.6752    47.5261 </r>
       <r>    15.1063     1.0921    47.6328 </r>
       <r>    15.2039     1.4264    47.7721 </r>
       <r>    15.3016     1.3667    47.9056 </r>
       <r>    15.3993     1.2341    48.0262 </r>
       <r>    15.4970     1.6296    48.1853 </r>
       <r>    15.5947     2.1313    48.3935 </r>
       <r>    15.6923     2.0572    48.5945 </r>
       <r>    15.7900     1.7022    48.7607 </r>
       <r>    15.8877     1.3151    48.8892 </r>
       <r>    15.9854     0.9162    48.9787 </r>
       <r>    16.0831     1.0218    49.0785 </r>
       <r>    16.1807     1.6721    49.2418 </r>
       <r>    16.2784     1.9039    49.4278 </r>
       <r>    16.3761     1.2051    49.5455 </r>
       <r>    16.4738     0.2931    49.5741 </r>
       <r>    16.5715    -0.1018    49.5642 </r>
       <r>    16.6691     0.1454    49.5784 </r>
       <r>    16.7668     0.9980    49.6759 </r>
       <r>    16.8645     1.9917    49.8704 </r>
       <r>    16.9622     2.2848    50.0936 </r>
       <r>    17.0599     1.7354    50.2631 </r>
       <r>    17.1575     0.8709    50.3482 </r>
       <r>    17.2552     0.2085    50.3686 </r>
       <r>    17.3529     0.1455    50.3828 </r>
       <r>    17.4506     0.6761    50.4488 </r>
       <r>    17.5483     1.2452    50.5704 </r>
       <r>    17.6459     1.4107    50.7082 </r>
       <r>    17.7436     1.4643    50.8513 </r>
       <r>    17.8413     2.0587    51.0524 </r>
       <r>    17.9390     2.9457    51.3401 </r>
       <r>    18.0367     2.8319    51.6167 </r>
       <r>    18.1343     1.5938    51.7724 </r>
       <r>    18.2320     0.5595    51.8270 </r>
       <r>    18.3297     0.4067    51.8668 </r>
       <r>    18.4274     0.7244    51.9375 </r>
       <r>    18.5251     1.1569    52.0505 </r>
       <r>    18.6227     1.6247    52.2092 </r>
       <r>    18.7204     1.8053    52.3856 </r>
       <r>    18.8181     1.6546    52.5472 </r>
       <r>    18.9158     1.5890    52.7024 </r>
       <r>    19.0135     1.5019    52.8491 </r>
       <r>    19.1111     0.9998    52.9468 </r>
       <r>    19.2088     0.4366    52.9894 </r>
       <r>    19.3065     0.4758    53.0359 </r>
       <r>    19.4042     1.0659    53.1400 </r>
       <r>    19.5019     1.5122    53.2877 </r>
       <r>    19.5995     1.4016    53.4246 </r>
       <r>    19.6972     1.1526    53.5372 </r>
       <r>    19.7949     1.4154    53.6755 </r>
       <r>    19.8926     2.0615    53.8769 </r>
       <r>    19.9903     2.5460    54.1255 </r>
       <r>    20.0879     2.6587    54.3852 </r>
       <r>    20.1856     2.2755    54.6075 </r>
       <r>    20.2833     1.6580    54.7695 </r>
       <r>    20.3810     1.6197    54.9277 </r>
       <r>    20.4787     2.0313    55.1261 </r>
       <r>    20.5763     1.9224    55.3139 </r>
       <r>    20.6740     1.2873    55.4396 </r>
       <r>    20.7717     0.7205    55.5100 </r>
       <r>    20.8694     0.4716    55.5561 </r>
       <r>    20.9671     0.7899    55.6332 </r>
       <r>    21.0647     1.6315    55.7926 </r>
       <r>    21.1624     2.2474    56.0121 </r>
       <r>    21.2601     2.0700    56.2143 </r>
       <r>    21.3578     1.6090    56.3715 </r>
       <r>    21.4555     1.7443    56.5419 </r>
       <r>    21.5531     2.3967    56.7760 </r>
       <r>    21.6508     2.7075    57.0405 </r>
       <r>    21.7485     2.3714    57.2721 </r>
       <r>    21.8462     1.8650    57.4543 </r>
       <r>    21.9439     1.5589    57.6065 </r>
       <r>    22.0415     1.4594    57.7491 </r>
       <r>    22.1392     1.5858    57.9040 </r>
       <r>    22.2369     1.7965    58.0795 </r>
       <r>    22.3346     1.8495    58.2601 </r>
       <r>    22.4323     1.6998    58.4262 </r>
       <r>    22.5299     1.2654    58.5498 </r>
       <r>    22.6276     0.7988    58.6278 </r>
       <r>    22.7253     0.7709    58.7031 </r>
       <r>    22.8230     1.1323    58.8137 </r>
       <r>    22.9207     1.4991    58.9601 </r>
       <r>    23.0183     1.4760    59.1043 </r>
       <r>    23.1160     0.9702    59.1991 </r>
       <r>    23.2137     0.4417    59.2422 </r>
       <r>    23.3114     0.3229    59.2738 </r>
       <r>    23.4091     0.4227    59.3151 </r>
       <r>    23.5067     0.3523    59.3495 </r>
       <r>    23.6044     0.1358    59.3627 </r>
       <r>    23.7021     0.0005    59.3628 </r>
       <r>    23.7998    -0.0196    59.3609 </r>
       <r>    23.8975    -0.0081    59.3601 </r>
       <r>    23.9951    -0.0057    59.3595 </r>
       <r>    24.0928    -0.0191    59.3577 </r>
       <r>    24.1905    -0.0350    59.3542 </r>
       <r>    24.2882     0.0358    59.3577 </r>
       <r>    24.3859     0.3069    59.3877 </r>
       <r>    24.4835     0.7211    59.4582 </r>
       <r>    24.5812     1.0723    59.5629 </r>
       <r>    24.6789     1.0948    59.6698 </r>
       <r>    24.7766     0.6717    59.7355 </r>
       <r>    24.8743     0.1677    59.7518 </r>
       <r>    24.9719    -0.0591    59.7461 </r>
       <r>    25.0696    -0.0784    59.7384 </r>
       <r>    25.1673     0.0483    59.7431 </r>
       <r>    25.2650     0.4294    59.7851 </r>
       <r>    25.3627     0.8716    59.8702 </r>
       <r>    25.4603     0.8824    59.9564 </r>
       <r>    25.5580     0.4493    60.0003 </r>
       <r>    25.6557     0.0676    60.0069 </r>
       <r>    25.7534    -0.0407    60.0029 </r>
       <r>    25.8511    -0.0237    60.0006 </r>
       <r>    25.9487    -0.0054    60.0001 </r>
       <r>    26.0464    -0.0007    60.0000 </r>
       <r>    26.1441    -0.0000    60.0000 </r>
       <r>    26.2418    -0.0000    60.0000 </r>
       <r>    26.3395    -0.0000    60.0000 </r>
       <r>    26.4371    -0.0000    60.0000 </r>
       <r>    26.5348    -0.0000    60.0000 </r>
       <r>    26.6325    -0.0000    60.0000 </r>
       <r>    26.7302    -0.0000    60.0000 </r>
       <r>    26.8279     0.0000    60.0000 </r>
       <r>    26.9255     0.0000    60.0000 </r>
       <r>    27.0232     0.0000    60.0000 </r>
       <r>    27.1209     0.0000    60.0000 </r>
       <r>    27.2186     0.0000    60.0000 </r>
       <r>    27.3163     0.0000    60.0000 </r>
       <r>    27.4139     0.0000    60.0000 </r>
      </set>
     </set>
    </array>
   </total>
  </dos>
 </calculation>
 <structure name="finalpos" >
  <crystal>
   <varray name="basis" >
    <v>       3.86600000       0.00000000       0.00000000 </v>
    <v>       0.00000000       3.86600000       0.00000000 </v>
    <v>       0.00000000       0.00000000       3.86600000 </v>
   </varray>
   <i name="volume">     57.78106590 </i>
   <varray name="rec_basis" >
    <v>       0.25866529       0.00000000       0.00000000 </v>
    <v>       0.00000000       0.25866529       0.00000000 </v>
    <v>       0.00000000       0.00000000       0.25866529 </v>
   </varray>
  </crystal>
  <varray name="positions" >
   <v>       0.00000000       0.00000000       0.00000000 </v>
   <v>       0.50000000       0.50000000       0.00000000 </v>
   <v>       0.50000000       0.00000000       0.50000000 </v>
   <v>       0.00000000       0.50000000       0.50000000 </v>
  </varray>
 </structure>
</modeling>
