 vasp.6.2.0 18Jan21 (build Mar 17 2021 09:06:54) complex                        
  
 POSCAR found type information on POSCAR PdIrPtCu
 POSCAR found :  4 types and       4 ions
 LDA part: xc-table for Pade appr. of Perdew
 found WAVECAR, reading the header
 POSCAR, INCAR and KPOINTS ok, starting setup
 FFT: planning ...
 reading WAVECAR
 the WAVECAR file was read successfully
 charge-density read from file: unknown                                 
 entering main loop
       N       E                     dE             d eps       ncg     rms          rms(c)
DAV:   1    -0.224662332552E+02   -0.22466E+02   -0.58914E-03  2008   0.698E-01    0.129E-01
DAV:   2    -0.224391384495E+02    0.27095E-01   -0.92026E-03  1996   0.102E+00    0.205E-01
DAV:   3    -0.224385106508E+02    0.62780E-03   -0.12222E-03  2190   0.694E-01    0.469E-02
DAV:   4    -0.224385076553E+02    0.29955E-05   -0.71297E-05  2342   0.112E-01    0.389E-02
DAV:   5    -0.224385025767E+02    0.50786E-05   -0.10220E-05  1890   0.745E-02    0.290E-02
DAV:   6    -0.224385025239E+02    0.52804E-07   -0.10597E-06   960   0.134E-02
   1 F= -.22438503E+02 E0= -.22437113E+02  d E =-.416803E-02
 writing wavefunctions
