unknown system                          
   1.00000000000000     
     2.376600    0.000000    0.000000
    -1.188300    2.058196    0.000000
     0.000000    0.000000    4.056540
   Fe
     2
Direct
  0.000000  0.000000  0.000000
  0.333333  0.666667  0.500000
 
   20   20   36
 0.16650864625E+03 0.15744557727E+03 0.13315482728E+03 0.10075163336E+03 0.68142689122E+02
 0.41228579135E+02 0.22881860849E+02 0.13092813935E+02 0.95014301115E+01 0.84703378994E+01
 0.81326544363E+01 0.84707732766E+01 0.95017762151E+01 0.13092679260E+02 0.22881453425E+02
 0.41228405369E+02 0.68142918657E+02 0.10075195663E+03 0.13315492346E+03 0.15744550425E+03
 0.15745355133E+03 0.15744524469E+03 0.14081075377E+03 0.11267065179E+03 0.80619053913E+02
 0.51525639515E+02 0.29679497935E+02 0.16431243617E+02 0.10517651010E+02 0.87696268954E+01
 0.81183610901E+01 0.81176471948E+01 0.87688652504E+01 0.10518410944E+02 0.16431984213E+02
 0.29677833335E+02 0.51523858299E+02 0.80624057744E+02 0.11268581854E+03 0.14082903963E+03
 0.13316686836E+03 0.14078495721E+03 0.13315488483E+03 0.11267097431E+03 0.85253280980E+02
 0.57607985925E+02 0.34883526568E+02 0.19641027180E+02 0.11793242820E+02 0.90502613819E+01
 0.81359922637E+01 0.78222845705E+01 0.81342971551E+01 0.90498328100E+01 0.11794660665E+02
 0.19640611361E+02 0.34879032795E+02 0.57604099407E+02 0.85257657806E+02 0.11268410358E+03
 0.10074673131E+03 0.11259032038E+03 0.11259218271E+03 0.10075225318E+03 0.80618989397E+02
 0.57607722163E+02 0.36833034935E+02 0.21609919681E+02 0.12883377768E+02 0.93394989500E+01
 0.81742034430E+01 0.76136261989E+01 0.76130852511E+01 0.81735873125E+01 0.93402512789E+01
 0.12884804283E+02 0.21609204966E+02 0.36828106254E+02 0.57599562684E+02 0.80610785344E+02
 0.68126280345E+02 0.80503151394E+02 0.85099386826E+02 0.80516375766E+02 0.68142756032E+02
 0.51525113501E+02 0.34883602248E+02 0.21610102274E+02 0.13313036840E+02 0.95424294346E+01
 0.82123311449E+01 0.74921973610E+01 0.72539426253E+01 0.74926009097E+01 0.82125667301E+01
 0.95432388884E+01 0.13316110386E+02 0.21614430288E+02 0.34883726208E+02 0.51515811220E+02
 0.41226890636E+02 0.51442362911E+02 0.57458407576E+02 0.57462876290E+02 0.51450264704E+02
 0.41228290191E+02 0.29679466978E+02 0.19641419708E+02 0.12883287264E+02 0.95423249925E+01
 0.82283352219E+01 0.74399211906E+01 0.70540513743E+01 0.70547251461E+01 0.74402909307E+01
 0.82267765335E+01 0.95417241559E+01 0.12888514872E+02 0.19651888139E+02 0.29687395146E+02
 0.22893398324E+02 0.29672880549E+02 0.34828169069E+02 0.36751058123E+02 0.34823528280E+02
 0.29663466966E+02 0.22881658529E+02 0.16431526961E+02 0.11793235628E+02 0.93392411757E+01
 0.82124490559E+01 0.74399722539E+01 0.69910964183E+01 0.68501504295E+01 0.69921946718E+01
 0.74389207986E+01 0.82078733173E+01 0.93348813566E+01 0.11794660665E+02 0.16440175892E+02
 0.13091946392E+02 0.16474790255E+02 0.19692128412E+02 0.21647685929E+02 0.21642463568E+02
 0.19680870182E+02 0.16466656329E+02 0.13092793708E+02 0.10517809336E+02 0.90500002534E+01
 0.81742528515E+01 0.74923521796E+01 0.70538824765E+01 0.68501135637E+01 0.68510278981E+01
 0.70555070105E+01 0.74918680416E+01 0.81690948588E+01 0.90408036330E+01 0.10509630997E+02
 0.94884943202E+01 0.10566825264E+02 0.11893245370E+02 0.13008972668E+02 0.13442933970E+02
 0.13005300466E+02 0.11893177132E+02 0.10575388566E+02 0.95015953397E+01 0.87695352954E+01
 0.81358614049E+01 0.76138413659E+01 0.72538366339E+01 0.70546153447E+01 0.69924334136E+01
 0.70555661068E+01 0.72572990428E+01 0.76183105729E+01 0.81356341504E+01 0.87608181720E+01
 0.84701360390E+01 0.88225343887E+01 0.91578505672E+01 0.94937675315E+01 0.97233232079E+01
 0.97249119120E+01 0.94992615551E+01 0.91668697000E+01 0.88303703150E+01 0.84704853431E+01
 0.81181777933E+01 0.78224262984E+01 0.76132041283E+01 0.74924478101E+01 0.74404648911E+01
 0.74390436957E+01 0.74915601234E+01 0.76182142831E+01 0.78326838532E+01 0.81263315107E+01
 0.81445993359E+01 0.81891761444E+01 0.82581766972E+01 0.83416892185E+01 0.84147218938E+01
 0.84460025517E+01 0.84192887137E+01 0.83461655922E+01 0.82570514145E+01 0.81807242813E+01
 0.81326281811E+01 0.81175851472E+01 0.81345244097E+01 0.81734753919E+01 0.82124490559E+01
 0.82268650808E+01 0.82076377322E+01 0.81689335297E+01 0.81359922637E+01 0.81264527600E+01
 0.84697580903E+01 0.81890607866E+01 0.79575229321E+01 0.77994182546E+01 0.77163609709E+01
 0.76876477578E+01 0.76888912392E+01 0.77168713817E+01 0.77941682355E+01 0.79473984848E+01
 0.81813486819E+01 0.84705427716E+01 0.87689554863E+01 0.90498471944E+01 0.93399655852E+01
 0.95432599160E+01 0.95418496255E+01 0.93348534373E+01 0.90410791459E+01 0.87610000080E+01
 0.94882072260E+01 0.88223782000E+01 0.82585364121E+01 0.77994917476E+01 0.74886041267E+01
 0.73215724151E+01 0.72710778854E+01 0.73209387901E+01 0.74853112526E+01 0.77947480446E+01
 0.82583294004E+01 0.88310075526E+01 0.95016543490E+01 0.10518542205E+02 0.11794513614E+02
 0.12884801996E+02 0.13316452267E+02 0.12888603090E+02 0.11794520806E+02 0.10509603932E+02
 0.13092100353E+02 0.10566897245E+02 0.91581172568E+01 0.83417673235E+01 0.77160572526E+01
 0.73215672322E+01 0.71410475903E+01 0.71402619662E+01 0.73202252081E+01 0.77167376088E+01
 0.83468345827E+01 0.91669460444E+01 0.10574674984E+02 0.13092812994E+02 0.16432095942E+02
 0.19640618558E+02 0.21609388692E+02 0.21614431420E+02 0.19651502807E+02 0.16440004278E+02
 0.22893805748E+02 0.16474988653E+02 0.11893085472E+02 0.94936662313E+01 0.84145066243E+01
 0.76876838126E+01 0.72713019843E+01 0.71401966884E+01 0.72697998995E+01 0.76884487500E+01
 0.84192887137E+01 0.94984869976E+01 0.11891840137E+02 0.16466060781E+02 0.22881658529E+02
 0.29677814926E+02 0.34878908835E+02 0.36827946933E+02 0.34883526568E+02 0.29687407694E+02
 0.41227090856E+02 0.29672833207E+02 0.19691732117E+02 0.13008816575E+02 0.97234784043E+01
 0.84461141899E+01 0.76890347714E+01 0.73207925355E+01 0.73200841364E+01 0.76885562274E+01
 0.84475354219E+01 0.97240608709E+01 0.13003812187E+02 0.19681625593E+02 0.29665099846E+02
 0.41228316645E+02 0.51523625222E+02 0.57603985120E+02 0.57599712158E+02 0.51516104158E+02
 0.68126107717E+02 0.51441988860E+02 0.34827985795E+02 0.21647789944E+02 0.13443281657E+02
 0.97249666830E+01 0.84191431300E+01 0.77167708346E+01 0.74852456069E+01 0.77169407800E+01
 0.84193583995E+01 0.97239604455E+01 0.13439634459E+02 0.21643196437E+02 0.34828164786E+02
 0.51451779437E+02 0.68142812939E+02 0.80624214718E+02 0.85257917486E+02 0.80611006835E+02
 0.10074645184E+03 0.80502881741E+02 0.57458590261E+02 0.36751443858E+02 0.21642608417E+02
 0.13005123328E+02 0.94989850775E+01 0.83462352677E+01 0.77943102214E+01 0.77948165374E+01
 0.83468261533E+01 0.94983118201E+01 0.13003791142E+02 0.21643237271E+02 0.36756095048E+02
 0.57466543083E+02 0.80511194240E+02 0.10075229698E+03 0.11268591788E+03 0.11268388040E+03
 0.13316677218E+03 0.11259058849E+03 0.85099665635E+02 0.57463118908E+02 0.34823349289E+02
 0.19680533666E+02 0.11893085472E+02 0.91671138479E+01 0.82572584261E+01 0.79472329499E+01
 0.82581766972E+01 0.91669235027E+01 0.11891908374E+02 0.19681685371E+02 0.34828169069E+02
 0.57466603017E+02 0.85094693413E+02 0.11257724722E+03 0.13315488483E+03 0.14082851102E+03
 0.15745360354E+03 0.14078558643E+03 0.11259227238E+03 0.80516089545E+02 0.51450015137E+02
 0.29663318650E+02 0.16466825055E+02 0.10575637104E+02 0.88304044777E+01 0.81804546998E+01
 0.81811944582E+01 0.88311979040E+01 0.10574851542E+02 0.16466031109E+02 0.29664998871E+02
 0.51451903921E+02 0.80511177672E+02 0.11257706878E+03 0.14076716889E+03 0.15744522389E+03
 0.15827020906E+03 0.14966641831E+03 0.12658935815E+03 0.95771364459E+02 0.64739761237E+02
 0.39160811444E+02 0.21809701946E+02 0.12649872919E+02 0.93415415962E+01 0.83541776530E+01
 0.80250814538E+01 0.83545983635E+01 0.93418752529E+01 0.12649740695E+02 0.21809305459E+02
 0.39160641311E+02 0.64739982185E+02 0.95771677129E+02 0.12658945175E+03 0.14966634818E+03
 0.14967384044E+03 0.14966609421E+03 0.13386309514E+03 0.10710490416E+03 0.76602096147E+02
 0.48925516908E+02 0.28209177816E+02 0.15744703914E+02 0.10261337615E+02 0.86390233845E+01
 0.80036617469E+01 0.80029728880E+01 0.86382872785E+01 0.10262090228E+02 0.15745511255E+02
 0.28207736545E+02 0.48923889038E+02 0.76606725774E+02 0.10711900308E+03 0.13388013154E+03
 0.12660057758E+03 0.13384311449E+03 0.12658941326E+03 0.10710521809E+03 0.81008810974E+02
 0.54699639027E+02 0.33122743460E+02 0.18738645553E+02 0.11422188408E+02 0.88992882691E+01
 0.80151126404E+01 0.77106709953E+01 0.80134710491E+01 0.88988530388E+01 0.11423563908E+02
 0.18738361804E+02 0.33118614201E+02 0.54695991796E+02 0.81012828963E+02 0.10711741856E+03
 0.95766832717E+02 0.10704098967E+03 0.10704271899E+03 0.95771967764E+02 0.76602034429E+02
 0.54699382522E+02 0.34965781282E+02 0.20581196481E+02 0.12420890568E+02 0.91564650186E+01
 0.80483555462E+01 0.75049248672E+01 0.75044065099E+01 0.80477447057E+01 0.91571195639E+01
 0.12422172753E+02 0.20580486749E+02 0.34961152911E+02 0.54691759433E+02 0.76594389103E+02
 0.64724533315E+02 0.76512514002E+02 0.80890649304E+02 0.76524807747E+02 0.64739827396E+02
 0.48925005417E+02 0.33122816221E+02 0.20581374046E+02 0.12815848121E+02 0.93363224548E+01
 0.80831324708E+01 0.73853218489E+01 0.71555471202E+01 0.73857357489E+01 0.80833610783E+01
 0.93370083416E+01 0.12818599346E+02 0.20585331161E+02 0.33122937240E+02 0.48916396779E+02
 0.39159273794E+02 0.48871930994E+02 0.54598509132E+02 0.54602676049E+02 0.48879283452E+02
 0.39160530585E+02 0.28209147100E+02 0.18739027375E+02 0.12420803588E+02 0.93362210240E+01
 0.80979316609E+01 0.73337914356E+01 0.69620236464E+01 0.69626930247E+01 0.73342160709E+01
 0.80965189088E+01 0.93356408245E+01 0.12425649647E+02 0.18748806096E+02 0.28216596321E+02
 0.21820431289E+02 0.28229167466E+02 0.33117102979E+02 0.34942697890E+02 0.33112828353E+02
 0.28220449751E+02 0.21809505464E+02 0.15744979764E+02 0.11422182162E+02 0.91562143338E+01
 0.80832458914E+01 0.73338406498E+01 0.69011660320E+01 0.67656973376E+01 0.69022276690E+01
 0.73329166144E+01 0.80790380393E+01 0.91522070913E+01 0.11423563908E+02 0.15753071575E+02
 0.12649013994E+02 0.15810309696E+02 0.18833301074E+02 0.20676280128E+02 0.20671436265E+02
 0.18822870814E+02 0.15802804536E+02 0.12649853545E+02 0.10261491124E+02 0.88990336196E+01
 0.80484024246E+01 0.73854718615E+01 0.69618602103E+01 0.67656619713E+01 0.67664920992E+01
 0.69633338408E+01 0.73850090478E+01 0.80436269949E+01 0.88905029644E+01 0.10253871268E+02
 0.93294558163E+01 0.10329495199E+02 0.11558901862E+02 0.12596760625E+02 0.13001301856E+02
 0.12593320002E+02 0.11558835033E+02 0.10337504650E+02 0.93417012139E+01 0.86389331961E+01
 0.80149854289E+01 0.75051347134E+01 0.71554450153E+01 0.69625869113E+01 0.69024596384E+01
 0.69633911635E+01 0.71585765528E+01 0.75092509219E+01 0.80147646555E+01 0.86307950195E+01
 0.83539862202E+01 0.87084249837E+01 0.90386679301E+01 0.93545185758E+01 0.95676449750E+01
 0.95690859031E+01 0.93595542740E+01 0.90470090443E+01 0.87157116353E+01 0.83543205868E+01
 0.80034845588E+01 0.77108105145E+01 0.75045225700E+01 0.73855864192E+01 0.73343847326E+01
 0.73330360618E+01 0.73847097056E+01 0.75091571358E+01 0.77203599141E+01 0.80110772904E+01
 0.80362072841E+01 0.80886431847E+01 0.81653485652E+01 0.82549286697E+01 0.83315016945E+01
 0.83637526058E+01 0.83357047967E+01 0.82590324428E+01 0.81642584731E+01 0.80807617658E+01
 0.80250569419E+01 0.80029138651E+01 0.80136918225E+01 0.80476342739E+01 0.80832458914E+01
 0.80966055934E+01 0.80788094318E+01 0.80434696846E+01 0.80151126404E+01 0.80111954556E+01
 0.83536189086E+01 0.80885305858E+01 0.78721024273E+01 0.77263411411E+01 0.76514157080E+01
 0.76264592624E+01 0.76276362292E+01 0.76519268551E+01 0.77214714581E+01 0.78626772082E+01
 0.80813619598E+01 0.83543739858E+01 0.86383744518E+01 0.88988656629E+01 0.91568411388E+01
 0.93370297967E+01 0.93357637105E+01 0.91521793510E+01 0.88907702381E+01 0.86309723812E+01
 0.93291771004E+01 0.87082722903E+01 0.81656980703E+01 0.77264132044E+01 0.74303422729E+01
 0.72719504555E+01 0.72242397515E+01 0.72714523675E+01 0.74273737410E+01 0.77220302024E+01
 0.81654971386E+01 0.87163237787E+01 0.93417561547E+01 0.10262217825E+02 0.11423420828E+02
 0.12422171105E+02 0.12818932494E+02 0.12425734980E+02 0.11423427073E+02 0.10253845356E+02
 0.12649164272E+02 0.10329564758E+02 0.90389269285E+01 0.82550058094E+01 0.76511211286E+01
 0.72719449699E+01 0.70988655924E+01 0.70981588027E+01 0.72707437213E+01 0.76517769532E+01
 0.82596996393E+01 0.90471055471E+01 0.10336796004E+02 0.12649871600E+02 0.15745620349E+02
 0.18738368504E+02 0.20580665400E+02 0.20585332247E+02 0.18748430974E+02 0.15752904819E+02
 0.21820827776E+02 0.15810502730E+02 0.11558746185E+02 0.93544207642E+01 0.83312930102E+01
 0.76264933612E+01 0.72244566126E+01 0.70980953786E+01 0.72230010860E+01 0.76271390525E+01
 0.83357047967E+01 0.93588805630E+01 0.11557541427E+02 0.15802139402E+02 0.21809505464E+02
 0.28207718015E+02 0.33118493182E+02 0.34960998437E+02 0.33122743460E+02 0.28216608508E+02
 0.39159468271E+02 0.28229121622E+02 0.18832915646E+02 0.12596608659E+02 0.95677957843E+01
 0.83638603980E+01 0.76277749663E+01 0.72713104434E+01 0.72706072828E+01 0.76272436908E+01
 0.83651372282E+01 0.95683548737E+01 0.12591976830E+02 0.18823487286E+02 0.28221860984E+02
 0.39160554930E+02 0.48923662244E+02 0.54695881283E+02 0.54691905424E+02 0.48916681476E+02
 0.64724364887E+02 0.48871567305E+02 0.33116924796E+02 0.20676380790E+02 0.13001639422E+02
 0.95691389570E+01 0.83355635296E+01 0.76518297748E+01 0.74273104190E+01 0.76519744524E+01
 0.83357722140E+01 0.95682571183E+01 0.12998324943E+02 0.20672162966E+02 0.33117098872E+02
 0.48880650969E+02 0.64739879916E+02 0.76606878841E+02 0.81013081494E+02 0.76594603888E+02
 0.95766560506E+02 0.76512252144E+02 0.54598687086E+02 0.34943072797E+02 0.20671576838E+02
 0.12593147880E+02 0.93592862842E+01 0.82591011156E+01 0.77216092520E+01 0.77220959330E+01
 0.82596911725E+01 0.93587103849E+01 0.12591956673E+02 0.20672202876E+02 0.34947433782E+02
 0.54606112484E+02 0.76520003794E+02 0.95772008224E+02 0.10711909882E+03 0.10711720037E+03
 0.12660048398E+03 0.10704125151E+03 0.80890921218E+02 0.54602911966E+02 0.33112654277E+02
 0.18822543640E+02 0.11558746185E+02 0.90472471150E+01 0.81644594048E+01 0.78625148502E+01
 0.81653485652E+01 0.90470846195E+01 0.11557608256E+02 0.18823545540E+02 0.33117102979E+02
 0.54606170448E+02 0.80886326265E+02 0.10702884575E+03 0.12658941326E+03 0.13387961623E+03
 0.14967389134E+03 0.13384372782E+03 0.10704280731E+03 0.76524529127E+02 0.48879040335E+02
 0.28220305419E+02 0.15802968132E+02 0.10337746434E+02 0.87157453203E+01 0.80804988115E+01
 0.80812116044E+01 0.87165101571E+01 0.10336968229E+02 0.15802109965E+02 0.28221762496E+02
 0.48880771541E+02 0.76519987032E+02 0.10702867222E+03 0.13382656468E+03 0.14966607498E+03
 0.13597769853E+03 0.12860140765E+03 0.10877944089E+03 0.82241460673E+02 0.55505277637E+02
 0.33587384933E+02 0.18965267082E+02 0.11505181091E+02 0.89235843454E+01 0.80365625707E+01
 0.77329437362E+01 0.80369426938E+01 0.89238838018E+01 0.11505056394E+02 0.18964902047E+02
 0.33587226091E+02 0.55505475656E+02 0.82241744204E+02 0.10877952706E+03 0.12860134520E+03
 0.12860735774E+03 0.12860110808E+03 0.11502590165E+03 0.91989414106E+02 0.65690430125E+02
 0.41890214245E+02 0.24275232939E+02 0.13946478025E+02 0.96022985926E+01 0.82780852118E+01
 0.76902747325E+01 0.76896578512E+01 0.82774228405E+01 0.96030212447E+01 0.13947436549E+02
 0.24274362091E+02 0.41888987419E+02 0.65694067918E+02 0.92000671036E+02 0.11503960485E+03
 0.10878846716E+03 0.11502228526E+03 0.10877948925E+03 0.91989703373E+02 0.69476978392E+02
 0.46818564228E+02 0.28391619478E+02 0.16355252071E+02 0.10464184176E+02 0.84931790302E+01
 0.76825642134E+01 0.74049635324E+01 0.76810782671E+01 0.84927330051E+01 0.10465434371E+02
 0.16355298064E+02 0.28388450111E+02 0.46815560479E+02 0.69480050822E+02 0.91999431432E+02
 0.82237910717E+02 0.91971214522E+02 0.91972590657E+02 0.82242016539E+02 0.65690376325E+02
 0.46818328492E+02 0.29942156700E+02 0.17853604754E+02 0.11220619620E+02 0.86754536985E+01
 0.76998494052E+01 0.72057627803E+01 0.72053080727E+01 0.76992612554E+01 0.86758580279E+01
 0.11221527583E+02 0.17852918827E+02 0.29938338657E+02 0.46812141825E+02 0.65684221894E+02
 0.55493189219E+02 0.65673599305E+02 0.69457769042E+02 0.65683414951E+02 0.55505341438E+02
 0.41889744280E+02 0.28391683737E+02 0.17853767842E+02 0.11523015383E+02 0.87985278606E+01
 0.77236192921E+01 0.70896740128E+01 0.68836954649E+01 0.70901075583E+01 0.77238278490E+01
 0.87988996133E+01 0.11524931730E+02 0.17856752313E+02 0.28391796457E+02 0.41882974882E+02
 0.33586241172E+02 0.41918393036E+02 0.46851022834E+02 0.46854383069E+02 0.41924280670E+02
 0.33587127070E+02 0.24275202774E+02 0.16355603068E+02 0.11220542843E+02 0.87984351579E+01
 0.77344231326E+01 0.70392535849E+01 0.67066567728E+01 0.67073047085E+01 0.70398060094E+01
 0.77333906329E+01 0.87979146945E+01 0.11224376151E+02 0.16363535124E+02 0.24281359547E+02
 0.18973842137E+02 0.24368603682E+02 0.28522985566E+02 0.30081351196E+02 0.28519677252E+02
 0.24361731957E+02 0.18965087299E+02 0.13946732339E+02 0.10464180809E+02 0.86752235751E+01
 0.77237199319E+01 0.70392975048E+01 0.66511584695E+01 0.65305968236E+01 0.66521130439E+01
 0.70387004337E+01 0.77204815026E+01 0.86721451983E+01 0.10465434371E+02 0.13953328429E+02
 0.11504356267E+02 0.14073481709E+02 0.16570716926E+02 0.18107466811E+02 0.18103628321E+02
 0.16562483426E+02 0.14067638583E+02 0.11505164328E+02 0.96024384468E+01 0.84929431872E+01
 0.76998891219E+01 0.70898102026E+01 0.67065089655E+01 0.65305657061E+01 0.65311762936E+01
 0.67075895004E+01 0.70894074314E+01 0.76961278959E+01 0.84861809908E+01 0.95963085807E+01
 0.89137767221E+01 0.97241999390E+01 0.10704417586E+02 0.11537926369E+02 0.11864636574E+02
 0.11535108524E+02 0.10704354916E+02 0.97307226681E+01 0.89237279990E+01 0.82779991510E+01
 0.76824474358E+01 0.72059571955E+01 0.68836044360E+01 0.67072090924E+01 0.66523254588E+01
 0.67076416917E+01 0.68858748220E+01 0.72091415592E+01 0.76822452564E+01 0.82714103034E+01
 0.80364014627E+01 0.83951914410E+01 0.87243401792E+01 0.89997928094E+01 0.91752699965E+01
 0.91763258332E+01 0.90036246440E+01 0.87308852621E+01 0.84010136942E+01 0.80366924325E+01
 0.76901148348E+01 0.74050964261E+01 0.72054159644E+01 0.70899690984E+01 0.70399593928E+01
 0.70388098973E+01 0.70891327816E+01 0.72090550356E+01 0.74127569048E+01 0.76962116194E+01
 0.77418838266E+01 0.78169716823E+01 0.79154109865E+01 0.80219308623E+01 0.81083554763E+01
 0.81433249936E+01 0.81115992568E+01 0.80250555599E+01 0.79144254530E+01 0.78106156399E+01
 0.77329238610E+01 0.76896072627E+01 0.76812804465E+01 0.76991553360E+01 0.77237199319E+01
 0.77334718728E+01 0.77202729457E+01 0.76959822597E+01 0.76825642134E+01 0.76963209286E+01
 0.80360647416E+01 0.78168669900E+01 0.76443163321E+01 0.75343317291E+01 0.74831227271E+01
 0.74692426561E+01 0.74702372458E+01 0.74836267734E+01 0.75304726671E+01 0.76367576537E+01
 0.78111471280E+01 0.80367358346E+01 0.82775013219E+01 0.84927408894E+01 0.86756007473E+01
 0.87989222477E+01 0.87980300315E+01 0.86721180411E+01 0.84864247181E+01 0.82715748456E+01
 0.89135220908E+01 0.83950487112E+01 0.79157310028E+01 0.75343996158E+01 0.72817449862E+01
 0.71488344739E+01 0.71093753239E+01 0.71486770411E+01 0.72796192240E+01 0.75309704962E+01
 0.79155476171E+01 0.84015549254E+01 0.89237728241E+01 0.96031385737E+01 0.10465302973E+02
 0.11221527762E+02 0.11525239565E+02 0.11224453107E+02 0.10465306341E+02 0.95962860556E+01
 0.11504495926E+02 0.97242624412E+01 0.87245769064E+01 0.80220051083E+01 0.74828544613E+01
 0.71488281910E+01 0.69977486623E+01 0.69972468347E+01 0.71479918768E+01 0.74834394382E+01
 0.80257070652E+01 0.87310291953E+01 0.97300375037E+01 0.11505179291E+02 0.13947538160E+02
 0.16355303314E+02 0.17853082678E+02 0.17856753077E+02 0.16363189377E+02 0.13953175727E+02
 0.18974207172E+02 0.14073659272E+02 0.10704273970E+02 0.89997049730E+01 0.81081657810E+01
 0.74692712780E+01 0.71095714690E+01 0.69971887790E+01 0.71082531598E+01 0.74696141357E+01
 0.81115992568E+01 0.90032086939E+01 0.10703187927E+02 0.14066813175E+02 0.18965087299E+02
 0.24274343136E+02 0.28388337390E+02 0.29938197932E+02 0.28391619478E+02 0.24281370757E+02
 0.33586419202E+02 0.24368562148E+02 0.16570362775E+02 0.11537786322E+02 0.91754082577E+01
 0.81434218551E+01 0.74703622891E+01 0.71485476252E+01 0.71478687438E+01 0.74697105571E+01
 0.81443243827E+01 0.91759013343E+01 0.11534142794E+02 0.16562749029E+02 0.24362577031E+02
 0.33587146259E+02 0.41888778550E+02 0.46815460736E+02 0.46812277817E+02 0.41883235978E+02
 0.55493032956E+02 0.41918059135E+02 0.28522822044E+02 0.18107557924E+02 0.11864945114E+02
 0.91763739878E+01 0.81114703716E+01 0.74835396256E+01 0.72795625598E+01 0.74836205562E+01
 0.81116600669E+01 0.91758112277E+01 0.11862498973E+02 0.18104328448E+02 0.28522981842E+02
 0.41925265589E+02 0.55505383194E+02 0.65694209812E+02 0.69480282982E+02 0.65684417588E+02
 0.82237659450E+02 0.65673359726E+02 0.46851187058E+02 0.30081695015E+02 0.18103756701E+02
 0.11534950830E+02 0.90033809147E+01 0.80251211668E+01 0.75305983930E+01 0.75310283354E+01
 0.80256984261E+01 0.90030528010E+01 0.11534125147E+02 0.18104365716E+02 0.30085273075E+02
 0.46857199373E+02 0.65679613729E+02 0.82242048803E+02 0.92000756737E+02 0.91999227866E+02
 0.10878838098E+03 0.91971458043E+02 0.69458020825E+02 0.46854599694E+02 0.28519517453E+02
 0.16562183187E+02 0.10704273970E+02 0.87311056001E+01 0.79146088387E+01 0.76366046450E+01
 0.79154109865E+01 0.87310128061E+01 0.10703250597E+02 0.16562802941E+02 0.28522985566E+02
 0.46857251773E+02 0.69454422696E+02 0.91961543312E+02 0.10877948925E+03 0.11503912805E+03
 0.12860740482E+03 0.11502285259E+03 0.91972674729E+02 0.65683158122E+02 0.41924056307E+02
 0.24361599245E+02 0.14067787380E+02 0.97309447780E+01 0.84010458837E+01 0.78103719883E+01
 0.78110081687E+01 0.84017298447E+01 0.97301971115E+01 0.14066784410E+02 0.24362485853E+02
 0.41925375128E+02 0.65679596478E+02 0.91961383863E+02 0.11500903594E+03 0.12860109271E+03
 0.10564907720E+03 0.99911480900E+02 0.84464382587E+02 0.63750979757E+02 0.42947418770E+02
 0.26135049890E+02 0.15294889503E+02 0.10104186078E+02 0.83726768700E+01 0.75946750844E+01
 0.73315568110E+01 0.75949969786E+01 0.83729277695E+01 0.10104073837E+02 0.15294572580E+02
 0.26134910838E+02 0.42947586678E+02 0.63751222416E+02 0.84464457402E+02 0.99911428477E+02
 0.99915503430E+02 0.99911219250E+02 0.89324738518E+02 0.71330113568E+02 0.50805928172E+02
 0.32397671774E+02 0.19103981683E+02 0.11688745297E+02 0.87916971388E+01 0.77670655067E+01
 0.72558054482E+01 0.72552975308E+01 0.77665155378E+01 0.87923509258E+01 0.11689825923E+02
 0.19103786795E+02 0.32396948149E+02 0.50808284954E+02 0.71337665580E+02 0.89334073976E+02
 0.84470531880E+02 0.89344388735E+02 0.84464421297E+02 0.71330365152E+02 0.53734879904E+02
 0.36145618978E+02 0.22113302876E+02 0.13310382024E+02 0.92902376258E+01 0.79247602117E+01
 0.72160719171E+01 0.69795448478E+01 0.72148269656E+01 0.79243204744E+01 0.92912889813E+01
 0.13310795950E+02 0.22111355431E+02 0.36143472801E+02 0.53736746765E+02 0.71336869122E+02
 0.63748698594E+02 0.71375876905E+02 0.71376794670E+02 0.63751463195E+02 0.50805886071E+02
 0.36145414758E+02 0.23256423004E+02 0.14340222566E+02 0.97390170945E+01 0.80413091355E+01
 0.72051881441E+01 0.67857464527E+01 0.67853848062E+01 0.72046542242E+01 0.80414160548E+01
 0.97394654319E+01 0.14339597273E+02 0.23253692074E+02 0.36141125211E+02 0.50801686181E+02
 0.42939413338E+02 0.50889663898E+02 0.53852862537E+02 0.50896245581E+02 0.42947478361E+02
 0.32397264717E+02 0.22113353889E+02 0.14340363467E+02 0.99218914614E+01 0.81063031498E+01
 0.72089152760E+01 0.66705698691E+01 0.64990307861E+01 0.66710063621E+01 0.72090932347E+01
 0.81063070994E+01 0.99227846501E+01 0.14342121095E+02 0.22113454293E+02 0.32392873196E+02
 0.26134398507E+02 0.32538124386E+02 0.36361904536E+02 0.36364203542E+02 0.32542094826E+02
 0.26134826526E+02 0.19103951994E+02 0.13310685811E+02 0.97389560270E+01 0.81062239659E+01
 0.72123549898E+01 0.66191801632E+01 0.63422027369E+01 0.63427950392E+01 0.66198471162E+01
 0.72117947586E+01 0.81057947683E+01 0.97414769223E+01 0.13316179691E+02 0.19108374078E+02
 0.15300647058E+02 0.19298280786E+02 0.22432899589E+02 0.23618547880E+02 0.22430827752E+02
 0.19293798253E+02 0.15294735028E+02 0.11688966721E+02 0.92902389795E+01 0.80411109235E+01
 0.72089967667E+01 0.66192160752E+01 0.62930676556E+01 0.61928578724E+01 0.62938555018E+01
 0.66190107081E+01 0.72069943729E+01 0.80392163104E+01 0.92912889813E+01 0.11693576798E+02
 0.10103437256E+02 0.11901446375E+02 0.13693519253E+02 0.14813995572E+02 0.14811462100E+02
 0.13688130175E+02 0.11897737694E+02 0.10104173653E+02 0.87918166587E+01 0.79245536530E+01
 0.72052172551E+01 0.66706849542E+01 0.63420785936E+01 0.61928330648E+01 0.61931703768E+01
 0.63426707888E+01 0.66703697808E+01 0.72027669842E+01 0.79200856449E+01 0.87876393921E+01
 0.83658831472E+01 0.89906657141E+01 0.96779112995E+01 0.10256958590E+02 0.10484742079E+02
 0.10254970675E+02 0.96778553175E+01 0.89952150872E+01 0.83727966407E+01 0.77669860124E+01
 0.72159709302E+01 0.67859168901E+01 0.64989563832E+01 0.63427151750E+01 0.62940378000E+01
 0.63427150679E+01 0.65001595035E+01 0.67879086276E+01 0.72157971101E+01 0.77624405855E+01
 0.75945600847E+01 0.79545986549E+01 0.82912055795E+01 0.85514036084E+01 0.86967787537E+01
 0.86973555946E+01 0.85537108224E+01 0.82954332923E+01 0.79585051748E+01 0.75947847073E+01
 0.72556712152E+01 0.69796668179E+01 0.67854799962E+01 0.66708846417E+01 0.66199770461E+01
 0.66191047261E+01 0.66701329752E+01 0.67878333802E+01 0.69848531527E+01 0.72598093771E+01
 0.73376312888E+01 0.74455054219E+01 0.75736224810E+01 0.77022630329E+01 0.78010656649E+01
 0.78393353982E+01 0.78030835094E+01 0.77041468074E+01 0.75728035226E+01 0.74411575696E+01
 0.73315430205E+01 0.72552590852E+01 0.72150007857E+01 0.72045559098E+01 0.72089967667E+01
 0.72118674226E+01 0.72068164142E+01 0.72026395589E+01 0.72160719171E+01 0.72599051644E+01
 0.75942701322E+01 0.74454127821E+01 0.73379654185E+01 0.72800535633E+01 0.72630548049E+01
 0.72651202056E+01 0.72658621542E+01 0.72635243928E+01 0.72775073627E+01 0.73328551379E+01
 0.74415872857E+01 0.75948166490E+01 0.77665810602E+01 0.79243220239E+01 0.80411917987E+01
 0.81063313447E+01 0.81058981976E+01 0.80391902663E+01 0.79202937530E+01 0.77625856021E+01
 0.83656652778E+01 0.79544710418E+01 0.75738970911E+01 0.72801148680E+01 0.70920718535E+01
 0.69969272643E+01 0.69696726932E+01 0.69971572789E+01 0.70909871616E+01 0.72779123149E+01
 0.75737406369E+01 0.79589420688E+01 0.83728296708E+01 0.87924532401E+01 0.92911760938E+01
 0.97394683580E+01 0.99230532089E+01 0.97415409159E+01 0.92911747401E+01 0.87876221864E+01
 0.10103560578E+02 0.89907172419E+01 0.82914078814E+01 0.77023324681E+01 0.72628267882E+01
 0.69969199610E+01 0.68788499663E+01 0.68786015566E+01 0.69965317789E+01 0.72633038450E+01
 0.77047475436E+01 0.82956218984E+01 0.89945895872E+01 0.10104184735E+02 0.11689916298E+02
 0.13310798980E+02 0.14339737967E+02 0.14342120888E+02 0.13315878935E+02 0.11693445750E+02
 0.15300963981E+02 0.11901600133E+02 0.96777859884E+01 0.85513308160E+01 0.78009050970E+01
 0.72651408771E+01 0.69698375048E+01 0.68785517883E+01 0.69687355789E+01 0.72651298800E+01
 0.78030835094E+01 0.85536012505E+01 0.96768851730E+01 0.11896773790E+02 0.15294735028E+02
 0.19103766985E+02 0.22111255027E+02 0.23253571861E+02 0.22113302876E+02 0.19108383957E+02
 0.26134551536E+02 0.19298245826E+02 0.13693213024E+02 0.10256836903E+02 0.86968980109E+01
 0.78394158979E+01 0.72659665530E+01 0.69970471072E+01 0.69964289104E+01 0.72652136072E+01
 0.78398585159E+01 0.86972941347E+01 0.10254472321E+02 0.13687991947E+02 0.19293972530E+02
 0.26134840503E+02 0.32396766363E+02 0.36143389291E+02 0.36141245921E+02 0.32393098468E+02
 0.42939275935E+02 0.32537835975E+02 0.22432758532E+02 0.14814072366E+02 0.10485006490E+02
 0.86973963648E+01 0.78029734541E+01 0.72634522882E+01 0.70909406107E+01 0.72634597572E+01
 0.78031340221E+01 0.86972156476E+01 0.10483643867E+02 0.14812098681E+02 0.22432896109E+02
 0.32542607157E+02 0.42947508865E+02 0.50808409893E+02 0.53736948261E+02 0.50801853220E+02
 0.63748479529E+02 0.50889457978E+02 0.36362047434E+02 0.23618844317E+02 0.14811572139E+02
 0.10254835030E+02 0.85535037214E+01 0.77042071955E+01 0.72776146406E+01 0.72779582881E+01
 0.77047384964E+01 0.85534669419E+01 0.10254458362E+02 0.14812131926E+02 0.23621372184E+02
 0.36366191438E+02 0.50893745354E+02 0.63751486789E+02 0.71337736791E+02 0.71336688748E+02
 0.84470457064E+02 0.71376091560E+02 0.53853082724E+02 0.36364390608E+02 0.22430690175E+02
 0.13687871268E+02 0.96777859884E+01 0.82956257834E+01 0.75729599768E+01 0.73327170642E+01
 0.75736224810E+01 0.82956120877E+01 0.96769411550E+01 0.13688039270E+02 0.22432899589E+02
 0.36366235607E+02 0.53850763675E+02 0.71369427446E+02 0.84464421297E+02 0.89333656872E+02
 0.99915544609E+02 0.89344884765E+02 0.71376871253E+02 0.50896021914E+02 0.32541899684E+02
 0.19293683763E+02 0.11897863746E+02 0.89954064508E+01 0.79585347507E+01 0.74409441209E+01
 0.74414664768E+01 0.79590992578E+01 0.89947294230E+01 0.11896746085E+02 0.19293893000E+02
 0.32542700426E+02 0.50893727607E+02 0.71369289375E+02 0.89335453615E+02 0.99911208007E+02
 0.74155651953E+02 0.70099663681E+02 0.59181883524E+02 0.44591079060E+02 0.30118805411E+02
 0.18775095941E+02 0.11891439763E+02 0.88903822736E+01 0.77672775173E+01 0.71185949454E+01
 0.69060278702E+01 0.71188493436E+01 0.77674721406E+01 0.88902853849E+01 0.11891181940E+02
 0.18774985758E+02 0.30118944545E+02 0.44591277401E+02 0.59181944388E+02 0.70099620916E+02
 0.70101838481E+02 0.70099449201E+02 0.62600916324E+02 0.49879351500E+02 0.35488350831E+02
 0.22861238441E+02 0.14154608152E+02 0.96825814655E+01 0.80324474976E+01 0.72058901866E+01