    2    2    1    1
  0.9921300E+01  0.2376600E-09  0.2376600E-09  0.4056540E-09  0.5000000E-15
  1.000000000000000E-004
  CAR 
 unknown system                          
     16     96     40
 
  0.0000000E+00  0.0000000E+00  0.0000000E+00  0.7513148E-03
    1       -1.855602   1.000000
    2        2.080466   1.000000
    3        5.119513   1.000000
    4        5.550464   1.000000
    5        5.550573   1.000000
    6        5.912198   1.000000
    7        5.912330   1.000000
    8        6.712487   1.002426
    9        6.712518   1.002427
   10        6.818544   1.014575
   11        7.957922  -0.000000
   12        7.957953  -0.000000
   13       15.164151   0.000000
   14       30.399179   0.000000
   15       31.911098   0.000000
   16       33.644034   0.000000
   17       35.600804   0.000000
   18       35.600862   0.000000
   19       36.470757   0.000000
   20       36.470922   0.000000
   21       38.889247   0.000000
   22       39.552316   0.000000
   23       39.552343   0.000000
   24       40.641826   0.000000
   25       43.388162   0.000000
   26       43.388174   0.000000
   27       44.646187   0.000000
   28       47.086672   0.000000
   29       47.087032   0.000000
   30       48.985504   0.000000
   31       48.985620   0.000000
   32       51.941645   0.000000
   33       60.095472   0.000000
   34       62.448362   0.000000
   35       62.449341   0.000000
   36       62.665469   0.000000
   37       63.785269   0.000000
   38       64.923772   0.000000
   39       64.924975   0.000000
   40       66.579694   0.000000
 
  0.9090909E-01  0.6596377E-17  0.0000000E+00  0.4507889E-02
    1       -1.525919   1.000000
    2        2.317335   1.000000
    3        5.040612   1.000000
    4        5.569096   1.000000
    5        5.739942   1.000000
    6        5.801502   1.000000
    7        5.806759   1.000000
    8        6.087156   1.000000
    9        6.595363   1.000151
   10        6.599178   1.000168
   11        7.997639  -0.000000
   12        9.219000  -0.000000
   13       15.182064   0.000000
   14       29.142446   0.000000
   15       31.824499   0.000000
   16       32.176409   0.000000
   17       32.830384   0.000000
   18       35.363202   0.000000
   19       35.616859   0.000000
   20       38.629246   0.000000
   21       39.033781   0.000000
   22       39.340855   0.000000
   23       40.131990   0.000000
   24       40.366441   0.000000
   25       44.491571   0.000000
   26       44.504754   0.000000
   27       44.752545   0.000000
   28       44.842775   0.000000
   29       48.575063   0.000000
   30       50.447356   0.000000
   31       51.358945   0.000000
   32       53.726686   0.000000
   33       59.261614   0.000000
   34       61.325232   0.000000
   35       61.739075   0.000000
   36       62.034814   0.000000
   37       62.294074   0.000000
   38       65.698968   0.000000
   39       66.494783   0.000000
   40       66.852483   0.000000
 
  0.1818182E+00  0.8651941E-17  0.0000000E+00  0.4507889E-02
    1       -0.592196   1.000000
    2        2.875276   1.000000
    3        4.646171   1.000000
    4        4.733590   1.000000
    5        5.422931   1.000000
    6        6.016625   1.000000
    7        6.277598   1.000000
    8        6.290261   1.000000
    9        6.316833   1.000000
   10        6.576833   1.000091
   11        8.067529  -0.000000
   12       11.130804  -0.000000
   13       15.271178   0.000000
   14       25.425546   0.000000
   15       30.011169   0.000000
   16       30.610827   0.000000
   17       31.305828   0.000000
   18       32.852691   0.000000
   19       36.138410   0.000000
   20       37.748397   0.000000
   21       38.207088   0.000000
   22       38.304843   0.000000
   23       40.651389   0.000000
   24       42.033425   0.000000
   25       44.127243   0.000000
   26       45.280065   0.000000
   27       47.034442   0.000000
   28       49.350841   0.000000
   29       51.448600   0.000000
   30       53.868223   0.000000
   31       54.305288   0.000000
   32       57.158129   0.000000
   33       57.696344   0.000000
   34       58.775974   0.000000
   35       59.636390   0.000000
   36       61.229092   0.000000
   37       62.689466   0.000000
   38       66.235397   0.000000
   39       66.671484   0.000000
   40       68.310298   0.000000
 
  0.2727273E+00  0.9616017E-17  0.0000000E+00  0.4507889E-02
    1        0.738354   1.000000
    2        3.160762   1.000000
    3        3.756490   1.000000
    4        4.619127   1.000000
    5        5.266701   1.000000
    6        5.902924   1.000000
    7        6.002876   1.000000
    8        6.758863   1.005818
    9        7.040745   0.954624
   10        7.258845   0.186288
   11        8.120514  -0.000000
   12       13.259628   0.000000
   13       15.459405   0.000000
   14       21.478559   0.000000
   15       27.577012   0.000000
   16       27.725238   0.000000
   17       29.093331   0.000000
   18       32.370107   0.000000
   19       34.319063   0.000000
   20       37.601801   0.000000
   21       38.374773   0.000000
   22       38.469588   0.000000
   23       38.530221   0.000000
   24       42.603374   0.000000
   25       47.617250   0.000000
   26       49.439876   0.000000
   27       50.466252   0.000000
   28       52.243687   0.000000
   29       53.649871   0.000000
   30       54.594212   0.000000
   31       56.017359   0.000000
   32       57.321121   0.000000
   33       59.025570   0.000000
   34       59.837489   0.000000
   35       60.031567   0.000000
   36       61.355970   0.000000
   37       63.320887   0.000000
   38       65.950210   0.000000
   39       67.226946   0.000000
   40       67.521266   0.000000
 
  0.3636364E+00  0.1319328E-16  0.0000000E+00  0.4507889E-02
    1        1.955736   1.000000
    2        2.914872   1.000000
    3        3.161466   1.000000
    4        4.825501   1.000000
    5        5.556140   1.000000
    6        5.583915   1.000000
    7        5.743803   1.000000
    8        7.806603  -0.000041
    9        7.948787  -0.000000
   10        7.955443  -0.000000
   11        8.144567  -0.000000
   12       15.158722   0.000000
   13       15.520919   0.000000
   14       18.782705   0.000000
   15       24.505393   0.000000
   16       25.716182   0.000000
   17       26.428753   0.000000
   18       31.363515   0.000000
   19       33.115926   0.000000
   20       36.367415   0.000000
   21       37.225938   0.000000
   22       39.392275   0.000000
   23       40.657036   0.000000
   24       43.136568   0.000000
   25       50.913694   0.000000
   26       51.314047   0.000000
   27       51.380995   0.000000
   28       54.577456   0.000000
   29       54.924757   0.000000
   30       55.877226   0.000000
   31       58.124566   0.000000
   32       58.926238   0.000000
   33       59.004082   0.000000
   34       60.188631   0.000000
   35       61.903980   0.000000
   36       63.657988   0.000000
   37       65.434627   0.000000
   38       66.229944   0.000000
   39       66.834745   0.000000
   40       67.115533   0.000000
 
  0.4545455E+00  0.4341035E-16  0.0000000E+00  0.4507889E-02
    1        2.468050   1.000000
    2        2.686823   1.000000
    3        2.864345   1.000000
    4        5.323280   1.000000
    5        5.353461   1.000000
    6        5.598130   1.000000
    7        5.829455   1.000000
    8        8.151036  -0.000000
    9        8.274590  -0.000000
   10        8.419712  -0.000000
   11        9.601489  -0.000000
   12       13.061719   0.000000
   13       17.649066   0.000000
   14       18.954417   0.000000
   15       21.906995   0.000000
   16       23.855318   0.000000
   17       24.677928   0.000000
   18       30.713424   0.000000
   19       32.756317   0.000000
   20       35.252802   0.000000
   21       37.020904   0.000000
   22       40.120973   0.000000
   23       42.813946   0.000000
   24       43.459927   0.000000
   25       47.547142   0.000000
   26       52.107071   0.000000
   27       53.351351   0.000000
   28       56.820840   0.000000
   29       57.745733   0.000000
   30       58.036861   0.000000
   31       59.053806   0.000000
   32       60.448684   0.000000
   33       60.500320   0.000000
   34       62.454332   0.000000
   35       62.508832   0.000000
   36       63.630927   0.000000
   37       65.356082   0.000000
   38       65.811917   0.000000
   39       66.217467   0.000000
   40       66.879430   0.000000
 
  0.9090909E-01  0.9090909E-01  0.0000000E+00  0.4507889E-02
    1       -0.891715   1.000000
    2        2.731485   1.000000
    3        4.790351   1.000000
    4        4.950615   1.000000
    5        5.600638   1.000000
    6        5.725962   1.000000
    7        6.132191   1.000000
    8        6.193284   1.000000
    9        6.469374   1.000003
   10        6.591269   1.000135
   11        8.023982  -0.000000
   12       10.600980  -0.000000
   13       15.239975   0.000000
   14       27.125047   0.000000
   15       28.420843   0.000000
   16       32.413485   0.000000
   17       32.858786   0.000000
   18       33.951772   0.000000
   19       34.420577   0.000000
   20       36.647552   0.000000
   21       38.055769   0.000000
   22       41.298828   0.000000
   23       41.874855   0.000000
   24       42.529455   0.000000
   25       43.438659   0.000000
   26       43.467436   0.000000
   27       43.604697   0.000000
   28       49.761400   0.000000
   29       52.068076   0.000000
   30       52.312212   0.000000
   31       52.362210   0.000000
   32       56.425872   0.000000
   33       58.186341   0.000000
   34       59.669806   0.000000
   35       60.088649   0.000000
   36       61.242902   0.000000
   37       62.178323   0.000000
   38       66.440640   0.000000
   39       66.810525   0.000000
   40       68.327574   0.000000
 
  0.1818182E+00  0.9090909E-01  0.0000000E+00  0.9015778E-02
    1        0.263688   1.000000
    2        3.262573   1.000000
    3        4.080047   1.000000
    4        4.433083   1.000000
    5        5.347954   1.000000
    6        5.789347   1.000000
    7        6.161658   1.000000
    8        6.350712   1.000000
    9        6.835075   1.017958
   10        7.177469   0.501392
   11        8.049120  -0.000000
   12       12.511787  -0.000000
   13       15.428316   0.000000
   14       23.485862   0.000000
   15       26.053108   0.000000
   16       29.480617   0.000000
   17       31.787515   0.000000
   18       31.893048   0.000000
   19       35.055791   0.000000
   20       36.351565   0.000000
   21       36.621508   0.000000
   22       41.344685   0.000000
   23       41.383146   0.000000
   24       41.995672   0.000000
   25       45.185205   0.000000
   26       46.198742   0.000000
   27       47.882775   0.000000
   28       52.482608   0.000000
   29       54.346742   0.000000
   30       55.230285   0.000000
   31       55.604533   0.000000
   32       57.641352   0.000000
   33       58.471681   0.000000
   34       58.622244   0.000000
   35       59.867863   0.000000
   36       59.963973   0.000000
   37       62.736925   0.000000
   38       66.395414   0.000000
   39       67.153051   0.000000
   40       68.230003   0.000000
 
  0.2727273E+00  0.9090909E-01  0.0000000E+00  0.9015778E-02
    1        1.620453   1.000000
    2        3.229930   1.000000
    3        3.420651   1.000000
    4        4.472961   1.000000
    5        5.411391   1.000000
    6        5.477346   1.000000
    7        5.988292   1.000000
    8        6.894988   1.031247
    9        7.610830  -0.004523
   10        8.060626  -0.000000
   11        8.101694  -0.000000
   12       14.674391   0.000000
   13       15.678754   0.000000
   14       19.885415   0.000000
   15       24.332734   0.000000
   16       26.182697   0.000000
   17       28.705570   0.000000
   18       30.525711   0.000000
   19       34.385892   0.000000
   20       35.414197   0.000000
   21       37.623450   0.000000
   22       41.138980   0.000000
   23       41.142897   0.000000
   24       43.536398   0.000000
   25       47.197862   0.000000
   26       49.972111   0.000000
   27       51.809870   0.000000
   28       52.940563   0.000000
   29       53.185084   0.000000
   30       56.273979   0.000000
   31       57.783340   0.000000
   32       58.511601   0.000000
   33       59.313945   0.000000
   34       59.748558   0.000000
   35       61.380158   0.000000
   36       63.066694   0.000000
   37       64.468926   0.000000
   38       65.994295   0.000000
   39       66.456164   0.000000
   40       68.238486   0.000000
 
  0.3636364E+00  0.9090909E-01  0.0000000E+00  0.9015778E-02
    1        2.510944   1.000000
    2        2.929996   1.000000
    3        3.020483   1.000000
    4        4.868621   1.000000
    5        5.321889   1.000000
    6        5.646412   1.000000
    7        5.747302   1.000000
    8        7.761919  -0.000145
    9        8.060148  -0.000000
   10        8.160640  -0.000000
   11        9.303198  -0.000000
   12       14.515737   0.000000
   13       16.941710   0.000000
   14       18.708565   0.000000
   15       23.013600   0.000000
   16       23.237878   0.000000
   17       25.548536   0.000000
   18       29.617514   0.000000
   19       33.417684   0.000000
   20       34.845719   0.000000
   21       38.335771   0.000000
   22       41.564728   0.000000
   23       42.626991   0.000000
   24       43.603991   0.000000
   25       49.471660   0.000000
   26       50.013808   0.000000
   27       52.380674   0.000000
   28       53.867153   0.000000
   29       55.422978   0.000000
   30       57.817467   0.000000
   31       57.888749   0.000000
   32       59.601542   0.000000
   33       60.596659   0.000000
   34       62.672624   0.000000
   35       62.969945   0.000000
   36       64.230341   0.000000
   37       64.613355   0.000000
   38       66.113932   0.000000
   39       67.318236   0.000000
   40       67.400128   0.000000
 
  0.4545455E+00  0.9090909E-01  0.0000000E+00  0.4507889E-02
    1        2.682495   1.000000
    2        2.834618   1.000000
    3        2.887220   1.000000
    4        5.211682   1.000000
    5        5.310897   1.000000
    6        5.475465   1.000000
    7        5.876322   1.000000
    8        8.058395  -0.000000
    9        8.247826  -0.000000
   10        8.259903  -0.000000
   11       10.533338  -0.000000
   12       12.716152   0.000000
   13       18.476299   0.000000
   14       19.398471   0.000000
   15       21.483059   0.000000
   16       22.290000   0.000000
   17       24.042459   0.000000
   18       29.296046   0.000000
   19       33.020113   0.000000
   20       34.679102   0.000000
   21       38.418020   0.000000
   22       42.270141   0.000000
   23       42.810015   0.000000
   24       44.508669   0.000000
   25       47.145347   0.000000
   26       52.107784   0.000000
   27       52.183252   0.000000
   28       55.276785   0.000000
   29       56.734952   0.000000
   30       57.040574   0.000000
   31       60.236685   0.000000
   32       60.645254   0.000000
   33       60.774373   0.000000
   34       60.864811   0.000000
   35       63.307888   0.000000
   36       65.748422   0.000000
   37       66.019446   0.000000
   38       66.247270   0.000000
   39       66.582652   0.000000
   40       68.422847   0.000000
 
  0.1818182E+00  0.1818182E+00  0.0000000E+00  0.4507889E-02
    1        1.513639   1.000000
    2        3.572328   1.000000
    3        3.683150   1.000000
    4        3.980284   1.000000
    5        5.358130   1.000000
    6        5.407479   1.000000
    7        6.147292   1.000000
    8        6.415299   1.000000
    9        7.588789  -0.006667
   10        7.972790  -0.000000
   11        8.159489  -0.000000
   12       14.401889   0.000000
   13       15.857667   0.000000
   14       21.501754   0.000000
   15       22.295786   0.000000
   16       27.629988   0.000000
   17       29.106325   0.000000
   18       30.989022   0.000000
   19       31.787629   0.000000
   20       37.451035   0.000000
   21       38.200189   0.000000
   22       41.860004   0.000000
   23       42.430771   0.000000
   24       44.723370   0.000000
   25       45.249546   0.000000
   26       47.309000   0.000000
   27       48.910413   0.000000
   28       54.048449   0.000000
   29       54.431976   0.000000
   30       56.148044   0.000000
   31       56.425887   0.000000
   32       58.958984   0.000000
   33       59.027725   0.000000
   34       61.483642   0.000000
   35       61.879562   0.000000
   36       61.953578   0.000000
   37       62.170797   0.000000
   38       66.225601   0.000000
   39       66.448640   0.000000
   40       69.321182   0.000000
 
  0.2727273E+00  0.1818182E+00  0.0000000E+00  0.9015778E-02
    1        2.718011   1.000000
    2        3.226795   1.000000
    3        3.447438   1.000000
    4        4.141285   1.000000
    5        5.129848   1.000000
    6        5.679664   1.000000
    7        5.772891   1.000000
    8        6.955990   1.033056
    9        7.906236  -0.000002
   10        8.118508  -0.000000
   11        9.415940  -0.000000
   12       16.147146   0.000000
   13       16.593706   0.000000
   14       18.797740   0.000000
   15       20.704871   0.000000
   16       25.088439   0.000000
   17       27.488907   0.000000
   18       27.622071   0.000000
   19       30.445813   0.000000
   20       38.647334   0.000000
   21       39.426351   0.000000
   22       42.459446   0.000000
   23       44.436166   0.000000
   24       45.079353   0.000000
   25       46.933915   0.000000
   26       48.629380   0.000000
   27       50.191568   0.000000
   28       52.113989   0.000000
   29       55.201712   0.000000
   30       55.593488   0.000000
   31       57.343577   0.000000
   32       59.486964   0.000000
   33       60.920172   0.000000
   34       61.920463   0.000000
   35       64.114238   0.000000
   36       64.155496   0.000000
   37       65.378037   0.000000
   38       66.635774   0.000000
   39       67.426251   0.000000
   40       68.580019   0.000000
 
  0.3636364E+00  0.1818182E+00  0.0000000E+00  0.9015778E-02
    1        3.057435   1.000000
    2        3.148791   1.000000
    3        3.249586   1.000000
    4        4.608705   1.000000
    5        5.146725   1.000000
    6        5.390653   1.000000
    7        5.943606   1.000000
    8        7.625692  -0.003422
    9        7.869280  -0.000006
   10        8.172609  -0.000000
   11       11.004604  -0.000000
   12       14.083420   0.000000
   13       18.828867   0.000000
   14       19.141024   0.000000
   15       20.042324   0.000000
   16       22.462926   0.000000
   17       24.758654   0.000000
   18       26.886306   0.000000
   19       29.794318   0.000000
   20       38.491554   0.000000
   21       40.950459   0.000000
   22       43.073204   0.000000
   23       44.783965   0.000000
   24       45.325501   0.000000
   25       49.052961   0.000000
   26       49.275191   0.000000
   27       51.349415   0.000000
   28       51.366708   0.000000
   29       55.074692   0.000000
   30       56.260115   0.000000
   31       56.554105   0.000000
   32       60.014697   0.000000
   33       60.384333   0.000000
   34       61.217353   0.000000
   35       65.196387   0.000000
   36       65.726487   0.000000
   37       67.044687   0.000000
   38       67.635371   0.000000
   39       67.650616   0.000000
   40       68.386093   0.000000
 
  0.2727273E+00  0.2727273E+00  0.0000000E+00  0.4507889E-02
    1        3.175135   1.000000
    2        3.489524   1.000000
    3        3.840071   1.000000
    4        3.846121   1.000000
    5        4.984185   1.000000
    6        5.413507   1.000000
    7        5.994121   1.000000
    8        7.221805   0.318694
    9        7.770434  -0.000115
   10        8.149085  -0.000000
   11       11.123256  -0.000000
   12       16.201870   0.000000
   13       16.677778   0.000000
   14       18.855188   0.000000
   15       20.007815   0.000000
   16       24.397320   0.000000
   17       24.537489   0.000000
   18       26.407094   0.000000
   19       27.323300   0.000000
   20       40.891771   0.000000
   21       41.943217   0.000000
   22       44.469402   0.000000
   23       45.527339   0.000000
   24       47.097871   0.000000
   25       47.153101   0.000000
   26       47.215818   0.000000
   27       49.849036   0.000000
   28       52.436811   0.000000
   29       52.838864   0.000000
   30       55.477063   0.000000
   31       56.544841   0.000000
   32       58.968790   0.000000
   33       60.235627   0.000000
   34       61.403666   0.000000
   35       64.916126   0.000000
   36       66.044514   0.000000
   37       66.284101   0.000000
   38       67.956751   0.000000
   39       68.666414   0.000000
   40       68.831399   0.000000
 
  0.3636364E+00  0.2727273E+00  0.0000000E+00  0.4507889E-02
    1        3.177480   1.000000
    2        3.655617   1.000000
    3        3.679502   1.000000
    4        4.184892   1.000000
    5        5.048168   1.000000
    6        5.140130   1.000000
    7        6.145214   1.000000
    8        7.578468  -0.007908
    9        7.718586  -0.000444
   10        7.869434  -0.000006
   11       12.867285   0.000000
   12       14.169430   0.000000
   13       16.297436   0.000000
   14       20.816737   0.000000
   15       20.973965   0.000000
   16       22.269676   0.000000
   17       24.229872   0.000000
   18       24.820698   0.000000
   19       26.708282   0.000000
   20       41.355489   0.000000
   21       43.974754   0.000000
   22       44.877282   0.000000
   23       45.670525   0.000000
   24       46.344385   0.000000
   25       48.051772   0.000000
   26       48.234713   0.000000
   27       50.898987   0.000000
   28       51.336174   0.000000
   29       51.545536   0.000000
   30       55.029776   0.000000
   31       56.654339   0.000000
   32       57.045361   0.000000
   33       60.202513   0.000000
   34       60.719989   0.000000
   35       65.749539   0.000000
   36       66.342629   0.000000
   37       67.821120   0.000000
   38       68.103085   0.000000
   39       68.401441   0.000000
   40       68.557152   0.000000
 
  0.0000000E+00  0.0000000E+00  0.9090909E-01  0.1502630E-02
    1       -1.770472   1.000000
    2        2.055697   1.000000
    3        5.093775   1.000000
    4        5.535848   1.000000
    5        5.535956   1.000000
    6        5.890102   1.000000
    7        5.890233   1.000000
    8        6.574200   1.000084
    9        6.761323   1.006071
   10        6.761355   1.006075
   11        7.949925  -0.000000
   12        7.949958  -0.000000
   13       15.569253   0.000000
   14       30.217366   0.000000
   15       31.528708   0.000000
   16       33.457035   0.000000
   17       35.656664   0.000000
   18       35.656716   0.000000
   19       36.483856   0.000000
   20       36.484014   0.000000
   21       39.289408   0.000000
   22       39.454510   0.000000
   23       39.454530   0.000000
   24       40.912429   0.000000
   25       43.011084   0.000000
   26       43.011099   0.000000
   27       44.954146   0.000000
   28       47.368801   0.000000
   29       47.369142   0.000000
   30       49.443755   0.000000
   31       49.443861   0.000000
   32       51.835254   0.000000
   33       59.368977   0.000000
   34       62.195949   0.000000
   35       62.196869   0.000000
   36       62.802665   0.000000
   37       63.449270   0.000000
   38       63.449858   0.000000
   39       64.622719   0.000000
   40       67.311973   0.000000
 
  0.9090909E-01  0.6596377E-17  0.9090909E-01  0.9015778E-02
    1       -1.442757   1.000000
    2        2.297344   1.000000
    3        5.036403   1.000000
    4        5.516717   1.000000
    5        5.577670   1.000000
    6        5.719408   1.000000
    7        5.905424   1.000000
    8        6.061835   1.000000
    9        6.651699   1.000634
   10        6.653862   1.000667
   11        7.983466  -0.000000
   12        9.043305  -0.000000
   13       15.620448   0.000000
   14       29.135219   0.000000
   15       31.425381   0.000000
   16       31.983655   0.000000
   17       32.903692   0.000000
   18       34.691960   0.000000
   19       36.201557   0.000000
   20       38.672769   0.000000
   21       38.701624   0.000000
   22       39.448134   0.000000
   23       40.109056   0.000000
   24       40.818095   0.000000
   25       44.062815   0.000000
   26       44.382836   0.000000
   27       45.334249   0.000000
   28       45.375095   0.000000
   29       48.446786   0.000000
   30       50.762514   0.000000
   31       51.686319   0.000000
   32       53.685941   0.000000
   33       58.129878   0.000000
   34       60.795377   0.000000
   35       61.550566   0.000000
   36       62.395104   0.000000
   37       62.951454   0.000000
   38       64.525633   0.000000
   39       65.701857   0.000000
   40       67.287637   0.000000
 
  0.1818182E+00  0.8651941E-17  0.9090909E-01  0.9015778E-02
    1       -0.516886   1.000000
    2        2.871312   1.000000
    3        4.551491   1.000000
    4        4.754369   1.000000
    5        5.389123   1.000000
    6        5.905994   1.000000
    7        6.172013   1.000000
    8        6.430653   1.000001
    9        6.444232   1.000001
   10        6.587383   1.000122
   11        8.051095  -0.000000
   12       10.761566  -0.000000
   13       15.834349   0.000000
   14       25.487488   0.000000
   15       30.107856   0.000000
   16       30.186599   0.000000
   17       31.544161   0.000000
   18       32.316987   0.000000
   19       36.062415   0.000000
   20       37.515083   0.000000
   21       37.678205   0.000000
   22       38.843607   0.000000
   23       41.035024   0.000000
   24       42.765333   0.000000
   25       44.434573   0.000000
   26       45.317737   0.000000
   27       46.820597   0.000000
   28       49.396959   0.000000
   29       51.375330   0.000000
   30       53.923204   0.000000
   31       54.640663   0.000000
   32       56.229749   0.000000
   33       57.003236   0.000000
   34       59.118850   0.000000
   35       60.163173   0.000000
   36       61.291162   0.000000
   37       62.796521   0.000000
   38       65.602210   0.000000
   39       67.328574   0.000000
   40       67.664716   0.000000
 
  0.2727273E+00  0.9616017E-17  0.9090909E-01  0.9015778E-02
    1        0.791175   1.000000
    2        3.170715   1.000000
    3        3.722538   1.000000
    4        4.633046   1.000000
    5        5.207325   1.000000
    6        5.926833   1.000000
    7        6.025162   1.000000
    8        6.796828   1.010739
    9        7.053767   0.928854
   10        7.238670   0.255177
   11        8.098727  -0.000000
   12       12.545545  -0.000000
   13       16.309626   0.000000
   14       21.548827   0.000000
   15       27.204410   0.000000
   16       27.691245   0.000000
   17       29.511598   0.000000
   18       32.165925   0.000000
   19       34.346689   0.000000
   20       36.486805   0.000000
   21       37.186447   0.000000
   22       39.471037   0.000000
   23       39.491620   0.000000
   24       43.547599   0.000000
   25       47.741036   0.000000
   26       49.361947   0.000000
   27       50.120066   0.000000
   28       50.882015   0.000000
   29       54.161894   0.000000
   30       54.881840   0.000000
   31       56.333262   0.000000
   32       57.866338   0.000000
   33       58.669312   0.000000
   34       58.771248   0.000000
   35       60.554676   0.000000
   36       61.442888   0.000000
   37       63.528330   0.000000
   38       65.982575   0.000000
   39       66.530912   0.000000
   40       67.589210   0.000000
 
  0.3636364E+00  0.1319328E-16  0.9090909E-01  0.9015778E-02
    1        1.946561   1.000000
    2        2.892840   1.000000
    3        3.246352   1.000000
    4        4.641377   1.000000
    5        5.581426   1.000000
    6        5.780533   1.000000
    7        5.797652   1.000000
    8        7.812007  -0.000035
    9        7.888658  -0.000003
   10        7.916630  -0.000001
   11        8.146299  -0.000000
   12       13.922780   0.000000
   13       16.711061   0.000000
   14       18.954177   0.000000
   15       24.036845   0.000000
   16       25.845237   0.000000
   17       26.941917   0.000000
   18       31.316937   0.000000
   19       33.133611   0.000000
   20       35.203981   0.000000
   21       38.308532   0.000000
   22       38.408488   0.000000
   23       40.780863   0.000000
   24       44.317811   0.000000
   25       49.115481   0.000000
   26       51.243872   0.000000
   27       52.843776   0.000000
   28       53.688783   0.000000
   29       55.013016   0.000000
   30       56.651852   0.000000
   31       57.760392   0.000000
   32       58.745142   0.000000
   33       59.511666   0.000000
   34       60.060095   0.000000
   35       62.011904   0.000000
   36       63.587535   0.000000
   37       65.533734   0.000000
   38       65.641106   0.000000
   39       66.984687   0.000000
   40       67.312052   0.000000
 
  0.4545455E+00  0.4341035E-16  0.9090909E-01  0.9015778E-02
    1        2.379636   1.000000
    2        2.590717   1.000000
    3        3.119773   1.000000
    4        4.727390   1.000000
    5        5.640482   1.000000
    6        5.816770   1.000000
    7        6.042263   1.000000
    8        8.075354  -0.000000
    9        8.283831  -0.000000
   10        8.422077  -0.000000
   11        9.510868  -0.000000
   12       12.888178   0.000000
   13       17.416409   0.000000
   14       19.036409   0.000000
   15       22.003160   0.000000
   16       24.299423   0.000000
   17       24.815167   0.000000
   18       30.707281   0.000000
   19       32.747214   0.000000
   20       34.348718   0.000000
   21       37.963716   0.000000