 vasp.6.2.0 18Jan21 (build Mar 17 2021 09:06:54) complex                        
  
 executed on             LinuxIFC date 2021.09.09  12:06:55
 serial version


--------------------------------------------------------------------------------------------------------


 INCAR:
   ENCUT = 280.000000
   SIGMA = 0.200000
   EDIFF = 1.00e-06
   GGA = PE
   PREC = normal
   IBRION = 1
   ICHARG = 1
   ISIF = 2
   ISMEAR = 1
   KPAR = 1
   NBANDS = 40
   NSW = 0
   NCORE = 1
   LCHARG = .TRUE.

 POTCAR:    PAW_PBE Fe 06Sep2000                  
 POTCAR:    PAW_PBE Fe 06Sep2000                  
   SHA256 =  cd5a22d9368cc8b5cc476bea79732366149640da08ac9009b0e1b7fc627eea28 Fe/POTCAR             
   COPYR  = (c) Copyright 06Sep2000 Georg Kresse                                                    
   COPYR  = This file is part of the software VASP. Any use, copying, and all other rights are regul
   COPYR  = If you do not have a valid VASP license, you may not use, copy or distribute this file. 
   VRHFIN =Fe:  d7 s1                                                                               
   LEXCH  = PE                                                                                      
   EATOM  =   594.3153 eV,   43.6809 Ry                                                             
                                                                                                    
   TITEL  = PAW_PBE Fe 06Sep2000                                                                    
   LULTRA =        F    use ultrasoft PP ?                                                          
   IUNSCR =        1    unscreen: 0-lin 1-nonlin 2-no                                               
   RPACOR =    2.000    partial core radius                                                         
   POMASS =   55.847; ZVAL   =    8.000    mass and valenz                                          
   RCORE  =    2.300    outmost cutoff radius                                                       
   RWIGS  =    2.460; RWIGS  =    1.302    wigner-seitz radius (au A)                               
   ENMAX  =  267.882; ENMIN  =  200.911 eV                                                          
   RCLOC  =    1.701    cutoff for local pot                                                        
   LCOR   =        T    correct aug charges                                                         
   LPAW   =        T    paw PP                                                                      
   EAUG   =  511.368                                                                                
   DEXC   =    0.000                                                                                
   RMAX   =    2.356    core radius for proj-oper                                                   
   RAUG   =    1.300    factor for augmentation sphere                                              
   RDEP   =    2.442    radius for radial grids                                                     
   RDEPT  =    1.890    core radius for aug-charge                                                  
                                                                                                    
   Atomic configuration                                                                             
    9 entries                                                                                       
     n  l   j            E        occ.                                                              
     1  0  0.50     -6993.8440   2.0000                                                             
     2  0  0.50      -814.6047   2.0000                                                             
     2  1  1.50      -693.3689   6.0000                                                             
     3  0  0.50       -89.4732   2.0000                                                             
     3  1  1.50       -55.6373   6.0000                                                             
     3  2  2.50        -3.8151   7.0000                                                             
     4  0  0.50        -4.2551   1.0000                                                             
     4  1  1.50        -3.4015   0.0000                                                             
     4  3  2.50        -1.3606   0.0000                                                             
   Description                                                                                      
     l       E           TYP  RCUT    TYP  RCUT                                                     
     2     -3.8151135     23  2.300                                                                 
     2     -5.1756961     23  2.300                                                                 
     0     -4.2550963     23  2.300                                                                 
     0      7.2035603     23  2.300                                                                 
     1     -2.7211652     23  2.300                                                                 
     1     18.4316424     23  2.300                                                                 
  local pseudopotential read in
  partial core-charges read in
  partial kinetic energy density read in
  atomic valenz-charges read in
  non local Contribution for L=           2  read in
    real space projection operators read in
  non local Contribution for L=           2  read in
    real space projection operators read in
  non local Contribution for L=           0  read in
    real space projection operators read in
  non local Contribution for L=           0  read in
    real space projection operators read in
  non local Contribution for L=           1  read in
    real space projection operators read in
  non local Contribution for L=           1  read in
    real space projection operators read in
    PAW grid and wavefunctions read in
 
   number of l-projection  operators is LMAX  =           6
   number of lm-projection operators is LMMAX =          18
 
  PAW_PBE Fe 06Sep2000                  :
 energy of atom  1       EATOM= -594.3153
 kinetic energy error for atom=    0.0278 (will be added to EATOM!!)
 
 
 POSCAR: Fe
  positions in cartesian coordinates
  No initial velocities read in
 exchange correlation table for  LEXCH =        8
   RHO(1)=    0.500       N(1)  =     2000
   RHO(2)=  100.500       N(2)  =     4000
 


--------------------------------------------------------------------------------------------------------


 ion  position               nearest neighbor table
   1  0.000  0.000  0.000-   2 2.45   2 2.45   2 2.45   2 2.45   2 2.45   2 2.45
   2  0.333  0.667  0.500-   1 2.45   1 2.45   1 2.45   1 2.45   1 2.45   1 2.45
 
  LATTYP: Found a hexagonal cell.
 ALAT       =     2.3766000000
 C/A-ratio  =     1.7068669528
  
  Lattice vectors:
  
 A1 = (   2.3766000000,   0.0000000000,   0.0000000000)
 A2 = (  -1.1883000000,   2.0581959746,   0.0000000000)
 A3 = (   0.0000000000,   0.0000000000,   4.0565400000)


Analysis of symmetry for initial positions (statically):
=====================================================================
 Subroutine PRICEL returns:
 Original cell was already a primitive cell.
 

 Routine SETGRP: Setting up the symmetry group for a 
 hexagonal supercell.


 Subroutine GETGRP returns: Found 24 space group operations
 (whereof 12 operations were pure point group operations)
 out of a pool of 24 trial point group operations.


The static configuration has the point symmetry D_3h.
 The point group associated with its full space group is D_6h.


Analysis of symmetry for dynamics (positions and initial velocities):
=====================================================================
 Subroutine PRICEL returns:
 Original cell was already a primitive cell.
 

 Routine SETGRP: Setting up the symmetry group for a 
 hexagonal supercell.


 Subroutine GETGRP returns: Found 24 space group operations
 (whereof 12 operations were pure point group operations)
 out of a pool of 24 trial point group operations.


The dynamic configuration has the point symmetry D_3h.
 The point group associated with its full space group is D_6h.


 Subroutine INISYM returns: Found 24 space group operations
 (whereof 12 operations are pure point group operations),
 and found     1 'primitive' translations


----------------------------------------------------------------------------------------

                                     Primitive cell                                     

  volume of cell :      19.8426

  direct lattice vectors                    reciprocal lattice vectors
     2.376600000  0.000000000  0.000000000     0.420769166  0.242931191  0.000000000
    -1.188300000  2.058195975  0.000000000     0.000000000  0.485862383  0.000000000
     0.000000000  0.000000000  4.056540000     0.000000000  0.000000000  0.246515503

  length of vectors
     2.376600000  2.376600000  4.056540000     0.485862383  0.485862383  0.246515503

  position of ions in fractional coordinates (direct lattice)
     0.000000000  0.000000000  0.000000000
     0.333333333  0.666666667  0.500000000

  ion indices of the primitive-cell ions
   primitive index   ion index
                 1           1
                 2           2

----------------------------------------------------------------------------------------

 
 
 KPOINTS: KPOINTS created by Atomic Simulation Env

Automatic generation of k-mesh.
 Grid dimensions read from file:
 generate k-points for:   11   11   11

 Generating k-lattice:

  Cartesian coordinates                     Fractional coordinates (reciprocal lattice)
     0.038251742  0.022084654  0.000000000     0.090909091  0.000000000  0.000000000
     0.000000000  0.044169308  0.000000000     0.000000000  0.090909091  0.000000000
     0.000000000  0.000000000  0.022410500     0.000000000  0.000000000  0.090909091

  Length of vectors
     0.044169308  0.044169308  0.022410500

  Shift w.r.t. Gamma in fractional coordinates (k-lattice)
     0.000000000  0.000000000  0.000000000

 
 Subroutine IBZKPT returns following result:
 ===========================================
 
 Found     96 irreducible k-points:
 
 Following reciprocal coordinates:
            Coordinates               Weight
  0.000000  0.000000  0.000000      1.000000
  0.090909  0.000000  0.000000      6.000000
  0.181818  0.000000  0.000000      6.000000
  0.272727  0.000000  0.000000      6.000000
  0.363636  0.000000  0.000000      6.000000
  0.454545  0.000000  0.000000      6.000000
  0.090909  0.090909  0.000000      6.000000
  0.181818  0.090909  0.000000     12.000000
  0.272727  0.090909  0.000000     12.000000
  0.363636  0.090909  0.000000     12.000000
  0.454545  0.090909  0.000000      6.000000
  0.181818  0.181818  0.000000      6.000000
  0.272727  0.181818  0.000000     12.000000
  0.363636  0.181818  0.000000     12.000000
  0.272727  0.272727  0.000000      6.000000
  0.363636  0.272727  0.000000      6.000000
  0.000000  0.000000  0.090909      2.000000
  0.090909  0.000000  0.090909     12.000000
  0.181818  0.000000  0.090909     12.000000
  0.272727  0.000000  0.090909     12.000000
  0.363636  0.000000  0.090909     12.000000
  0.454545  0.000000  0.090909     12.000000
  0.090909  0.090909  0.090909     12.000000
  0.181818  0.090909  0.090909     24.000000
  0.272727  0.090909  0.090909     24.000000
  0.363636  0.090909  0.090909     24.000000
  0.454545  0.090909  0.090909     12.000000
  0.181818  0.181818  0.090909     12.000000
  0.272727  0.181818  0.090909     24.000000
  0.363636  0.181818  0.090909     24.000000
  0.272727  0.272727  0.090909     12.000000
  0.363636  0.272727  0.090909     12.000000
  0.000000  0.000000  0.181818      2.000000
  0.090909  0.000000  0.181818     12.000000
  0.181818  0.000000  0.181818     12.000000
  0.272727  0.000000  0.181818     12.000000
  0.363636  0.000000  0.181818     12.000000
  0.454545  0.000000  0.181818     12.000000
  0.090909  0.090909  0.181818     12.000000
  0.181818  0.090909  0.181818     24.000000
  0.272727  0.090909  0.181818     24.000000
  0.363636  0.090909  0.181818     24.000000
  0.454545  0.090909  0.181818     12.000000
  0.181818  0.181818  0.181818     12.000000
  0.272727  0.181818  0.181818     24.000000
  0.363636  0.181818  0.181818     24.000000
  0.272727  0.272727  0.181818     12.000000
  0.363636  0.272727  0.181818     12.000000
  0.000000  0.000000  0.272727      2.000000
  0.090909  0.000000  0.272727     12.000000
  0.181818  0.000000  0.272727     12.000000
  0.272727  0.000000  0.272727     12.000000
  0.363636  0.000000  0.272727     12.000000
  0.454545  0.000000  0.272727     12.000000
  0.090909  0.090909  0.272727     12.000000
  0.181818  0.090909  0.272727     24.000000
  0.272727  0.090909  0.272727     24.000000
  0.363636  0.090909  0.272727     24.000000
  0.454545  0.090909  0.272727     12.000000
  0.181818  0.181818  0.272727     12.000000
  0.272727  0.181818  0.272727     24.000000
  0.363636  0.181818  0.272727     24.000000
  0.272727  0.272727  0.272727     12.000000
  0.363636  0.272727  0.272727     12.000000
  0.000000  0.000000  0.363636      2.000000
  0.090909  0.000000  0.363636     12.000000
  0.181818  0.000000  0.363636     12.000000
  0.272727  0.000000  0.363636     12.000000
  0.363636  0.000000  0.363636     12.000000
  0.454545  0.000000  0.363636     12.000000
  0.090909  0.090909  0.363636     12.000000
  0.181818  0.090909  0.363636     24.000000
  0.272727  0.090909  0.363636     24.000000
  0.363636  0.090909  0.363636     24.000000
  0.454545  0.090909  0.363636     12.000000
  0.181818  0.181818  0.363636     12.000000
  0.272727  0.181818  0.363636     24.000000
  0.363636  0.181818  0.363636     24.000000
  0.272727  0.272727  0.363636     12.000000
  0.363636  0.272727  0.363636     12.000000
  0.000000  0.000000  0.454545      2.000000
  0.090909  0.000000  0.454545     12.000000
  0.181818  0.000000  0.454545     12.000000
  0.272727  0.000000  0.454545     12.000000
  0.363636  0.000000  0.454545     12.000000
  0.454545  0.000000  0.454545     12.000000
  0.090909  0.090909  0.454545     12.000000
  0.181818  0.090909  0.454545     24.000000
  0.272727  0.090909  0.454545     24.000000
  0.363636  0.090909  0.454545     24.000000
  0.454545  0.090909  0.454545     12.000000
  0.181818  0.181818  0.454545     12.000000
  0.272727  0.181818  0.454545     24.000000
  0.363636  0.181818  0.454545     24.000000
  0.272727  0.272727  0.454545     12.000000
  0.363636  0.272727  0.454545     12.000000
 
 Following cartesian coordinates:
            Coordinates               Weight
  0.000000  0.000000  0.000000      1.000000
  0.038252  0.022085  0.000000      6.000000
  0.076503  0.044169  0.000000      6.000000
  0.114755  0.066254  0.000000      6.000000
  0.153007  0.088339  0.000000      6.000000
  0.191259  0.110423  0.000000      6.000000
  0.038252  0.066254  0.000000      6.000000
  0.076503  0.088339  0.000000     12.000000
  0.114755  0.110423  0.000000     12.000000
  0.153007  0.132508  0.000000     12.000000
  0.191259  0.154593  0.000000      6.000000
  0.076503  0.132508  0.000000      6.000000
  0.114755  0.154593  0.000000     12.000000
  0.153007  0.176677  0.000000     12.000000
  0.114755  0.198762  0.000000      6.000000
  0.153007  0.220847  0.000000      6.000000
  0.000000  0.000000  0.022411      2.000000
  0.038252  0.022085  0.022411     12.000000
  0.076503  0.044169  0.022411     12.000000
  0.114755  0.066254  0.022411     12.000000
  0.153007  0.088339  0.022411     12.000000
  0.191259  0.110423  0.022411     12.000000
  0.038252  0.066254  0.022411     12.000000
  0.076503  0.088339  0.022411     24.000000
  0.114755  0.110423  0.022411     24.000000
  0.153007  0.132508  0.022411     24.000000
  0.191259  0.154593  0.022411     12.000000
  0.076503  0.132508  0.022411     12.000000
  0.114755  0.154593  0.022411     24.000000
  0.153007  0.176677  0.022411     24.000000
  0.114755  0.198762  0.022411     12.000000
  0.153007  0.220847  0.022411     12.000000
  0.000000  0.000000  0.044821      2.000000
  0.038252  0.022085  0.044821     12.000000
  0.076503  0.044169  0.044821     12.000000
  0.114755  0.066254  0.044821     12.000000
  0.153007  0.088339  0.044821     12.000000
  0.191259  0.110423  0.044821     12.000000
  0.038252  0.066254  0.044821     12.000000
  0.076503  0.088339  0.044821     24.000000
  0.114755  0.110423  0.044821     24.000000
  0.153007  0.132508  0.044821     24.000000
  0.191259  0.154593  0.044821     12.000000
  0.076503  0.132508  0.044821     12.000000
  0.114755  0.154593  0.044821     24.000000
  0.153007  0.176677  0.044821     24.000000
  0.114755  0.198762  0.044821     12.000000
  0.153007  0.220847  0.044821     12.000000
  0.000000  0.000000  0.067232      2.000000
  0.038252  0.022085  0.067232     12.000000
  0.076503  0.044169  0.067232     12.000000
  0.114755  0.066254  0.067232     12.000000
  0.153007  0.088339  0.067232     12.000000
  0.191259  0.110423  0.067232     12.000000
  0.038252  0.066254  0.067232     12.000000
  0.076503  0.088339  0.067232     24.000000
  0.114755  0.110423  0.067232     24.000000
  0.153007  0.132508  0.067232     24.000000
  0.191259  0.154593  0.067232     12.000000
  0.076503  0.132508  0.067232     12.000000
  0.114755  0.154593  0.067232     24.000000
  0.153007  0.176677  0.067232     24.000000
  0.114755  0.198762  0.067232     12.000000
  0.153007  0.220847  0.067232     12.000000
  0.000000  0.000000  0.089642      2.000000
  0.038252  0.022085  0.089642     12.000000
  0.076503  0.044169  0.089642     12.000000
  0.114755  0.066254  0.089642     12.000000
  0.153007  0.088339  0.089642     12.000000
  0.191259  0.110423  0.089642     12.000000
  0.038252  0.066254  0.089642     12.000000
  0.076503  0.088339  0.089642     24.000000
  0.114755  0.110423  0.089642     24.000000
  0.153007  0.132508  0.089642     24.000000
  0.191259  0.154593  0.089642     12.000000
  0.076503  0.132508  0.089642     12.000000
  0.114755  0.154593  0.089642     24.000000
  0.153007  0.176677  0.089642     24.000000
  0.114755  0.198762  0.089642     12.000000
  0.153007  0.220847  0.089642     12.000000
  0.000000  0.000000  0.112053      2.000000
  0.038252  0.022085  0.112053     12.000000
  0.076503  0.044169  0.112053     12.000000
  0.114755  0.066254  0.112053     12.000000
  0.153007  0.088339  0.112053     12.000000
  0.191259  0.110423  0.112053     12.000000
  0.038252  0.066254  0.112053     12.000000
  0.076503  0.088339  0.112053     24.000000
  0.114755  0.110423  0.112053     24.000000
  0.153007  0.132508  0.112053     24.000000
  0.191259  0.154593  0.112053     12.000000
  0.076503  0.132508  0.112053     12.000000
  0.114755  0.154593  0.112053     24.000000
  0.153007  0.176677  0.112053     24.000000
  0.114755  0.198762  0.112053     12.000000
  0.153007  0.220847  0.112053     12.000000
 


--------------------------------------------------------------------------------------------------------




 Dimension of arrays:
   k-points           NKPTS =     96   k-points in BZ     NKDIM =     96   number of bands    NBANDS=     40
   number of dos      NEDOS =    301   number of ions     NIONS =      2
   non local maximal  LDIM  =      6   non local SUM 2l+1 LMDIM =     18
   total plane-waves  NPLWV =   1800
   max r-space proj   IRMAX =      1   max aug-charges    IRDMAX=   3431
   dimension x,y,z NGX =    10 NGY =   10 NGZ =   18
   dimension x,y,z NGXF=    20 NGYF=   20 NGZF=   36
   support grid    NGXF=    20 NGYF=   20 NGZF=   36
   ions per type =               2
   NGX,Y,Z   is equivalent  to a cutoff of   7.00,  7.00,  7.38 a.u.
   NGXF,Y,Z  is equivalent  to a cutoff of  13.99, 13.99, 14.75 a.u.

 SYSTEM =  unknown system                          
 POSCAR =  Fe                                      

 Startparameter for this run:
   NWRITE =      2    write-flag & timer
   PREC   = normal    normal or accurate (medium, high low for compatibility)
   ISTART =      0    job   : 0-new  1-cont  2-samecut
   ICHARG =      1    charge: 1-file 2-atom 10-const
   ISPIN  =      1    spin polarized calculation?
   LNONCOLLINEAR =      F non collinear calculations
   LSORBIT =      F    spin-orbit coupling
   INIWAV =      1    electr: 0-lowe 1-rand  2-diag
   LASPH  =      F    aspherical Exc in radial PAW
   METAGGA=      F    non-selfconsistent MetaGGA calc.

 Electronic Relaxation 1
   ENCUT  =  280.0 eV  20.58 Ry    4.54 a.u.   3.24  3.24  5.53*2*pi/ulx,y,z
   ENINI  =  280.0     initial cutoff
   ENAUG  =  511.4 eV  augmentation charge cutoff
   NELM   =     60;   NELMIN=  2; NELMDL= -5     # of ELM steps 
   EDIFF  = 0.1E-05   stopping-criterion for ELM
   LREAL  =      F    real-space projection
   NLSPLINE    = F    spline interpolate recip. space projectors
   LCOMPAT=      F    compatible to vasp.4.4
   GGA_COMPAT  = T    GGA compatible to vasp.4.4-vasp.4.6
   LMAXPAW     = -100 max onsite density
   LMAXMIX     =    2 max onsite mixed and CHGCAR
   VOSKOWN=      0    Vosko Wilk Nusair interpolation
   ROPT   =    0.00000
 Ionic relaxation
   EDIFFG = 0.1E-04   stopping-criterion for IOM
   NSW    =      0    number of steps for IOM
   NBLOCK =      1;   KBLOCK =      1    inner block; outer block 
   IBRION =     -1    ionic relax: 0-MD 1-quasi-New 2-CG
   NFREE  =      0    steps in history (QN), initial steepest desc. (CG)
   ISIF   =      2    stress and relaxation
   IWAVPR =      0    prediction:  0-non 1-charg 2-wave 3-comb
   ISYM   =      2    0-nonsym 1-usesym 2-fastsym
   LCORR  =      T    Harris-Foulkes like correction to forces

   POTIM  = 0.5000    time-step for ionic-motion
   TEIN   =    0.0    initial temperature
   TEBEG  =    0.0;   TEEND  =   0.0 temperature during run
   SMASS  =  -3.00    Nose mass-parameter (am)
   estimated Nose-frequenzy (Omega)   =  0.10E-29 period in steps = 0.13E+47 mass=  -0.129E-27a.u.
   SCALEE = 1.0000    scale energy and forces
   NPACO  =    256;   APACO  = 16.0  distance and # of slots for P.C.
   PSTRESS=    0.0 pullay stress

  Mass of Ions in am
   POMASS =  55.85
  Ionic Valenz
   ZVAL   =   8.00
  Atomic Wigner-Seitz radii
   RWIGS  =  -1.00
  virtual crystal weights 
   VCA    =   1.00
   NELECT =      16.0000    total number of electrons
   NUPDOWN=      -1.0000    fix difference up-down

 DOS related values:
   EMIN   =  10.00;   EMAX   =-10.00  energy-range for DOS
   EFERMI =   0.00
   ISMEAR =     1;   SIGMA  =   0.20  broadening in eV -4-tet -1-fermi 0-gaus

 Electronic relaxation 2 (details)
   IALGO  =     38    algorithm
   LDIAG  =      T    sub-space diagonalisation (order eigenvalues)
   LSUBROT=      F    optimize rotation matrix (better conditioning)
   TURBO    =      0    0=normal 1=particle mesh
   IRESTART =      0    0=no restart 2=restart with 2 vectors
   NREBOOT  =      0    no. of reboots
   NMIN     =      0    reboot dimension
   EREF     =   0.00    reference energy to select bands
   IMIX   =      4    mixing-type and parameters
     AMIX     =   0.40;   BMIX     =  1.00
     AMIX_MAG =   1.60;   BMIX_MAG =  1.00
     AMIN     =   0.10
     WC   =   100.;   INIMIX=   1;  MIXPRE=   1;  MAXMIX= -45

 Intra band minimization:
   WEIMIN = 0.0000     energy-eigenvalue tresh-hold
   EBREAK =  0.62E-08  absolut break condition
   DEPER  =   0.30     relativ break condition  

   TIME   =   0.40     timestep for ELM

  volume/ion in A,a.u.               =       9.92        66.95
  Fermi-wavevector in a.u.,A,eV,Ry     =   1.523756  2.879480 31.590428  2.321831
  Thomas-Fermi vector in A             =   2.632156
 
 Write flags
   LWAVE        =      T    write WAVECAR
   LDOWNSAMPLE  =      F    k-point downsampling of WAVECAR
   LCHARG       =      T    write CHGCAR
   LVTOT        =      F    write LOCPOT, total local potential
   LVHAR        =      F    write LOCPOT, Hartree potential only
   LELF         =      F    write electronic localiz. function (ELF)
   LORBIT       =      0    0 simple, 1 ext, 2 COOP (PROOUT), +10 PAW based schemes


 Dipole corrections
   LMONO  =      F    monopole corrections only (constant potential shift)
   LDIPOL =      F    correct potential (dipole corrections)
   IDIPOL =      0    1-x, 2-y, 3-z, 4-all directions 
   EPSILON=  1.0000000 bulk dielectric constant

 Exchange correlation treatment:
   GGA     =    PE    GGA type
   LEXCH   =     8    internal setting for exchange type
   VOSKOWN=      0    Vosko Wilk Nusair interpolation
   LHFCALC =     F    Hartree Fock is set to
   LHFONE  =     F    Hartree Fock one center treatment
   AEXX    =    0.0000 exact exchange contribution

 Linear response parameters
   LEPSILON=     F    determine dielectric tensor
   LRPA    =     F    only Hartree local field effects (RPA)
   LNABLA  =     F    use nabla operator in PAW spheres
   LVEL    =     F    velocity operator in full k-point grid
   LINTERFAST=   F  fast interpolation
   KINTER  =     0    interpolate to denser k-point grid
   CSHIFT  =0.1000    complex shift for real part using Kramers Kronig
   OMEGAMAX=  -1.0    maximum frequency
   DEG_THRESHOLD= 0.2000000E-02 threshold for treating states as degnerate
   RTIME   =   -0.100 relaxation time in fs
  (WPLASMAI=    0.000 imaginary part of plasma frequency in eV, 0.658/RTIME)
   DFIELD  = 0.0000000 0.0000000 0.0000000 field for delta impulse in time
 
 Orbital magnetization related:
   ORBITALMAG=     F  switch on orbital magnetization
   LCHIMAG   =     F  perturbation theory with respect to B field
   DQ        =  0.001000  dq finite difference perturbation B field
   LLRAUG    =     F  two centre corrections for induced B field



--------------------------------------------------------------------------------------------------------


 Static calculation
 charge density and potential will be updated during run
 non-spin polarized calculation
 Variant of blocked Davidson
 Davidson routine will perform the subspace rotation
 perform sub-space diagonalisation
    after iterative eigenvector-optimisation
 modified Broyden-mixing scheme, WC =      100.0
 initial mixing is a Kerker type mixing with AMIX =  0.4000 and BMIX =      1.0000
 Hartree-type preconditioning will be used
 using additional bands           32
 reciprocal scheme for non local part
 use partial core corrections
 calculate Harris-corrections to forces 
   (improved forces if not selfconsistent)
 use gradient corrections 
 use of overlap-Matrix (Vanderbilt PP)
 Methfessel and Paxton  Order N= 1 SIGMA  =   0.20


--------------------------------------------------------------------------------------------------------


  energy-cutoff  :      280.00
  volume of cell :       19.84
      direct lattice vectors                 reciprocal lattice vectors
     2.376600000  0.000000000  0.000000000     0.420769166  0.242931191  0.000000000
    -1.188300000  2.058195975  0.000000000     0.000000000  0.485862383  0.000000000
     0.000000000  0.000000000  4.056540000     0.000000000  0.000000000  0.246515503

  length of vectors
     2.376600000  2.376600000  4.056540000     0.485862383  0.485862383  0.246515503


 
 k-points in units of 2pi/SCALE and weight: KPOINTS created by Atomic Simulation Env
   0.00000000  0.00000000  0.00000000       0.001
   0.03825174  0.02208465  0.00000000       0.005
   0.07650348  0.04416931  0.00000000       0.005
   0.11475523  0.06625396  0.00000000       0.005
   0.15300697  0.08833862  0.00000000       0.005
   0.19125871  0.11042327  0.00000000       0.005
   0.03825174  0.06625396  0.00000000       0.005
   0.07650348  0.08833862  0.00000000       0.009
   0.11475523  0.11042327  0.00000000       0.009
   0.15300697  0.13250792  0.00000000       0.009
   0.19125871  0.15459258  0.00000000       0.005
   0.07650348  0.13250792  0.00000000       0.005
   0.11475523  0.15459258  0.00000000       0.009
   0.15300697  0.17667723  0.00000000       0.009
   0.11475523  0.19876188  0.00000000       0.005
   0.15300697  0.22084654  0.00000000       0.005
   0.00000000  0.00000000  0.02241050       0.002
   0.03825174  0.02208465  0.02241050       0.009
   0.07650348  0.04416931  0.02241050       0.009
   0.11475523  0.06625396  0.02241050       0.009
   0.15300697  0.08833862  0.02241050       0.009
   0.19125871  0.11042327  0.02241050       0.009
   0.03825174  0.06625396  0.02241050       0.009
   0.07650348  0.08833862  0.02241050       0.018
   0.11475523  0.11042327  0.02241050       0.018
   0.15300697  0.13250792  0.02241050       0.018
   0.19125871  0.15459258  0.02241050       0.009
   0.07650348  0.13250792  0.02241050       0.009
   0.11475523  0.15459258  0.02241050       0.018
   0.15300697  0.17667723  0.02241050       0.018
   0.11475523  0.19876188  0.02241050       0.009
   0.15300697  0.22084654  0.02241050       0.009
   0.00000000  0.00000000  0.04482100       0.002
   0.03825174  0.02208465  0.04482100       0.009
   0.07650348  0.04416931  0.04482100       0.009
   0.11475523  0.06625396  0.04482100       0.009
   0.15300697  0.08833862  0.04482100       0.009
   0.19125871  0.11042327  0.04482100       0.009
   0.03825174  0.06625396  0.04482100       0.009
   0.07650348  0.08833862  0.04482100       0.018
   0.11475523  0.11042327  0.04482100       0.018
   0.15300697  0.13250792  0.04482100       0.018
   0.19125871  0.15459258  0.04482100       0.009
   0.07650348  0.13250792  0.04482100       0.009
   0.11475523  0.15459258  0.04482100       0.018
   0.15300697  0.17667723  0.04482100       0.018
   0.11475523  0.19876188  0.04482100       0.009
   0.15300697  0.22084654  0.04482100       0.009
   0.00000000  0.00000000  0.06723150       0.002
   0.03825174  0.02208465  0.06723150       0.009
   0.07650348  0.04416931  0.06723150       0.009
   0.11475523  0.06625396  0.06723150       0.009
   0.15300697  0.08833862  0.06723150       0.009
   0.19125871  0.11042327  0.06723150       0.009
   0.03825174  0.06625396  0.06723150       0.009
   0.07650348  0.08833862  0.06723150       0.018
   0.11475523  0.11042327  0.06723150       0.018
   0.15300697  0.13250792  0.06723150       0.018
   0.19125871  0.15459258  0.06723150       0.009
   0.07650348  0.13250792  0.06723150       0.009
   0.11475523  0.15459258  0.06723150       0.018
   0.15300697  0.17667723  0.06723150       0.018
   0.11475523  0.19876188  0.06723150       0.009
   0.15300697  0.22084654  0.06723150       0.009
   0.00000000  0.00000000  0.08964200       0.002
   0.03825174  0.02208465  0.08964200       0.009
   0.07650348  0.04416931  0.08964200       0.009
   0.11475523  0.06625396  0.08964200       0.009
   0.15300697  0.08833862  0.08964200       0.009
   0.19125871  0.11042327  0.08964200       0.009
   0.03825174  0.06625396  0.08964200       0.009
   0.07650348  0.08833862  0.08964200       0.018
   0.11475523  0.11042327  0.08964200       0.018
   0.15300697  0.13250792  0.08964200       0.018
   0.19125871  0.15459258  0.08964200       0.009
   0.07650348  0.13250792  0.08964200       0.009
   0.11475523  0.15459258  0.08964200       0.018
   0.15300697  0.17667723  0.08964200       0.018
   0.11475523  0.19876188  0.08964200       0.009
   0.15300697  0.22084654  0.08964200       0.009
   0.00000000  0.00000000  0.11205250       0.002
   0.03825174  0.02208465  0.11205250       0.009
   0.07650348  0.04416931  0.11205250       0.009
   0.11475523  0.06625396  0.11205250       0.009
   0.15300697  0.08833862  0.11205250       0.009
   0.19125871  0.11042327  0.11205250       0.009
   0.03825174  0.06625396  0.11205250       0.009
   0.07650348  0.08833862  0.11205250       0.018
   0.11475523  0.11042327  0.11205250       0.018
   0.15300697  0.13250792  0.11205250       0.018
   0.19125871  0.15459258  0.11205250       0.009
   0.07650348  0.13250792  0.11205250       0.009
   0.11475523  0.15459258  0.11205250       0.018
   0.15300697  0.17667723  0.11205250       0.018
   0.11475523  0.19876188  0.11205250       0.009
   0.15300697  0.22084654  0.11205250       0.009
 
 k-points in reciprocal lattice and weights: KPOINTS created by Atomic Simulation Env
   0.00000000  0.00000000  0.00000000       0.001
   0.09090909  0.00000000  0.00000000       0.005
   0.18181818  0.00000000  0.00000000       0.005
   0.27272727  0.00000000  0.00000000       0.005
   0.36363636  0.00000000  0.00000000       0.005
   0.45454545  0.00000000  0.00000000       0.005
   0.09090909  0.09090909  0.00000000       0.005
   0.18181818  0.09090909  0.00000000       0.009
   0.27272727  0.09090909  0.00000000       0.009
   0.36363636  0.09090909  0.00000000       0.009
   0.45454545  0.09090909  0.00000000       0.005
   0.18181818  0.18181818  0.00000000       0.005
   0.27272727  0.18181818  0.00000000       0.009
   0.36363636  0.18181818  0.00000000       0.009
   0.27272727  0.27272727  0.00000000       0.005
   0.36363636  0.27272727  0.00000000       0.005
   0.00000000  0.00000000  0.09090909       0.002
   0.09090909  0.00000000  0.09090909       0.009
   0.18181818  0.00000000  0.09090909       0.009
   0.27272727  0.00000000  0.09090909       0.009
   0.36363636  0.00000000  0.09090909       0.009
   0.45454545  0.00000000  0.09090909       0.009
   0.09090909  0.09090909  0.09090909       0.009
   0.18181818  0.09090909  0.09090909       0.018
   0.27272727  0.09090909  0.09090909       0.018
   0.36363636  0.09090909  0.09090909       0.018
   0.45454545  0.09090909  0.09090909       0.009
   0.18181818  0.18181818  0.09090909       0.009
   0.27272727  0.18181818  0.09090909       0.018
   0.36363636  0.18181818  0.09090909       0.018
   0.27272727  0.27272727  0.09090909       0.009
   0.36363636  0.27272727  0.09090909       0.009
   0.00000000  0.00000000  0.18181818       0.002
   0.09090909  0.00000000  0.18181818       0.009
   0.18181818  0.00000000  0.18181818       0.009
   0.27272727  0.00000000  0.18181818       0.009
   0.36363636  0.00000000  0.18181818       0.009
   0.45454545  0.00000000  0.18181818       0.009
   0.09090909  0.09090909  0.18181818       0.009
   0.18181818  0.09090909  0.18181818       0.018
   0.27272727  0.09090909  0.18181818       0.018
   0.36363636  0.09090909  0.18181818       0.018
   0.45454545  0.09090909  0.18181818       0.009
   0.18181818  0.18181818  0.18181818       0.009
   0.27272727  0.18181818  0.18181818       0.018
   0.36363636  0.18181818  0.18181818       0.018
   0.27272727  0.27272727  0.18181818       0.009
   0.36363636  0.27272727  0.18181818       0.009
   0.00000000  0.00000000  0.27272727       0.002
   0.09090909  0.00000000  0.27272727       0.009
   0.18181818  0.00000000  0.27272727       0.009
   0.27272727  0.00000000  0.27272727       0.009
   0.36363636  0.00000000  0.27272727       0.009
   0.45454545  0.00000000  0.27272727       0.009
   0.09090909  0.09090909  0.27272727       0.009
   0.18181818  0.09090909  0.27272727       0.018
   0.27272727  0.09090909  0.27272727       0.018
   0.36363636  0.09090909  0.27272727       0.018
   0.45454545  0.09090909  0.27272727       0.009
   0.18181818  0.18181818  0.27272727       0.009
   0.27272727  0.18181818  0.27272727       0.018
   0.36363636  0.18181818  0.27272727       0.018
   0.27272727  0.27272727  0.27272727       0.009
   0.36363636  0.27272727  0.27272727       0.009
   0.00000000  0.00000000  0.36363636       0.002
   0.09090909  0.00000000  0.36363636       0.009
   0.18181818  0.00000000  0.36363636       0.009
   0.27272727  0.00000000  0.36363636       0.009
   0.36363636  0.00000000  0.36363636       0.009
   0.45454545  0.00000000  0.36363636       0.009
   0.09090909  0.09090909  0.36363636       0.009
   0.18181818  0.09090909  0.36363636       0.018
   0.27272727  0.09090909  0.36363636       0.018
   0.36363636  0.09090909  0.36363636       0.018
   0.45454545  0.09090909  0.36363636       0.009
   0.18181818  0.18181818  0.36363636       0.009
   0.27272727  0.18181818  0.36363636       0.018
   0.36363636  0.18181818  0.36363636       0.018
   0.27272727  0.27272727  0.36363636       0.009
   0.36363636  0.27272727  0.36363636       0.009
   0.00000000  0.00000000  0.45454545       0.002
   0.09090909  0.00000000  0.45454545       0.009
   0.18181818  0.00000000  0.45454545       0.009
   0.27272727  0.00000000  0.45454545       0.009
   0.36363636  0.00000000  0.45454545       0.009
   0.45454545  0.00000000  0.45454545       0.009
   0.09090909  0.09090909  0.45454545       0.009
   0.18181818  0.09090909  0.45454545       0.018
   0.27272727  0.09090909  0.45454545       0.018
   0.36363636  0.09090909  0.45454545       0.018
   0.45454545  0.09090909  0.45454545       0.009
   0.18181818  0.18181818  0.45454545       0.009
   0.27272727  0.18181818  0.45454545       0.018
   0.36363636  0.18181818  0.45454545       0.018
   0.27272727  0.27272727  0.45454545       0.009
   0.36363636  0.27272727  0.45454545       0.009
 
 position of ions in fractional coordinates (direct lattice) 
   0.00000000  0.00000000  0.00000000
   0.33333333  0.66666667  0.50000000
 
 position of ions in cartesian coordinates  (Angst):
   0.00000000  0.00000000  0.00000000
   0.00000000  1.37213065  2.02827000
 


--------------------------------------------------------------------------------------------------------


 k-point   1 :   0.0000 0.0000 0.0000  plane waves:     209
 k-point   2 :   0.0909 0.0000 0.0000  plane waves:     219
 k-point   3 :   0.1818 0.0000 0.0000  plane waves:     217
 k-point   4 :   0.2727 0.0000 0.0000  plane waves:     212
 k-point   5 :   0.3636 0.0000 0.0000  plane waves:     210
 k-point   6 :   0.4545 0.0000 0.0000  plane waves:     214
 k-point   7 :   0.0909 0.0909 0.0000  plane waves:     221
 k-point   8 :   0.1818 0.0909 0.0000  plane waves:     207
 k-point   9 :   0.2727 0.0909 0.0000  plane waves:     211
 k-point  10 :   0.3636 0.0909 0.0000  plane waves:     214
 k-point  11 :   0.4545 0.0909 0.0000  plane waves:     214
 k-point  12 :   0.1818 0.1818 0.0000  plane waves:     213
 k-point  13 :   0.2727 0.1818 0.0000  plane waves:     210
 k-point  14 :   0.3636 0.1818 0.0000  plane waves:     208
 k-point  15 :   0.2727 0.2727 0.0000  plane waves:     207
 k-point  16 :   0.3636 0.2727 0.0000  plane waves:     211
 k-point  17 :   0.0000 0.0000 0.0909  plane waves:     209
 k-point  18 :   0.0909 0.0000 0.0909  plane waves:     222
 k-point  19 :   0.1818 0.0000 0.0909  plane waves:     208
 k-point  20 :   0.2727 0.0000 0.0909  plane waves:     211
 k-point  21 :   0.3636 0.0000 0.0909  plane waves:     213
 k-point  22 :   0.4545 0.0000 0.0909  plane waves:     218
 k-point  23 :   0.0909 0.0909 0.0909  plane waves:     219
 k-point  24 :   0.1818 0.0909 0.0909  plane waves:     209
 k-point  25 :   0.2727 0.0909 0.0909  plane waves:     211
 k-point  26 :   0.3636 0.0909 0.0909  plane waves:     212
 k-point  27 :   0.4545 0.0909 0.0909  plane waves:     214
 k-point  28 :   0.1818 0.1818 0.0909  plane waves:     213
 k-point  29 :   0.2727 0.1818 0.0909  plane waves:     208
 k-point  30 :   0.3636 0.1818 0.0909  plane waves:     211
 k-point  31 :   0.2727 0.2727 0.0909  plane waves:     206
 k-point  32 :   0.3636 0.2727 0.0909  plane waves:     209
 k-point  33 :   0.0000 0.0000 0.1818  plane waves:     221
 k-point  34 :   0.0909 0.0000 0.1818  plane waves:     219
 k-point  35 :   0.1818 0.0000 0.1818  plane waves:     208
 k-point  36 :   0.2727 0.0000 0.1818  plane waves:     211
 k-point  37 :   0.3636 0.0000 0.1818  plane waves:     211
 k-point  38 :   0.4545 0.0000 0.1818  plane waves:     216
 k-point  39 :   0.0909 0.0909 0.1818  plane waves:     212
 k-point  40 :   0.1818 0.0909 0.1818  plane waves:     212
 k-point  41 :   0.2727 0.0909 0.1818  plane waves:     211
 k-point  42 :   0.3636 0.0909 0.1818  plane waves:     213
 k-point  43 :   0.4545 0.0909 0.1818  plane waves:     214
 k-point  44 :   0.1818 0.1818 0.1818  plane waves:     213
 k-point  45 :   0.2727 0.1818 0.1818  plane waves:     212
 k-point  46 :   0.3636 0.1818 0.1818  plane waves:     210
 k-point  47 :   0.2727 0.2727 0.1818  plane waves:     208
 k-point  48 :   0.3636 0.2727 0.1818  plane waves:     211
 k-point  49 :   0.0000 0.0000 0.2727  plane waves:     221
 k-point  50 :   0.0909 0.0000 0.2727  plane waves:     216
 k-point  51 :   0.1818 0.0000 0.2727  plane waves:     205
 k-point  52 :   0.2727 0.0000 0.2727  plane waves:     208
 k-point  53 :   0.3636 0.0000 0.2727  plane waves:     211
 k-point  54 :   0.4545 0.0000 0.2727  plane waves:     211
 k-point  55 :   0.0909 0.0909 0.2727  plane waves:     208
 k-point  56 :   0.1818 0.0909 0.2727  plane waves:     211
 k-point  57 :   0.2727 0.0909 0.2727  plane waves:     211
 k-point  58 :   0.3636 0.0909 0.2727  plane waves:     212
 k-point  59 :   0.4545 0.0909 0.2727  plane waves:     213
 k-point  60 :   0.1818 0.1818 0.2727  plane waves:     213
 k-point  61 :   0.2727 0.1818 0.2727  plane waves:     211
 k-point  62 :   0.3636 0.1818 0.2727  plane waves:     213
 k-point  63 :   0.2727 0.2727 0.2727  plane waves:     214
 k-point  64 :   0.3636 0.2727 0.2727  plane waves:     207
 k-point  65 :   0.0000 0.0000 0.3636  plane waves:     215
 k-point  66 :   0.0909 0.0000 0.3636  plane waves:     211
 k-point  67 :   0.1818 0.0000 0.3636  plane waves:     206
 k-point  68 :   0.2727 0.0000 0.3636  plane waves:     208
 k-point  69 :   0.3636 0.0000 0.3636  plane waves:     209
 k-point  70 :   0.4545 0.0000 0.3636  plane waves:     209
 k-point  71 :   0.0909 0.0909 0.3636  plane waves:     206
 k-point  72 :   0.1818 0.0909 0.3636  plane waves:     210
 k-point  73 :   0.2727 0.0909 0.3636  plane waves:     211
 k-point  74 :   0.3636 0.0909 0.3636  plane waves:     211
 k-point  75 :   0.4545 0.0909 0.3636  plane waves:     213
 k-point  76 :   0.1818 0.1818 0.3636  plane waves:     207
 k-point  77 :   0.2727 0.1818 0.3636  plane waves:     212
 k-point  78 :   0.3636 0.1818 0.3636  plane waves:     215
 k-point  79 :   0.2727 0.2727 0.3636  plane waves:     214
 k-point  80 :   0.3636 0.2727 0.3636  plane waves:     213
 k-point  81 :   0.0000 0.0000 0.4545  plane waves:     215
 k-point  82 :   0.0909 0.0000 0.4545  plane waves:     209
 k-point  83 :   0.1818 0.0000 0.4545  plane waves:     212
 k-point  84 :   0.2727 0.0000 0.4545  plane waves:     207
 k-point  85 :   0.3636 0.0000 0.4545  plane waves:     206
 k-point  86 :   0.4545 0.0000 0.4545  plane waves:     207
 k-point  87 :   0.0909 0.0909 0.4545  plane waves:     209
 k-point  88 :   0.1818 0.0909 0.4545  plane waves:     208
 k-point  89 :   0.2727 0.0909 0.4545  plane waves:     209
 k-point  90 :   0.3636 0.0909 0.4545  plane waves:     210
 k-point  91 :   0.4545 0.0909 0.4545  plane waves:     206
 k-point  92 :   0.1818 0.1818 0.4545  plane waves:     209
 k-point  93 :   0.2727 0.1818 0.4545  plane waves:     212
 k-point  94 :   0.3636 0.1818 0.4545  plane waves:     213
 k-point  95 :   0.2727 0.2727 0.4545  plane waves:     211
 k-point  96 :   0.3636 0.2727 0.4545  plane waves:     216

 maximum number of plane-waves:       222
 maximum index in each direction: 
   IXMAX=    3   IYMAX=    3   IZMAX=    5
   IXMIN=   -3   IYMIN=   -3   IZMIN=   -5


 total amount of memory used by VASP MPI-rank0    49770. kBytes
=======================================================================

   base      :      30000. kBytes
   nonl-proj :       3076. kBytes
   grid      :        812. kBytes
   one-center:         31. kBytes
   wavefun   :      15851. kBytes
 
     INWAV:  cpu time    0.0000: real time    0.0000
 Broyden mixing: mesh for mixing (old mesh)
   NGX =  7   NGY =  7   NGZ = 11
  (NGX  = 20   NGY  = 20   NGZ  = 36)
  gives a total of    539 points

 initial charge density was supplied:
 charge density of overlapping atoms calculated
 number of electron      16.0000000 magnetization 
 keeping initial charge density in first step


--------------------------------------------------------------------------------------------------------


 Maximum index for augmentation-charges         3173 (set IRDMAX)


--------------------------------------------------------------------------------------------------------


 First call to EWALD:  gamma=   0.655
 Maximum number of real-space cells 3x 3x 2
 Maximum number of reciprocal cells 2x 2x 4

    FEWALD:  cpu time    0.0008: real time    0.0008


--------------------------------------- Iteration      1(   1)  ---------------------------------------


    POTLOK:  cpu time    0.0036: real time    0.0036
    SETDIJ:  cpu time    0.0022: real time    0.0022
     EDDAV:  cpu time    0.7738: real time    0.7927
       DOS:  cpu time    0.0056: real time    0.0056
    --------------------------------------------
      LOOP:  cpu time    0.7852: real time    0.8041

 eigenvalue-minimisations  :  9296
 total energy-change (2. order) : 0.6047068E+02  (-0.2644071E+03)
 number of electron      16.0000000 magnetization 
 augmentation part       16.0000000 magnetization 

 Free energy of the ion-electron system (eV)
  ---------------------------------------------------
  alpha Z        PSCENC =       139.32403138
  Ewald energy   TEWEN  =     -1238.37468616
  -Hartree energ DENC   =      -203.09115779
  -exchange      EXHF   =         0.00000000
  -V(xc)+E(xc)   XCENC  =         8.65899101
  PAW double counting   =      1109.69170683    -1125.09647265
  entropy T*S    EENTRO =         0.00133624
  eigenvalues    EBANDS =       180.78202032
  atomic energy  EATOM  =      1188.57490811
  Solvation  Ediel_sol  =         0.00000000
  ---------------------------------------------------
  free energy    TOTEN  =        60.47067729 eV

  energy without entropy =       60.46934105  energy(sigma->0) =       60.47023188


--------------------------------------------------------------------------------------------------------




--------------------------------------- Iteration      1(   2)  ---------------------------------------


     EDDAV:  cpu time    0.6852: real time    0.6853
       DOS:  cpu time    0.0061: real time    0.0061
    --------------------------------------------
      LOOP:  cpu time    0.6913: real time    0.6914

 eigenvalue-minimisations  :  7880
 total energy-change (2. order) :-0.7527690E+02  (-0.6393431E+02)
 number of electron      16.0000000 magnetization 
 augmentation part       16.0000000 magnetization 

 Free energy of the ion-electron system (eV)
  ---------------------------------------------------
  alpha Z        PSCENC =       139.32403138
  Ewald energy   TEWEN  =     -1238.37468616
  -Hartree energ DENC   =      -203.09115779
  -exchange      EXHF   =         0.00000000
  -V(xc)+E(xc)   XCENC  =         8.65899101
  PAW double counting   =      1109.69170683    -1125.09647265
  entropy T*S    EENTRO =         0.00303804
  eigenvalues    EBANDS =       105.50342016
  atomic energy  EATOM  =      1188.57490811
  Solvation  Ediel_sol  =         0.00000000
  ---------------------------------------------------
  free energy    TOTEN  =       -14.80622108 eV

  energy without entropy =      -14.80925911  energy(sigma->0) =      -14.80723376


--------------------------------------------------------------------------------------------------------




--------------------------------------- Iteration      1(   3)  ---------------------------------------


     EDDAV:  cpu time    0.7881: real time    0.7881
       DOS:  cpu time    0.0065: real time    0.0065
    --------------------------------------------
      LOOP:  cpu time    0.7946: real time    0.7946

 eigenvalue-minimisations  :  9504
 total energy-change (2. order) :-0.4456687E+01  (-0.4235450E+01)
 number of electron      16.0000000 magnetization 
 augmentation part       16.0000000 magnetization 

 Free energy of the ion-electron system (eV)
  ---------------------------------------------------
  alpha Z        PSCENC =       139.32403138
  Ewald energy   TEWEN  =     -1238.37468616
  -Hartree energ DENC   =      -203.09115779
  -exchange      EXHF   =         0.00000000
  -V(xc)+E(xc)   XCENC  =         8.65899101
  PAW double counting   =      1109.69170683    -1125.09647265
  entropy T*S    EENTRO =        -0.00073199
  eigenvalues    EBANDS =       101.05050346
  atomic energy  EATOM  =      1188.57490811
  Solvation  Ediel_sol  =         0.00000000
  ---------------------------------------------------
  free energy    TOTEN  =       -19.26290780 eV

  energy without entropy =      -19.26217581  energy(sigma->0) =      -19.26266380


--------------------------------------------------------------------------------------------------------




--------------------------------------- Iteration      1(   4)  ---------------------------------------


     EDDAV:  cpu time    0.7568: real time    0.7569
       DOS:  cpu time    0.0065: real time    0.0065
    --------------------------------------------
      LOOP:  cpu time    0.7633: real time    0.7633

 eigenvalue-minimisations  :  9112
 total energy-change (2. order) :-0.1972554E-01  (-0.1971073E-01)
 number of electron      16.0000000 magnetization 
 augmentation part       16.0000000 magnetization 

 Free energy of the ion-electron system (eV)
  ---------------------------------------------------
  alpha Z        PSCENC =       139.32403138
  Ewald energy   TEWEN  =     -1238.37468616
  -Hartree energ DENC   =      -203.09115779
  -exchange      EXHF   =         0.00000000
  -V(xc)+E(xc)   XCENC  =         8.65899101
  PAW double counting   =      1109.69170683    -1125.09647265
  entropy T*S    EENTRO =        -0.00080344
  eigenvalues    EBANDS =       101.03084937
  atomic energy  EATOM  =      1188.57490811
  Solvation  Ediel_sol  =         0.00000000
  ---------------------------------------------------
  free energy    TOTEN  =       -19.28263334 eV

  energy without entropy =      -19.28182990  energy(sigma->0) =      -19.28236552


--------------------------------------------------------------------------------------------------------




--------------------------------------- Iteration      1(   5)  ---------------------------------------


     EDDAV:  cpu time    0.7571: real time    0.7572
       DOS:  cpu time    0.0063: real time    0.0063
    CHARGE:  cpu time    0.0205: real time    0.0205
    MIXING:  cpu time    0.0002: real time    0.0002
    --------------------------------------------
      LOOP:  cpu time    0.7840: real time    0.7841

 eigenvalue-minimisations  :  9152
 total energy-change (2. order) :-0.2006993E-04  (-0.2006974E-04)
 number of electron      15.9999962 magnetization 
 augmentation part        7.0865979 magnetization 

 Broyden mixing:
  rms(total) = 0.17432E+01    rms(broyden)= 0.17432E+01
  rms(prec ) = 0.29702E+01
  weight for this iteration     100.00

 Free energy of the ion-electron system (eV)
  ---------------------------------------------------
  alpha Z        PSCENC =       139.32403138
  Ewald energy   TEWEN  =     -1238.37468616
  -Hartree energ DENC   =      -203.09115779
  -exchange      EXHF   =         0.00000000
  -V(xc)+E(xc)   XCENC  =         8.65899101
  PAW double counting   =      1109.69170683    -1125.09647265
  entropy T*S    EENTRO =        -0.00080353
  eigenvalues    EBANDS =       101.03082939
  atomic energy  EATOM  =      1188.57490811
  Solvation  Ediel_sol  =         0.00000000
  ---------------------------------------------------
  free energy    TOTEN  =       -19.28265341 eV

  energy without entropy =      -19.28184988  energy(sigma->0) =      -19.28238556


--------------------------------------------------------------------------------------------------------




--------------------------------------- Iteration      1(   6)  ---------------------------------------


    POTLOK:  cpu time    0.0034: real time    0.0034
    SETDIJ:  cpu time    0.0022: real time    0.0022
     EDDAV:  cpu time    0.9065: real time    0.9065
       DOS:  cpu time    0.0064: real time    0.0064
    CHARGE:  cpu time    0.0204: real time    0.0204
    MIXING:  cpu time    0.0002: real time    0.0002
    --------------------------------------------
      LOOP:  cpu time    0.9391: real time    0.9391

 eigenvalue-minimisations  : 11152
 total energy-change (2. order) : 0.2875103E+01  (-0.1688841E+00)
 number of electron      15.9999953 magnetization 
 augmentation part        8.4487853 magnetization 

 Broyden mixing:
  rms(total) = 0.21266E+00    rms(broyden)= 0.21256E+00
  rms(prec ) = 0.37080E+00
  weight for this iteration     100.00

 eigenvalues of (default mixing * dielectric matrix)
  average eigenvalue GAMMA=   0.9383
  0.9383

 Free energy of the ion-electron system (eV)
  ---------------------------------------------------
  alpha Z        PSCENC =       139.32403138
  Ewald energy   TEWEN  =     -1238.37468616
  -Hartree energ DENC   =      -169.21512177
  -exchange      EXHF   =         0.00000000
  -V(xc)+E(xc)   XCENC  =         7.00135828
  PAW double counting   =      1269.61969103    -1280.75521060
  entropy T*S    EENTRO =         0.00110963
  eigenvalues    EBANDS =        67.41636946
  atomic energy  EATOM  =      1188.57490811
  Solvation  Ediel_sol  =         0.00000000
  ---------------------------------------------------
  free energy    TOTEN  =       -16.40755062 eV

  energy without entropy =      -16.40866025  energy(sigma->0) =      -16.40792050


--------------------------------------------------------------------------------------------------------




--------------------------------------- Iteration      1(   7)  ---------------------------------------


    POTLOK:  cpu time    0.0034: real time    0.0034
    SETDIJ:  cpu time    0.0022: real time    0.0022
     EDDAV:  cpu time    0.8244: real time    0.8244
       DOS:  cpu time    0.0067: real time    0.0067
    CHARGE:  cpu time    0.0201: real time    0.0201
    MIXING:  cpu time    0.0002: real time    0.0002
    --------------------------------------------
      LOOP:  cpu time    0.8570: real time    0.8571

 eigenvalue-minimisations  : 10112
 total energy-change (2. order) : 0.1765947E+00  (-0.1085587E-01)
 number of electron      15.9999955 magnetization 
 augmentation part        8.1761513 magnetization 

 Broyden mixing:
  rms(total) = 0.10724E+00    rms(broyden)= 0.10724E+00
  rms(prec ) = 0.20256E+00
  weight for this iteration     100.00

 eigenvalues of (default mixing * dielectric matrix)
  average eigenvalue GAMMA=   0.9832
  1.2152  0.7512

 Free energy of the ion-electron system (eV)
  ---------------------------------------------------
  alpha Z        PSCENC =       139.32403138
  Ewald energy   TEWEN  =     -1238.37468616
  -Hartree energ DENC   =      -172.84234191
  -exchange      EXHF   =         0.00000000
  -V(xc)+E(xc)   XCENC  =         7.20918078
  PAW double counting   =      1351.47544161    -1366.12650974
  entropy T*S    EENTRO =         0.00101333
  eigenvalues    EBANDS =        74.52800664
  atomic energy  EATOM  =      1188.57490811
  Solvation  Ediel_sol  =         0.00000000
  ---------------------------------------------------
  free energy    TOTEN  =       -16.23095596 eV

  energy without entropy =      -16.23196928  energy(sigma->0) =      -16.23129373


--------------------------------------------------------------------------------------------------------




--------------------------------------- Iteration      1(   8)  ---------------------------------------


    POTLOK:  cpu time    0.0034: real time    0.0034
    SETDIJ:  cpu time    0.0022: real time    0.0022
     EDDAV:  cpu time    0.8166: real time    0.8166
       DOS:  cpu time    0.0066: real time    0.0066
    CHARGE:  cpu time    0.0202: real time    0.0202
    MIXING:  cpu time    0.0002: real time    0.0002
    --------------------------------------------
      LOOP:  cpu time    0.8491: real time    0.8491

 eigenvalue-minimisations  :  9936
 total energy-change (2. order) : 0.2743198E-01  (-0.2981152E-03)
 number of electron      15.9999955 magnetization 
 augmentation part        8.2029348 magnetization 

 Broyden mixing:
  rms(total) = 0.50601E-01    rms(broyden)= 0.50601E-01
  rms(prec ) = 0.93848E-01
  weight for this iteration     100.00

 eigenvalues of (default mixing * dielectric matrix)
  average eigenvalue GAMMA=   1.4711
  0.8024  1.0414  2.5695

 Free energy of the ion-electron system (eV)
  ---------------------------------------------------
  alpha Z        PSCENC =       139.32403138
  Ewald energy   TEWEN  =     -1238.37468616
  -Hartree energ DENC   =      -170.81374996
  -exchange      EXHF   =         0.00000000
  -V(xc)+E(xc)   XCENC  =         7.12865499
  PAW double counting   =      1416.27329122    -1432.29337514
  entropy T*S    EENTRO =         0.00104559
  eigenvalues    EBANDS =        73.97635598
  atomic energy  EATOM  =      1188.57490811
  Solvation  Ediel_sol  =         0.00000000
  ---------------------------------------------------
  free energy    TOTEN  =       -16.20352398 eV

  energy without entropy =      -16.20456957  energy(sigma->0) =      -16.20387251


--------------------------------------------------------------------------------------------------------




--------------------------------------- Iteration      1(   9)  ---------------------------------------


    POTLOK:  cpu time    0.0034: real time    0.0034
    SETDIJ:  cpu time    0.0021: real time    0.0021
     EDDAV:  cpu time    0.9235: real time    0.9235
       DOS:  cpu time    0.0066: real time    0.0066
    CHARGE:  cpu time    0.0201: real time    0.0201
    MIXING:  cpu time    0.0002: real time    0.0002
    --------------------------------------------
      LOOP:  cpu time    0.9559: real time    0.9560

 eigenvalue-minimisations  : 10952
 total energy-change (2. order) : 0.1108163E-01  (-0.9354297E-04)
 number of electron      15.9999955 magnetization 
 augmentation part        8.2179896 magnetization 

 Broyden mixing:
  rms(total) = 0.58996E-02    rms(broyden)= 0.58983E-02
  rms(prec ) = 0.68446E-02
  weight for this iteration     100.00

 eigenvalues of (default mixing * dielectric matrix)
  average eigenvalue GAMMA=   1.5812
  0.8024  1.0012  2.5994  1.9219

 Free energy of the ion-electron system (eV)
  ---------------------------------------------------
  alpha Z        PSCENC =       139.32403138
  Ewald energy   TEWEN  =     -1238.37468616
  -Hartree energ DENC   =      -168.72374564
  -exchange      EXHF   =         0.00000000
  -V(xc)+E(xc)   XCENC  =         7.05148938
  PAW double counting   =      1501.78135146    -1519.57736198
  entropy T*S    EENTRO =         0.00104445
  eigenvalues    EBANDS =        73.75052664
  atomic energy  EATOM  =      1188.57490811
  Solvation  Ediel_sol  =         0.00000000
  ---------------------------------------------------
  free energy    TOTEN  =       -16.19244235 eV

  energy without entropy =      -16.19348680  energy(sigma->0) =      -16.19279050


--------------------------------------------------------------------------------------------------------




--------------------------------------- Iteration      1(  10)  ---------------------------------------


    POTLOK:  cpu time    0.0033: real time    0.0033
    SETDIJ:  cpu time    0.0021: real time    0.0021
     EDDAV:  cpu time    0.7271: real time    0.7272
       DOS:  cpu time    0.0065: real time    0.0065
    CHARGE:  cpu time    0.0199: real time    0.0199
    MIXING:  cpu time    0.0002: real time    0.0002
    --------------------------------------------
      LOOP:  cpu time    0.7591: real time    0.7592

 eigenvalue-minimisations  :  8736
 total energy-change (2. order) :-0.2135838E-04  (-0.3423897E-05)
 number of electron      15.9999955 magnetization 
 augmentation part        8.2180508 magnetization 

 Broyden mixing:
  rms(total) = 0.22262E-02    rms(broyden)= 0.22256E-02
  rms(prec ) = 0.30085E-02
  weight for this iteration     100.00

 eigenvalues of (default mixing * dielectric matrix)
  average eigenvalue GAMMA=   1.6235
  2.5521  2.5521  0.8022  1.0048  1.2063

 Free energy of the ion-electron system (eV)
  ---------------------------------------------------
  alpha Z        PSCENC =       139.32403138
  Ewald energy   TEWEN  =     -1238.37468616
  -Hartree energ DENC   =      -168.77210866
  -exchange      EXHF   =         0.00000000
  -V(xc)+E(xc)   XCENC  =         7.05451188
  PAW double counting   =      1503.42073917    -1521.16214560
  entropy T*S    EENTRO =         0.00103973
  eigenvalues    EBANDS =        73.74124643
  atomic energy  EATOM  =      1188.57490811
  Solvation  Ediel_sol  =         0.00000000
  ---------------------------------------------------
  free energy    TOTEN  =       -16.19246371 eV

  energy without entropy =      -16.19350344  energy(sigma->0) =      -16.19281029


--------------------------------------------------------------------------------------------------------




--------------------------------------- Iteration      1(  11)  ---------------------------------------


    POTLOK:  cpu time    0.0034: real time    0.0034
    SETDIJ:  cpu time    0.0021: real time    0.0021
     EDDAV:  cpu time    0.7194: real time    0.7195
       DOS:  cpu time    0.0067: real time    0.0067
    CHARGE:  cpu time    0.0203: real time    0.0203
    MIXING:  cpu time    0.0002: real time    0.0002
    --------------------------------------------
      LOOP:  cpu time    0.7521: real time    0.7522

 eigenvalue-minimisations  :  8472
 total energy-change (2. order) : 0.8538956E-05  (-0.2018265E-07)
 number of electron      15.9999955 magnetization 
 augmentation part        8.2177553 magnetization 

 Broyden mixing:
  rms(total) = 0.15834E-03    rms(broyden)= 0.15818E-03
  rms(prec ) = 0.19594E-03
  weight for this iteration     100.00

 eigenvalues of (default mixing * dielectric matrix)
  average eigenvalue GAMMA=   1.5566
  2.5735  2.5735  0.8020  1.0065  1.0065  1.3777

 Free energy of the ion-electron system (eV)
  ---------------------------------------------------
  alpha Z        PSCENC =       139.32403138
  Ewald energy   TEWEN  =     -1238.37468616
  -Hartree energ DENC   =      -168.82944629
  -exchange      EXHF   =         0.00000000
  -V(xc)+E(xc)   XCENC  =         7.05726133
  PAW double counting   =      1503.13902591    -1520.82703085
  entropy T*S    EENTRO =         0.00103965
  eigenvalues    EBANDS =        73.74244173
  atomic energy  EATOM  =      1188.57490811
  Solvation  Ediel_sol  =         0.00000000
  ---------------------------------------------------
  free energy    TOTEN  =       -16.19245517 eV

  energy without entropy =      -16.19349482  energy(sigma->0) =      -16.19280172


--------------------------------------------------------------------------------------------------------




--------------------------------------- Iteration      1(  12)  ---------------------------------------


    POTLOK:  cpu time    0.0034: real time    0.0034
    SETDIJ:  cpu time    0.0021: real time    0.0021
     EDDAV:  cpu time    0.5631: real time    0.5632
       DOS:  cpu time    0.0064: real time    0.0064
    --------------------------------------------
      LOOP:  cpu time    0.5750: real time    0.5750

 eigenvalue-minimisations  :  5920
 total energy-change (2. order) : 0.3810667E-06  (-0.5960621E-08)
 number of electron      15.9999955 magnetization 
 augmentation part        8.2177553 magnetization 

 Free energy of the ion-electron system (eV)
  ---------------------------------------------------
  alpha Z        PSCENC =       139.32403138
  Ewald energy   TEWEN  =     -1238.37468616
  -Hartree energ DENC   =      -168.83228695
  -exchange      EXHF   =         0.00000000
  -V(xc)+E(xc)   XCENC  =         7.05740391
  PAW double counting   =      1503.22940048    -1520.91427713
  entropy T*S    EENTRO =         0.00103998
  eigenvalues    EBANDS =        73.74201158
  atomic energy  EATOM  =      1188.57490811
  Solvation  Ediel_sol  =         0.00000000
  ---------------------------------------------------
  free energy    TOTEN  =       -16.19245479 eV

  energy without entropy =      -16.19349477  energy(sigma->0) =      -16.19280145


--------------------------------------------------------------------------------------------------------




 average (electrostatic) potential at core
  the test charge radii are     1.0103
  (the norm of the test charge is              1.0000)
       1 -42.3651       2 -42.3650
 
 
 
 E-fermi :   7.1778     XC(G=0): -13.9504     alpha+bet :-15.6234

 Fermi energy:         7.1777977940

 k-point     1 :       0.0000    0.0000    0.0000
  band No.  band energies     occupation 
      1      -1.8556      2.00000
      2       2.0805      2.00000
      3       5.1195      2.00000
      4       5.5505      2.00000
      5       5.5506      2.00000
      6       5.9122      2.00000
      7       5.9123      2.00000
      8       6.7125      2.00485
      9       6.7125      2.00485
     10       6.8185      2.02915
     11       7.9579     -0.00000
     12       7.9580     -0.00000
     13      15.1642      0.00000
     14      30.3992      0.00000
     15      31.9111      0.00000
     16      33.6440      0.00000
     17      35.6008      0.00000
     18      35.6009      0.00000
     19      36.4708      0.00000
     20      36.4709      0.00000
     21      38.8892      0.00000
     22      39.5523      0.00000
     23      39.5523      0.00000
     24      40.6418      0.00000
     25      43.3882      0.00000
     26      43.3882      0.00000
     27      44.6462      0.00000
     28      47.0867      0.00000
     29      47.0870      0.00000
     30      48.9855      0.00000
     31      48.9856      0.00000
     32      51.9416      0.00000
     33      60.0955      0.00000
     34      62.4484      0.00000
     35      62.4493      0.00000
     36      62.6655      0.00000
     37      63.7853      0.00000
     38      64.9238      0.00000
     39      64.9250      0.00000
     40      66.5797      0.00000

 k-point     2 :       0.0909    0.0000    0.0000
  band No.  band energies     occupation 
      1      -1.5259      2.00000
      2       2.3173      2.00000
      3       5.0406      2.00000
      4       5.5691      2.00000
      5       5.7399      2.00000
      6       5.8015      2.00000
      7       5.8068      2.00000
      8       6.0872      2.00000
      9       6.5954      2.00030
     10       6.5992      2.00034
     11       7.9976     -0.00000
     12       9.2190     -0.00000
     13      15.1821      0.00000
     14      29.1424      0.00000
     15      31.8245      0.00000
     16      32.1764      0.00000
     17      32.8304      0.00000
     18      35.3632      0.00000
     19      35.6169      0.00000
     20      38.6292      0.00000
     21      39.0338      0.00000
     22      39.3409      0.00000
     23      40.1320      0.00000
     24      40.3664      0.00000
     25      44.4916      0.00000
     26      44.5048      0.00000
     27      44.7525      0.00000
     28      44.8428      0.00000
     29      48.5751      0.00000
     30      50.4474      0.00000
     31      51.3589      0.00000
     32      53.7267      0.00000
     33      59.2616      0.00000
     34      61.3252      0.00000
     35      61.7391      0.00000
     36      62.0348      0.00000
     37      62.2941      0.00000
     38      65.6990      0.00000
     39      66.4948      0.00000
     40      66.8525      0.00000

 k-point     3 :       0.1818    0.0000    0.0000
  band No.  band energies     occupation 
      1      -0.5922      2.00000
      2       2.8753      2.00000
      3       4.6462      2.00000
      4       4.7336      2.00000
      5       5.4229      2.00000
      6       6.0166      2.00000
      7       6.2776      2.00000
      8       6.2903      2.00000
      9       6.3168      2.00000
     10       6.5768      2.00018
     11       8.0675     -0.00000
     12      11.1308     -0.00000
     13      15.2712      0.00000
     14      25.4255      0.00000
     15      30.0112      0.00000
     16      30.6108      0.00000
     17      31.3058      0.00000
     18      32.8527      0.00000
     19      36.1384      0.00000
     20      37.7484      0.00000
     21      38.2071      0.00000
     22      38.3048      0.00000
     23      40.6514      0.00000
     24      42.0334      0.00000
     25      44.1272      0.00000
     26      45.2801      0.00000
     27      47.0344      0.00000
     28      49.3508      0.00000
     29      51.4486      0.00000
     30      53.8682      0.00000
     31      54.3053      0.00000
     32      57.1581      0.00000
     33      57.6963      0.00000
     34      58.7760      0.00000
     35      59.6364      0.00000
     36      61.2291      0.00000
     37      62.6895      0.00000
     38      66.2354      0.00000
     39      66.6715      0.00000
     40      68.3103      0.00000

 k-point     4 :       0.2727    0.0000    0.0000
  band No.  band energies     occupation 
      1       0.7384      2.00000
      2       3.1608      2.00000
      3       3.7565      2.00000
      4       4.6191      2.00000
      5       5.2667      2.00000
      6       5.9029      2.00000
      7       6.0029      2.00000
      8       6.7589      2.01164
      9       7.0407      1.90925
     10       7.2588      0.37258
     11       8.1205     -0.00000
     12      13.2596      0.00000
     13      15.4594      0.00000
     14      21.4786      0.00000
     15      27.5770      0.00000
     16      27.7252      0.00000
     17      29.0933      0.00000
     18      32.3701      0.00000
     19      34.3191      0.00000
     20      37.6018      0.00000
     21      38.3748      0.00000
     22      38.4696      0.00000
     23      38.5302      0.00000
     24      42.6034      0.00000
     25      47.6172      0.00000
     26      49.4399      0.00000
     27      50.4663      0.00000
     28      52.2437      0.00000
     29      53.6499      0.00000
     30      54.5942      0.00000
     31      56.0174      0.00000
     32      57.3211      0.00000
     33      59.0256      0.00000
     34      59.8375      0.00000
     35      60.0316      0.00000
     36      61.3560      0.00000
     37      63.3209      0.00000
     38      65.9502      0.00000
     39      67.2269      0.00000
     40      67.5213      0.00000

 k-point     5 :       0.3636    0.0000    0.0000
  band No.  band energies     occupation 
      1       1.9557      2.00000
      2       2.9149      2.00000
      3       3.1615      2.00000
      4       4.8255      2.00000
      5       5.5561      2.00000
      6       5.5839      2.00000
      7       5.7438      2.00000
      8       7.8066     -0.00008
      9       7.9488     -0.00000
     10       7.9554     -0.00000
     11       8.1446     -0.00000
     12      15.1587      0.00000
     13      15.5209      0.00000
     14      18.7827      0.00000
     15      24.5054      0.00000
     16      25.7162      0.00000
     17      26.4288      0.00000
     18      31.3635      0.00000
     19      33.1159      0.00000
     20      36.3674      0.00000
     21      37.2259      0.00000
     22      39.3923      0.00000
     23      40.6570      0.00000
     24      43.1366      0.00000
     25      50.9137      0.00000
     26      51.3140      0.00000
     27      51.3810      0.00000
     28      54.5775      0.00000
     29      54.9248      0.00000
     30      55.8772      0.00000
     31      58.1246      0.00000
     32      58.9262      0.00000
     33      59.0041      0.00000
     34      60.1886      0.00000
     35      61.9040      0.00000
     36      63.6580      0.00000
     37      65.4346      0.00000
     38      66.2299      0.00000
     39      66.8347      0.00000
     40      67.1155      0.00000

 k-point     6 :       0.4545    0.0000    0.0000
  band No.  band energies     occupation 
      1       2.4681      2.00000
      2       2.6868      2.00000
      3       2.8643      2.00000
      4       5.3233      2.00000
      5       5.3535      2.00000
      6       5.5981      2.00000
      7       5.8295      2.00000
      8       8.1510     -0.00000
      9       8.2746     -0.00000
     10       8.4197     -0.00000
     11       9.6015     -0.00000
     12      13.0617      0.00000
     13      17.6491      0.00000
     14      18.9544      0.00000
     15      21.9070      0.00000
     16      23.8553      0.00000
     17      24.6779      0.00000
     18      30.7134      0.00000
     19      32.7563      0.00000
     20      35.2528      0.00000
     21      37.0209      0.00000
     22      40.1210      0.00000
     23      42.8139      0.00000
     24      43.4599      0.00000
     25      47.5471      0.00000
     26      52.1071      0.00000
     27      53.3514      0.00000
     28      56.8208      0.00000
     29      57.7457      0.00000
     30      58.0369      0.00000
     31      59.0538      0.00000
     32      60.4487      0.00000
     33      60.5003      0.00000
     34      62.4543      0.00000
     35      62.5088      0.00000
     36      63.6309      0.00000
     37      65.3561      0.00000
     38      65.8119      0.00000
     39      66.2175      0.00000
     40      66.8794      0.00000

 k-point     7 :       0.0909    0.0909    0.0000
  band No.  band energies     occupation 
      1      -0.8917      2.00000
      2       2.7315      2.00000
      3       4.7904      2.00000
      4       4.9506      2.00000
      5       5.6006      2.00000
      6       5.7260      2.00000
      7       6.1322      2.00000
      8       6.1933      2.00000
      9       6.4694      2.00001
     10       6.5913      2.00027
     11       8.0240     -0.00000
     12      10.6010     -0.00000
     13      15.2400      0.00000
     14      27.1250      0.00000
     15      28.4208      0.00000
     16      32.4135      0.00000
     17      32.8588      0.00000
     18      33.9518      0.00000
     19      34.4206      0.00000
     20      36.6476      0.00000
     21      38.0558      0.00000
     22      41.2988      0.00000
     23      41.8749      0.00000
     24      42.5295      0.00000
     25      43.4387      0.00000
     26      43.4674      0.00000
     27      43.6047      0.00000
     28      49.7614      0.00000
     29      52.0681      0.00000
     30      52.3122      0.00000
     31      52.3622      0.00000
     32      56.4259      0.00000
     33      58.1863      0.00000
     34      59.6698      0.00000
     35      60.0886      0.00000
     36      61.2429      0.00000
     37      62.1783      0.00000
     38      66.4406      0.00000
     39      66.8105      0.00000
     40      68.3276      0.00000

 k-point     8 :       0.1818    0.0909    0.0000
  band No.  band energies     occupation 
      1       0.2637      2.00000
      2       3.2626      2.00000
      3       4.0800      2.00000
      4       4.4331      2.00000
      5       5.3480      2.00000
      6       5.7893      2.00000
      7       6.1617      2.00000
      8       6.3507      2.00000
      9       6.8351      2.03592
     10       7.1775      1.00278
     11       8.0491     -0.00000
     12      12.5118     -0.00000
     13      15.4283      0.00000
     14      23.4859      0.00000
     15      26.0531      0.00000
     16      29.4806      0.00000
     17      31.7875      0.00000
     18      31.8930      0.00000
     19      35.0558      0.00000
     20      36.3516      0.00000
     21      36.6215      0.00000
     22      41.3447      0.00000
     23      41.3831      0.00000
     24      41.9957      0.00000
     25      45.1852      0.00000
     26      46.1987      0.00000
     27      47.8828      0.00000
     28      52.4826      0.00000
     29      54.3467      0.00000
     30      55.2303      0.00000
     31      55.6045      0.00000
     32      57.6414      0.00000
     33      58.4717      0.00000
     34      58.6222      0.00000
     35      59.8679      0.00000
     36      59.9640      0.00000
     37      62.7369      0.00000
     38      66.3954      0.00000
     39      67.1531      0.00000
     40      68.2300      0.00000

 k-point     9 :       0.2727    0.0909    0.0000
  band No.  band energies     occupation 
      1       1.6205      2.00000
      2       3.2299      2.00000
      3       3.4207      2.00000
      4       4.4730      2.00000
      5       5.4114      2.00000
      6       5.4773      2.00000
      7       5.9883      2.00000
      8       6.8950      2.06249
      9       7.6108     -0.00905
     10       8.0606     -0.00000
     11       8.1017     -0.00000
     12      14.6744      0.00000
     13      15.6788      0.00000
     14      19.8854      0.00000
     15      24.3327      0.00000
     16      26.1827      0.00000
     17      28.7056      0.00000
     18      30.5257      0.00000
     19      34.3859      0.00000
     20      35.4142      0.00000
     21      37.6234      0.00000
     22      41.1390      0.00000
     23      41.1429      0.00000
     24      43.5364      0.00000
     25      47.1979      0.00000
     26      49.9721      0.00000
     27      51.8099      0.00000
     28      52.9406      0.00000
     29      53.1851      0.00000
     30      56.2740      0.00000
     31      57.7833      0.00000
     32      58.5116      0.00000
     33      59.3139      0.00000
     34      59.7486      0.00000
     35      61.3802      0.00000
     36      63.0667      0.00000
     37      64.4689      0.00000
     38      65.9943      0.00000
     39      66.4562      0.00000
     40      68.2385      0.00000

 k-point    10 :       0.3636    0.0909    0.0000
  band No.  band energies     occupation 
      1       2.5109      2.00000
      2       2.9300      2.00000
      3       3.0205      2.00000
      4       4.8686      2.00000
      5       5.3219      2.00000
      6       5.6464      2.00000
      7       5.7473      2.00000
      8       7.7619     -0.00029
      9       8.0601     -0.00000
     10       8.1606     -0.00000
     11       9.3032     -0.00000
     12      14.5157      0.00000
     13      16.9417      0.00000
     14      18.7086      0.00000
     15      23.0136      0.00000
     16      23.2379      0.00000
     17      25.5485      0.00000
     18      29.6175      0.00000
     19      33.4177      0.00000
     20      34.8457      0.00000
     21      38.3358      0.00000
     22      41.5647      0.00000
     23      42.6270      0.00000
     24      43.6040      0.00000
     25      49.4717      0.00000
     26      50.0138      0.00000
     27      52.3807      0.00000
     28      53.8672      0.00000
     29      55.4230      0.00000
     30      57.8175      0.00000
     31      57.8887      0.00000
     32      59.6015      0.00000
     33      60.5967      0.00000
     34      62.6726      0.00000
     35      62.9699      0.00000
     36      64.2303      0.00000
     37      64.6134      0.00000
     38      66.1139      0.00000
     39      67.3182      0.00000
     40      67.4001      0.00000

 k-point    11 :       0.4545    0.0909    0.0000
  band No.  band energies     occupation 
      1       2.6825      2.00000
      2       2.8346      2.00000
      3       2.8872      2.00000
      4       5.2117      2.00000
      5       5.3109      2.00000
      6       5.4755      2.00000
      7       5.8763      2.00000
      8       8.0584     -0.00000
      9       8.2478     -0.00000
     10       8.2599     -0.00000
     11      10.5333     -0.00000
     12      12.7162      0.00000
     13      18.4763      0.00000
     14      19.3985      0.00000
     15      21.4831      0.00000
     16      22.2900      0.00000
     17      24.0425      0.00000
     18      29.2960      0.00000
     19      33.0201      0.00000
[...]
     18      27.9815      0.00000
     19      32.8940      0.00000
     20      33.5751      0.00000
     21      37.0579      0.00000
     22      37.8446      0.00000
     23      42.5693      0.00000
     24      43.7882      0.00000
     25      49.5519      0.00000
     26      51.3423      0.00000
     27      53.0108      0.00000
     28      53.7641      0.00000
     29      57.3152      0.00000
     30      58.7463      0.00000
     31      59.6704      0.00000
     32      60.1883      0.00000
     33      62.5169      0.00000
     34      62.8408      0.00000
     35      63.0355      0.00000
     36      63.2075      0.00000
     37      65.1010      0.00000
     38      66.0100      0.00000
     39      67.1382      0.00000
     40      67.7108      0.00000

 k-point    91 :       0.4545    0.0909    0.4545
  band No.  band energies     occupation 
      1       2.3403      2.00000
      2       2.4974      2.00000
      3       3.7923      2.00000
      4       3.9172      2.00000
      5       6.0413      2.00000
      6       6.4754      2.00001
      7       7.1255      1.42647
      8       7.4278     -0.07073
      9       8.1514     -0.00000
     10       8.1611     -0.00000
     11      10.4532     -0.00000
     12      10.9661     -0.00000
     13      16.9650      0.00000
     14      16.9926      0.00000
     15      25.0956      0.00000
     16      25.9218      0.00000
     17      27.4863      0.00000
     18      28.0206      0.00000
     19      32.6963      0.00000
     20      32.8430      0.00000
     21      36.4060      0.00000
     22      36.7192      0.00000
     23      42.6959      0.00000
     24      43.9384      0.00000
     25      49.7539      0.00000
     26      51.6019      0.00000
     27      56.2722      0.00000
     28      56.9731      0.00000
     29      57.2388      0.00000
     30      57.8612      0.00000
     31      58.8996      0.00000
     32      59.8327      0.00000
     33      63.5271      0.00000
     34      63.5348      0.00000
     35      64.0523      0.00000
     36      64.9211      0.00000
     37      65.3982      0.00000
     38      65.4094      0.00000
     39      67.7459      0.00000
     40      67.9340      0.00000

 k-point    92 :       0.1818    0.1818    0.4545
  band No.  band energies     occupation 
      1       2.3859      2.00000
      2       2.6783      2.00000
      3       4.3163      2.00000
      4       4.3926      2.00000
      5       4.8641      2.00000
      6       4.9374      2.00000
      7       6.3866      2.00000
      8       6.6426      2.00102
      9       7.9556     -0.00000
     10       8.0493     -0.00000
     11       8.5597     -0.00000
     12       9.1451     -0.00000
     13      23.0896      0.00000
     14      23.4772      0.00000
     15      23.7449      0.00000
     16      24.8199      0.00000
     17      25.4265      0.00000
     18      26.9698      0.00000
     19      36.9492      0.00000
     20      37.9877      0.00000
     21      38.5201      0.00000
     22      39.5756      0.00000
     23      41.4291      0.00000
     24      41.5142      0.00000
     25      47.5838      0.00000
     26      48.0463      0.00000
     27      52.2784      0.00000
     28      52.5752      0.00000
     29      54.5894      0.00000
     30      56.0768      0.00000
     31      57.3376      0.00000
     32      57.8179      0.00000
     33      59.7190      0.00000
     34      59.7267      0.00000
     35      61.8015      0.00000
     36      61.9553      0.00000
     37      64.8439      0.00000
     38      66.0138      0.00000
     39      66.8859      0.00000
     40      67.1561      0.00000

 k-point    93 :       0.2727    0.1818    0.4545
  band No.  band energies     occupation 
      1       2.7540      2.00000
      2       2.8716      2.00000
      3       4.1507      2.00000
      4       4.3685      2.00000
      5       5.1237      2.00000
      6       5.2916      2.00000
      7       6.3449      2.00000
      8       6.5948      2.00030
      9       8.0602     -0.00000
     10       8.2979     -0.00000
     11      10.0217     -0.00000
     12      10.5849     -0.00000
     13      19.9125      0.00000
     14      20.5218      0.00000
     15      22.6602      0.00000
     16      23.4197      0.00000
     17      26.2659      0.00000
     18      28.0936      0.00000
     19      34.8858      0.00000
     20      36.4079      0.00000
     21      37.6264      0.00000
     22      39.0354      0.00000
     23      41.8070      0.00000
     24      42.2924      0.00000
     25      48.8217      0.00000
     26      49.3429      0.00000
     27      53.4465      0.00000
     28      55.1569      0.00000
     29      57.1245      0.00000
     30      58.8755      0.00000
     31      59.4059      0.00000
     32      59.9632      0.00000
     33      60.8936      0.00000
     34      60.9807      0.00000
     35      62.0529      0.00000
     36      62.1999      0.00000
     37      65.0748      0.00000
     38      66.4211      0.00000
     39      66.9373      0.00000
     40      67.3380      0.00000

 k-point    94 :       0.3636    0.1818    0.4545
  band No.  band energies     occupation 
      1       2.7916      2.00000
      2       2.9500      2.00000
      3       4.0373      2.00000
      4       4.2545      2.00000
      5       5.2353      2.00000
      6       5.5827      2.00000
      7       6.6865      2.00281
      8       6.8184      2.02909
      9       8.0194     -0.00000
     10       8.1884     -0.00000
     11      11.7112     -0.00000
     12      12.1630     -0.00000
     13      17.3668      0.00000
     14      17.7566      0.00000
     15      22.0316      0.00000
     16      22.8047      0.00000
     17      27.8647      0.00000
     18      29.0250      0.00000
     19      33.3967      0.00000
     20      34.4916      0.00000
     21      36.5439      0.00000
     22      38.0377      0.00000
     23      42.6384      0.00000
     24      42.9800      0.00000
     25      52.0268      0.00000
     26      52.6447      0.00000
     27      53.7054      0.00000
     28      55.4197      0.00000
     29      56.7417      0.00000
     30      57.3143      0.00000
     31      59.1040      0.00000
     32      60.4514      0.00000
     33      62.2449      0.00000
     34      62.4953      0.00000
     35      64.0540      0.00000
     36      64.4540      0.00000
     37      65.5656      0.00000
     38      65.7851      0.00000
     39      66.5280      0.00000
     40      67.4565      0.00000

 k-point    95 :       0.2727    0.2727    0.4545
  band No.  band energies     occupation 
      1       3.1935      2.00000
      2       3.2419      2.00000
      3       4.2173      2.00000
      4       4.4481      2.00000
      5       4.8211      2.00000
      6       5.0462      2.00000
      7       6.2963      2.00000
      8       6.5078      2.00002
      9       8.0334     -0.00000
     10       8.2139     -0.00000
     11      12.1449     -0.00000
     12      12.6917      0.00000
     13      18.3780      0.00000
     14      18.8241      0.00000
     15      20.2685      0.00000
     16      20.6740      0.00000
     17      28.0291      0.00000
     18      29.7145      0.00000
     19      33.4638      0.00000
     20      34.9381      0.00000
     21      36.4106      0.00000
     22      37.5705      0.00000
     23      44.5452      0.00000
     24      44.9516      0.00000
     25      49.0468      0.00000
     26      49.1564      0.00000
     27      56.1409      0.00000
     28      56.8433      0.00000
     29      56.9398      0.00000
     30      58.4235      0.00000
     31      59.9696      0.00000
     32      60.0781      0.00000
     33      60.6043      0.00000
     34      60.8812      0.00000
     35      63.7028      0.00000
     36      64.0793      0.00000
     37      65.0643      0.00000
     38      65.3689      0.00000
     39      66.2037      0.00000
     40      67.0812      0.00000

 k-point    96 :       0.3636    0.2727    0.4545
  band No.  band energies     occupation 
      1       3.3942      2.00000
      2       3.5280      2.00000
      3       4.1256      2.00000
      4       4.2037      2.00000
      5       4.8619      2.00000
      6       4.9776      2.00000
      7       6.3716      2.00000
      8       6.5337      2.00005
      9       8.0001     -0.00000
     10       8.0684     -0.00000
     11      13.9560      0.00000
     12      14.0849      0.00000
     13      16.7323      0.00000
     14      17.0921      0.00000
     15      19.6234      0.00000
     16      20.0775      0.00000
     17      29.6751      0.00000
     18      30.4940      0.00000
     19      32.6444      0.00000
     20      32.9522      0.00000
     21      36.1821      0.00000
     22      37.0403      0.00000
     23      45.7735      0.00000
     24      46.4352      0.00000
     25      50.4080      0.00000
     26      50.8141      0.00000
     27      53.3347      0.00000
     28      53.6962      0.00000
     29      57.7761      0.00000
     30      59.3476      0.00000
     31      60.2021      0.00000
     32      60.9883      0.00000
     33      61.7535      0.00000
     34      61.8385      0.00000
     35      62.0986      0.00000
     36      63.4418      0.00000
     37      65.1046      0.00000
     38      66.7578      0.00000
     39      67.8689      0.00000
     40      67.9958      0.00000


--------------------------------------------------------------------------------------------------------


 soft charge-density along one line, spin component           1
         0         1         2         3         4         5         6         7         8         9
x     7.7822    0.0000    0.1076   -0.1864   -0.0605   -0.1048    0.0172   -0.0000    0.0017   -0.0029
x     0.0000    0.0000
y     7.7822    0.0000    0.1076    0.1864   -0.0605    0.1048    0.0172    0.0000    0.0017    0.0029
y     0.0000    0.0000
z     7.7822    0.0000    0.0000   -0.0000    0.3846    0.0000    0.0000    0.0000   -0.1602   -0.0000
z     0.0000   -0.0000    0.0206   -0.0000    0.0000   -0.0000    0.0057   -0.0000    0.0000    0.0000
 total charge-density along one line
x    16.0000    0.0000    1.4974   -2.5936    0.3099    0.5368    0.0347    0.0000    0.0006   -0.0011
x     0.0003    0.0005   -0.0006   -0.0000    0.0001   -0.0001   -0.0001   -0.0001    0.0001   -0.0000
x    -0.0000    0.0000
y    16.0000    0.0000    1.4974    2.5936    0.3099   -0.5368    0.0347   -0.0000    0.0006    0.0011
y     0.0003   -0.0005   -0.0006    0.0000    0.0001    0.0001   -0.0001    0.0001    0.0001    0.0000
y    -0.0000   -0.0000
z    16.0000    0.0000   -0.0000    0.0000    5.8817   -0.0000   -0.0000    0.0000    1.2346   -0.0000
z    -0.0000   -0.0000    0.0268   -0.0000    0.0000   -0.0000    0.0058   -0.0000    0.0000    0.0000
z     0.0002   -0.0000    0.0000   -0.0000   -0.0001    0.0000    0.0000   -0.0000    0.0001    0.0000
z     0.0000   -0.0000   -0.0000   -0.0000   -0.0000   -0.0000    0.0000   -0.0000
 
 pseudopotential strength for first ion, spin component:           1
 -4.267  -0.000  -0.000  -0.000  -0.000  -4.836  -0.000  -0.000
 -0.000  -4.265  -0.000  -0.000   0.000  -0.000  -4.833  -0.000
 -0.000  -0.000  -4.273  -0.000  -0.000  -0.000  -0.000  -4.842
 -0.000  -0.000  -0.000  -4.265  -0.000  -0.000  -0.000  -0.000
 -0.000   0.000  -0.000  -0.000  -4.267  -0.000   0.000  -0.000
 -4.836  -0.000  -0.000  -0.000  -0.000  -5.361  -0.000  -0.000
 -0.000  -4.833  -0.000  -0.000   0.000  -0.000  -5.359  -0.000
 -0.000  -0.000  -4.842  -0.000  -0.000  -0.000  -0.000  -5.367
 -0.000  -0.000  -0.000  -4.833  -0.000  -0.000  -0.000  -0.000
 -0.000   0.000  -0.000  -0.000  -4.836  -0.000   0.000  -0.000
  0.000   0.000   0.001   0.000  -0.000   0.000   0.000   0.001
  0.000   0.000   0.003   0.000  -0.000   0.000   0.000   0.002
 -0.000   0.000   0.000   0.000  -0.001  -0.000   0.000   0.000
  0.000  -0.000  -0.000   0.000   0.000   0.000  -0.000  -0.000
 -0.001   0.000   0.000   0.000  -0.000  -0.001   0.000   0.000
 -0.000   0.000   0.000   0.000  -0.001  -0.000   0.000   0.000
  0.000  -0.000   0.000   0.000   0.000   0.000  -0.000   0.000
 -0.001   0.000   0.000   0.000  -0.000  -0.001   0.000   0.000
 total augmentation occupancy for first ion, spin component:           1
  1.659   0.000   0.000   0.000   0.000  -1.014   0.000  -0.000   0.000  -0.000   0.000  -0.000   0.000   0.000   0.035  -0.000
 -0.000   1.999  -0.000  -0.000  -0.000   0.000  -1.184  -0.000   0.000   0.000   0.000   0.000   0.000   0.000   0.000   0.000
  0.000  -0.000   1.366   0.000  -0.000  -0.000  -0.000  -0.801   0.000   0.000   0.004  -0.006  -0.000   0.000   0.000   0.000
  0.000  -0.000  -0.000   1.999  -0.000   0.000   0.000   0.000  -1.184   0.000   0.000   0.000  -0.000   0.000   0.000   0.000
  0.000   0.000  -0.000   0.000   1.659  -0.000   0.000   0.000   0.000  -1.014   0.000   0.000   0.035  -0.000  -0.000  -0.002
 -1.014   0.000  -0.000   0.000  -0.000   1.734   0.000   0.000  -0.000   0.000  -0.000   0.000  -0.000   0.000  -0.052   0.000
  0.000  -1.184   0.000   0.000   0.000   0.000   1.713   0.000  -0.000   0.000  -0.000  -0.000   0.000   0.000   0.000  -0.000
 -0.000  -0.000  -0.801  -0.000   0.000   0.000   0.000   1.587   0.000  -0.000  -0.054   0.006   0.000   0.000  -0.000  -0.000
  0.000   0.000   0.000  -1.184   0.000   0.000  -0.000   0.000   1.713   0.000   0.000   0.000   0.000  -0.000  -0.000   0.000
 -0.000   0.000   0.000   0.000  -1.014  -0.000   0.000  -0.000   0.000   1.734   0.000  -0.000  -0.052   0.000   0.000   0.003
  0.000   0.000   0.004   0.000   0.000  -0.000   0.000  -0.054   0.000   0.000   2.744  -0.319   0.000   0.000  -0.000   0.000
 -0.000  -0.000  -0.006   0.000   0.000   0.000   0.000   0.006   0.000  -0.000  -0.319   0.042   0.000   0.000   0.000  -0.000
  0.000  -0.000  -0.000  -0.000   0.035  -0.000   0.000   0.000   0.000  -0.052  -0.000   0.000   0.363   0.000  -0.000  -0.030
  0.000  -0.000   0.000   0.000   0.000   0.000   0.000   0.000   0.000   0.000   0.000   0.000   0.000   0.351   0.000  -0.000
  0.035   0.000   0.000  -0.000  -0.000  -0.052  -0.000  -0.000   0.000   0.000   0.000   0.000  -0.000   0.000   0.363   0.000
 -0.000  -0.000   0.000   0.000  -0.002   0.000  -0.000  -0.000   0.000   0.003   0.000   0.000  -0.030  -0.000   0.000   0.003
  0.000   0.000   0.000   0.000  -0.000   0.000   0.000   0.000   0.000  -0.000   0.000   0.000  -0.000  -0.031   0.000  -0.000
 -0.002   0.000  -0.000   0.000   0.000   0.003  -0.000   0.000   0.000  -0.000  -0.000   0.000   0.000   0.000  -0.030  -0.000


------------------------ aborting loop because EDIFF is reached ----------------------------------------


    CHARGE:  cpu time    0.0215: real time    0.0215
    FORLOC:  cpu time    0.0002: real time    0.0002
    FORNL :  cpu time    0.0947: real time    0.0947
    STRESS:  cpu time    0.1475: real time    0.1475
    FORCOR:  cpu time    0.0035: real time    0.0035
    FORHAR:  cpu time    0.0008: real time    0.0008
    MIXING:  cpu time    0.0002: real time    0.0002

  FORCE on cell =-STRESS in cart. coord.  units (eV):
  Direction    XX          YY          ZZ          XY          YZ          ZX
  --------------------------------------------------------------------------------------
  Alpha Z   139.32403   139.32403   139.32403
  Ewald    -404.76906  -404.76906  -428.83707     0.00000     0.00000    -0.00000
  Hartree    59.25009    59.25010    50.33081    -0.00000    -0.00000    -0.00000
  E(xc)     -78.82024   -78.82030   -78.65728     0.00028     0.00000     0.00000
  Local     112.92266   112.92289   144.68012    -0.00092     0.00000     0.00000
  n-local   -52.34969   -51.77490   -53.63085    -3.75292     1.51040     1.04667
  augment    75.73202    75.73134    75.79947     0.00122    -0.00000    -0.00000
  Kinetic   153.79998   147.74614   148.80786     1.00344    -1.06326     0.08504
  Fock        0.00000     0.00000     0.00000     0.00000     0.00000     0.00000
  -------------------------------------------------------------------------------------
  Total       2.35002     2.35002    -2.18292    -0.00000     0.00000     0.00000
  in kB     189.75075   189.75075  -176.25823    -0.00000     0.00000     0.00000
  external pressure =       67.75 kB  Pullay stress =        0.00 kB


 VOLUME and BASIS-vectors are now :
 -----------------------------------------------------------------------------
  energy-cutoff  :      280.00
  volume of cell :       19.84
      direct lattice vectors                 reciprocal lattice vectors
     2.376600000  0.000000000  0.000000000     0.420769166  0.242931191  0.000000000
    -1.188300000  2.058195975  0.000000000     0.000000000  0.485862383  0.000000000
     0.000000000  0.000000000  4.056540000     0.000000000  0.000000000  0.246515503

  length of vectors
     2.376600000  2.376600000  4.056540000     0.485862383  0.485862383  0.246515503


 FORCES acting on ions
    electron-ion (+dipol)            ewald-force                    non-local-force                 convergence-correction
 -----------------------------------------------------------------------------------------------
   0.257E-06 -.116E-05 -.888E-15   0.705E-12 -.392E-12 -.237E-13   0.103E-16 0.290E-17 0.113E-19   -.971E-08 0.550E-08 0.127E-13
   -.922E-06 0.827E-05 0.242E-12   -.702E-12 0.396E-12 0.237E-13   -.108E-16 0.278E-17 0.997E-20   0.989E-08 -.559E-08 0.248E-13
 -----------------------------------------------------------------------------------------------
   -.664E-06 0.711E-05 0.242E-12   0.339E-14 0.395E-14 -.133E-16   -.539E-18 0.568E-17 0.212E-19   0.171E-09 -.988E-10 0.375E-13
 
 
 POSITION                                       TOTAL-FORCE (eV/Angst)
 -----------------------------------------------------------------------------------
      0.00000      0.00000      0.00000         0.000000      0.000000      0.000000
      0.00000      1.37213      2.02827        -0.000000     -0.000000     -0.000000
 -----------------------------------------------------------------------------------
    total drift:                               -0.000001      0.000007      0.000000


--------------------------------------------------------------------------------------------------------



  FREE ENERGIE OF THE ION-ELECTRON SYSTEM (eV)
  ---------------------------------------------------
  free  energy   TOTEN  =       -16.19245479 eV

  energy  without entropy=      -16.19349477  energy(sigma->0) =      -16.19280145
 


--------------------------------------------------------------------------------------------------------


    POTLOK:  cpu time    0.0057: real time    0.0057


--------------------------------------------------------------------------------------------------------


 writing wavefunctions
     LOOP+:  cpu time    9.8196: real time    9.8391
    4ORBIT:  cpu time    0.0000: real time    0.0000

 total amount of memory used by VASP MPI-rank0    49770. kBytes
=======================================================================

   base      :      30000. kBytes
   nonl-proj :       3076. kBytes
   grid      :        812. kBytes
   one-center:         31. kBytes
   wavefun   :      15851. kBytes
 
  
  
 General timing and accounting informations for this job:
 ========================================================
  
                  Total CPU time used (sec):        9.993
                            User time (sec):        9.941
                          System time (sec):        0.052
                         Elapsed time (sec):       10.005
  
                   Maximum memory used (kb):       55304.
                   Average memory used (kb):          N/A
  
                          Minor page faults:         7429
                          Major page faults:            0
                 Voluntary context switches:           26
