unknown system                          
   1.00000000000000     
     2.353300    0.000000    0.000000
    -1.176650    2.038018    0.000000
     0.000000    0.000000    4.099590
   Fe
     2
Direct
  0.000000  0.000000  0.000000
  0.333333  0.666667  0.500000
 
   20   20   36
 0.16502176665E+03 0.15620438305E+03 0.13253311442E+03 0.10084723224E+03 0.68780246772E+02
 0.42083624756E+02 0.23638581761E+02 0.13577818144E+02 0.97571656571E+01 0.86924874100E+01
 0.83520975447E+01 0.86927772163E+01 0.97574072832E+01 0.13577755022E+02 0.23638338410E+02
 0.42083519456E+02 0.68780389657E+02 0.10084743221E+03 0.13253317187E+03 0.15620433539E+03
 0.15621122654E+03 0.15620420040E+03 0.13999938629E+03 0.11251665353E+03 0.81074177848E+02
 0.52333053193E+02 0.30515422016E+02 0.17051022733E+02 0.10863195231E+02 0.89950227362E+01
 0.83434732621E+01 0.83429265857E+01 0.89944543916E+01 0.10863775075E+02 0.17051444813E+02
 0.30513840335E+02 0.52331550047E+02 0.81078552643E+02 0.11252961351E+03 0.14001489671E+03
 0.13254339413E+03 0.13997624079E+03 0.13253315852E+03 0.11251683260E+03 0.85631670305E+02
 0.58365896998E+02 0.35747063293E+02 0.20351471730E+02 0.12230225165E+02 0.92947922800E+01
 0.83661621674E+01 0.80482558149E+01 0.83648661798E+01 0.92945163808E+01 0.12231311573E+02
 0.20350878920E+02 0.35743103608E+02 0.58362657864E+02 0.85635563846E+02 0.11252812626E+03
 0.10084292604E+03 0.11244456008E+03 0.11244611717E+03 0.10084757459E+03 0.81074118355E+02
 0.58365747110E+02 0.37701408571E+02 0.22363496243E+02 0.13383661966E+02 0.96176457819E+01
 0.84075076850E+01 0.78396865547E+01 0.78392266316E+01 0.84070032487E+01 0.96183485150E+01
 0.13384959853E+02 0.22362939578E+02 0.37697211362E+02 0.58358785647E+02 0.81067155327E+02
 0.68766077089E+02 0.80968726921E+02 0.85491545293E+02 0.80980065415E+02 0.68780267522E+02
 0.52332756410E+02 0.35747137587E+02 0.22363605263E+02 0.13835474401E+02 0.98434039821E+01
 0.84467336906E+01 0.77186010750E+01 0.74729447745E+01 0.77188380764E+01 0.84468920795E+01
 0.98442404702E+01 0.13838344789E+02 0.22367445750E+02 0.35747193910E+02 0.52324658903E+02
 0.42082157570E+02 0.52253478493E+02 0.58224571755E+02 0.58228405440E+02 0.52260291973E+02
 0.42083467856E+02 0.30515430473E+02 0.20351702276E+02 0.13383575892E+02 0.98433348741E+01
 0.84628649036E+01 0.76667208655E+01 0.72679908761E+01 0.72685095184E+01 0.76669314153E+01
 0.84614958088E+01 0.98428785845E+01 0.13388104140E+02 0.20360619195E+02 0.30522093365E+02
 0.23648560676E+02 0.30501621633E+02 0.35684664902E+02 0.37613583061E+02 0.35680632218E+02
 0.30493480431E+02 0.23638460522E+02 0.17051179583E+02 0.12230190146E+02 0.96174836104E+01
 0.84468339656E+01 0.76667619698E+01 0.72033930259E+01 0.70556502712E+01 0.72043068885E+01
 0.76657934740E+01 0.84428017774E+01 0.96136183982E+01 0.12231311573E+02 0.17058559901E+02
 0.13577193457E+02 0.17082336708E+02 0.20382746105E+02 0.22379270812E+02 0.22374777971E+02
 0.20373029392E+02 0.17075238452E+02 0.13577790087E+02 0.10863288393E+02 0.92946453764E+01
 0.84075676892E+01 0.77187090204E+01 0.72678657775E+01 0.70556174522E+01 0.70564357805E+01
 0.72693098392E+01 0.77182765115E+01 0.84030586412E+01 0.92866995564E+01 0.10856322366E+02
 0.97461112156E+01 0.10901833826E+02 0.12308059373E+02 0.13479779908E+02 0.13933878308E+02
 0.13476656610E+02 0.12308007690E+02 0.10909137884E+02 0.97572855832E+01 0.89949920913E+01
 0.83660887143E+01 0.78398088118E+01 0.74728541180E+01 0.72684273424E+01 0.72044668281E+01
 0.72693527619E+01 0.74759612743E+01 0.78437328039E+01 0.83659399820E+01 0.89875632474E+01
 0.86922572849E+01 0.90381152831E+01 0.93825588240E+01 0.97434000453E+01 0.99907254489E+01
 0.99921233339E+01 0.97481962761E+01 0.93903833125E+01 0.90449005184E+01 0.86925911431E+01
 0.83433451813E+01 0.80483125100E+01 0.78392888803E+01 0.77187506539E+01 0.76670579568E+01
 0.76658789113E+01 0.77180811436E+01 0.78436727956E+01 0.80571541357E+01 0.83503376613E+01
 0.83623198100E+01 0.84022372922E+01 0.84675056506E+01 0.85468615202E+01 0.86157017088E+01
 0.86449060221E+01 0.86197045092E+01 0.85508014990E+01 0.84665894251E+01 0.83949887505E+01
 0.83520630590E+01 0.83428684510E+01 0.83650149120E+01 0.84069629230E+01 0.84468339656E+01
 0.84615462191E+01 0.84426433885E+01 0.84029583114E+01 0.83661621674E+01 0.83504076075E+01
 0.86920234863E+01 0.84021737589E+01 0.81610205949E+01 0.79958177294E+01 0.79084050611E+01
 0.78773964478E+01 0.78784543806E+01 0.79088247810E+01 0.79912934591E+01 0.81522987355E+01
 0.83954958754E+01 0.86926471509E+01 0.89945281676E+01 0.92945477351E+01 0.96181714785E+01
 0.98442328362E+01 0.98429400584E+01 0.96136035332E+01 0.92868778144E+01 0.89876676684E+01
 0.97459287240E+01 0.90380313026E+01 0.84677298700E+01 0.79958562272E+01 0.76727791333E+01
 0.74978381230E+01 0.74445845404E+01 0.74971264245E+01 0.76697892189E+01 0.79917573828E+01
 0.84676040928E+01 0.90454204499E+01 0.97573447178E+01 0.10863849958E+02 0.12231204813E+02
 0.13384937777E+02 0.13838550035E+02 0.13388168138E+02 0.12231239833E+02 0.10856304087E+02
 0.13577278073E+02 0.10901880171E+02 0.93827270950E+01 0.85468980445E+01 0.79082133176E+01
 0.74978380343E+01 0.73074246708E+01 0.73067001125E+01 0.74965863541E+01 0.79087486342E+01
 0.85512983683E+01 0.93904034515E+01 0.10908597814E+02 0.13577811582E+02 0.17051495709E+02
 0.20350880461E+02 0.22363065193E+02 0.22367462345E+02 0.20360390190E+02 0.17058453948E+02
 0.23648804026E+02 0.17082455033E+02 0.12307965275E+02 0.97433340080E+01 0.86155663324E+01
 0.78774252670E+01 0.74447278139E+01 0.73066616618E+01 0.74435698727E+01 0.78782133955E+01
 0.86197045092E+01 0.97474534060E+01 0.12306933888E+02 0.17074899826E+02 0.23638460522E+02
 0.30513845649E+02 0.35743047285E+02 0.37697125337E+02 0.35747063293E+02 0.30522090221E+02
 0.42082283090E+02 0.30501600457E+02 0.20382506631E+02 0.13479685005E+02 0.99908222798E+01
 0.86449811006E+01 0.78785439943E+01 0.74970364388E+01 0.74964964571E+01 0.78782741900E+01
 0.86462908893E+01 0.99913015994E+01 0.13475314944E+02 0.20373809493E+02 0.30495046041E+02
 0.42083488075E+02 0.52331414744E+02 0.58362582603E+02 0.58358860274E+02 0.52324820383E+02
 0.68765981014E+02 0.52253269272E+02 0.35684555758E+02 0.22379326949E+02 0.13934090899E+02
 0.99921639457E+01 0.86196098256E+01 0.79087533880E+01 0.76697503079E+01 0.79088689848E+01
 0.86197452020E+01 0.99912453803E+01 0.13930908617E+02 0.22375339536E+02 0.35684675711E+02
 0.52261653859E+02 0.68780314331E+02 0.81078624527E+02 0.85635713798E+02 0.81067286704E+02
 0.10084276298E+03 0.80968570020E+02 0.58224684080E+02 0.37613803137E+02 0.22374857693E+02
 0.13476557414E+02 0.97480262030E+01 0.85508272306E+01 0.79913869707E+01 0.79918123966E+01
 0.85512875755E+01 0.97473493703E+01 0.13475310652E+02 0.22375363120E+02 0.37617828373E+02
 0.58231512811E+02 0.80975596158E+02 0.10084761151E+03 0.11252968025E+03 0.11252801393E+03
 0.13254333668E+03 0.11244470049E+03 0.85491710373E+02 0.58228549006E+02 0.35680512265E+02
 0.20372830782E+02 0.12307965275E+02 0.93905212067E+01 0.84667152022E+01 0.81522224890E+01
 0.84675056506E+01 0.93903730747E+01 0.12306985571E+02 0.20373850358E+02 0.35684664902E+02
 0.58231544051E+02 0.85487454991E+02 0.11243327681E+03 0.13253315852E+03 0.14001461161E+03
 0.15621125638E+03 0.13997658423E+03 0.11244616135E+03 0.80979912604E+02 0.52260142599E+02
 0.30493385465E+02 0.17075358768E+02 0.10909293569E+02 0.90449046295E+01 0.83948365083E+01
 0.83954071665E+01 0.90455085415E+01 0.10908707153E+02 0.17074901816E+02 0.30494972251E+02
 0.52261713706E+02 0.80975600248E+02 0.11243318059E+03 0.13996098907E+03 0.15620418258E+03
 0.15669202182E+03 0.14832858706E+03 0.12585999019E+03 0.95752776981E+02 0.65267800224E+02
 0.39922033827E+02 0.22495358384E+02 0.13089320044E+02 0.95753613269E+01 0.85637106421E+01
 0.82318535166E+01 0.85639903012E+01 0.95755939347E+01 0.13089257558E+02 0.22495121220E+02
 0.39921930001E+02 0.65267936838E+02 0.95752969825E+02 0.12586004618E+03 0.14832854158E+03
 0.14833495842E+03 0.14832840882E+03 0.13294720621E+03 0.10683846109E+03 0.76945081842E+02
 0.49632063041E+02 0.28964057580E+02 0.16307864904E+02 0.10575162273E+02 0.88524002645E+01
 0.82164287279E+01 0.82158998561E+01 0.88518495846E+01 0.10575741898E+02 0.16308360148E+02
 0.28962681044E+02 0.49630693935E+02 0.76949132026E+02 0.10685050594E+03 0.13296165172E+03
 0.12586956892E+03 0.13292948778E+03 0.12586003264E+03 0.10683863561E+03 0.81274556455E+02
 0.55353488848E+02 0.33899264186E+02 0.19384716757E+02 0.11819472357E+02 0.91263000983E+01
 0.82334216127E+01 0.79248604492E+01 0.82321624634E+01 0.91260134723E+01 0.11820530493E+02
 0.19384251518E+02 0.33895623821E+02 0.55350450147E+02 0.81278135107E+02 0.10684913191E+03
 0.95748792114E+02 0.10678162792E+03 0.10678307142E+03 0.95753110597E+02 0.76945024489E+02
 0.55353342932E+02 0.35745154167E+02 0.21266420366E+02 0.12876358730E+02 0.94123580293E+01
 0.82703666597E+01 0.77198830908E+01 0.77194408489E+01 0.82698623525E+01 0.94129712117E+01
 0.12877526977E+02 0.21265862328E+02 0.35741209226E+02 0.55346836995E+02 0.76938537478E+02
 0.65254646751E+02 0.76864189329E+02 0.81167800519E+02 0.76874730132E+02 0.65267821087E+02
 0.49631774166E+02 0.33899336087E+02 0.21266526502E+02 0.13291714647E+02 0.96124810902E+01
 0.83067215076E+01 0.76012017649E+01 0.73644001270E+01 0.76014532534E+01 0.83068754281E+01
 0.96132023635E+01 0.13294293941E+02 0.21270040040E+02 0.33899391164E+02 0.49624277097E+02
 0.39920699699E+02 0.49580531619E+02 0.55257832094E+02 0.55261408355E+02 0.49586874266E+02
 0.39921881206E+02 0.28964065492E+02 0.19384941265E+02 0.12876275499E+02 0.96124138888E+01
 0.83218386819E+01 0.75503930513E+01 0.71665242588E+01 0.71670446621E+01 0.75506610007E+01
 0.83205991188E+01 0.96119720617E+01 0.12880474386E+02 0.19393272684E+02 0.28970328184E+02
 0.22504643964E+02 0.28975847460E+02 0.33884396192E+02 0.35713520548E+02 0.33880682176E+02
 0.28968307017E+02 0.22495240466E+02 0.16308017787E+02 0.11819438668E+02 0.94122001221E+01
 0.83068183773E+01 0.75504327922E+01 0.71042752171E+01 0.69624753549E+01 0.71051626052E+01
 0.75495803849E+01 0.83031080850E+01 0.94086438144E+01 0.11820530493E+02 0.16314926672E+02
 0.13088695460E+02 0.16360656245E+02 0.19458210194E+02 0.21337575030E+02 0.21333407960E+02
 0.19449207833E+02 0.16354104751E+02 0.13089292888E+02 0.10575252705E+02 0.91261566119E+01
 0.82704243600E+01 0.76013065296E+01 0.71664029873E+01 0.69624437140E+01 0.69631871395E+01
 0.71677128654E+01 0.76008911549E+01 0.82662467398E+01 0.91187847070E+01 0.10568762962E+02
 0.95650282253E+01 0.10632219138E+02 0.11933039494E+02 0.13021390099E+02 0.13444126890E+02
 0.13018462136E+02 0.11932988817E+02 0.10639054658E+02 0.95754774824E+01 0.88523697266E+01
 0.82333501080E+01 0.77200025227E+01 0.73643124870E+01 0.71669650858E+01 0.71053181827E+01
 0.71677545606E+01 0.73671245045E+01 0.77236185601E+01 0.82332054290E+01 0.88454327468E+01
 0.85634895330E+01 0.89114075195E+01 0.92448232258E+01 0.95805484552E+01 0.98087148147E+01
 0.98099816919E+01 0.95849430082E+01 0.92520607612E+01 0.89177214493E+01 0.85638113710E+01
 0.82163046658E+01 0.79249167312E+01 0.77195017544E+01 0.76013678599E+01 0.75507838744E+01
 0.75496635177E+01 0.76007009966E+01 0.77235600337E+01 0.79331520812E+01 0.82228174621E+01
 0.82413762604E+01 0.82889569141E+01 0.83618550533E+01 0.84473569324E+01 0.85199033421E+01
 0.85501811277E+01 0.85235886013E+01 0.84509697393E+01 0.83609631943E+01 0.82821943869E+01
 0.82318205776E+01 0.82158440699E+01 0.82323071424E+01 0.82698220891E+01 0.83068183773E+01
 0.83206485524E+01 0.83029541645E+01 0.82661487761E+01 0.82334216127E+01 0.82228857380E+01
 0.85632619923E+01 0.82888947825E+01 0.80629681717E+01 0.79102689696E+01 0.78311150941E+01
 0.78039459329E+01 0.78049493218E+01 0.78315397372E+01 0.79060719823E+01 0.80548442702E+01
 0.82826832091E+01 0.85638634895E+01 0.88519210768E+01 0.91260431632E+01 0.94127984580E+01
 0.96131955408E+01 0.96120324404E+01 0.94086289679E+01 0.91189578843E+01 0.88455347770E+01
 0.95648508046E+01 0.89113252279E+01 0.83620732476E+01 0.79103068310E+01 0.76025397392E+01
 0.74365883230E+01 0.73862391238E+01 0.74360052028E+01 0.75998404382E+01 0.79065206321E+01
 0.83619509728E+01 0.89182222175E+01 0.95755326694E+01 0.10575814804E+02 0.11820426446E+02
 0.12877505801E+02 0.13294494212E+02 0.12880536442E+02 0.11820460136E+02 0.10568745435E+02
 0.13088778217E+02 0.10632263980E+02 0.92449868893E+01 0.84473932426E+01 0.78309288036E+01
 0.74365879595E+01 0.72540909735E+01 0.72534372033E+01 0.74354633755E+01 0.78314465597E+01
 0.84514713942E+01 0.92521018202E+01 0.10638512830E+02 0.13089313159E+02 0.16308409929E+02
 0.19384252791E+02 0.21265984674E+02 0.21270056250E+02 0.19393049448E+02 0.16314823569E+02
 0.22504881127E+02 0.16360771537E+02 0.11932947709E+02 0.95804845861E+01 0.85197718964E+01
 0.78039734014E+01 0.73863780258E+01 0.72533997849E+01 0.73852513452E+01 0.78046500334E+01
 0.85235886013E+01 0.95842928785E+01 0.11931945852E+02 0.16353692014E+02 0.22495240466E+02
 0.28962685828E+02 0.33895568744E+02 0.35741125818E+02 0.33899264186E+02 0.28970325056E+02
 0.39920821781E+02 0.28975827005E+02 0.19457976913E+02 0.13021297558E+02 0.98088090871E+01
 0.85502537658E+01 0.78050360858E+01 0.74359177409E+01 0.74353762771E+01 0.78047093289E+01
 0.85514333459E+01 0.98092704143E+01 0.13017250090E+02 0.19449857780E+02 0.28969668749E+02
 0.39921899462E+02 0.49630562120E+02 0.55350377267E+02 0.55346910030E+02 0.49624434158E+02
 0.65254552824E+02 0.49580327981E+02 0.33884289939E+02 0.21337629348E+02 0.13444333635E+02
 0.98100211329E+01 0.85234965529E+01 0.78314706309E+01 0.75998028612E+01 0.78315637439E+01
 0.85236279986E+01 0.98092155830E+01 0.13441445199E+02 0.21333970058E+02 0.33884406833E+02
 0.49588104568E+02 0.65267863773E+02 0.76949202200E+02 0.81278281112E+02 0.76938665004E+02
 0.95748633040E+02 0.76864036787E+02 0.55257941727E+02 0.35713734685E+02 0.21333485408E+02
 0.13018365663E+02 0.95847778878E+01 0.84509953557E+01 0.79061628907E+01 0.79065736791E+01
 0.84514607004E+01 0.95841916273E+01 0.13017246159E+02 0.21333993188E+02 0.35717514802E+02
 0.55264321993E+02 0.76870586191E+02 0.95753144368E+02 0.10685057041E+03 0.10684902187E+03
 0.12586951293E+03 0.10678176528E+03 0.81167961820E+02 0.55261548153E+02 0.33880565283E+02
 0.19449014500E+02 0.11932947709E+02 0.92521954289E+01 0.83610854691E+01 0.80547691551E+01
 0.83618550533E+01 0.92520728243E+01 0.11931996529E+02 0.19449897728E+02 0.33884396192E+02
 0.55264352158E+02 0.81164033176E+02 0.10677114335E+03 0.12586003264E+03 0.13296137341E+03
 0.14833498756E+03 0.13292982303E+03 0.10678311514E+03 0.76874581233E+02 0.49586728486E+02
 0.28968214454E+02 0.16354221670E+02 0.10639206312E+02 0.89177257333E+01 0.82820456273E+01
 0.82825965811E+01 0.89183087931E+01 0.10638619643E+02 0.16353693641E+02 0.28969596640E+02
 0.49588162426E+02 0.76870589834E+02 0.10677104970E+03 0.13291529641E+03 0.14832839248E+03
 0.13420080833E+03 0.12704835728E+03 0.10779906567E+03 0.81945433895E+02 0.55758943149E+02
 0.34108605733E+02 0.19467290263E+02 0.11827546512E+02 0.91031806200E+01 0.82116818807E+01
 0.79053757371E+01 0.82119338672E+01 0.91033888657E+01 0.11827486419E+02 0.19467070927E+02
 0.34108506792E+02 0.55759063133E+02 0.81945607324E+02 0.10779911745E+03 0.12704831756E+03
 0.12705346874E+03 0.12704819183E+03 0.11386945943E+03 0.91453639563E+02 0.65755775999E+02
 0.42340860486E+02 0.24821382654E+02 0.14363438966E+02 0.98357595582E+01 0.84584371251E+01
 0.78694046141E+01 0.78689276916E+01 0.84579383295E+01 0.98363294489E+01 0.14364105896E+02
 0.24820530984E+02 0.42339841309E+02 0.65758965032E+02 0.91463248292E+02 0.11388106370E+03
 0.10780677248E+03 0.11386697594E+03 0.10779910352E+03 0.91453800963E+02 0.69465131189E+02
 0.47209799344E+02 0.28944840353E+02 0.16835022393E+02 0.10759911147E+02 0.86775464542E+01
 0.78683680858E+01 0.75870241478E+01 0.78672181119E+01 0.86772369137E+01 0.10760883043E+02
 0.16834878204E+02 0.28942041530E+02 0.47207300048E+02 0.69467879484E+02 0.91462173746E+02
 0.81942301710E+02 0.91439239406E+02 0.91440381615E+02 0.81945742386E+02 0.65755724704E+02
 0.47209664801E+02 0.30493479118E+02 0.18362345837E+02 0.11561015955E+02 0.88761616998E+01
 0.78907381907E+01 0.73903710915E+01 0.73899791954E+01 0.78902420574E+01 0.88765452617E+01
 0.11561847585E+02 0.18361793586E+02 0.30490216172E+02 0.47204379943E+02 0.65750508244E+02
 0.55748492750E+02 0.65742704550E+02 0.69450684788E+02 0.65751120447E+02 0.55758964190E+02
 0.42340594224E+02 0.28944905319E+02 0.18362443652E+02 0.11879194951E+02 0.90127110852E+01
 0.79172814554E+01 0.72767013610E+01 0.70647889295E+01 0.72769849152E+01 0.79174225084E+01
 0.90131383631E+01 0.11881018917E+02 0.18365099201E+02 0.28944956886E+02 0.42334690135E+02
 0.34107618740E+02 0.42366526295E+02 0.47239993874E+02 0.47242881521E+02 0.42371612578E+02
 0.34108465271E+02 0.24821388922E+02 0.16835229484E+02 0.11560940937E+02 0.90126494199E+01
 0.79288842390E+01 0.72278422652E+01 0.68852973026E+01 0.68858137091E+01 0.72282467316E+01
 0.79279822885E+01 0.90122503110E+01 0.11564265147E+02 0.16841991976E+02 0.24826570210E+02
 0.19474725953E+02 0.24903778199E+02 0.29060979322E+02 0.30616700664E+02 0.29058106367E+02
 0.24897832034E+02 0.19467181841E+02 0.14363580422E+02 0.10759881383E+02 0.88760161909E+01
 0.79173686193E+01 0.72278780959E+01 0.68290754421E+01 0.67034573495E+01 0.68298835080E+01
 0.72273238662E+01 0.79145071522E+01 0.88732744607E+01 0.10760883043E+02 0.14369222257E+02
 0.11826931871E+02 0.14476129696E+02 0.17025807901E+02 0.18587130980E+02 0.18583829413E+02
 0.17018701272E+02 0.14471023878E+02 0.11827522039E+02 0.98358422712E+01 0.86774129361E+01
 0.78907893448E+01 0.72767969592E+01 0.68851869973E+01 0.67034290567E+01 0.67039770841E+01
 0.68861472134E+01 0.72764303674E+01 0.78874909910E+01 0.86715657420E+01 0.98306237273E+01
 0.90947828159E+01 0.99452109337E+01 0.10974645514E+02 0.11844160891E+02 0.12183970461E+02
 0.11841758832E+02 0.10974597812E+02 0.99507873497E+01 0.91032860417E+01 0.84584069615E+01
 0.78683021648E+01 0.73904822829E+01 0.70647098988E+01 0.68857415451E+01 0.68300264651E+01
 0.68861853547E+01 0.70667532626E+01 0.73932848096E+01 0.78681691349E+01 0.84527871557E+01
 0.82114877562E+01 0.85638744427E+01 0.88855496972E+01 0.91676572286E+01 0.93510279028E+01
 0.93519535181E+01 0.91709969223E+01 0.88912320664E+01 0.85689308445E+01 0.82117739093E+01
 0.78692919424E+01 0.75870790294E+01 0.73900361718E+01 0.72769053959E+01 0.72283590202E+01
 0.72274003242E+01 0.72762552499E+01 0.73932305946E+01 0.75936959784E+01 0.78745249765E+01
 0.79130307639E+01 0.79829076348E+01 0.80775138386E+01 0.81803408166E+01 0.82633221489E+01
 0.82966482139E+01 0.82661695694E+01 0.81830937355E+01 0.80766968518E+01 0.79774458872E+01
 0.79053470015E+01 0.78688784839E+01 0.78673511418E+01 0.78902021444E+01 0.79173686193E+01
 0.79280288395E+01 0.79143660992E+01 0.78873999238E+01 0.78683680858E+01 0.78745884405E+01
 0.82112782381E+01 0.79828495339E+01 0.78015179979E+01 0.76854185673E+01 0.76306531028E+01
 0.76149774474E+01 0.76158306097E+01 0.76310823404E+01 0.76820913861E+01 0.77949915120E+01
 0.79778821825E+01 0.82118163778E+01 0.84580033189E+01 0.86772620309E+01 0.88763850202E+01
 0.90131338294E+01 0.90123074426E+01 0.88732597282E+01 0.86717243773E+01 0.84528823087E+01
 0.90946199898E+01 0.85637969809E+01 0.80777146154E+01 0.76854545426E+01 0.74229733902E+01
 0.72838299943E+01 0.72421995467E+01 0.72835715678E+01 0.74210297149E+01 0.76824950287E+01
 0.80776024552E+01 0.85693769556E+01 0.91033314613E+01 0.98363968190E+01 0.10760786987E+02
 0.11561828989E+02 0.11881204704E+02 0.11564321569E+02 0.10760816750E+02 0.98306083844E+01
 0.11827009246E+02 0.99452514112E+01 0.88857000108E+01 0.81803764132E+01 0.76304825139E+01
 0.72838288958E+01 0.71249453062E+01 0.71244758096E+01 0.72830343015E+01 0.76309487167E+01
 0.81835983492E+01 0.88913232217E+01 0.99502500834E+01 0.11827539321E+02 0.14364152502E+02
 0.16834878698E+02 0.18361906386E+02 0.18365114184E+02 0.16841785379E+02 0.14369127406E+02
 0.19474945290E+02 0.14476236235E+02 0.10974560344E+02 0.91675995501E+01 0.82632020345E+01
 0.76150011379E+01 0.72423259453E+01 0.71244413848E+01 0.72412939433E+01 0.76153936222E+01
 0.82661695694E+01 0.91705841561E+01 0.10973646789E+02 0.14470435985E+02 0.19467181841E+02
 0.24820534214E+02 0.28941989963E+02 0.30490140159E+02 0.28944840353E+02 0.24826567173E+02
 0.34107730970E+02 0.24903759816E+02 0.17025592473E+02 0.11844075182E+02 0.93511148521E+01
 0.82967139242E+01 0.76159092455E+01 0.72834913994E+01 0.72829552316E+01 0.76154485675E+01
 0.82975556293E+01 0.93515248664E+01 0.11840884069E+02 0.17019021487E+02 0.24898671983E+02
 0.34108478561E+02 0.42339719461E+02 0.47207233950E+02 0.47204448388E+02 0.42334834549E+02
 0.55748405078E+02 0.42366338714E+02 0.29060881408E+02 0.18587180121E+02 0.12184160436E+02
 0.93519896148E+01 0.82660850787E+01 0.76310197802E+01 0.74209959495E+01 0.76310567454E+01
 0.82662051931E+01 0.93514740139E+01 0.12182038440E+02 0.18584383961E+02 0.29060989412E+02
 0.42372500630E+02 0.55758996502E+02 0.65759030319E+02 0.69468014233E+02 0.65750624826E+02
 0.81942154151E+02 0.65742564464E+02 0.47240095672E+02 0.30616897738E+02 0.18583900377E+02
 0.11841670200E+02 0.91708459495E+01 0.81831188911E+01 0.76821747983E+01 0.76825424657E+01
 0.81835879082E+01 0.91704908618E+01 0.11840881147E+02 0.18584405783E+02 0.30620015221E+02
 0.47245273213E+02 0.65747840703E+02 0.81945768256E+02 0.91463306427E+02 0.91462070481E+02
 0.10780672070E+03 0.91439367796E+02 0.69450835001E+02 0.47243010463E+02 0.29057998364E+02
 0.17018523175E+02 0.10974560344E+02 0.88913572798E+01 0.80768090120E+01 0.77949198200E+01
 0.80775138386E+01 0.88912981213E+01 0.10973694491E+02 0.17019058818E+02 0.29060979322E+02
 0.47245300357E+02 0.69447769431E+02 0.91430881466E+02 0.10779910352E+03 0.11388080514E+03
 0.12705349584E+03 0.11386728736E+03 0.91440423764E+02 0.65750982775E+02 0.42371477281E+02
 0.24897746486E+02 0.14471131012E+02 0.99509272449E+01 0.85689355483E+01 0.79773073239E+01
 0.79778017201E+01 0.85694591212E+01 0.99503495011E+01 0.14470436581E+02 0.24898604818E+02
 0.42372552915E+02 0.65747843117E+02 0.91430795225E+02 0.11385561165E+03 0.12704817922E+03
 0.10372782232E+03 0.98186696057E+02 0.83249296289E+02 0.63162640836E+02 0.42888525713E+02
 0.26369164704E+02 0.15572325448E+02 0.10285348692E+02 0.84927871894E+01 0.77222040819E+01
 0.74570198849E+01 0.77224173610E+01 0.84929618392E+01 0.10285293406E+02 0.15572133476E+02
 0.26369075278E+02 0.42888624328E+02 0.63162787622E+02 0.83249341608E+02 0.98186663704E+02
 0.98190155808E+02 0.98186550499E+02 0.87952563315E+02 0.70521495491E+02 0.50564048777E+02
 0.32547912593E+02 0.19396633866E+02 0.11927381714E+02 0.89316477354E+01 0.79009645945E+01
 0.73886310747E+01 0.73882347161E+01 0.79005470746E+01 0.89321788987E+01 0.11928207290E+02
 0.19396406830E+02 0.32547330626E+02 0.50566123420E+02 0.70527927165E+02 0.87960443976E+02
 0.83254545315E+02 0.87971650300E+02 0.83249327558E+02 0.70521636804E+02 0.53419472277E+02
 0.36232342593E+02 0.22397451463E+02 0.13586967656E+02 0.94649417255E+01 0.80622928418E+01
 0.73567172366E+01 0.71173489699E+01 0.73557415907E+01 0.80619700049E+01 0.94657704045E+01
 0.13587189570E+02 0.22395725778E+02 0.36230563116E+02 0.53421160057E+02 0.70527237726E+02
 0.63160612782E+02 0.70566300860E+02 0.70567052986E+02 0.63162910868E+02 0.50564006442E+02
 0.36232225326E+02 0.23533851127E+02 0.14633526677E+02 0.99410089929E+01 0.81812987131E+01
 0.73524091087E+01 0.69283555587E+01 0.69280387329E+01 0.73519461176E+01 0.81814080085E+01
 0.99414257943E+01 0.14633008437E+02 0.23531506639E+02 0.36228556412E+02 0.50560456476E+02
 0.42881594331E+02 0.50644552500E+02 0.53532731522E+02 0.50650193255E+02 0.42888546580E+02
 0.32547680619E+02 0.22397505706E+02 0.14633611705E+02 0.10133775046E+02 0.82509988641E+01
 0.73602581618E+01 0.68174407358E+01 0.66416384671E+01 0.68177475658E+01 0.73603795047E+01
 0.82510785966E+01 0.10134669332E+02 0.14635183277E+02 0.22397552067E+02 0.32543838522E+02
 0.26368610753E+02 0.32679457929E+02 0.36435472283E+02 0.36437452557E+02 0.32682897452E+02
 0.26369042458E+02 0.19396637420E+02 0.13587147984E+02 0.99409465838E+01 0.82509458008E+01
 0.73650521712E+01 0.67686333359E+01 0.64848571798E+01 0.64853437156E+01 0.67691695300E+01
 0.73645697339E+01 0.82506140708E+01 0.99431361080E+01 0.13591835638E+02 0.19400363459E+02
 0.15577337184E+02 0.19576118211E+02 0.22693498385E+02 0.23869696100E+02 0.22691701890E+02
 0.19572237094E+02 0.15572231408E+02 0.11927505649E+02 0.94649181564E+01 0.81811725410E+01
 0.73603307385E+01 0.67686632327E+01 0.64358661034E+01 0.63323580155E+01 0.64365456634E+01
 0.67684670076E+01 0.73585532154E+01 0.81794711654E+01 0.94657704045E+01 0.11931461397E+02
 0.10284774212E+02 0.12123784351E+02 0.13940695364E+02 0.15071261319E+02 0.15069083689E+02
 0.13936044501E+02 0.12120536306E+02 0.10285328513E+02 0.89317190043E+01 0.80621749982E+01
 0.73524504877E+01 0.68175222893E+01 0.64847635167E+01 0.63323347288E+01 0.63326392127E+01
 0.64852890476E+01 0.68172283719E+01 0.73502904719E+01 0.80583076558E+01 0.89281676010E+01
 0.84869551256E+01 0.91165111877E+01 0.98241904485E+01 0.10420596857E+02 0.10654954352E+02
 0.10418897229E+02 0.98241475379E+01 0.91204125940E+01 0.84928765484E+01 0.79009352324E+01
 0.73566597886E+01 0.69284538085E+01 0.66415723987E+01 0.64852827105E+01 0.64366691091E+01
 0.64853217056E+01 0.66426617507E+01 0.69302135725E+01 0.73565445964E+01 0.78970549707E+01
 0.77220530480E+01 0.80754569061E+01 0.84029948395E+01 0.86551906239E+01 0.87992980510E+01
 0.87997995679E+01 0.86571950019E+01 0.84066695980E+01 0.80788653856E+01 0.77222826544E+01
 0.73885353517E+01 0.71174011023E+01 0.69280894955E+01 0.68176771701E+01 0.67692655423E+01
 0.67685331232E+01 0.68170764227E+01 0.69301660852E+01 0.71218948259E+01 0.73920911330E+01
 0.74622235929E+01 0.75645554125E+01 0.76888569487E+01 0.78143427150E+01 0.79105040692E+01
 0.79475792826E+01 0.79122798806E+01 0.78160052014E+01 0.76881653742E+01 0.75608093553E+01
 0.74569969266E+01 0.73881950689E+01 0.73558567829E+01 0.73519072636E+01 0.73603307385E+01
 0.73646116756E+01 0.73584318725E+01 0.73502102389E+01 0.73567172366E+01 0.73921472087E+01
 0.77218711580E+01 0.75645034972E+01 0.74497773213E+01 0.73872857162E+01 0.73679620101E+01
 0.73689814018E+01 0.73696246363E+01 0.73683735499E+01 0.73850888811E+01 0.74453495524E+01
 0.75611663094E+01 0.77223140435E+01 0.79006023084E+01 0.80619887283E+01 0.81812674684E+01
 0.82510774026E+01 0.82506659401E+01 0.81794567974E+01 0.80584442228E+01 0.78971395667E+01
 0.84868146196E+01 0.80753868466E+01 0.76890308581E+01 0.73873186477E+01 0.71926686209E+01
 0.70935501016E+01 0.70649276704E+01 0.70936656920E+01 0.71916599335E+01 0.73854218050E+01
 0.76889342361E+01 0.80792296986E+01 0.84929106922E+01 0.89322381981E+01 0.94656870183E+01
 0.99414111096E+01 0.10134832473E+02 0.99431838325E+01 0.94657105874E+01 0.89281556315E+01
 0.10284843243E+02 0.91165449222E+01 0.84031244893E+01 0.78143769095E+01 0.73678154361E+01
 0.70935480258E+01 0.69702968821E+01 0.69700559418E+01 0.70931602427E+01 0.73682010246E+01
 0.78164866205E+01 0.84068107343E+01 0.91199071447E+01 0.10285342257E+02 0.11928249095E+02
 0.13587188907E+02 0.14633106256E+02 0.14635196067E+02 0.13591654648E+02 0.11931379267E+02
 0.15577529156E+02 0.12123877401E+02 0.98241153547E+01 0.86551422502E+01 0.79104013336E+01
 0.73689996172E+01 0.70650351904E+01 0.69700261392E+01 0.70641588084E+01 0.73690570060E+01
 0.79122798806E+01 0.86570653952E+01 0.98233445322E+01 0.12119782406E+02 0.15572231408E+02
 0.19396407600E+02 0.22395679416E+02 0.23531441581E+02 0.22397451463E+02 0.19400360676E+02
 0.26368707982E+02 0.19576102985E+02 0.13940507362E+02 0.10420521694E+02 0.87993738959E+01
 0.79476346388E+01 0.73696910456E+01 0.70935967531E+01 0.70930933796E+01 0.73691051999E+01
 0.79480600348E+01 0.87997071590E+01 0.10418440507E+02 0.13935982029E+02 0.19572455819E+02
 0.26369050262E+02 0.32547223897E+02 0.36230507209E+02 0.36228617772E+02 0.32543963767E+02
 0.42881516454E+02 0.32679294895E+02 0.22693413282E+02 0.15071302721E+02 0.10655118816E+02
 0.87998306179E+01 0.79122068846E+01 0.73683208854E+01 0.71916319317E+01 0.73682949341E+01
 0.79123096202E+01 0.87996623641E+01 0.10653951807E+02 0.15069602883E+02 0.22693507441E+02
 0.32683361978E+02 0.42888567319E+02 0.50566181281E+02 0.53421277828E+02 0.50560556673E+02
 0.63160483021E+02 0.50644431211E+02 0.36435561847E+02 0.23869867136E+02 0.15069144905E+02
 0.10418820600E+02 0.86570653596E+01 0.78160292759E+01 0.73851608320E+01 0.73854608244E+01
 0.78164765005E+01 0.86569841266E+01 0.10418439041E+02 0.15069622697E+02 0.23872091912E+02
 0.36439145846E+02 0.50648035440E+02 0.63162927892E+02 0.70527976163E+02 0.70527145411E+02
 0.83254499997E+02 0.70566414918E+02 0.53532864187E+02 0.36437564835E+02 0.22691607731E+02
 0.13935889837E+02 0.98241153547E+01 0.84067798430E+01 0.76882619961E+01 0.74452835944E+01
 0.76888569487E+01 0.84067913295E+01 0.98233874428E+01 0.13936015367E+02 0.22693498385E+02
 0.36439168560E+02 0.53530905233E+02 0.70560717344E+02 0.83249327558E+02 0.87960216222E+02
 0.98190179737E+02 0.87971924568E+02 0.70567092042E+02 0.50650072706E+02 0.32682778574E+02
 0.19572162584E+02 0.12120628428E+02 0.91205340508E+01 0.80788705261E+01 0.75606868938E+01
 0.75610957633E+01 0.80793048986E+01 0.91199948671E+01 0.12119781478E+02 0.19572396535E+02
 0.32683406134E+02 0.50648036180E+02 0.70560642341E+02 0.87963985078E+02 0.98186542075E+02
 0.72271101902E+02 0.68377012413E+02 0.57884894994E+02 0.43831225989E+02 0.29832047077E+02
 0.18775654715E+02 0.11977952089E+02 0.89549412263E+01 0.78370619995E+01 0.71954064171E+01
 0.69820290057E+01 0.71955758842E+01 0.78371986594E+01 0.89548922038E+01 0.11977793905E+02
 0.18775580960E+02 0.29832126519E+02 0.43831345089E+02 0.57884932337E+02 0.68376986778E+02
 0.68378885880E+02 0.68376891784E+02 0.61172809870E+02 0.48931123634E+02 0.35038309710E+02
 0.22776672953E+02 0.14234637370E+02 0.97706301562E+01 0.81010809426E+01 0.72896075164E+01