   2   2   0   0
  0.9830954E+01  0.2353300E-09  0.2353300E-09  0.4099590E-09  0.5000000E-15
  1.000000000000000E-004
  CAR 
 unknown system                          
     73.78516131     -5.39675124  301      7.29630125      1.00000000
     -5.397  0.0000E+00  0.0000E+00
     -5.133  0.0000E+00  0.0000E+00
     -4.869  0.0000E+00  0.0000E+00
     -4.605  0.0000E+00  0.0000E+00
     -4.341  0.0000E+00  0.0000E+00
     -4.077  0.0000E+00  0.0000E+00
     -3.813  0.0000E+00  0.0000E+00
     -3.549 -0.6873E-35 -0.1814E-35
     -3.285 -0.1122E-25 -0.2961E-26
     -3.021 -0.5474E-18 -0.1445E-18
     -2.757 -0.7601E-12 -0.2006E-12
     -2.493 -0.3146E-07 -0.8303E-08
     -2.229 -0.3560E-04 -0.9406E-05
     -1.966 -0.4224E-03 -0.1209E-03
     -1.702  0.8488E-02  0.2119E-02
     -1.438  0.5297E-01  0.1610E-01
     -1.174  0.9760E-01  0.4186E-01
     -0.910  0.5838E-01  0.5727E-01
     -0.646  0.1488E+00  0.9655E-01
     -0.382  0.1732E+00  0.1423E+00
     -0.118  0.1871E+00  0.1917E+00
      0.146  0.8176E-01  0.2132E+00
      0.410  0.2396E+00  0.2765E+00
      0.674  0.3009E+00  0.3559E+00
      0.938  0.2805E+00  0.4299E+00
      1.202  0.3103E+00  0.5119E+00
      1.466  0.2048E+00  0.5659E+00
      1.730  0.4637E+00  0.6883E+00
      1.994  0.7634E+00  0.8898E+00
      2.258  0.1150E+01  0.1193E+01
      2.521  0.1693E+01  0.1640E+01
      2.785  0.2279E+01  0.2242E+01
      3.049  0.2563E+01  0.2918E+01
      3.313  0.2647E+01  0.3617E+01
      3.577  0.2373E+01  0.4243E+01
      3.841  0.2482E+01  0.4898E+01
      4.105  0.3133E+01  0.5725E+01
      4.369  0.3097E+01  0.6543E+01
      4.633  0.2732E+01  0.7264E+01
      4.897  0.2094E+01  0.7817E+01
      5.161  0.2834E+01  0.8565E+01
      5.425  0.3973E+01  0.9613E+01
      5.689  0.3648E+01  0.1058E+02
      5.953  0.3910E+01  0.1161E+02
      6.217  0.3669E+01  0.1258E+02
      6.481  0.3694E+01  0.1355E+02
      6.744  0.2878E+01  0.1431E+02
      7.008  0.3073E+01  0.1512E+02
      7.272  0.3088E+01  0.1594E+02
      7.536  0.2330E+01  0.1655E+02
      7.800  0.3562E+01  0.1749E+02
      8.064  0.4915E+01  0.1879E+02
      8.328  0.4669E+01  0.2002E+02
      8.592  0.3923E+01  0.2106E+02
      8.856  0.7274E+00  0.2125E+02
      9.120  0.1286E+00  0.2128E+02
      9.384  0.7264E+00  0.2147E+02
      9.648  0.8506E+00  0.2170E+02
      9.912  0.6337E+00  0.2187E+02
     10.176  0.5114E+00  0.2200E+02
     10.440  0.5874E+00  0.2216E+02
     10.704  0.3279E+00  0.2224E+02
     10.968  0.2857E+00  0.2232E+02
     11.231  0.5254E+00  0.2246E+02
     11.495  0.7509E+00  0.2266E+02
     11.759  0.4662E+00  0.2278E+02
     12.023  0.3475E+00  0.2287E+02
     12.287  0.3466E+00  0.2296E+02
     12.551  0.5363E+00  0.2310E+02
     12.815  0.3670E+00  0.2320E+02
     13.079  0.2856E+00  0.2328E+02
     13.343  0.2943E+00  0.2335E+02
     13.607  0.3686E+00  0.2345E+02
     13.871  0.3733E+00  0.2355E+02
     14.135  0.2799E+00  0.2362E+02
     14.399  0.4833E+00  0.2375E+02
     14.663  0.4481E+00  0.2387E+02
     14.927  0.9146E-01  0.2389E+02
     15.191  0.1970E+00  0.2394E+02
     15.454  0.2389E+00  0.2401E+02
     15.718  0.2542E+00  0.2408E+02
     15.982  0.1325E+00  0.2411E+02
     16.246  0.2241E+00  0.2417E+02
     16.510  0.1157E+00  0.2420E+02
     16.774  0.4156E+00  0.2431E+02
     17.038  0.5482E+00  0.2445E+02
     17.302  0.5998E+00  0.2461E+02
     17.566  0.9422E+00  0.2486E+02
     17.830  0.8242E+00  0.2508E+02
     18.094  0.5814E+00  0.2523E+02
     18.358  0.4629E+00  0.2535E+02
     18.622  0.7396E+00  0.2555E+02
     18.886  0.5792E+00  0.2570E+02
     19.150  0.7736E+00  0.2591E+02
     19.414  0.9010E+00  0.2614E+02
     19.678  0.4326E+00  0.2626E+02
     19.941  0.8130E+00  0.2647E+02
     20.205  0.6601E+00  0.2665E+02
     20.469  0.7961E+00  0.2686E+02
     20.733  0.6385E+00  0.2703E+02
     20.997  0.4820E+00  0.2715E+02
     21.261  0.8453E+00  0.2738E+02
     21.525  0.5217E+00  0.2751E+02
     21.789  0.5048E+00  0.2765E+02
     22.053  0.5235E+00  0.2779E+02
     22.317  0.5986E+00  0.2794E+02
     22.581  0.5772E+00  0.2810E+02
     22.845  0.5686E+00  0.2825E+02
     23.109  0.8117E+00  0.2846E+02
     23.373  0.5426E+00  0.2860E+02
     23.637  0.6101E+00  0.2876E+02
     23.901  0.7576E+00  0.2896E+02
     24.164  0.9229E+00  0.2921E+02
     24.428  0.9894E+00  0.2947E+02
     24.692  0.7941E+00  0.2968E+02
     24.956  0.1035E+01  0.2995E+02
     25.220  0.7194E+00  0.3014E+02
     25.484  0.6384E+00  0.3031E+02
     25.748  0.9364E+00  0.3056E+02
     26.012  0.6379E+00  0.3073E+02
     26.276  0.9215E+00  0.3097E+02
     26.540  0.1507E+01  0.3137E+02
     26.804  0.9831E+00  0.3163E+02
     27.068  0.5552E+00  0.3177E+02
     27.332  0.9247E+00  0.3202E+02
     27.596  0.7639E+00  0.3222E+02
     27.860  0.9333E+00  0.3246E+02
     28.124  0.1337E+01  0.3282E+02
     28.388  0.5481E+00  0.3296E+02
     28.651  0.6972E+00  0.3315E+02
     28.915  0.9919E+00  0.3341E+02
     29.179  0.7074E+00  0.3360E+02
     29.443  0.1091E+01  0.3388E+02
     29.707  0.1111E+01  0.3418E+02
     29.971  0.3074E+00  0.3426E+02
     30.235  0.4573E+00  0.3438E+02
     30.499  0.8717E+00  0.3461E+02
     30.763  0.8395E+00  0.3483E+02
     31.027  0.6928E+00  0.3501E+02
     31.291  0.5316E+00  0.3515E+02
     31.555  0.8669E+00  0.3538E+02
     31.819  0.8012E+00  0.3559E+02
     32.083  0.6618E+00  0.3577E+02
     32.347  0.7317E+00  0.3596E+02
     32.611  0.4689E+00  0.3608E+02
     32.875  0.7729E+00  0.3629E+02
     33.138  0.1015E+01  0.3656E+02
     33.402  0.5987E+00  0.3671E+02
     33.666  0.9928E+00  0.3698E+02
     33.930  0.7692E+00  0.3718E+02
     34.194  0.6330E+00  0.3735E+02
     34.458  0.6769E+00  0.3753E+02
     34.722  0.9994E+00  0.3779E+02
     34.986  0.8731E+00  0.3802E+02
     35.250  0.1079E+01  0.3830E+02
     35.514  0.6574E+00  0.3848E+02
     35.778  0.9242E+00  0.3872E+02
     36.042  0.1216E+01  0.3904E+02
     36.306  0.7251E+00  0.3923E+02
     36.570  0.7534E+00  0.3943E+02
     36.834  0.1399E+01  0.3980E+02
     37.098  0.9536E+00  0.4005E+02
     37.361  0.1064E+01  0.4033E+02
     37.625  0.6352E+00  0.4050E+02
     37.889  0.9442E+00  0.4075E+02
     38.153  0.7447E+00  0.4095E+02
     38.417  0.6940E+00  0.4113E+02
     38.681  0.7940E+00  0.4134E+02
     38.945  0.5978E+00  0.4150E+02
     39.209  0.6854E+00  0.4168E+02
     39.473  0.1032E+01  0.4195E+02
     39.737  0.7428E+00  0.4215E+02
     40.001  0.7688E+00  0.4235E+02
     40.265  0.7623E+00  0.4255E+02
     40.529  0.1349E+01  0.4291E+02
     40.793  0.8733E+00  0.4314E+02
     41.057  0.8055E+00  0.4335E+02
     41.321  0.8708E+00  0.4358E+02
     41.585  0.8250E+00  0.4380E+02
     41.848  0.5322E+00  0.4394E+02
     42.112  0.6045E+00  0.4410E+02
     42.376  0.9030E+00  0.4434E+02
     42.640  0.1187E+01  0.4465E+02
     42.904  0.1012E+01  0.4492E+02
     43.168  0.1303E+01  0.4526E+02
     43.432  0.1006E+01  0.4553E+02
     43.696  0.9438E+00  0.4578E+02
     43.960  0.7046E+00  0.4596E+02
     44.224  0.1139E+01  0.4626E+02
     44.488  0.6868E+00  0.4644E+02
     44.752  0.1398E+01  0.4681E+02
     45.016  0.1422E+01  0.4719E+02
     45.280  0.1044E+01  0.4746E+02
     45.544  0.8935E+00  0.4770E+02
     45.808  0.1146E+01  0.4800E+02
     46.071  0.1415E+01  0.4838E+02
     46.335  0.6829E+00  0.4856E+02
     46.599  0.9907E+00  0.4882E+02
     46.863  0.6072E+00  0.4898E+02
     47.127  0.1000E+01  0.4924E+02
     47.391  0.5589E+00  0.4939E+02
     47.655  0.7283E+00  0.4958E+02
     47.919  0.6185E+00  0.4974E+02
     48.183  0.8326E+00  0.4996E+02
     48.447  0.1130E+01  0.5026E+02
     48.711  0.1320E+01  0.5061E+02
     48.975  0.9057E+00  0.5085E+02
     49.239  0.1163E+01  0.5116E+02
     49.503  0.8340E+00  0.5138E+02
     49.767  0.8626E+00  0.5160E+02
     50.031  0.1626E+01  0.5203E+02
     50.295  0.1101E+01  0.5232E+02
     50.558  0.9308E+00  0.5257E+02
     50.822  0.6574E+00  0.5274E+02
     51.086  0.4533E+00  0.5286E+02
     51.350  0.1195E+01  0.5318E+02
     51.614  0.1704E+01  0.5363E+02
     51.878  0.1384E+01  0.5399E+02
     52.142  0.1172E+01  0.5430E+02
     52.406  0.1067E+01  0.5458E+02
     52.670  0.1249E+01  0.5491E+02
     52.934  0.6589E+00  0.5509E+02
     53.198  0.1178E+01  0.5540E+02
     53.462  0.1162E+01  0.5571E+02
     53.726  0.1221E+01  0.5603E+02
     53.990  0.8211E+00  0.5624E+02
     54.254  0.9447E+00  0.5649E+02
     54.518  0.1457E+01  0.5688E+02
     54.782  0.1413E+01  0.5725E+02
     55.045  0.1144E+01  0.5755E+02
     55.309  0.9879E+00  0.5781E+02
     55.573  0.1086E+01  0.5810E+02
     55.837  0.1411E+01  0.5847E+02
     56.101  0.1349E+01  0.5883E+02
     56.365  0.1127E+01  0.5913E+02
     56.629  0.1261E+01  0.5946E+02
     56.893  0.1423E+01  0.5984E+02
     57.157  0.1003E+01  0.6010E+02
     57.421  0.1374E+01  0.6046E+02
     57.685  0.1401E+01  0.6083E+02
     57.949  0.2196E+01  0.6141E+02
     58.213  0.2077E+01  0.6196E+02
     58.477  0.1079E+01  0.6225E+02
     58.741  0.1181E+01  0.6256E+02
     59.005  0.1535E+01  0.6296E+02
     59.268  0.1549E+01  0.6337E+02
     59.532  0.1809E+01  0.6385E+02
     59.796  0.2174E+01  0.6442E+02
     60.060  0.1550E+01  0.6483E+02
     60.324  0.2405E+01  0.6547E+02
     60.588  0.2110E+01  0.6602E+02
     60.852  0.1920E+01  0.6653E+02
     61.116  0.1496E+01  0.6692E+02
     61.380  0.1855E+01  0.6741E+02
     61.644  0.1340E+01  0.6777E+02
     61.908  0.8731E+00  0.6800E+02
     62.172  0.1555E+01  0.6841E+02
     62.436  0.1676E+01  0.6885E+02
     62.700  0.1548E+01  0.6926E+02
     62.964  0.1782E+01  0.6973E+02
     63.228  0.2033E+01  0.7027E+02
     63.492  0.1739E+01  0.7073E+02
     63.755  0.1539E+01  0.7113E+02
     64.019  0.1456E+01  0.7152E+02
     64.283  0.1668E+01  0.7196E+02
     64.547  0.1764E+01  0.7242E+02
     64.811  0.1365E+01  0.7278E+02
     65.075  0.1221E+01  0.7311E+02
     65.339  0.1364E+01  0.7347E+02
     65.603  0.1647E+01  0.7390E+02
     65.867  0.2423E+01  0.7454E+02
     66.131  0.1809E+01  0.7502E+02
     66.395  0.1972E+01  0.7554E+02
     66.659  0.2151E+01  0.7611E+02
     66.923  0.1680E+01  0.7655E+02
     67.187  0.1610E+01  0.7697E+02
     67.451  0.1464E+01  0.7736E+02
     67.715  0.1790E+01  0.7783E+02
     67.978  0.1270E+01  0.7817E+02
     68.242  0.1300E+01  0.7851E+02
     68.506  0.1660E+01  0.7895E+02
     68.770  0.1667E+01  0.7939E+02
     69.034  0.1051E+01  0.7967E+02
     69.298  0.7864E+00  0.7987E+02
     69.562  0.3879E+00  0.7998E+02
     69.826  0.2484E-01  0.7998E+02
     70.090  0.6764E-02  0.7998E+02
     70.354  0.5863E-01  0.8000E+02
     70.618  0.3467E-03  0.8000E+02
     70.882 -0.3151E-03  0.8000E+02
     71.146 -0.3414E-06  0.8000E+02
     71.410 -0.8823E-11  0.8000E+02
     71.674  0.0000E+00  0.8000E+02
     71.938  0.0000E+00  0.8000E+02
     72.202  0.0000E+00  0.8000E+02
     72.465  0.0000E+00  0.8000E+02
     72.729  0.0000E+00  0.8000E+02
     72.993  0.0000E+00  0.8000E+02
     73.257  0.0000E+00  0.8000E+02
     73.521  0.0000E+00  0.8000E+02
     73.785  0.0000E+00  0.8000E+02
