 vasp.6.2.0 18Jan21 (build Mar 17 2021 09:06:54) complex                        
  
 executed on             LinuxIFC date 2021.09.09  12:05:44
 serial version


--------------------------------------------------------------------------------------------------------


 INCAR:
   ENCUT = 280.000000
   SIGMA = 0.200000
   EDIFF = 1.00e-06
   GGA = PE
   PREC = normal
   IBRION = 1
   ICHARG = 1
   ISIF = 2
   ISMEAR = 1
   KPAR = 1
   NBANDS = 40
   NSW = 0
   NCORE = 1
   LCHARG = .TRUE.

 POTCAR:    PAW_PBE Fe 06Sep2000                  
 POTCAR:    PAW_PBE Fe 06Sep2000                  
   SHA256 =  cd5a22d9368cc8b5cc476bea79732366149640da08ac9009b0e1b7fc627eea28 Fe/POTCAR             
   COPYR  = (c) Copyright 06Sep2000 Georg Kresse                                                    
   COPYR  = This file is part of the software VASP. Any use, copying, and all other rights are regul
   COPYR  = If you do not have a valid VASP license, you may not use, copy or distribute this file. 
   VRHFIN =Fe:  d7 s1                                                                               
   LEXCH  = PE                                                                                      
   EATOM  =   594.3153 eV,   43.6809 Ry                                                             
                                                                                                    
   TITEL  = PAW_PBE Fe 06Sep2000                                                                    
   LULTRA =        F    use ultrasoft PP ?                                                          
   IUNSCR =        1    unscreen: 0-lin 1-nonlin 2-no                                               
   RPACOR =    2.000    partial core radius                                                         
   POMASS =   55.847; ZVAL   =    8.000    mass and valenz                                          
   RCORE  =    2.300    outmost cutoff radius                                                       
   RWIGS  =    2.460; RWIGS  =    1.302    wigner-seitz radius (au A)                               
   ENMAX  =  267.882; ENMIN  =  200.911 eV                                                          
   RCLOC  =    1.701    cutoff for local pot                                                        
   LCOR   =        T    correct aug charges                                                         
   LPAW   =        T    paw PP                                                                      
   EAUG   =  511.368                                                                                
   DEXC   =    0.000                                                                                
   RMAX   =    2.356    core radius for proj-oper                                                   
   RAUG   =    1.300    factor for augmentation sphere                                              
   RDEP   =    2.442    radius for radial grids                                                     
   RDEPT  =    1.890    core radius for aug-charge                                                  
                                                                                                    
   Atomic configuration                                                                             
    9 entries                                                                                       
     n  l   j            E        occ.                                                              
     1  0  0.50     -6993.8440   2.0000                                                             
     2  0  0.50      -814.6047   2.0000                                                             
     2  1  1.50      -693.3689   6.0000                                                             
     3  0  0.50       -89.4732   2.0000                                                             
     3  1  1.50       -55.6373   6.0000                                                             
     3  2  2.50        -3.8151   7.0000                                                             
     4  0  0.50        -4.2551   1.0000                                                             
     4  1  1.50        -3.4015   0.0000                                                             
     4  3  2.50        -1.3606   0.0000                                                             
   Description                                                                                      
     l       E           TYP  RCUT    TYP  RCUT                                                     
     2     -3.8151135     23  2.300                                                                 
     2     -5.1756961     23  2.300                                                                 
     0     -4.2550963     23  2.300                                                                 
     0      7.2035603     23  2.300                                                                 
     1     -2.7211652     23  2.300                                                                 
     1     18.4316424     23  2.300                                                                 
  local pseudopotential read in
  partial core-charges read in
  partial kinetic energy density read in
  atomic valenz-charges read in
  non local Contribution for L=           2  read in
    real space projection operators read in
  non local Contribution for L=           2  read in
    real space projection operators read in
  non local Contribution for L=           0  read in
    real space projection operators read in
  non local Contribution for L=           0  read in
    real space projection operators read in
  non local Contribution for L=           1  read in
    real space projection operators read in
  non local Contribution for L=           1  read in
    real space projection operators read in
    PAW grid and wavefunctions read in
 
   number of l-projection  operators is LMAX  =           6
   number of lm-projection operators is LMMAX =          18
 
  PAW_PBE Fe 06Sep2000                  :
 energy of atom  1       EATOM= -594.3153
 kinetic energy error for atom=    0.0278 (will be added to EATOM!!)
 
 
 POSCAR: Fe
  positions in cartesian coordinates
  No initial velocities read in
 exchange correlation table for  LEXCH =        8
   RHO(1)=    0.500       N(1)  =     2000
   RHO(2)=  100.500       N(2)  =     4000
 


--------------------------------------------------------------------------------------------------------


 ion  position               nearest neighbor table
   1  0.000  0.000  0.000-   2 2.46   2 2.46   2 2.46   2 2.46   2 2.46   2 2.46
   2  0.333  0.667  0.500-   1 2.46   1 2.46   1 2.46   1 2.46   1 2.46   1 2.46
 
  LATTYP: Found a hexagonal cell.
 ALAT       =     2.3533000000
 C/A-ratio  =     1.7420600858
  
  Lattice vectors:
  
 A1 = (   2.3533000000,   0.0000000000,   0.0000000000)
 A2 = (  -1.1766500000,   2.0380175827,   0.0000000000)
 A3 = (   0.0000000000,   0.0000000000,   4.0995900000)


Analysis of symmetry for initial positions (statically):
=====================================================================
 Subroutine PRICEL returns:
 Original cell was already a primitive cell.
 

 Routine SETGRP: Setting up the symmetry group for a 
 hexagonal supercell.


 Subroutine GETGRP returns: Found 24 space group operations
 (whereof 12 operations were pure point group operations)
 out of a pool of 24 trial point group operations.


The static configuration has the point symmetry D_3h.
 The point group associated with its full space group is D_6h.


Analysis of symmetry for dynamics (positions and initial velocities):
=====================================================================
 Subroutine PRICEL returns:
 Original cell was already a primitive cell.
 

 Routine SETGRP: Setting up the symmetry group for a 
 hexagonal supercell.


 Subroutine GETGRP returns: Found 24 space group operations
 (whereof 12 operations were pure point group operations)
 out of a pool of 24 trial point group operations.


The dynamic configuration has the point symmetry D_3h.
 The point group associated with its full space group is D_6h.


 Subroutine INISYM returns: Found 24 space group operations
 (whereof 12 operations are pure point group operations),
 and found     1 'primitive' translations


----------------------------------------------------------------------------------------

                                     Primitive cell                                     

  volume of cell :      19.6619

  direct lattice vectors                    reciprocal lattice vectors
     2.353300000  0.000000000  0.000000000     0.424935197  0.245336451  0.000000000
    -1.176650000  2.038017583  0.000000000     0.000000000  0.490672901  0.000000000
     0.000000000  0.000000000  4.099590000     0.000000000  0.000000000  0.243926832

  length of vectors
     2.353300000  2.353300000  4.099590000     0.490672901  0.490672901  0.243926832

  position of ions in fractional coordinates (direct lattice)
     0.000000000  0.000000000  0.000000000
     0.333333333  0.666666667  0.500000000

  ion indices of the primitive-cell ions
   primitive index   ion index
                 1           1
                 2           2

----------------------------------------------------------------------------------------

 
 
 KPOINTS: KPOINTS created by Atomic Simulation Env

Automatic generation of k-mesh.
 Grid dimensions read from file:
 generate k-points for:   11   11   11

 Generating k-lattice:

  Cartesian coordinates                     Fractional coordinates (reciprocal lattice)
     0.038630472  0.022303314  0.000000000     0.090909091 -0.000000000  0.000000000
     0.000000000  0.044606627  0.000000000     0.000000000  0.090909091  0.000000000
     0.000000000  0.000000000  0.022175167     0.000000000  0.000000000  0.090909091

  Length of vectors
     0.044606627  0.044606627  0.022175167

  Shift w.r.t. Gamma in fractional coordinates (k-lattice)
     0.000000000  0.000000000  0.000000000

 
 Subroutine IBZKPT returns following result:
 ===========================================
 
 Found     96 irreducible k-points:
 
 Following reciprocal coordinates:
            Coordinates               Weight
  0.000000  0.000000  0.000000      1.000000
  0.090909 -0.000000  0.000000      6.000000
  0.181818  0.000000  0.000000      6.000000
  0.272727  0.000000  0.000000      6.000000
  0.363636  0.000000  0.000000      6.000000
  0.454545  0.000000  0.000000      6.000000
  0.090909  0.090909  0.000000      6.000000
  0.181818  0.090909  0.000000     12.000000
  0.272727  0.090909  0.000000     12.000000
  0.363636  0.090909  0.000000     12.000000
  0.454545  0.090909  0.000000      6.000000
  0.181818  0.181818  0.000000      6.000000
  0.272727  0.181818  0.000000     12.000000
  0.363636  0.181818  0.000000     12.000000
  0.272727  0.272727  0.000000      6.000000
  0.363636  0.272727  0.000000      6.000000
  0.000000  0.000000  0.090909      2.000000
  0.090909 -0.000000  0.090909     12.000000
  0.181818  0.000000  0.090909     12.000000
  0.272727  0.000000  0.090909     12.000000
  0.363636  0.000000  0.090909     12.000000
  0.454545  0.000000  0.090909     12.000000
  0.090909  0.090909  0.090909     12.000000
  0.181818  0.090909  0.090909     24.000000
  0.272727  0.090909  0.090909     24.000000
  0.363636  0.090909  0.090909     24.000000
  0.454545  0.090909  0.090909     12.000000
  0.181818  0.181818  0.090909     12.000000
  0.272727  0.181818  0.090909     24.000000
  0.363636  0.181818  0.090909     24.000000
  0.272727  0.272727  0.090909     12.000000
  0.363636  0.272727  0.090909     12.000000
  0.000000  0.000000  0.181818      2.000000
  0.090909 -0.000000  0.181818     12.000000
  0.181818  0.000000  0.181818     12.000000
  0.272727  0.000000  0.181818     12.000000
  0.363636  0.000000  0.181818     12.000000
  0.454545  0.000000  0.181818     12.000000
  0.090909  0.090909  0.181818     12.000000
  0.181818  0.090909  0.181818     24.000000
  0.272727  0.090909  0.181818     24.000000
  0.363636  0.090909  0.181818     24.000000
  0.454545  0.090909  0.181818     12.000000
  0.181818  0.181818  0.181818     12.000000
  0.272727  0.181818  0.181818     24.000000
  0.363636  0.181818  0.181818     24.000000
  0.272727  0.272727  0.181818     12.000000
  0.363636  0.272727  0.181818     12.000000
  0.000000  0.000000  0.272727      2.000000
  0.090909 -0.000000  0.272727     12.000000
  0.181818  0.000000  0.272727     12.000000
  0.272727  0.000000  0.272727     12.000000
  0.363636  0.000000  0.272727     12.000000
  0.454545  0.000000  0.272727     12.000000
  0.090909  0.090909  0.272727     12.000000
  0.181818  0.090909  0.272727     24.000000
  0.272727  0.090909  0.272727     24.000000
  0.363636  0.090909  0.272727     24.000000
  0.454545  0.090909  0.272727     12.000000
  0.181818  0.181818  0.272727     12.000000
  0.272727  0.181818  0.272727     24.000000
  0.363636  0.181818  0.272727     24.000000
  0.272727  0.272727  0.272727     12.000000
  0.363636  0.272727  0.272727     12.000000
  0.000000  0.000000  0.363636      2.000000
  0.090909 -0.000000  0.363636     12.000000
  0.181818  0.000000  0.363636     12.000000
  0.272727  0.000000  0.363636     12.000000
  0.363636  0.000000  0.363636     12.000000
  0.454545  0.000000  0.363636     12.000000
  0.090909  0.090909  0.363636     12.000000
  0.181818  0.090909  0.363636     24.000000
  0.272727  0.090909  0.363636     24.000000
  0.363636  0.090909  0.363636     24.000000
  0.454545  0.090909  0.363636     12.000000
  0.181818  0.181818  0.363636     12.000000
  0.272727  0.181818  0.363636     24.000000
  0.363636  0.181818  0.363636     24.000000
  0.272727  0.272727  0.363636     12.000000
  0.363636  0.272727  0.363636     12.000000
  0.000000  0.000000  0.454545      2.000000
  0.090909 -0.000000  0.454545     12.000000
  0.181818  0.000000  0.454545     12.000000
  0.272727  0.000000  0.454545     12.000000
  0.363636  0.000000  0.454545     12.000000
  0.454545  0.000000  0.454545     12.000000
  0.090909  0.090909  0.454545     12.000000
  0.181818  0.090909  0.454545     24.000000
  0.272727  0.090909  0.454545     24.000000
  0.363636  0.090909  0.454545     24.000000
  0.454545  0.090909  0.454545     12.000000
  0.181818  0.181818  0.454545     12.000000
  0.272727  0.181818  0.454545     24.000000
  0.363636  0.181818  0.454545     24.000000
  0.272727  0.272727  0.454545     12.000000
  0.363636  0.272727  0.454545     12.000000
 
 Following cartesian coordinates:
            Coordinates               Weight
  0.000000  0.000000  0.000000      1.000000
  0.038630  0.022303  0.000000      6.000000
  0.077261  0.044607  0.000000      6.000000
  0.115891  0.066910  0.000000      6.000000
  0.154522  0.089213  0.000000      6.000000
  0.193152  0.111517  0.000000      6.000000
  0.038630  0.066910  0.000000      6.000000
  0.077261  0.089213  0.000000     12.000000
  0.115891  0.111517  0.000000     12.000000
  0.154522  0.133820  0.000000     12.000000
  0.193152  0.156123  0.000000      6.000000
  0.077261  0.133820  0.000000      6.000000
  0.115891  0.156123  0.000000     12.000000
  0.154522  0.178427  0.000000     12.000000
  0.115891  0.200730  0.000000      6.000000
  0.154522  0.223033  0.000000      6.000000
  0.000000  0.000000  0.022175      2.000000
  0.038630  0.022303  0.022175     12.000000
  0.077261  0.044607  0.022175     12.000000
  0.115891  0.066910  0.022175     12.000000
  0.154522  0.089213  0.022175     12.000000
  0.193152  0.111517  0.022175     12.000000
  0.038630  0.066910  0.022175     12.000000
  0.077261  0.089213  0.022175     24.000000
  0.115891  0.111517  0.022175     24.000000
  0.154522  0.133820  0.022175     24.000000
  0.193152  0.156123  0.022175     12.000000
  0.077261  0.133820  0.022175     12.000000
  0.115891  0.156123  0.022175     24.000000
  0.154522  0.178427  0.022175     24.000000
  0.115891  0.200730  0.022175     12.000000
  0.154522  0.223033  0.022175     12.000000
  0.000000  0.000000  0.044350      2.000000
  0.038630  0.022303  0.044350     12.000000
  0.077261  0.044607  0.044350     12.000000
  0.115891  0.066910  0.044350     12.000000
  0.154522  0.089213  0.044350     12.000000
  0.193152  0.111517  0.044350     12.000000
  0.038630  0.066910  0.044350     12.000000
  0.077261  0.089213  0.044350     24.000000
  0.115891  0.111517  0.044350     24.000000
  0.154522  0.133820  0.044350     24.000000
  0.193152  0.156123  0.044350     12.000000
  0.077261  0.133820  0.044350     12.000000
  0.115891  0.156123  0.044350     24.000000
  0.154522  0.178427  0.044350     24.000000
  0.115891  0.200730  0.044350     12.000000
  0.154522  0.223033  0.044350     12.000000
  0.000000  0.000000  0.066525      2.000000
  0.038630  0.022303  0.066525     12.000000
  0.077261  0.044607  0.066525     12.000000
  0.115891  0.066910  0.066525     12.000000
  0.154522  0.089213  0.066525     12.000000
  0.193152  0.111517  0.066525     12.000000
  0.038630  0.066910  0.066525     12.000000
  0.077261  0.089213  0.066525     24.000000
  0.115891  0.111517  0.066525     24.000000
  0.154522  0.133820  0.066525     24.000000
  0.193152  0.156123  0.066525     12.000000
  0.077261  0.133820  0.066525     12.000000
  0.115891  0.156123  0.066525     24.000000
  0.154522  0.178427  0.066525     24.000000
  0.115891  0.200730  0.066525     12.000000
  0.154522  0.223033  0.066525     12.000000
  0.000000  0.000000  0.088701      2.000000
  0.038630  0.022303  0.088701     12.000000
  0.077261  0.044607  0.088701     12.000000
  0.115891  0.066910  0.088701     12.000000
  0.154522  0.089213  0.088701     12.000000
  0.193152  0.111517  0.088701     12.000000
  0.038630  0.066910  0.088701     12.000000
  0.077261  0.089213  0.088701     24.000000
  0.115891  0.111517  0.088701     24.000000
  0.154522  0.133820  0.088701     24.000000
  0.193152  0.156123  0.088701     12.000000
  0.077261  0.133820  0.088701     12.000000
  0.115891  0.156123  0.088701     24.000000
  0.154522  0.178427  0.088701     24.000000
  0.115891  0.200730  0.088701     12.000000
  0.154522  0.223033  0.088701     12.000000
  0.000000  0.000000  0.110876      2.000000
  0.038630  0.022303  0.110876     12.000000
  0.077261  0.044607  0.110876     12.000000
  0.115891  0.066910  0.110876     12.000000
  0.154522  0.089213  0.110876     12.000000
  0.193152  0.111517  0.110876     12.000000
  0.038630  0.066910  0.110876     12.000000
  0.077261  0.089213  0.110876     24.000000
  0.115891  0.111517  0.110876     24.000000
  0.154522  0.133820  0.110876     24.000000
  0.193152  0.156123  0.110876     12.000000
  0.077261  0.133820  0.110876     12.000000
  0.115891  0.156123  0.110876     24.000000
  0.154522  0.178427  0.110876     24.000000
  0.115891  0.200730  0.110876     12.000000
  0.154522  0.223033  0.110876     12.000000
 


--------------------------------------------------------------------------------------------------------




 Dimension of arrays:
   k-points           NKPTS =     96   k-points in BZ     NKDIM =     96   number of bands    NBANDS=     40
   number of dos      NEDOS =    301   number of ions     NIONS =      2
   non local maximal  LDIM  =      6   non local SUM 2l+1 LMDIM =     18
   total plane-waves  NPLWV =   1800
   max r-space proj   IRMAX =      1   max aug-charges    IRDMAX=   3460
   dimension x,y,z NGX =    10 NGY =   10 NGZ =   18
   dimension x,y,z NGXF=    20 NGYF=   20 NGZF=   36
   support grid    NGXF=    20 NGYF=   20 NGZF=   36
   ions per type =               2
   NGX,Y,Z   is equivalent  to a cutoff of   7.06,  7.06,  7.30 a.u.
   NGXF,Y,Z  is equivalent  to a cutoff of  14.13, 14.13, 14.60 a.u.

 SYSTEM =  unknown system                          
 POSCAR =  Fe                                      

 Startparameter for this run:
   NWRITE =      2    write-flag & timer
   PREC   = normal    normal or accurate (medium, high low for compatibility)
   ISTART =      0    job   : 0-new  1-cont  2-samecut
   ICHARG =      1    charge: 1-file 2-atom 10-const
   ISPIN  =      1    spin polarized calculation?
   LNONCOLLINEAR =      F non collinear calculations
   LSORBIT =      F    spin-orbit coupling
   INIWAV =      1    electr: 0-lowe 1-rand  2-diag
   LASPH  =      F    aspherical Exc in radial PAW
   METAGGA=      F    non-selfconsistent MetaGGA calc.

 Electronic Relaxation 1
   ENCUT  =  280.0 eV  20.58 Ry    4.54 a.u.   3.21  3.21  5.59*2*pi/ulx,y,z
   ENINI  =  280.0     initial cutoff
   ENAUG  =  511.4 eV  augmentation charge cutoff
   NELM   =     60;   NELMIN=  2; NELMDL= -5     # of ELM steps 
   EDIFF  = 0.1E-05   stopping-criterion for ELM
   LREAL  =      F    real-space projection
   NLSPLINE    = F    spline interpolate recip. space projectors
   LCOMPAT=      F    compatible to vasp.4.4
   GGA_COMPAT  = T    GGA compatible to vasp.4.4-vasp.4.6
   LMAXPAW     = -100 max onsite density
   LMAXMIX     =    2 max onsite mixed and CHGCAR
   VOSKOWN=      0    Vosko Wilk Nusair interpolation
   ROPT   =    0.00000
 Ionic relaxation
   EDIFFG = 0.1E-04   stopping-criterion for IOM
   NSW    =      0    number of steps for IOM
   NBLOCK =      1;   KBLOCK =      1    inner block; outer block 
   IBRION =     -1    ionic relax: 0-MD 1-quasi-New 2-CG
   NFREE  =      0    steps in history (QN), initial steepest desc. (CG)
   ISIF   =      2    stress and relaxation
   IWAVPR =      0    prediction:  0-non 1-charg 2-wave 3-comb
   ISYM   =      2    0-nonsym 1-usesym 2-fastsym
   LCORR  =      T    Harris-Foulkes like correction to forces

   POTIM  = 0.5000    time-step for ionic-motion
   TEIN   =    0.0    initial temperature
   TEBEG  =    0.0;   TEEND  =   0.0 temperature during run
   SMASS  =  -3.00    Nose mass-parameter (am)
   estimated Nose-frequenzy (Omega)   =  0.10E-29 period in steps = 0.13E+47 mass=  -0.127E-27a.u.
   SCALEE = 1.0000    scale energy and forces
   NPACO  =    256;   APACO  = 16.0  distance and # of slots for P.C.
   PSTRESS=    0.0 pullay stress

  Mass of Ions in am
   POMASS =  55.85
  Ionic Valenz
   ZVAL   =   8.00
  Atomic Wigner-Seitz radii
   RWIGS  =  -1.00
  virtual crystal weights 
   VCA    =   1.00
   NELECT =      16.0000    total number of electrons
   NUPDOWN=      -1.0000    fix difference up-down

 DOS related values:
   EMIN   =  10.00;   EMAX   =-10.00  energy-range for DOS
   EFERMI =   0.00
   ISMEAR =     1;   SIGMA  =   0.20  broadening in eV -4-tet -1-fermi 0-gaus

 Electronic relaxation 2 (details)
   IALGO  =     38    algorithm
   LDIAG  =      T    sub-space diagonalisation (order eigenvalues)
   LSUBROT=      F    optimize rotation matrix (better conditioning)
   TURBO    =      0    0=normal 1=particle mesh
   IRESTART =      0    0=no restart 2=restart with 2 vectors
   NREBOOT  =      0    no. of reboots
   NMIN     =      0    reboot dimension
   EREF     =   0.00    reference energy to select bands
   IMIX   =      4    mixing-type and parameters
     AMIX     =   0.40;   BMIX     =  1.00
     AMIX_MAG =   1.60;   BMIX_MAG =  1.00
     AMIN     =   0.10
     WC   =   100.;   INIMIX=   1;  MIXPRE=   1;  MAXMIX= -45

 Intra band minimization:
   WEIMIN = 0.0000     energy-eigenvalue tresh-hold
   EBREAK =  0.62E-08  absolut break condition
   DEPER  =   0.30     relativ break condition  

   TIME   =   0.40     timestep for ELM

  volume/ion in A,a.u.               =       9.83        66.34
  Fermi-wavevector in a.u.,A,eV,Ry     =   1.528409  2.888274 31.783677  2.336034
  Thomas-Fermi vector in A             =   2.636172
 
 Write flags
   LWAVE        =      T    write WAVECAR
   LDOWNSAMPLE  =      F    k-point downsampling of WAVECAR
   LCHARG       =      T    write CHGCAR
   LVTOT        =      F    write LOCPOT, total local potential
   LVHAR        =      F    write LOCPOT, Hartree potential only
   LELF         =      F    write electronic localiz. function (ELF)
   LORBIT       =      0    0 simple, 1 ext, 2 COOP (PROOUT), +10 PAW based schemes


 Dipole corrections
   LMONO  =      F    monopole corrections only (constant potential shift)
   LDIPOL =      F    correct potential (dipole corrections)
   IDIPOL =      0    1-x, 2-y, 3-z, 4-all directions 
   EPSILON=  1.0000000 bulk dielectric constant

 Exchange correlation treatment:
   GGA     =    PE    GGA type
   LEXCH   =     8    internal setting for exchange type
   VOSKOWN=      0    Vosko Wilk Nusair interpolation
   LHFCALC =     F    Hartree Fock is set to
   LHFONE  =     F    Hartree Fock one center treatment
   AEXX    =    0.0000 exact exchange contribution

 Linear response parameters
   LEPSILON=     F    determine dielectric tensor
   LRPA    =     F    only Hartree local field effects (RPA)
   LNABLA  =     F    use nabla operator in PAW spheres
   LVEL    =     F    velocity operator in full k-point grid
   LINTERFAST=   F  fast interpolation
   KINTER  =     0    interpolate to denser k-point grid
   CSHIFT  =0.1000    complex shift for real part using Kramers Kronig
   OMEGAMAX=  -1.0    maximum frequency
   DEG_THRESHOLD= 0.2000000E-02 threshold for treating states as degnerate
   RTIME   =   -0.100 relaxation time in fs
  (WPLASMAI=    0.000 imaginary part of plasma frequency in eV, 0.658/RTIME)
   DFIELD  = 0.0000000 0.0000000 0.0000000 field for delta impulse in time
 
 Orbital magnetization related:
   ORBITALMAG=     F  switch on orbital magnetization
   LCHIMAG   =     F  perturbation theory with respect to B field
   DQ        =  0.001000  dq finite difference perturbation B field
   LLRAUG    =     F  two centre corrections for induced B field



--------------------------------------------------------------------------------------------------------


 Static calculation
 charge density and potential will be updated during run
 non-spin polarized calculation
 Variant of blocked Davidson
 Davidson routine will perform the subspace rotation
 perform sub-space diagonalisation
    after iterative eigenvector-optimisation
 modified Broyden-mixing scheme, WC =      100.0
 initial mixing is a Kerker type mixing with AMIX =  0.4000 and BMIX =      1.0000
 Hartree-type preconditioning will be used
 using additional bands           32
 reciprocal scheme for non local part
 use partial core corrections
 calculate Harris-corrections to forces 
   (improved forces if not selfconsistent)
 use gradient corrections 
 use of overlap-Matrix (Vanderbilt PP)
 Methfessel and Paxton  Order N= 1 SIGMA  =   0.20


--------------------------------------------------------------------------------------------------------


  energy-cutoff  :      280.00
  volume of cell :       19.66
      direct lattice vectors                 reciprocal lattice vectors
     2.353300000  0.000000000  0.000000000     0.424935197  0.245336451  0.000000000
    -1.176650000  2.038017583  0.000000000     0.000000000  0.490672901  0.000000000
     0.000000000  0.000000000  4.099590000     0.000000000  0.000000000  0.243926832

  length of vectors
     2.353300000  2.353300000  4.099590000     0.490672901  0.490672901  0.243926832


 
 k-points in units of 2pi/SCALE and weight: KPOINTS created by Atomic Simulation Env
   0.00000000  0.00000000  0.00000000       0.001
   0.03863047  0.02230331  0.00000000       0.005
   0.07726094  0.04460663  0.00000000       0.005
   0.11589142  0.06690994  0.00000000       0.005
   0.15452189  0.08921325  0.00000000       0.005
   0.19315236  0.11151657  0.00000000       0.005
   0.03863047  0.06690994  0.00000000       0.005
   0.07726094  0.08921325  0.00000000       0.009
   0.11589142  0.11151657  0.00000000       0.009
   0.15452189  0.13381988  0.00000000       0.009
   0.19315236  0.15612320  0.00000000       0.005
   0.07726094  0.13381988  0.00000000       0.005
   0.11589142  0.15612320  0.00000000       0.009
   0.15452189  0.17842651  0.00000000       0.009
   0.11589142  0.20072982  0.00000000       0.005
   0.15452189  0.22303314  0.00000000       0.005
   0.00000000  0.00000000  0.02217517       0.002
   0.03863047  0.02230331  0.02217517       0.009
   0.07726094  0.04460663  0.02217517       0.009
   0.11589142  0.06690994  0.02217517       0.009
   0.15452189  0.08921325  0.02217517       0.009
   0.19315236  0.11151657  0.02217517       0.009
   0.03863047  0.06690994  0.02217517       0.009
   0.07726094  0.08921325  0.02217517       0.018
   0.11589142  0.11151657  0.02217517       0.018
   0.15452189  0.13381988  0.02217517       0.018
   0.19315236  0.15612320  0.02217517       0.009
   0.07726094  0.13381988  0.02217517       0.009
   0.11589142  0.15612320  0.02217517       0.018
   0.15452189  0.17842651  0.02217517       0.018
   0.11589142  0.20072982  0.02217517       0.009
   0.15452189  0.22303314  0.02217517       0.009
   0.00000000  0.00000000  0.04435033       0.002
   0.03863047  0.02230331  0.04435033       0.009
   0.07726094  0.04460663  0.04435033       0.009
   0.11589142  0.06690994  0.04435033       0.009
   0.15452189  0.08921325  0.04435033       0.009
   0.19315236  0.11151657  0.04435033       0.009
   0.03863047  0.06690994  0.04435033       0.009
   0.07726094  0.08921325  0.04435033       0.018
   0.11589142  0.11151657  0.04435033       0.018
   0.15452189  0.13381988  0.04435033       0.018
   0.19315236  0.15612320  0.04435033       0.009
   0.07726094  0.13381988  0.04435033       0.009
   0.11589142  0.15612320  0.04435033       0.018
   0.15452189  0.17842651  0.04435033       0.018
   0.11589142  0.20072982  0.04435033       0.009
   0.15452189  0.22303314  0.04435033       0.009
   0.00000000  0.00000000  0.06652550       0.002
   0.03863047  0.02230331  0.06652550       0.009
   0.07726094  0.04460663  0.06652550       0.009
   0.11589142  0.06690994  0.06652550       0.009
   0.15452189  0.08921325  0.06652550       0.009
   0.19315236  0.11151657  0.06652550       0.009
   0.03863047  0.06690994  0.06652550       0.009
   0.07726094  0.08921325  0.06652550       0.018
   0.11589142  0.11151657  0.06652550       0.018
   0.15452189  0.13381988  0.06652550       0.018
   0.19315236  0.15612320  0.06652550       0.009
   0.07726094  0.13381988  0.06652550       0.009
   0.11589142  0.15612320  0.06652550       0.018
   0.15452189  0.17842651  0.06652550       0.018
   0.11589142  0.20072982  0.06652550       0.009
   0.15452189  0.22303314  0.06652550       0.009
   0.00000000  0.00000000  0.08870067       0.002
   0.03863047  0.02230331  0.08870067       0.009
   0.07726094  0.04460663  0.08870067       0.009
   0.11589142  0.06690994  0.08870067       0.009
   0.15452189  0.08921325  0.08870067       0.009
   0.19315236  0.11151657  0.08870067       0.009
   0.03863047  0.06690994  0.08870067       0.009
   0.07726094  0.08921325  0.08870067       0.018
   0.11589142  0.11151657  0.08870067       0.018
   0.15452189  0.13381988  0.08870067       0.018
   0.19315236  0.15612320  0.08870067       0.009
   0.07726094  0.13381988  0.08870067       0.009
   0.11589142  0.15612320  0.08870067       0.018
   0.15452189  0.17842651  0.08870067       0.018
   0.11589142  0.20072982  0.08870067       0.009
   0.15452189  0.22303314  0.08870067       0.009
   0.00000000  0.00000000  0.11087583       0.002
   0.03863047  0.02230331  0.11087583       0.009
   0.07726094  0.04460663  0.11087583       0.009
   0.11589142  0.06690994  0.11087583       0.009
   0.15452189  0.08921325  0.11087583       0.009
   0.19315236  0.11151657  0.11087583       0.009
   0.03863047  0.06690994  0.11087583       0.009
   0.07726094  0.08921325  0.11087583       0.018
   0.11589142  0.11151657  0.11087583       0.018
   0.15452189  0.13381988  0.11087583       0.018
   0.19315236  0.15612320  0.11087583       0.009
   0.07726094  0.13381988  0.11087583       0.009
   0.11589142  0.15612320  0.11087583       0.018
   0.15452189  0.17842651  0.11087583       0.018
   0.11589142  0.20072982  0.11087583       0.009
   0.15452189  0.22303314  0.11087583       0.009
 
 k-points in reciprocal lattice and weights: KPOINTS created by Atomic Simulation Env
   0.00000000  0.00000000  0.00000000       0.001
   0.09090909 -0.00000000  0.00000000       0.005
   0.18181818  0.00000000  0.00000000       0.005
   0.27272727  0.00000000  0.00000000       0.005
   0.36363636  0.00000000  0.00000000       0.005
   0.45454545  0.00000000  0.00000000       0.005
   0.09090909  0.09090909  0.00000000       0.005
   0.18181818  0.09090909  0.00000000       0.009
   0.27272727  0.09090909  0.00000000       0.009
   0.36363636  0.09090909  0.00000000       0.009
   0.45454545  0.09090909  0.00000000       0.005
   0.18181818  0.18181818  0.00000000       0.005
   0.27272727  0.18181818  0.00000000       0.009
   0.36363636  0.18181818  0.00000000       0.009
   0.27272727  0.27272727  0.00000000       0.005
   0.36363636  0.27272727  0.00000000       0.005
   0.00000000  0.00000000  0.09090909       0.002
   0.09090909 -0.00000000  0.09090909       0.009
   0.18181818  0.00000000  0.09090909       0.009
   0.27272727  0.00000000  0.09090909       0.009
   0.36363636  0.00000000  0.09090909       0.009
   0.45454545  0.00000000  0.09090909       0.009
   0.09090909  0.09090909  0.09090909       0.009
   0.18181818  0.09090909  0.09090909       0.018
   0.27272727  0.09090909  0.09090909       0.018
   0.36363636  0.09090909  0.09090909       0.018
   0.45454545  0.09090909  0.09090909       0.009
   0.18181818  0.18181818  0.09090909       0.009
   0.27272727  0.18181818  0.09090909       0.018
   0.36363636  0.18181818  0.09090909       0.018
   0.27272727  0.27272727  0.09090909       0.009
   0.36363636  0.27272727  0.09090909       0.009
   0.00000000  0.00000000  0.18181818       0.002
   0.09090909 -0.00000000  0.18181818       0.009
   0.18181818  0.00000000  0.18181818       0.009
   0.27272727  0.00000000  0.18181818       0.009
   0.36363636  0.00000000  0.18181818       0.009
   0.45454545  0.00000000  0.18181818       0.009
   0.09090909  0.09090909  0.18181818       0.009
   0.18181818  0.09090909  0.18181818       0.018
   0.27272727  0.09090909  0.18181818       0.018
   0.36363636  0.09090909  0.18181818       0.018
   0.45454545  0.09090909  0.18181818       0.009
   0.18181818  0.18181818  0.18181818       0.009
   0.27272727  0.18181818  0.18181818       0.018
   0.36363636  0.18181818  0.18181818       0.018
   0.27272727  0.27272727  0.18181818       0.009
   0.36363636  0.27272727  0.18181818       0.009
   0.00000000  0.00000000  0.27272727       0.002
   0.09090909 -0.00000000  0.27272727       0.009
   0.18181818  0.00000000  0.27272727       0.009
   0.27272727  0.00000000  0.27272727       0.009
   0.36363636  0.00000000  0.27272727       0.009
   0.45454545  0.00000000  0.27272727       0.009
   0.09090909  0.09090909  0.27272727       0.009
   0.18181818  0.09090909  0.27272727       0.018
   0.27272727  0.09090909  0.27272727       0.018
   0.36363636  0.09090909  0.27272727       0.018
   0.45454545  0.09090909  0.27272727       0.009
   0.18181818  0.18181818  0.27272727       0.009
   0.27272727  0.18181818  0.27272727       0.018
   0.36363636  0.18181818  0.27272727       0.018
   0.27272727  0.27272727  0.27272727       0.009
   0.36363636  0.27272727  0.27272727       0.009
   0.00000000  0.00000000  0.36363636       0.002
   0.09090909 -0.00000000  0.36363636       0.009
   0.18181818  0.00000000  0.36363636       0.009
   0.27272727  0.00000000  0.36363636       0.009
   0.36363636  0.00000000  0.36363636       0.009
   0.45454545  0.00000000  0.36363636       0.009
   0.09090909  0.09090909  0.36363636       0.009
   0.18181818  0.09090909  0.36363636       0.018
   0.27272727  0.09090909  0.36363636       0.018
   0.36363636  0.09090909  0.36363636       0.018
   0.45454545  0.09090909  0.36363636       0.009
   0.18181818  0.18181818  0.36363636       0.009
   0.27272727  0.18181818  0.36363636       0.018
   0.36363636  0.18181818  0.36363636       0.018
   0.27272727  0.27272727  0.36363636       0.009
   0.36363636  0.27272727  0.36363636       0.009
   0.00000000  0.00000000  0.45454545       0.002
   0.09090909 -0.00000000  0.45454545       0.009
   0.18181818  0.00000000  0.45454545       0.009
   0.27272727  0.00000000  0.45454545       0.009
   0.36363636  0.00000000  0.45454545       0.009
   0.45454545  0.00000000  0.45454545       0.009
   0.09090909  0.09090909  0.45454545       0.009
   0.18181818  0.09090909  0.45454545       0.018
   0.27272727  0.09090909  0.45454545       0.018
   0.36363636  0.09090909  0.45454545       0.018
   0.45454545  0.09090909  0.45454545       0.009
   0.18181818  0.18181818  0.45454545       0.009
   0.27272727  0.18181818  0.45454545       0.018
   0.36363636  0.18181818  0.45454545       0.018
   0.27272727  0.27272727  0.45454545       0.009
   0.36363636  0.27272727  0.45454545       0.009
 
 position of ions in fractional coordinates (direct lattice) 
   0.00000000  0.00000000  0.00000000
   0.33333333  0.66666667  0.50000000
 
 position of ions in cartesian coordinates  (Angst):
   0.00000000  0.00000000  0.00000000
   0.00000000  1.35867839  2.04979500
 


--------------------------------------------------------------------------------------------------------


 k-point   1 :   0.0000 0.0000 0.0000  plane waves:     209
 k-point   2 :   0.0909-0.0000 0.0000  plane waves:     219
 k-point   3 :   0.1818 0.0000 0.0000  plane waves:     211
 k-point   4 :   0.2727 0.0000 0.0000  plane waves:     208
 k-point   5 :   0.3636 0.0000 0.0000  plane waves:     206
 k-point   6 :   0.4545 0.0000 0.0000  plane waves:     208
 k-point   7 :   0.0909 0.0909 0.0000  plane waves:     211
 k-point   8 :   0.1818 0.0909 0.0000  plane waves:     209
 k-point   9 :   0.2727 0.0909 0.0000  plane waves:     207
 k-point  10 :   0.3636 0.0909 0.0000  plane waves:     212
 k-point  11 :   0.4545 0.0909 0.0000  plane waves:     210
 k-point  12 :   0.1818 0.1818 0.0000  plane waves:     213
 k-point  13 :   0.2727 0.1818 0.0000  plane waves:     208
 k-point  14 :   0.3636 0.1818 0.0000  plane waves:     208
 k-point  15 :   0.2727 0.2727 0.0000  plane waves:     203
 k-point  16 :   0.3636 0.2727 0.0000  plane waves:     211
 k-point  17 :   0.0000 0.0000 0.0909  plane waves:     209
 k-point  18 :   0.0909-0.0000 0.0909  plane waves:     218
 k-point  19 :   0.1818 0.0000 0.0909  plane waves:     208
 k-point  20 :   0.2727 0.0000 0.0909  plane waves:     210
 k-point  21 :   0.3636 0.0000 0.0909  plane waves:     209
 k-point  22 :   0.4545 0.0000 0.0909  plane waves:     210
 k-point  23 :   0.0909 0.0909 0.0909  plane waves:     213
 k-point  24 :   0.1818 0.0909 0.0909  plane waves:     208
 k-point  25 :   0.2727 0.0909 0.0909  plane waves:     208
 k-point  26 :   0.3636 0.0909 0.0909  plane waves:     210
 k-point  27 :   0.4545 0.0909 0.0909  plane waves:     214
 k-point  28 :   0.1818 0.1818 0.0909  plane waves:     209
 k-point  29 :   0.2727 0.1818 0.0909  plane waves:     207
 k-point  30 :   0.3636 0.1818 0.0909  plane waves:     208
 k-point  31 :   0.2727 0.2727 0.0909  plane waves:     208
 k-point  32 :   0.3636 0.2727 0.0909  plane waves:     210
 k-point  33 :   0.0000 0.0000 0.1818  plane waves:     215
 k-point  34 :   0.0909-0.0000 0.1818  plane waves:     213
 k-point  35 :   0.1818 0.0000 0.1818  plane waves:     206
 k-point  36 :   0.2727 0.0000 0.1818  plane waves:     210
 k-point  37 :   0.3636 0.0000 0.1818  plane waves:     210
 k-point  38 :   0.4545 0.0000 0.1818  plane waves:     212
 k-point  39 :   0.0909 0.0909 0.1818  plane waves:     210
 k-point  40 :   0.1818 0.0909 0.1818  plane waves:     208
 k-point  41 :   0.2727 0.0909 0.1818  plane waves:     208
 k-point  42 :   0.3636 0.0909 0.1818  plane waves:     209
 k-point  43 :   0.4545 0.0909 0.1818  plane waves:     214
 k-point  44 :   0.1818 0.1818 0.1818  plane waves:     209
 k-point  45 :   0.2727 0.1818 0.1818  plane waves:     211
 k-point  46 :   0.3636 0.1818 0.1818  plane waves:     210
 k-point  47 :   0.2727 0.2727 0.1818  plane waves:     208
 k-point  48 :   0.3636 0.2727 0.1818  plane waves:     209
 k-point  49 :   0.0000 0.0000 0.2727  plane waves:     209
 k-point  50 :   0.0909-0.0000 0.2727  plane waves:     209
 k-point  51 :   0.1818 0.0000 0.2727  plane waves:     205
 k-point  52 :   0.2727 0.0000 0.2727  plane waves:     207
 k-point  53 :   0.3636 0.0000 0.2727  plane waves:     213
 k-point  54 :   0.4545 0.0000 0.2727  plane waves:     208
 k-point  55 :   0.0909 0.0909 0.2727  plane waves:     206
 k-point  56 :   0.1818 0.0909 0.2727  plane waves:     208
 k-point  57 :   0.2727 0.0909 0.2727  plane waves:     208
 k-point  58 :   0.3636 0.0909 0.2727  plane waves:     212
 k-point  59 :   0.4545 0.0909 0.2727  plane waves:     211
 k-point  60 :   0.1818 0.1818 0.2727  plane waves:     207
 k-point  61 :   0.2727 0.1818 0.2727  plane waves:     210
 k-point  62 :   0.3636 0.1818 0.2727  plane waves:     211
 k-point  63 :   0.2727 0.2727 0.2727  plane waves:     214
 k-point  64 :   0.3636 0.2727 0.2727  plane waves:     207
 k-point  65 :   0.0000 0.0000 0.3636  plane waves:     221
 k-point  66 :   0.0909-0.0000 0.3636  plane waves:     209
 k-point  67 :   0.1818 0.0000 0.3636  plane waves:     202
 k-point  68 :   0.2727 0.0000 0.3636  plane waves:     207
 k-point  69 :   0.3636 0.0000 0.3636  plane waves:     209
 k-point  70 :   0.4545 0.0000 0.3636  plane waves:     205
 k-point  71 :   0.0909 0.0909 0.3636  plane waves:     202
 k-point  72 :   0.1818 0.0909 0.3636  plane waves:     204
 k-point  73 :   0.2727 0.0909 0.3636  plane waves:     206
 k-point  74 :   0.3636 0.0909 0.3636  plane waves:     208
 k-point  75 :   0.4545 0.0909 0.3636  plane waves:     211
 k-point  76 :   0.1818 0.1818 0.3636  plane waves:     209
 k-point  77 :   0.2727 0.1818 0.3636  plane waves:     213
 k-point  78 :   0.3636 0.1818 0.3636  plane waves:     216
 k-point  79 :   0.2727 0.2727 0.3636  plane waves:     214
 k-point  80 :   0.3636 0.2727 0.3636  plane waves:     213
 k-point  81 :   0.0000 0.0000 0.4545  plane waves:     216
 k-point  82 :   0.0909-0.0000 0.4545  plane waves:     210
 k-point  83 :   0.1818 0.0000 0.4545  plane waves:     203
 k-point  84 :   0.2727 0.0000 0.4545  plane waves:     208
 k-point  85 :   0.3636 0.0000 0.4545  plane waves:     206
 k-point  86 :   0.4545 0.0000 0.4545  plane waves:     206
 k-point  87 :   0.0909 0.0909 0.4545  plane waves:     206
 k-point  88 :   0.1818 0.0909 0.4545  plane waves:     201
 k-point  89 :   0.2727 0.0909 0.4545  plane waves:     206
 k-point  90 :   0.3636 0.0909 0.4545  plane waves:     209
 k-point  91 :   0.4545 0.0909 0.4545  plane waves:     205
 k-point  92 :   0.1818 0.1818 0.4545  plane waves:     210
 k-point  93 :   0.2727 0.1818 0.4545  plane waves:     210
 k-point  94 :   0.3636 0.1818 0.4545  plane waves:     215
 k-point  95 :   0.2727 0.2727 0.4545  plane waves:     213
 k-point  96 :   0.3636 0.2727 0.4545  plane waves:     216

 maximum number of plane-waves:       221
 maximum index in each direction: 
   IXMAX=    3   IYMAX=    3   IZMAX=    5
   IXMIN=   -3   IYMIN=   -3   IZMIN=   -6


 total amount of memory used by VASP MPI-rank0    49695. kBytes
=======================================================================

   base      :      30000. kBytes
   nonl-proj :       3062. kBytes
   grid      :        812. kBytes
   one-center:         31. kBytes
   wavefun   :      15790. kBytes
 
     INWAV:  cpu time    0.0000: real time    0.0000
 Broyden mixing: mesh for mixing (old mesh)
   NGX =  7   NGY =  7   NGZ = 11
  (NGX  = 20   NGY  = 20   NGZ  = 36)
  gives a total of    539 points

 initial charge density was supplied:
 charge density of overlapping atoms calculated
 number of electron      16.0000000 magnetization 
 keeping initial charge density in first step


--------------------------------------------------------------------------------------------------------


 Maximum index for augmentation-charges         3161 (set IRDMAX)


--------------------------------------------------------------------------------------------------------


 First call to EWALD:  gamma=   0.657
 Maximum number of real-space cells 3x 3x 2
 Maximum number of reciprocal cells 2x 2x 4

    FEWALD:  cpu time    0.0008: real time    0.0008


--------------------------------------- Iteration      1(   1)  ---------------------------------------


    POTLOK:  cpu time    0.0035: real time    0.0035
    SETDIJ:  cpu time    0.0021: real time    0.0021
     EDDAV:  cpu time    0.7894: real time    0.8104
       DOS:  cpu time    0.0058: real time    0.0058
    --------------------------------------------
      LOOP:  cpu time    0.8008: real time    0.8218

 eigenvalue-minimisations  :  9304
 total energy-change (2. order) : 0.6047647E+02  (-0.2584571E+03)
 number of electron      16.0000000 magnetization 
 augmentation part       16.0000000 magnetization 

 Free energy of the ion-electron system (eV)
  ---------------------------------------------------
  alpha Z        PSCENC =       140.60441766
  Ewald energy   TEWEN  =     -1241.74205217
  -Hartree energ DENC   =      -202.01773466
  -exchange      EXHF   =         0.00000000
  -V(xc)+E(xc)   XCENC  =         8.72159107
  PAW double counting   =      1109.69170683    -1125.09647265
  entropy T*S    EENTRO =        -0.00447604
  eigenvalues    EBANDS =       181.74458005
  atomic energy  EATOM  =      1188.57490811
  Solvation  Ediel_sol  =         0.00000000
  ---------------------------------------------------
  free energy    TOTEN  =        60.47646819 eV

  energy without entropy =       60.48094423  energy(sigma->0) =       60.47796020


--------------------------------------------------------------------------------------------------------




--------------------------------------- Iteration      1(   2)  ---------------------------------------


     EDDAV:  cpu time    0.6928: real time    0.6928
       DOS:  cpu time    0.0061: real time    0.0061
    --------------------------------------------
      LOOP:  cpu time    0.6989: real time    0.6990

 eigenvalue-minimisations  :  7960
 total energy-change (2. order) :-0.7528729E+02  (-0.6428209E+02)
 number of electron      16.0000000 magnetization 
 augmentation part       16.0000000 magnetization 

 Free energy of the ion-electron system (eV)
  ---------------------------------------------------
  alpha Z        PSCENC =       140.60441766
  Ewald energy   TEWEN  =     -1241.74205217
  -Hartree energ DENC   =      -202.01773466
  -exchange      EXHF   =         0.00000000
  -V(xc)+E(xc)   XCENC  =         8.72159107
  PAW double counting   =      1109.69170683    -1125.09647265
  entropy T*S    EENTRO =        -0.00140662
  eigenvalues    EBANDS =       106.45422431
  atomic energy  EATOM  =      1188.57490811
  Solvation  Ediel_sol  =         0.00000000
  ---------------------------------------------------
  free energy    TOTEN  =       -14.81081813 eV

  energy without entropy =      -14.80941151  energy(sigma->0) =      -14.81034926


--------------------------------------------------------------------------------------------------------




--------------------------------------- Iteration      1(   3)  ---------------------------------------


     EDDAV:  cpu time    0.7949: real time    0.7949
       DOS:  cpu time    0.0064: real time    0.0064
    --------------------------------------------
      LOOP:  cpu time    0.8013: real time    0.8014

 eigenvalue-minimisations  :  9568
 total energy-change (2. order) :-0.4321037E+01  (-0.4120108E+01)
 number of electron      16.0000000 magnetization 
 augmentation part       16.0000000 magnetization 

 Free energy of the ion-electron system (eV)
  ---------------------------------------------------
  alpha Z        PSCENC =       140.60441766
  Ewald energy   TEWEN  =     -1241.74205217
  -Hartree energ DENC   =      -202.01773466
  -exchange      EXHF   =         0.00000000
  -V(xc)+E(xc)   XCENC  =         8.72159107
  PAW double counting   =      1109.69170683    -1125.09647265
  entropy T*S    EENTRO =         0.00040496
  eigenvalues    EBANDS =       102.13137587
  atomic energy  EATOM  =      1188.57490811
  Solvation  Ediel_sol  =         0.00000000
  ---------------------------------------------------
  free energy    TOTEN  =       -19.13185498 eV

  energy without entropy =      -19.13225994  energy(sigma->0) =      -19.13198997


--------------------------------------------------------------------------------------------------------




--------------------------------------- Iteration      1(   4)  ---------------------------------------


     EDDAV:  cpu time    0.7579: real time    0.7579
       DOS:  cpu time    0.0065: real time    0.0065
    --------------------------------------------
      LOOP:  cpu time    0.7644: real time    0.7644

 eigenvalue-minimisations  :  9112
 total energy-change (2. order) :-0.1845325E-01  (-0.1844175E-01)
 number of electron      16.0000000 magnetization 
 augmentation part       16.0000000 magnetization 

 Free energy of the ion-electron system (eV)
  ---------------------------------------------------
  alpha Z        PSCENC =       140.60441766
  Ewald energy   TEWEN  =     -1241.74205217
  -Hartree energ DENC   =      -202.01773466
  -exchange      EXHF   =         0.00000000
  -V(xc)+E(xc)   XCENC  =         8.72159107
  PAW double counting   =      1109.69170683    -1125.09647265
  entropy T*S    EENTRO =         0.00037545
  eigenvalues    EBANDS =       102.11295214
  atomic energy  EATOM  =      1188.57490811
  Solvation  Ediel_sol  =         0.00000000
  ---------------------------------------------------
  free energy    TOTEN  =       -19.15030823 eV

  energy without entropy =      -19.15068368  energy(sigma->0) =      -19.15043338


--------------------------------------------------------------------------------------------------------




--------------------------------------- Iteration      1(   5)  ---------------------------------------


     EDDAV:  cpu time    0.7581: real time    0.7581
       DOS:  cpu time    0.0063: real time    0.0063
    CHARGE:  cpu time    0.0198: real time    0.0198
    MIXING:  cpu time    0.0001: real time    0.0001
    --------------------------------------------
      LOOP:  cpu time    0.7843: real time    0.7844

 eigenvalue-minimisations  :  9216
 total energy-change (2. order) :-0.1768022E-04  (-0.1767965E-04)
 number of electron      15.9999935 magnetization 
 augmentation part        7.1004484 magnetization 

 Broyden mixing:
  rms(total) = 0.17602E+01    rms(broyden)= 0.17601E+01
  rms(prec ) = 0.29424E+01
  weight for this iteration     100.00

 Free energy of the ion-electron system (eV)
  ---------------------------------------------------
  alpha Z        PSCENC =       140.60441766
  Ewald energy   TEWEN  =     -1241.74205217
  -Hartree energ DENC   =      -202.01773466
  -exchange      EXHF   =         0.00000000
  -V(xc)+E(xc)   XCENC  =         8.72159107
  PAW double counting   =      1109.69170683    -1125.09647265
  entropy T*S    EENTRO =         0.00037542
  eigenvalues    EBANDS =       102.11293449
  atomic energy  EATOM  =      1188.57490811
  Solvation  Ediel_sol  =         0.00000000
  ---------------------------------------------------
  free energy    TOTEN  =       -19.15032591 eV

  energy without entropy =      -19.15070133  energy(sigma->0) =      -19.15045105


--------------------------------------------------------------------------------------------------------




--------------------------------------- Iteration      1(   6)  ---------------------------------------


    POTLOK:  cpu time    0.0033: real time    0.0033
    SETDIJ:  cpu time    0.0022: real time    0.0022
     EDDAV:  cpu time    0.9027: real time    0.9027
       DOS:  cpu time    0.0066: real time    0.0066
    CHARGE:  cpu time    0.0193: real time    0.0193
    MIXING:  cpu time    0.0002: real time    0.0002
    --------------------------------------------
      LOOP:  cpu time    0.9343: real time    0.9344

 eigenvalue-minimisations  : 11184
 total energy-change (2. order) : 0.2833858E+01  (-0.1676087E+00)
 number of electron      15.9999919 magnetization 
 augmentation part        8.4376747 magnetization 

 Broyden mixing:
  rms(total) = 0.20296E+00    rms(broyden)= 0.20286E+00
  rms(prec ) = 0.34596E+00
  weight for this iteration     100.00

 eigenvalues of (default mixing * dielectric matrix)
  average eigenvalue GAMMA=   0.9481
  0.9481

 Free energy of the ion-electron system (eV)
  ---------------------------------------------------
  alpha Z        PSCENC =       140.60441766
  Ewald energy   TEWEN  =     -1241.74205217
  -Hartree energ DENC   =      -168.53679586
  -exchange      EXHF   =         0.00000000
  -V(xc)+E(xc)   XCENC  =         7.08307088
  PAW double counting   =      1275.97329378    -1287.24133110
  entropy T*S    EENTRO =         0.00181701
  eigenvalues    EBANDS =        68.96620387
  atomic energy  EATOM  =      1188.57490811
  Solvation  Ediel_sol  =         0.00000000
  ---------------------------------------------------
  free energy    TOTEN  =       -16.31646782 eV

  energy without entropy =      -16.31828484  energy(sigma->0) =      -16.31707349


--------------------------------------------------------------------------------------------------------




--------------------------------------- Iteration      1(   7)  ---------------------------------------


    POTLOK:  cpu time    0.0034: real time    0.0034
    SETDIJ:  cpu time    0.0021: real time    0.0021
     EDDAV:  cpu time    0.8210: real time    0.8210
       DOS:  cpu time    0.0065: real time    0.0065
    CHARGE:  cpu time    0.0193: real time    0.0193
    MIXING:  cpu time    0.0002: real time    0.0002
    --------------------------------------------
      LOOP:  cpu time    0.8525: real time    0.8525

 eigenvalue-minimisations  : 10072
 total energy-change (2. order) : 0.1683492E+00  (-0.1018916E-01)
 number of electron      15.9999922 magnetization 
 augmentation part        8.1774803 magnetization 

 Broyden mixing:
  rms(total) = 0.11230E+00    rms(broyden)= 0.11230E+00
  rms(prec ) = 0.20260E+00
  weight for this iteration     100.00

 eigenvalues of (default mixing * dielectric matrix)
  average eigenvalue GAMMA=   1.0070
  1.2532  0.7609

 Free energy of the ion-electron system (eV)
  ---------------------------------------------------
  alpha Z        PSCENC =       140.60441766
  Ewald energy   TEWEN  =     -1241.74205217
  -Hartree energ DENC   =      -171.92223426
  -exchange      EXHF   =         0.00000000
  -V(xc)+E(xc)   XCENC  =         7.27871345
  PAW double counting   =      1360.52054557    -1375.28463171
  entropy T*S    EENTRO =         0.00177972
  eigenvalues    EBANDS =        75.82043501
  atomic energy  EATOM  =      1188.57490811
  Solvation  Ediel_sol  =         0.00000000
  ---------------------------------------------------
  free energy    TOTEN  =       -16.14811863 eV

  energy without entropy =      -16.14989834  energy(sigma->0) =      -16.14871187


--------------------------------------------------------------------------------------------------------




--------------------------------------- Iteration      1(   8)  ---------------------------------------


    POTLOK:  cpu time    0.0034: real time    0.0034
    SETDIJ:  cpu time    0.0021: real time    0.0021
     EDDAV:  cpu time    0.8202: real time    0.8203
       DOS:  cpu time    0.0066: real time    0.0066
    CHARGE:  cpu time    0.0194: real time    0.0194
    MIXING:  cpu time    0.0002: real time    0.0002
    --------------------------------------------
      LOOP:  cpu time    0.8519: real time    0.8520

 eigenvalue-minimisations  : 10008
 total energy-change (2. order) : 0.2834096E-01  (-0.2895944E-03)
 number of electron      15.9999922 magnetization 
 augmentation part        8.2043036 magnetization 

 Broyden mixing:
  rms(total) = 0.51507E-01    rms(broyden)= 0.51507E-01
  rms(prec ) = 0.90824E-01
  weight for this iteration     100.00

 eigenvalues of (default mixing * dielectric matrix)
  average eigenvalue GAMMA=   1.4760
  1.0428  0.8078  2.5774

 Free energy of the ion-electron system (eV)
  ---------------------------------------------------
  alpha Z        PSCENC =       140.60441766
  Ewald energy   TEWEN  =     -1241.74205217
  -Hartree energ DENC   =      -169.83612208
  -exchange      EXHF   =         0.00000000
  -V(xc)+E(xc)   XCENC  =         7.19586059
  PAW double counting   =      1430.03088789    -1446.22928369
  entropy T*S    EENTRO =         0.00180026
  eigenvalues    EBANDS =        75.27980576
  atomic energy  EATOM  =      1188.57490811
  Solvation  Ediel_sol  =         0.00000000
  ---------------------------------------------------
  free energy    TOTEN  =       -16.11977767 eV

  energy without entropy =      -16.12157793  energy(sigma->0) =      -16.12037776


--------------------------------------------------------------------------------------------------------




--------------------------------------- Iteration      1(   9)  ---------------------------------------


    POTLOK:  cpu time    0.0034: real time    0.0034
    SETDIJ:  cpu time    0.0021: real time    0.0021
     EDDAV:  cpu time    0.8764: real time    0.8765
       DOS:  cpu time    0.0064: real time    0.0064
    CHARGE:  cpu time    0.0194: real time    0.0194
    MIXING:  cpu time    0.0002: real time    0.0002
    --------------------------------------------
      LOOP:  cpu time    0.9079: real time    0.9079

 eigenvalue-minimisations  : 10840
 total energy-change (2. order) : 0.1044288E-01  (-0.9163913E-04)
 number of electron      15.9999921 magnetization 
 augmentation part        8.2183228 magnetization 

 Broyden mixing:
  rms(total) = 0.57578E-02    rms(broyden)= 0.57563E-02
  rms(prec ) = 0.66390E-02
  weight for this iteration     100.00

 eigenvalues of (default mixing * dielectric matrix)
  average eigenvalue GAMMA=   1.5630
  2.6081  0.8082  0.9976  1.8380

 Free energy of the ion-electron system (eV)
  ---------------------------------------------------
  alpha Z        PSCENC =       140.60441766
  Ewald energy   TEWEN  =     -1241.74205217
  -Hartree energ DENC   =      -167.83546418
  -exchange      EXHF   =         0.00000000
  -V(xc)+E(xc)   XCENC  =         7.12187468
  PAW double counting   =      1515.20739445    -1533.12609294
  entropy T*S    EENTRO =         0.00179079
  eigenvalues    EBANDS =        75.08388882
  atomic energy  EATOM  =      1188.57490811
  Solvation  Ediel_sol  =         0.00000000
  ---------------------------------------------------
  free energy    TOTEN  =       -16.10933479 eV

  energy without entropy =      -16.11112558  energy(sigma->0) =      -16.10993172


--------------------------------------------------------------------------------------------------------




--------------------------------------- Iteration      1(  10)  ---------------------------------------


    POTLOK:  cpu time    0.0034: real time    0.0034
    SETDIJ:  cpu time    0.0021: real time    0.0021
     EDDAV:  cpu time    0.7318: real time    0.7318
       DOS:  cpu time    0.0066: real time    0.0066
    CHARGE:  cpu time    0.0207: real time    0.0207
    MIXING:  cpu time    0.0003: real time    0.0003
    --------------------------------------------
      LOOP:  cpu time    0.7648: real time    0.7648

 eigenvalue-minimisations  :  8816
 total energy-change (2. order) :-0.2476962E-04  (-0.3374807E-05)
 number of electron      15.9999921 magnetization 
 augmentation part        8.2184680 magnetization 

 Broyden mixing:
  rms(total) = 0.23167E-02    rms(broyden)= 0.23158E-02
  rms(prec ) = 0.31509E-02
  weight for this iteration     100.00

 eigenvalues of (default mixing * dielectric matrix)
  average eigenvalue GAMMA=   1.6308
  2.5465  2.5465  0.8078  1.0051  1.2482

 Free energy of the ion-electron system (eV)
  ---------------------------------------------------
  alpha Z        PSCENC =       140.60441766
  Ewald energy   TEWEN  =     -1241.74205217
  -Hartree energ DENC   =      -167.87322214
  -exchange      EXHF   =         0.00000000
  -V(xc)+E(xc)   XCENC  =         7.12449408
  PAW double counting   =      1517.30667278    -1535.17940603
  entropy T*S    EENTRO =         0.00178559
  eigenvalues    EBANDS =        75.07304256
  atomic energy  EATOM  =      1188.57490811
  Solvation  Ediel_sol  =         0.00000000
  ---------------------------------------------------
  free energy    TOTEN  =       -16.10935956 eV

  energy without entropy =      -16.11114515  energy(sigma->0) =      -16.10995476


--------------------------------------------------------------------------------------------------------




--------------------------------------- Iteration      1(  11)  ---------------------------------------


    POTLOK:  cpu time    0.0034: real time    0.0034
    SETDIJ:  cpu time    0.0021: real time    0.0021
     EDDAV:  cpu time    0.7340: real time    0.7341
       DOS:  cpu time    0.0067: real time    0.0067
    CHARGE:  cpu time    0.0208: real time    0.0208
    MIXING:  cpu time    0.0002: real time    0.0002
    --------------------------------------------
      LOOP:  cpu time    0.7672: real time    0.7673

 eigenvalue-minimisations  :  8720
 total energy-change (2. order) : 0.9107947E-05  (-0.2798881E-07)
 number of electron      15.9999921 magnetization 
 augmentation part        8.2181613 magnetization 

 Broyden mixing:
  rms(total) = 0.17400E-03    rms(broyden)= 0.17383E-03
  rms(prec ) = 0.23859E-03
  weight for this iteration     100.00

 eigenvalues of (default mixing * dielectric matrix)
  average eigenvalue GAMMA=   1.5578
  2.5754  2.5754  0.8076  1.0059  1.0059  1.3768

 Free energy of the ion-electron system (eV)
  ---------------------------------------------------
  alpha Z        PSCENC =       140.60441766
  Ewald energy   TEWEN  =     -1241.74205217
  -Hartree energ DENC   =      -167.93137860
  -exchange      EXHF   =         0.00000000
  -V(xc)+E(xc)   XCENC  =         7.12727847
  PAW double counting   =      1516.99356626    -1534.81221123
  entropy T*S    EENTRO =         0.00178567
  eigenvalues    EBANDS =        75.07433539
  atomic energy  EATOM  =      1188.57490811
  Solvation  Ediel_sol  =         0.00000000
  ---------------------------------------------------
  free energy    TOTEN  =       -16.10935045 eV

  energy without entropy =      -16.11113612  energy(sigma->0) =      -16.10994568


--------------------------------------------------------------------------------------------------------




--------------------------------------- Iteration      1(  12)  ---------------------------------------


    POTLOK:  cpu time    0.0034: real time    0.0034
    SETDIJ:  cpu time    0.0021: real time    0.0021
     EDDAV:  cpu time    0.5800: real time    0.5800
       DOS:  cpu time    0.0066: real time    0.0066
    --------------------------------------------
      LOOP:  cpu time    0.5922: real time    0.5922

 eigenvalue-minimisations  :  6096
 total energy-change (2. order) : 0.8520581E-06  (-0.6372239E-08)
 number of electron      15.9999921 magnetization 
 augmentation part        8.2181613 magnetization 

 Free energy of the ion-electron system (eV)
  ---------------------------------------------------
  alpha Z        PSCENC =       140.60441766
  Ewald energy   TEWEN  =     -1241.74205217
  -Hartree energ DENC   =      -167.93710643
  -exchange      EXHF   =         0.00000000
  -V(xc)+E(xc)   XCENC  =         7.12754487
  PAW double counting   =      1517.01848521    -1534.83125505
  entropy T*S    EENTRO =         0.00178600
  eigenvalues    EBANDS =        75.07392221
  atomic energy  EATOM  =      1188.57490811
  Solvation  Ediel_sol  =         0.00000000
  ---------------------------------------------------
  free energy    TOTEN  =       -16.10934960 eV

  energy without entropy =      -16.11113560  energy(sigma->0) =      -16.10994494


--------------------------------------------------------------------------------------------------------




 average (electrostatic) potential at core
  the test charge radii are     1.0103
  (the norm of the test charge is              1.0000)
       1 -42.2608       2 -42.2608
 
 
 
 E-fermi :   7.2963     XC(G=0): -14.0022     alpha+bet :-15.7670

 Fermi energy:         7.2963012539

 k-point     1 :       0.0000    0.0000    0.0000
  band No.  band energies     occupation 
      1      -1.7976      2.00000
      2       2.1154      2.00000
      3       5.0671      2.00000
      4       5.6477      2.00000
      5       5.6478      2.00000
      6       5.9860      2.00000
      7       5.9861      2.00000
      8       6.6916      2.00016
      9       6.9181      2.02237
     10       6.9181      2.02238
     11       8.0862     -0.00000
     12       8.0862     -0.00000
     13      15.0790      0.00000
     14      30.8816      0.00000
     15      31.5053      0.00000
     16      34.0190      0.00000
     17      36.3617      0.00000
     18      36.3617      0.00000
     19      37.1829      0.00000
     20      37.1831      0.00000
     21      38.5112      0.00000
     22      40.0302      0.00000
     23      40.0303      0.00000
     24      41.0873      0.00000
     25      43.8303      0.00000
     26      43.8303      0.00000
     27      44.8151      0.00000
     28      47.7152      0.00000
     29      47.7156      0.00000
     30      49.6299      0.00000
     31      49.6301      0.00000
     32      52.3138      0.00000
     33      60.2245      0.00000
     34      62.5406      0.00000
     35      62.5416      0.00000
     36      62.7185      0.00000
     37      63.7603      0.00000
     38      65.0140      0.00000
     39      65.0151      0.00000
     40      66.4769      0.00000

 k-point     2 :       0.0909   -0.0000    0.0000
  band No.  band energies     occupation 
      1      -1.4605      2.00000
      2       2.3646      2.00000
      3       5.0500      2.00000
      4       5.6086      2.00000
      5       5.7690      2.00000
      6       5.8446      2.00000
      7       5.8711      2.00000
      8       6.1692      2.00000
      9       6.7739      2.00138
     10       6.8004      2.00253
     11       8.1223     -0.00000
     12       9.2709     -0.00000
     13      15.0983      0.00000
     14      29.6530      0.00000
     15      31.8326      0.00000
     16      32.3305      0.00000
     17      33.5278      0.00000
     18      35.9073      0.00000
     19      35.9777      0.00000
     20      38.3132      0.00000
     21      39.4718      0.00000
     22      40.1166      0.00000
     23      40.5715      0.00000
     24      40.8495      0.00000
     25      44.9865      0.00000
     26      45.0870      0.00000
     27      45.3473      0.00000
     28      45.3716      0.00000
     29      49.0127      0.00000
     30      51.0244      0.00000
     31      52.0004      0.00000
     32      54.1681      0.00000
     33      59.3442      0.00000
     34      61.3983      0.00000
     35      61.6387      0.00000
     36      62.1661      0.00000
     37      62.3164      0.00000
     38      65.8155      0.00000
     39      66.4062      0.00000
     40      67.0325      0.00000

 k-point     3 :       0.1818    0.0000    0.0000
  band No.  band energies     occupation 
      1      -0.5078      2.00000
      2       2.9506      2.00000
      3       4.6416      2.00000
      4       4.8133      2.00000
      5       5.4388      2.00000
      6       6.0312      2.00000
      7       6.4022      2.00000
      8       6.4222      2.00000
      9       6.5202      2.00000
     10       6.6812      2.00012
     11       8.1836     -0.00000
     12      11.1633     -0.00000
     13      15.1935      0.00000
     14      25.9319      0.00000
     15      30.6700      0.00000
     16      31.0888      0.00000
     17      31.5462      0.00000
     18      32.7430      0.00000
     19      36.5855      0.00000
     20      37.7275      0.00000
     21      38.2718      0.00000
     22      38.5963      0.00000
     23      41.2921      0.00000
     24      42.3714      0.00000
     25      44.9169      0.00000
     26      46.0362      0.00000
     27      47.6177      0.00000
     28      49.8999      0.00000
     29      51.9365      0.00000
     30      54.3675      0.00000
     31      54.9089      0.00000
     32      57.5904      0.00000
     33      57.8338      0.00000
     34      58.7167      0.00000
     35      59.7249      0.00000
     36      61.2175      0.00000
     37      62.9310      0.00000
     38      66.2594      0.00000
     39      66.8426      0.00000
     40      67.9164      0.00000

 k-point     4 :       0.2727    0.0000    0.0000
  band No.  band energies     occupation 
      1       0.8413      2.00000
      2       3.2340      2.00000
      3       3.7688      2.00000
      4       4.7424      2.00000
      5       5.2647      2.00000
      6       5.9824      2.00000
      7       6.2040      2.00000
      8       6.8025      2.00265
      9       7.1911      1.76824
     10       7.3948      0.26820
     11       8.2236     -0.00000
     12      13.2888      0.00000
     13      15.4020      0.00000
     14      21.9227      0.00000
     15      27.9183      0.00000
     16      28.2032      0.00000
     17      29.4910      0.00000
     18      32.5237      0.00000
     19      34.7403      0.00000
     20      37.9569      0.00000
     21      38.2162      0.00000
     22      38.5885      0.00000
     23      38.9027      0.00000
     24      42.7495      0.00000
     25      48.4815      0.00000
     26      50.1217      0.00000
     27      51.1248      0.00000
     28      52.5827      0.00000
     29      53.8481      0.00000
     30      54.7795      0.00000
     31      56.3482      0.00000
     32      57.7633      0.00000
     33      59.3138      0.00000
     34      59.7548      0.00000
     35      60.4134      0.00000
     36      62.1427      0.00000
     37      63.6780      0.00000
     38      66.0655      0.00000
     39      67.4905      0.00000
     40      67.6426      0.00000

 k-point     5 :       0.3636    0.0000    0.0000
  band No.  band energies     occupation 
      1       2.0472      2.00000
      2       2.9676      2.00000
      3       3.1870      2.00000
      4       4.9404      2.00000
      5       5.5890      2.00000
      6       5.6422      2.00000
      7       5.9424      2.00000
      8       7.9862     -0.00001
      9       8.0573     -0.00000
     10       8.1166     -0.00000
     11       8.2358     -0.00000
     12      15.2312      0.00000
     13      15.5542      0.00000
     14      19.0728      0.00000
     15      24.6281      0.00000
     16      26.3208      0.00000
     17      26.7341      0.00000
     18      31.6041      0.00000
     19      33.6241      0.00000
     20      36.8478      0.00000
     21      37.5556      0.00000
     22      39.5027      0.00000
     23      40.2866      0.00000
     24      43.0904      0.00000
     25      50.6341      0.00000
     26      51.6478      0.00000
     27      52.0774      0.00000
     28      55.2879      0.00000
     29      55.4672      0.00000
     30      56.1384      0.00000
     31      58.4253      0.00000
     32      59.2174      0.00000
     33      59.6049      0.00000
     34      60.6087      0.00000
     35      62.3804      0.00000
     36      64.0277      0.00000
     37      65.6595      0.00000
     38      66.4402      0.00000
     39      67.3571      0.00000
     40      67.6143      0.00000

 k-point     6 :       0.4545    0.0000    0.0000
  band No.  band energies     occupation 
      1       2.5162      2.00000
      2       2.7372      2.00000
      3       2.8983      2.00000
      4       5.3600      2.00000
      5       5.4831      2.00000
      6       5.7954      2.00000
      7       5.8897      2.00000
      8       8.2365     -0.00000
      9       8.4758     -0.00000
     10       8.6045     -0.00000
     11       9.7668     -0.00000
     12      13.2741      0.00000
     13      17.6920      0.00000
     14      19.1121      0.00000
     15      21.9976      0.00000
     16      24.0585      0.00000
     17      25.2662      0.00000
     18      30.9667      0.00000
     19      33.2823      0.00000
     20      35.7029      0.00000
     21      37.3459      0.00000
     22      40.3396      0.00000
     23      42.5272      0.00000
     24      43.0982      0.00000
     25      47.2546      0.00000
     26      52.2398      0.00000
     27      53.6127      0.00000
     28      57.5558      0.00000
     29      57.9017      0.00000
     30      58.4786      0.00000
     31      59.6801      0.00000
     32      60.9281      0.00000
     33      60.9709      0.00000
     34      62.7706      0.00000
     35      63.1471      0.00000
     36      64.3504      0.00000
     37      65.8940      0.00000
     38      66.2709      0.00000
     39      67.1337      0.00000
     40      67.7401      0.00000

 k-point     7 :       0.0909    0.0909    0.0000
  band No.  band energies     occupation 
      1      -0.8129      2.00000
      2       2.8011      2.00000
      3       4.8578      2.00000
      4       4.9380      2.00000
      5       5.6517      2.00000
      6       5.7149      2.00000
      7       6.2531      2.00000
      8       6.3671      2.00000
      9       6.5676      2.00000
     10       6.7724      2.00133
     11       8.1393     -0.00000
     12      10.6375     -0.00000
     13      15.1613      0.00000
     14      27.6508      0.00000
     15      28.9991      0.00000
     16      32.2545      0.00000
     17      33.1745      0.00000
     18      34.5780      0.00000
     19      34.9140      0.00000
     20      36.7022      0.00000
     21      37.9002      0.00000
     22      41.9959      0.00000
     23      42.2354      0.00000
     24      43.0616      0.00000
     25      43.9350      0.00000
     26      44.1156      0.00000
     27      44.2876      0.00000
     28      50.3927      0.00000
     29      52.5775      0.00000
     30      52.8897      0.00000
     31      53.0114      0.00000
     32      56.8973      0.00000
     33      58.2915      0.00000
     34      59.5304      0.00000
     35      60.2235      0.00000
     36      61.2547      0.00000
     37      62.3635      0.00000
     38      66.3899      0.00000
     39      66.9807      0.00000
     40      68.4995      0.00000

 k-point     8 :       0.1818    0.0909    0.0000
  band No.  band energies     occupation 
      1       0.3637      2.00000
      2       3.3565      2.00000
      3       4.0859      2.00000
      4       4.5239      2.00000
      5       5.3606      2.00000
      6       5.9300      2.00000
      7       6.1653      2.00000
      8       6.5146      2.00000
      9       6.9788      2.04728
     10       7.3060      0.91773
     11       8.1466     -0.00000
     12      12.5431     -0.00000
     13      15.3585      0.00000
     14      23.9656      0.00000
     15      26.5901      0.00000
     16      29.7160      0.00000
     17      31.9571      0.00000
     18      32.3303      0.00000
     19      35.5096      0.00000
     20      36.0978      0.00000
     21      36.8843      0.00000
     22      41.4800      0.00000
     23      41.6466      0.00000
     24      42.6493      0.00000
     25      45.7670      0.00000
     26      46.7063      0.00000
     27      48.6195      0.00000
     28      52.8502      0.00000
     29      54.9596      0.00000
     30      55.5407      0.00000
     31      55.7511      0.00000
     32      57.9048      0.00000
     33      58.6822      0.00000
     34      59.0265      0.00000
     35      59.9815      0.00000
     36      60.3792      0.00000
     37      63.0209      0.00000
     38      66.4040      0.00000
     39      67.4030      0.00000
     40      68.5359      0.00000

 k-point     9 :       0.2727    0.0909    0.0000
  band No.  band energies     occupation 
      1       1.7316      2.00000
      2       3.3006      2.00000
      3       3.4442      2.00000
      4       4.5952      2.00000
      5       5.4280      2.00000
      6       5.5797      2.00000
      7       6.1372      2.00000
      8       6.9485      2.03375
      9       7.7788     -0.00339
     10       8.1440     -0.00000
     11       8.2696     -0.00000
     12      14.7105      0.00000
     13      15.6672      0.00000
     14      20.2821      0.00000
     15      24.8565      0.00000
     16      26.3488      0.00000
     17      29.0401      0.00000
     18      30.7637      0.00000
     19      34.7839      0.00000
     20      35.9252      0.00000
     21      37.5149      0.00000
     22      41.0998      0.00000
     23      41.2407      0.00000
     24      43.9571      0.00000
     25      47.7786      0.00000
     26      50.5048      0.00000
     27      52.0606      0.00000
     28      52.7260      0.00000
     29      53.9063      0.00000
     30      56.5037      0.00000
     31      57.7856      0.00000
     32      59.1257      0.00000
     33      59.9598      0.00000
     34      60.2737      0.00000
     35      61.7755      0.00000
     36      63.4905      0.00000
     37      65.3259      0.00000
     38      66.1493      0.00000
     39      66.6531      0.00000
     40      68.4878      0.00000

 k-point    10 :       0.3636    0.0909    0.0000
  band No.  band energies     occupation 
      1       2.5904      2.00000
      2       2.9885      2.00000
      3       3.0578      2.00000
      4       5.0145      2.00000
      5       5.3763      2.00000
      6       5.7952      2.00000
      7       5.8002      2.00000
      8       7.8775     -0.00031
      9       8.1333     -0.00000
     10       8.3372     -0.00000
     11       9.5025     -0.00000
     12      14.7184      0.00000
     13      16.9868      0.00000
     14      18.8941      0.00000
     15      23.3508      0.00000
     16      23.5034      0.00000
     17      25.8199      0.00000
     18      29.8539      0.00000
     19      33.8076      0.00000
     20      35.3951      0.00000
     21      38.5558      0.00000
     22      41.4975      0.00000
     23      42.3836      0.00000
     24      43.6756      0.00000
     25      49.2131      0.00000
     26      50.5688      0.00000
     27      52.5305      0.00000
     28      54.2733      0.00000
     29      55.8098      0.00000
     30      57.9474      0.00000
     31      58.6156      0.00000
     32      60.2261      0.00000
     33      61.0757      0.00000
     34      63.2256      0.00000
     35      63.7050      0.00000
     36      64.7325      0.00000
     37      64.9929      0.00000
     38      66.5930      0.00000
     39      67.5806      0.00000
     40      68.1104      0.00000

 k-point    11 :       0.4545    0.0909    0.0000
  band No.  band energies     occupation 
      1       2.7284      2.00000
      2       2.9006      2.00000
      3       2.9300      2.00000
      4       5.3229      2.00000
      5       5.3932      2.00000
      6       5.6578      2.00000
      7       5.9166      2.00000
      8       8.1277     -0.00000
      9       8.4037     -0.00000
     10       8.4271     -0.00000
     11      10.7522     -0.00000
     12      12.9639      0.00000
     13      18.5333      0.00000
     14      19.5594      0.00000
     15      21.5727      0.00000
     16      22.6909      0.00000
     17      24.3384      0.00000
     18      29.5390      0.00000
     19      33.4080      0.00000
[...]
     18      27.9101      0.00000
     19      33.1282      0.00000
     20      33.8817      0.00000
     21      37.3216      0.00000
     22      37.9607      0.00000
     23      42.8803      0.00000
     24      44.0444      0.00000
     25      49.8239      0.00000
     26      51.6007      0.00000
     27      53.6214      0.00000
     28      54.4467      0.00000
     29      57.1889      0.00000
     30      58.8936      0.00000
     31      60.1197      0.00000
     32      60.3253      0.00000
     33      62.9024      0.00000
     34      62.9300      0.00000
     35      63.4360      0.00000
     36      63.8761      0.00000
     37      65.2866      0.00000
     38      66.0004      0.00000
     39      67.7533      0.00000
     40      68.2857      0.00000

 k-point    91 :       0.4545    0.0909    0.4545
  band No.  band energies     occupation 
      1       2.3936      2.00000
      2       2.5454      2.00000
      3       3.8199      2.00000
      4       3.9246      2.00000
      5       6.1817      2.00000
      6       6.6051      2.00001
      7       7.2747      1.18153
      8       7.5860     -0.05974
      9       8.2767     -0.00000
     10       8.2895     -0.00000
     11      10.6549     -0.00000
     12      11.1644     -0.00000
     13      17.2292      0.00000
     14      17.2647      0.00000
     15      25.5038      0.00000
     16      26.2726      0.00000
     17      27.4226      0.00000
     18      27.9350      0.00000
     19      32.8460      0.00000
     20      33.0732      0.00000
     21      36.6917      0.00000
     22      36.8759      0.00000
     23      42.9887      0.00000
     24      44.1696      0.00000
     25      49.9945      0.00000
     26      51.8005      0.00000
     27      56.6482      0.00000
     28      57.6469      0.00000
     29      57.9860      0.00000
     30      58.5524      0.00000
     31      58.7824      0.00000
     32      59.5766      0.00000
     33      63.3192      0.00000
     34      63.6721      0.00000
     35      64.5992      0.00000
     36      65.1797      0.00000
     37      65.7208      0.00000
     38      65.8732      0.00000
     39      68.7164      0.00000
     40      68.8549      0.00000

 k-point    92 :       0.1818    0.1818    0.4545
  band No.  band energies     occupation 
      1       2.4564      2.00000
      2       2.7334      2.00000
      3       4.3943      2.00000
      4       4.4581      2.00000
      5       4.9258      2.00000
      6       4.9853      2.00000
      7       6.5418      2.00000
      8       6.7926      2.00213
      9       8.0587     -0.00000
     10       8.1845     -0.00000
     11       8.6907     -0.00000
     12       9.2500     -0.00000
     13      23.4817      0.00000
     14      23.6142      0.00000
     15      24.0666      0.00000
     16      25.1057      0.00000
     17      25.5938      0.00000
     18      26.8760      0.00000
     19      37.1935      0.00000
     20      38.2736      0.00000
     21      38.9536      0.00000
     22      40.0644      0.00000
     23      41.7242      0.00000
     24      41.8503      0.00000
     25      48.0431      0.00000
     26      48.4910      0.00000
     27      52.4427      0.00000
     28      53.1116      0.00000
     29      54.8908      0.00000
     30      56.1646      0.00000
     31      57.6903      0.00000
     32      58.1941      0.00000
     33      59.9488      0.00000
     34      60.0424      0.00000
     35      62.0760      0.00000
     36      62.1645      0.00000
     37      65.0304      0.00000
     38      66.4678      0.00000
     39      67.1222      0.00000
     40      67.5487      0.00000

 k-point    93 :       0.2727    0.1818    0.4545
  band No.  band energies     occupation 
      1       2.8255      2.00000
      2       2.9365      2.00000
      3       4.2009      2.00000
      4       4.4078      2.00000
      5       5.2337      2.00000
      6       5.3935      2.00000
      7       6.4661      2.00000
      8       6.7119      2.00029
      9       8.1650     -0.00000
     10       8.4222     -0.00000
     11      10.2124     -0.00000
     12      10.7542     -0.00000
     13      20.2578      0.00000
     14      20.8453      0.00000
     15      23.0327      0.00000
     16      23.7814      0.00000
     17      26.1596      0.00000
     18      27.9311      0.00000
     19      35.0178      0.00000
     20      36.5867      0.00000
     21      37.7527      0.00000
     22      39.2343      0.00000
     23      42.3733      0.00000
     24      42.8621      0.00000
     25      49.4293      0.00000
     26      49.9550      0.00000
     27      53.5787      0.00000
     28      55.3645      0.00000
     29      57.1690      0.00000
     30      58.9655      0.00000
     31      59.6745      0.00000
     32      60.2268      0.00000
     33      61.3021      0.00000
     34      61.3426      0.00000
     35      62.5126      0.00000
     36      62.7679      0.00000
     37      64.9972      0.00000
     38      66.4956      0.00000
     39      67.4619      0.00000
     40      67.7965      0.00000

 k-point    94 :       0.3636    0.1818    0.4545
  band No.  band energies     occupation 
      1       2.8598      2.00000
      2       3.0161      2.00000
      3       4.0863      2.00000
      4       4.2878      2.00000
      5       5.3555      2.00000
      6       5.6946      2.00000
      7       6.8059      2.00286
      8       6.9309      2.02683
      9       8.1312     -0.00000
     10       8.3055     -0.00000
     11      11.9427     -0.00000
     12      12.3888     -0.00000
     13      17.6561      0.00000
     14      18.0370      0.00000
     15      22.4030      0.00000
     16      23.1602      0.00000
     17      27.7639      0.00000
     18      28.9014      0.00000
     19      33.4229      0.00000
     20      34.5136      0.00000
     21      36.7339      0.00000
     22      38.2613      0.00000
     23      43.1219      0.00000
     24      43.4933      0.00000
     25      52.7496      0.00000
     26      53.3697      0.00000
     27      53.9423      0.00000
     28      55.6271      0.00000
     29      57.4392      0.00000
     30      57.9996      0.00000
     31      58.7732      0.00000
     32      60.1342      0.00000
     33      62.2222      0.00000
     34      62.4177      0.00000
     35      64.3664      0.00000
     36      64.5255      0.00000
     37      65.9736      0.00000
     38      66.1854      0.00000
     39      67.0050      0.00000
     40      67.7077      0.00000

 k-point    95 :       0.2727    0.2727    0.4545
  band No.  band energies     occupation 
      1       3.2687      2.00000
      2       3.3243      2.00000
      3       4.2923      2.00000
      4       4.5202      2.00000
      5       4.9155      2.00000
      6       5.1362      2.00000
      7       6.3811      2.00000
      8       6.5903      2.00001
      9       8.1452     -0.00000
     10       8.3345     -0.00000
     11      12.3847     -0.00000
     12      12.9197      0.00000
     13      18.7024      0.00000
     14      19.1422      0.00000
     15      20.5863      0.00000
     16      20.9933      0.00000
     17      27.9379      0.00000
     18      29.5839      0.00000
     19      33.4970      0.00000
     20      34.9273      0.00000
     21      36.5316      0.00000
     22      37.6674      0.00000
     23      45.2683      0.00000
     24      45.6803      0.00000
     25      49.7003      0.00000
     26      49.7999      0.00000
     27      56.4672      0.00000
     28      57.0916      0.00000
     29      57.5355      0.00000
     30      58.5311      0.00000
     31      60.0903      0.00000
     32      60.1568      0.00000
     33      60.6828      0.00000
     34      60.7698      0.00000
     35      63.4691      0.00000
     36      64.0995      0.00000
     37      65.7045      0.00000
     38      65.9189      0.00000
     39      66.6583      0.00000
     40      67.0143      0.00000

 k-point    96 :       0.3636    0.2727    0.4545
  band No.  band energies     occupation 
      1       3.4777      2.00000
      2       3.6121      2.00000
      3       4.2120      2.00000
      4       4.2982      2.00000
      5       4.9375      2.00000
      6       5.0629      2.00000
      7       6.4452      2.00000
      8       6.6043      2.00001
      9       8.1188     -0.00000
     10       8.1880     -0.00000
     11      14.2288      0.00000
     12      14.3657      0.00000
     13      17.0184      0.00000
     14      17.3679      0.00000
     15      19.9358      0.00000
     16      20.3855      0.00000
     17      29.6182      0.00000
     18      30.4155      0.00000
     19      32.6169      0.00000
     20      32.9117      0.00000
     21      36.2767      0.00000
     22      37.1106      0.00000
     23      46.4902      0.00000
     24      47.1408      0.00000
     25      51.1973      0.00000
     26      51.6105      0.00000
     27      54.0535      0.00000
     28      54.4190      0.00000
     29      57.8470      0.00000
     30      59.0487      0.00000
     31      60.1965      0.00000
     32      60.8839      0.00000
     33      61.4082      0.00000
     34      61.8242      0.00000
     35      62.3115      0.00000
     36      63.6086      0.00000
     37      65.1903      0.00000
     38      66.2972      0.00000
     39      68.3595      0.00000
     40      68.5284      0.00000


--------------------------------------------------------------------------------------------------------


 soft charge-density along one line, spin component           1
         0         1         2         3         4         5         6         7         8         9
x     7.7818    0.0000    0.0966   -0.1673   -0.0580   -0.1005    0.0188   -0.0000    0.0015   -0.0026
x     0.0000    0.0000
y     7.7818    0.0000    0.0966    0.1673   -0.0580    0.1005    0.0188    0.0000    0.0015    0.0026
y     0.0000    0.0000
z     7.7818    0.0000    0.0000    0.0000    0.4369    0.0000    0.0000    0.0000   -0.1611   -0.0000
z     0.0000   -0.0000    0.0198   -0.0000    0.0000   -0.0000    0.0064   -0.0000    0.0000    0.0000
 total charge-density along one line
x    16.0000    0.0000    1.4756   -2.5558    0.2982    0.5166    0.0274    0.0000    0.0011   -0.0019
x     0.0001    0.0002   -0.0003   -0.0000    0.0000   -0.0001   -0.0000   -0.0000    0.0000   -0.0000
x    -0.0000    0.0000
y    16.0000    0.0000    1.4756    2.5558    0.2982   -0.5166    0.0274   -0.0000    0.0011    0.0019
y     0.0001   -0.0002   -0.0003    0.0000    0.0000    0.0001   -0.0000    0.0000    0.0000    0.0000
y    -0.0000   -0.0000
z    16.0000    0.0000   -0.0000    0.0000    5.9811   -0.0000   -0.0000    0.0000    1.2942   -0.0000
z     0.0000   -0.0000    0.0365   -0.0000    0.0000   -0.0000    0.0049   -0.0000    0.0000   -0.0000
z     0.0010   -0.0000    0.0000   -0.0000   -0.0005   -0.0000    0.0000   -0.0000    0.0003    0.0000
z     0.0000   -0.0000   -0.0002    0.0000   -0.0000   -0.0000    0.0002   -0.0000
 
 pseudopotential strength for first ion, spin component:           1
 -4.202  -0.000  -0.000  -0.000  -0.000  -4.773  -0.000  -0.000
 -0.000  -4.195  -0.000  -0.000   0.000  -0.000  -4.765  -0.000
 -0.000  -0.000  -4.203  -0.000  -0.000  -0.000  -0.000  -4.774
 -0.000  -0.000  -0.000  -4.195  -0.000  -0.000  -0.000  -0.000
 -0.000   0.000  -0.000  -0.000  -4.202  -0.000   0.000  -0.000
 -4.773  -0.000  -0.000  -0.000  -0.000  -5.300  -0.000  -0.000
 -0.000  -4.765  -0.000  -0.000   0.000  -0.000  -5.293  -0.000
 -0.000  -0.000  -4.774  -0.000  -0.000  -0.000  -0.000  -5.301
 -0.000  -0.000  -0.000  -4.765  -0.000  -0.000  -0.000  -0.000
 -0.000   0.000  -0.000  -0.000  -4.773  -0.000   0.000  -0.000
  0.000   0.000   0.001   0.000  -0.000   0.000   0.000   0.001
  0.000   0.000   0.002   0.000  -0.000   0.000   0.000   0.002
 -0.000   0.000   0.000   0.000  -0.001  -0.000   0.000   0.000
  0.000  -0.000   0.000   0.000  -0.000   0.000  -0.000   0.000
 -0.001   0.000   0.000   0.000  -0.000  -0.001   0.000   0.000
 -0.000   0.000   0.000   0.000  -0.001  -0.000   0.000   0.000
  0.000  -0.000   0.000   0.000  -0.000   0.000  -0.000   0.000
 -0.001   0.000   0.000   0.000  -0.000  -0.001   0.000   0.000
 total augmentation occupancy for first ion, spin component:           1
  1.660  -0.000   0.000   0.000   0.000  -1.057   0.000  -0.000   0.000  -0.000   0.000  -0.000   0.000   0.000   0.035  -0.000
 -0.000   2.085   0.000  -0.000   0.000   0.000  -1.267   0.000   0.000   0.000  -0.000  -0.000  -0.000  -0.000   0.000  -0.000
  0.000  -0.000   1.350  -0.000  -0.000  -0.000  -0.000  -0.807  -0.000   0.000   0.026  -0.010   0.000   0.000   0.000   0.000
  0.000  -0.000   0.000   2.085   0.000   0.000   0.000  -0.000  -1.267  -0.000  -0.000   0.000  -0.000  -0.000  -0.000   0.000
  0.000  -0.000  -0.000  -0.000   1.660  -0.000   0.000   0.000   0.000  -1.057   0.000  -0.000   0.035   0.000  -0.000  -0.002
 -1.057   0.000  -0.000   0.000  -0.000   1.824   0.000   0.000   0.000   0.000  -0.000   0.000  -0.000   0.000  -0.051   0.000
  0.000  -1.267   0.000   0.000   0.000   0.000   1.792   0.000  -0.000   0.000  -0.000   0.000   0.000   0.000   0.000   0.000
 -0.000   0.000  -0.807   0.000   0.000   0.000   0.000   1.618   0.000  -0.000  -0.093   0.008   0.000   0.000  -0.000  -0.000
  0.000   0.000  -0.000  -1.267   0.000   0.000  -0.000  -0.000   1.792   0.000   0.000   0.000   0.000  -0.000   0.000   0.000
 -0.000   0.000   0.000   0.000  -1.057   0.000   0.000  -0.000  -0.000   1.824  -0.000   0.000  -0.051   0.000   0.000   0.003
  0.000  -0.000   0.026   0.000   0.000  -0.000  -0.000  -0.093  -0.000  -0.000   2.774  -0.323  -0.000   0.000   0.000  -0.000
 -0.000  -0.000  -0.010   0.000  -0.000   0.000   0.000   0.008   0.000   0.000  -0.323   0.042   0.000   0.000  -0.000   0.000
  0.000   0.000  -0.000  -0.000   0.035  -0.000   0.000   0.000   0.000  -0.051   0.000   0.000   0.370  -0.000  -0.000  -0.030
 -0.000  -0.000   0.000  -0.000  -0.000  -0.000   0.000   0.000   0.000   0.000   0.000   0.000  -0.000   0.351   0.000  -0.000
  0.035   0.000   0.000   0.000  -0.000  -0.051   0.000  -0.000  -0.000   0.000   0.000  -0.000  -0.000   0.000   0.370   0.000
 -0.000  -0.000   0.000   0.000  -0.002   0.000  -0.000  -0.000   0.000   0.003  -0.000   0.000  -0.030   0.000   0.000   0.003
 -0.000   0.000   0.000  -0.000  -0.000   0.000   0.000   0.000  -0.000  -0.000   0.000   0.000   0.000  -0.031  -0.000  -0.000
 -0.002   0.000  -0.000  -0.000   0.000   0.003   0.000   0.000  -0.000  -0.000   0.000   0.000   0.000   0.000  -0.030  -0.000


------------------------ aborting loop because EDIFF is reached ----------------------------------------


    CHARGE:  cpu time    0.0210: real time    0.0210
    FORLOC:  cpu time    0.0002: real time    0.0002
    FORNL :  cpu time    0.0955: real time    0.0955
    STRESS:  cpu time    0.1446: real time    0.1446
    FORCOR:  cpu time    0.0035: real time    0.0035
    FORHAR:  cpu time    0.0008: real time    0.0008
    MIXING:  cpu time    0.0002: real time    0.0002

  FORCE on cell =-STRESS in cart. coord.  units (eV):
  Direction    XX          YY          ZZ          XY          YZ          ZX
  --------------------------------------------------------------------------------------
  Alpha Z   140.60442   140.60442   140.60442
  Ewald    -401.60035  -401.60035  -438.54197     0.00000     0.00000     0.00000
  Hartree    60.53613    60.53613    46.86340    -0.00000    -0.00000    -0.00000
  E(xc)     -78.95766   -78.95769   -78.73164     0.00023    -0.00000     0.00000
  Local     107.57576   107.57596   156.09195    -0.00088     0.00000     0.00000
  n-local   -51.99466   -51.35358   -53.71892    -4.03615     1.45464     0.98533
  augment    75.60059    75.60006    75.84341     0.00110     0.00000    -0.00000
  Kinetic   154.34152   148.08022   149.02641     1.27513    -0.99898     0.14551
  Fock        0.00000     0.00000     0.00000     0.00000     0.00000     0.00000
  -------------------------------------------------------------------------------------
  Total       3.29546     3.29546    -2.56295    -0.00000     0.00000     0.00000
  in kB     268.53465   268.53465  -208.84565    -0.00000     0.00000     0.00000
  external pressure =      109.41 kB  Pullay stress =        0.00 kB


 VOLUME and BASIS-vectors are now :
 -----------------------------------------------------------------------------
  energy-cutoff  :      280.00
  volume of cell :       19.66
      direct lattice vectors                 reciprocal lattice vectors
     2.353300000  0.000000000  0.000000000     0.424935197  0.245336451  0.000000000
    -1.176650000  2.038017583  0.000000000     0.000000000  0.490672901  0.000000000
     0.000000000  0.000000000  4.099590000     0.000000000  0.000000000  0.243926832

  length of vectors
     2.353300000  2.353300000  4.099590000     0.490672901  0.490672901  0.243926832


 FORCES acting on ions
    electron-ion (+dipol)            ewald-force                    non-local-force                 convergence-correction
 -----------------------------------------------------------------------------------------------
   0.318E-06 -.702E-06 0.186E-14   0.601E-12 -.353E-12 -.252E-13   -.216E-17 -.443E-18 0.569E-19   -.782E-08 0.443E-08 -.241E-13
   -.640E-05 0.801E-05 0.251E-12   -.605E-12 0.347E-12 0.252E-13   -.126E-17 -.344E-18 0.871E-19   0.805E-08 -.456E-08 0.344E-13
 -----------------------------------------------------------------------------------------------
   -.608E-05 0.731E-05 0.253E-12   -.411E-14 -.600E-14 -.404E-17   -.342E-17 -.787E-18 0.144E-18   0.232E-09 -.135E-09 0.103E-13
 
 
 POSITION                                       TOTAL-FORCE (eV/Angst)
 -----------------------------------------------------------------------------------
      0.00000      0.00000      0.00000         0.000000     -0.000000     -0.000000
      0.00000      1.35868      2.04979        -0.000000      0.000000      0.000000
 -----------------------------------------------------------------------------------
    total drift:                               -0.000006      0.000007      0.000000


--------------------------------------------------------------------------------------------------------



  FREE ENERGIE OF THE ION-ELECTRON SYSTEM (eV)
  ---------------------------------------------------
  free  energy   TOTEN  =       -16.10934960 eV

  energy  without entropy=      -16.11113560  energy(sigma->0) =      -16.10994494
 


--------------------------------------------------------------------------------------------------------


    POTLOK:  cpu time    0.0056: real time    0.0056


--------------------------------------------------------------------------------------------------------


 writing wavefunctions
     LOOP+:  cpu time    9.8318: real time    9.8533
    4ORBIT:  cpu time    0.0000: real time    0.0000

 total amount of memory used by VASP MPI-rank0    49695. kBytes
=======================================================================

   base      :      30000. kBytes
   nonl-proj :       3062. kBytes
   grid      :        812. kBytes
   one-center:         31. kBytes
   wavefun   :      15790. kBytes
 
  
  
 General timing and accounting informations for this job:
 ========================================================
  
                  Total CPU time used (sec):       10.014
                            User time (sec):        9.970
                          System time (sec):        0.044
                         Elapsed time (sec):       10.024
  
                   Maximum memory used (kb):       54832.
                   Average memory used (kb):          N/A
  
                          Minor page faults:         7426
                          Major page faults:            0
                 Voluntary context switches:           27
