unknown system                          
   1.00000000000000     
     2.330000    0.000000    0.000000
    -1.165000    2.017839    0.000000
     0.000000    0.000000    4.100000
   Fe
     2
Direct
  0.000000  0.000000  0.000000
  0.333333  0.666667  0.500000
 
   20   20   32
  161.77      153.28      130.45      99.762      68.563      42.440      24.209      14.032      9.9401      8.7169    
  8.3203      8.7168      9.9399      14.032      24.209      42.439      68.563      99.762      130.45      153.28    
  153.29      153.28      137.66      111.07      80.538      52.490      31.042      17.598      11.180      9.0786    
  8.3326      8.3324      9.0784      11.180      17.597      31.040      52.489      80.542      111.08      137.67    
  130.45      137.64      130.45      111.07      84.971      58.390      36.207      20.931      12.649      9.4562    
  8.3949      8.0234      8.3946      9.4564      12.650      20.930      36.204      58.388      84.974      111.08    
  99.759      111.01      111.02      99.762      80.538      58.389      38.131      22.946      13.860      9.8516    
  8.4807      7.8241      7.8239      8.4807      9.8526      13.861      22.946      38.129      58.385      80.533    
  68.553      80.449      84.853      80.458      68.563      52.490      36.207      22.946      14.329      10.118    
  8.5538      7.7251      7.4328      7.7248      8.5538      10.120      14.332      22.950      36.207      52.484    
  42.438      52.416      58.262      58.265      52.421      42.439      31.042      20.931      13.860      10.119    
  8.5823      7.6905      7.2206      7.2205      7.6899      8.5809      10.118      13.863      20.937      31.046    
  24.216      31.017      36.134      38.034      36.130      31.011      24.209      17.598      12.650      9.8518    
  8.5538      7.6904      7.1555      6.9795      7.1558      7.6893      8.5503      9.8484      12.650      17.603    
  14.032      17.610      20.929      22.924      22.921      20.922      17.604      14.033      11.180      9.4564    
  8.4807      7.7249      7.2204      6.9795      6.9803      7.2219      7.7248      8.4772      9.4502      11.175    
  9.9322      11.201      12.688      13.901      14.368      13.899      12.688      11.206      9.9402      9.0787    
  8.3949      7.8239      7.4326      7.2204      7.1558      7.2220      7.4359      7.8274      8.3949      9.0734    
  8.7166      9.1049      9.5063      9.9185      10.193      10.195      9.9227      9.5125      9.1100      8.7168    
  8.3325      8.0232      7.8237      7.7247      7.6899      7.6893      7.7248      7.8274      8.0298      8.3376    
  8.3276      8.3707      8.4563      8.5590      8.6436      8.6778      8.6468      8.5622      8.4558      8.3653    
  8.3201      8.3323      8.3945      8.4807      8.5538      8.5810      8.5503      8.4772      8.3949      8.3376    
  8.7167      8.3708      8.0932      7.9155      7.8305      7.8040      7.8045      7.8301      7.9116      8.0864    
  8.3655      8.7168      9.0786      9.4565      9.8528      10.120      10.118      9.8483      9.4501      9.0735    
  9.9324      9.1051      8.4564      7.9155      7.5464      7.3483      7.2879      7.3466      7.5429      7.9117    
  8.4561      9.1102      9.9402      11.180      12.650      13.861      14.332      13.863      12.650      11.175    
  14.032      11.201      9.5064      8.5589      7.8303      7.3481      7.1191      7.1183      7.3466      7.8303    
  8.5621      9.5123      11.206      14.033      17.598      20.930      22.946      22.949      20.937      17.603    
  24.216      17.610      12.688      9.9183      8.6432      7.8037      7.2878      7.1184      7.2876      7.8051    
  8.6468      9.9218      12.688      17.605      24.209      31.040      36.203      38.128      36.207      31.046    
  42.438      31.017      20.929      13.901      10.193      8.6773      7.8043      7.3468      7.3469      7.8052    
  8.6791      10.194      13.898      20.923      31.013      42.439      52.488      58.387      58.385      52.483    
  68.553      52.417      36.134      22.924      14.367      10.194      8.6466      7.8303      7.5434      7.8307    
  8.6470      10.194      14.365      22.921      36.134      52.423      68.563      80.541      84.974      80.533    
  99.759      80.450      58.262      38.034      22.921      13.899      9.9225      8.5623      7.9121      7.9123    
  8.5624      9.9217      13.898      22.921      38.037      58.267      80.454      99.762      111.08      111.08    
  130.45      111.01      84.853      58.265      36.130      20.922      12.688      9.5125      8.4561      8.0869    
  8.4563      9.5122      12.687      20.923      36.134      58.267      84.849      111.01      130.45      137.67    
  153.29      137.64      111.02      80.458      52.422      31.011      17.604      11.206      9.1101      8.3657    
  8.3658      9.1101      11.206      17.605      31.012      52.423      80.454      111.01      137.63      153.28    
  151.49      143.57      122.22      93.491      64.245      39.774      22.780      13.401      9.6966      8.5492    
  8.1637      8.5492      9.6965      13.401      22.780      39.774      64.245      93.491      122.22      143.57    
  143.57      143.57      128.96      104.08      75.462      49.168      29.118      16.654      10.797      8.8900    
  8.1640      8.1638      8.8899      10.797      16.653      29.116      49.166      75.465      104.09      128.97    
  122.23      128.95      122.22      104.08      79.614      54.687      33.924      19.714      12.112      9.2287    
  8.2186      7.8593      8.2183      9.2289      12.112      19.713      33.920      54.685      79.617      104.09    
  93.487      104.04      104.04      93.491      75.462      54.687      35.716      21.572      13.203      9.5753    
  8.2999      7.6660      7.6659      8.2999      9.5762      13.205      21.572      35.714      54.683      75.457    
  64.235      75.398      79.530      75.406      64.244      49.168      33.923      21.572      13.628      9.8093    
  8.3706      7.5716      7.2920      7.5715      8.3706      9.8104      13.631      21.575      33.924      49.162    
  39.773      49.125      54.609      54.611      49.129      39.774      29.118      19.714      13.203      9.8093    
  8.3984      7.5394      7.0910      7.0910      7.5389      8.3972      9.8092      13.207      19.720      29.122    
  22.786      29.124      33.907      35.685      33.904      29.118      22.780      16.654      12.112      9.5754    
  8.3706      7.5394      7.0297      6.8629      7.0300      7.5383      8.3675      9.5723      12.112      16.658    
  13.401      16.696      19.771      21.624      21.621      19.764      16.691      13.401      10.797      9.2289    
  8.3000      7.5716      7.0909      6.8628      6.8636      7.0922      7.5714      8.2967      9.2232      10.792    
  9.6892      10.848      12.207      13.321      13.751      13.319      12.207      10.853      9.6967      8.8902    
  8.2186      7.6660      7.2919      7.0909      7.0300      7.0922      7.2948      7.6691      8.2186      8.8852    
  8.5490      8.9453      9.3346      9.7193      9.9734      9.9746      9.7232      9.3404      8.9501      8.5492    
  8.1640      7.8593      7.6658      7.5714      7.5389      7.5383      7.5714      7.6691      7.8653      8.1687    
  8.1706      8.2301      8.3350      8.4560      8.5537      8.5925      8.5567      8.4590      8.3345      8.2252    
  8.1637      8.1639      8.2183      8.2999      8.3706      8.3972      8.3674      8.2966      8.2186      8.1687    
  8.5491      8.2302      7.9835      7.8349      7.7723      7.7578      7.7583      7.7721      7.8315      7.9773    
  8.2254      8.5493      8.8900      9.2290      9.5763      9.8104      9.8091      9.5722      9.2230      8.8852    
  9.6894      8.9455      8.3351      7.8349      7.5012      7.3263      7.2740      7.3249      7.4981      7.8316    
  8.3348      8.9503      9.6967      10.797      12.112      13.205      13.631      13.207      12.112      10.792    
  13.401      10.848      9.3348      8.4559      7.7722      7.3262      7.1168      7.1161      7.3249      7.7722    
  8.4590      9.3402      10.853      13.401      16.653      19.713      21.572      21.575      19.720      16.658    
  22.787      16.696      12.207      9.7193      8.5534      7.7576      7.2739      7.1161      7.2737      7.7588    
  8.5567      9.7223      12.207      16.691      22.780      29.116      33.920      35.714      33.924      29.122    
  39.773      29.124      19.771      13.321      9.9731      8.5922      7.7581      7.3250      7.3251      7.7589    
  8.5938      9.9736      13.318      19.765      29.120      39.774      49.166      54.685      54.683      49.162    
  64.235      49.125      33.907      21.624      13.750      9.9743      8.5565      7.7722      7.4984      7.7725    
  8.5568      9.9736      13.748      21.621      33.907      49.131      64.245      75.465      79.617      75.458    
  93.487      75.398      54.608      35.685      21.621      13.319      9.7231      8.4591      7.8317      7.8319    
  8.4591      9.7223      13.318      21.621      35.688      54.613      75.403      93.491      104.09      104.09    
  122.23      104.04      79.529      54.611      33.904      19.764      12.207      9.3405      8.3348      7.9776    
  8.3350      9.3401      12.207      19.765      33.907      54.613      79.526      104.03      122.22      128.97    
  143.57      128.95      104.04      75.406      49.129      29.119      16.691      10.853      8.9502      8.2254    
  8.2255      8.9502      10.852      16.691      29.120      49.131      75.403      104.03      128.94      143.57    
  124.38      117.91      100.45      76.865      52.803      32.762      19.086      11.818      9.0847      8.0999    
  7.7484      8.0999      9.0847      11.818      19.086      32.762      52.803      76.865      100.45      117.91    
  117.92      117.91      105.97      85.553      62.000      40.390      24.096      14.248      9.8456      8.3840    
  7.7182      7.7181      8.3840      9.8460      14.248      24.095      40.389      62.002      85.559      105.97    
  100.46      105.97      100.45      85.553      65.406      44.889      27.935      16.585      10.768      8.6443    
  7.7482      7.4257      7.7480      8.6447      10.768      16.584      27.932      44.886      65.407      85.559    
  76.862      85.552      85.553      76.865      62.000      44.889      29.373      18.020      11.549      8.8769    
  7.8111      7.2448      7.2447      7.8112      8.8778      11.550      18.019      29.370      44.884      61.996    
  52.795      62.008      65.419      62.014      52.803      40.390      27.934      18.020      11.856      9.0306    
  7.8702      7.1585      6.9144      7.1585      7.8703      9.0315      11.859      18.022      27.934      40.385    
  32.761      40.434      44.949      44.951      40.437      32.762      24.096      16.585      11.549      9.0306    
  7.8941      7.1297      6.7410      6.7411      7.1295      7.8932      9.0305      11.552      16.590      24.100    
  19.092      24.190      28.074      29.525      28.072      24.184      19.085      14.248      10.767      8.8770    
  7.8703      7.1297      6.6889      6.5466      6.6892      7.1289      7.8678      8.8747      10.768      14.252    
  11.818      14.371      16.794      18.269      18.266      16.788      14.366      11.818      9.8455      8.6445    
  7.8114      7.1587      6.7411      6.5467      6.5472      6.7419      7.1584      7.8087      8.6401      9.8420    
  9.0786      9.9706      11.005      11.860      12.191      11.858      11.005      9.9745      9.0846      8.3842    
  7.7485      7.2451      6.9146      6.7412      6.6893      6.7419      6.9165      7.2473      7.7484      8.3801    
  8.0997      8.5083      8.8838      9.2060      9.4086      9.4096      9.2091      8.8886      8.5123      8.1001    
  7.7186      7.4260      7.2449      7.1586      7.1296      7.1290      7.1583      7.2472      7.4306      7.7222    
  7.7541      7.8492      7.9915      8.1460      8.2667      8.3135      8.2693      8.1486      7.9914      7.8455    
  7.7488      7.7184      7.7481      7.8112      7.8703      7.8932      7.8677      7.8084      7.7482      7.7221    
  8.0997      7.8493      7.6735      7.5872      7.5694      7.5779      7.5785      7.5696      7.5848      7.6689    
  7.8458      8.1002      8.3840      8.6445      8.8776      9.0314      9.0304      8.8745      8.6397      8.3799    
  9.0787      8.5085      7.9917      7.5873      7.3317      7.2063      7.1709      7.2056      7.3298      7.5850    
  7.9918      8.5125      9.0847      9.8456      10.768      11.550      11.858      11.552      10.768      9.8418    
  11.818      9.9709      8.8842      8.1462      7.5694      7.2063      7.0405      7.0400      7.2055      7.5696    
  8.1487      8.8884      9.9743      11.818      14.247      16.584      18.019      18.022      16.590      14.252    
  19.092      14.371      11.006      9.2063      8.2668      7.5778      7.1708      7.0400      7.1706      7.5787    
  8.2693      9.2084      11.005      14.366      19.085      24.094      27.932      29.371      27.935      24.100    
  32.761      24.190      16.794      11.860      9.4087      8.3134      7.5783      7.2055      7.2054      7.5786    
  8.3145      9.4089      11.857      16.789      24.186      32.762      40.389      44.887      44.885      40.385    
  52.795      40.434      28.074      18.269      12.191      9.4096      8.2692      7.5695      7.3297      7.5695    
  8.2691      9.4088      12.189      18.266      28.074      40.438      52.803      62.003      65.408      61.997    
  76.862      62.007      44.949      29.525      18.266      11.858      9.2092      8.1486      7.5847      7.5848    
  8.1485      9.2084      11.857      18.267      29.527      44.953      62.012      76.865      85.560      85.559    
  100.46      85.551      65.418      44.951      28.072      16.789      11.006      8.8888      7.9914      7.6687    
  7.9915      8.8883      11.005      16.789      28.074      44.953      65.416      85.546      100.45      105.97    
  117.92      105.97      85.552      62.014      40.437      24.185      14.367      9.9749      8.5123      7.8453    
  7.8454      8.5123      9.9745      14.367      24.186      40.439      62.012      85.546      105.96      117.91    
  89.432      84.808      72.287      55.321      38.053      23.891      14.599      10.007      8.3337      7.5016    
  7.2069      7.5017      8.3338      10.007      14.599      23.891      38.053      55.321      72.287      84.808    
  84.811      84.808      76.234      61.540      44.584      29.168      17.864      11.417      8.7579      7.6995    
  7.1380      7.1379      7.6996      8.7585      11.417      17.863      29.167      44.584      61.544      76.239    
  72.291      76.260      72.288      61.540      47.007      32.307      20.418      12.826      9.2301      7.8841    
  7.1259      6.8618      7.1258      7.8846      9.2309      12.825      20.416      32.304      47.007      61.543    
  55.319      61.605      61.606      55.322      44.584      32.306      21.384      13.710      9.6374      8.0207    
  7.1502      6.6894      6.6894      7.1503      8.0213      9.6381      13.709      21.381      32.303      44.580    
  38.047      44.695      47.164      44.700      38.053      29.167      20.418      13.710      9.8003      8.0954    
  7.1818      6.6040      6.4114      6.6041      7.1821      8.0960      9.8017      13.711      20.418      29.164    
  23.891      29.333      32.565      32.566      29.335      23.891      17.863      12.825      9.6371      8.0954    
  7.1957      6.5733      6.2686      6.2688      6.5734      7.1953      8.0955      9.6393      12.829      17.866    
  14.603      18.073      20.769      21.784      20.766      18.068      14.598      11.416      9.2297      8.0207    
  7.1820      6.5734      6.2262      6.1165      6.2265      6.5730      7.1805      8.0195      9.2309      11.420    
  10.006      11.639      13.229      14.212      14.210      13.225      11.636      10.006      8.7575      7.8843    
  7.1506      6.6043      6.2688      6.1166      6.1168      6.2691      6.6039      7.1488      7.8815      8.7556    
  8.3294      8.9700      9.6379      10.180      10.391      10.179      9.6375      8.9724      8.3335      7.6998    
  7.1265      6.6900      6.4118      6.2691      6.2267      6.2691      6.4126      6.6912      7.1263      7.6969    
  7.5015      7.9007      8.2739      8.5589      8.7157      8.7162      8.5608      8.2771      7.9037      7.5021    
  7.1387      6.8625      6.6898      6.6044      6.5736      6.5730      6.6037      6.6910      6.8654      7.1408    
  7.2109      7.3382      7.5048      7.6754      7.8047      7.8538      7.8065      7.6773      7.5051      7.3361    
  7.2077      7.1385      7.1260      7.1503      7.1820      7.1952      7.1802      7.1484      7.1259      7.1407    
  7.5014      7.3383      7.2390      7.2091      7.2258      7.2497      7.2503      7.2264      7.2080      7.2362    
  7.3363      7.5021      7.6996      7.8842      8.0210      8.0958      8.0952      8.0191      7.8810      7.6966    
  8.3293      7.9010      7.5052      7.2093      7.0332      6.9536      6.9330      6.9536      7.0325      7.2082    
  7.5055      7.9039      8.3335      8.7578      9.2301      9.6376      9.8015      9.6391      9.2305      8.7552    
  10.006      8.9702      8.2744      7.6758      7.2259      6.9536      6.8330      6.8328      6.9533      7.2264    
  7.6775      8.2771      8.9722      10.006      11.416      12.825      13.709      13.711      12.829      11.420    
  14.603      11.640      9.6382      8.5594      7.8050      7.2497      6.9328      6.8327      6.9326      7.2502    
  7.8065      8.5605      9.6371      11.636      14.598      17.862      20.416      21.382      20.418      17.867    
  23.891      18.072      13.229      10.181      8.7160      7.8539      7.2502      6.9533      6.9531      7.2500    
  7.8543      8.7160      10.178      13.225      18.069      23.891      29.167      32.305      32.304      29.165    
  38.047      29.332      20.768      14.212      10.391      8.7165      7.8065      7.2262      7.0321      7.2259    
  7.8062      8.7159      10.390      14.210      20.768      29.335      38.053      44.586      47.009      44.581    
  55.319      44.694      32.563      21.783      14.210      10.179      8.5611      7.6773      7.2076      7.2076    
  7.6771      8.5604      10.179      14.210      21.786      32.567      44.698      55.322      61.545      61.544    
  72.291      61.604      47.162      32.565      20.766      13.225      9.6382      8.2775      7.5048      7.2355    
  7.5048      8.2770      9.6375      13.226      20.769      32.567      47.162      61.601      72.288      76.240    
  84.811      76.260      61.605      44.699      29.335      18.069      11.637      8.9731      7.9037      7.3355    
  7.3356      7.9036      8.9726      11.637      18.070      29.336      44.698      61.601      76.254      84.808    
  56.245      53.351      45.516      34.939      24.338      15.970      10.875      8.5933      7.5577      6.9021    
  6.6800      6.9021      7.5577      8.5933      10.875      15.970      24.338      34.939      45.516      53.351    
  53.353      53.352      47.968      38.762      28.243      18.940      12.502      9.1713      7.8139      6.9956    
  6.5701      6.5701      6.9957      7.8144      9.1718      12.501      18.939      28.243      38.763      47.970    
  45.519      48.019      45.517      38.762      29.703      20.739      13.823      9.7654      8.0000      7.0848    
  6.5050      6.3112      6.5049      7.0852      8.0007      9.7654      13.822      20.737      29.702      38.763    
  34.938      38.891      38.892      34.940      28.244      20.739      14.332      10.151      8.1300      7.1497    
  6.4754      6.1389      6.1389      6.4755      7.1502      8.1303      10.150      14.330      20.736      28.241    
  24.335      28.454      29.996      28.457      24.338      18.939      13.823      10.151      8.1802      7.1825    
  6.4666      6.0433      5.9070      6.0436      6.4669      7.1828      8.1808      10.151      13.822      18.937    
  15.970      19.216      21.180      21.181      19.217      15.969      12.501      9.7646      8.1297      7.1825    
  6.4655      6.0035      5.7871      5.7874      6.0039      6.4655      7.1826      8.1311      9.7674      12.503    
  10.877      12.813      14.364      14.957      14.363      12.810      10.873      9.1702      7.9995      7.1498    
  6.4669      6.0037      5.7512      5.6734      5.7515      6.0036      6.4662      7.1494      8.0007      9.1732    
  8.5930      9.4822      10.341      10.878      10.877      10.338      9.4798      8.5923      7.8134      7.0850    
  6.4759      6.0438      5.7874      5.6735      5.6735      5.7872      6.0433      6.4749      7.0836      7.8126    
  7.5550      8.1036      8.5592      8.8805      8.9995      8.8794      8.5587      8.1049      7.5574      6.9959    
  6.5056      6.1395      5.9075      5.7876      5.7516      5.7872      5.9073      6.1398      6.5053      6.9942    
  6.9020      7.2666      7.6114      7.8790      8.0246      8.0247      7.8798      7.6130      7.2684      6.9026    
  6.5709      6.3119      6.1394      6.0439      6.0040      6.0035      6.0431      6.1397      6.3132      6.5718    
  6.6823      6.8336      7.0088      7.1776      7.3016      7.3477      7.3025      7.1787      7.0091      6.8326    
  6.6808      6.5707      6.5052      6.4756      6.4669      6.4654      6.4659      6.4744      6.5050      6.5717    
  6.9020      6.8337      6.8081      6.8260      6.8674      6.9005      6.9010      6.8681      6.8257      6.8068    
  6.8328      6.9026      6.9957      7.0849      7.1498      7.1825      7.1823      7.1489      7.0831      6.9939    
  7.5550      7.2669      7.0092      6.8262      6.7268      6.6889      6.6812      6.6893      6.7270      6.8259    
  7.0095      7.2686      7.5574      7.8137      7.9999      8.1298      8.1806      8.1309      8.0004      7.8123    
  8.5930      8.1039      7.6119      7.1780      6.8675      6.6889      6.6135      6.6135      6.6890      6.8680    
  7.1789      7.6131      8.1046      8.5923      9.1706      9.7648      10.150      10.152      9.7676      9.1731    
  10.877      9.4823      8.5595      7.8795      7.3018      6.9005      6.6811      6.6134      6.6808      6.9006    
  7.3025      7.8798      8.5583      9.4794      10.873      12.501      13.822      14.330      13.823      12.503    
  15.970      12.813      10.341      8.8807      8.0249      7.3478      6.9009      6.6890      6.6887      6.9005    
  7.3479      8.0248      8.8793      10.338      12.810      15.969      18.939      20.738      20.737      18.938    
  24.335      19.216      14.363      10.878      8.9997      8.0250      7.3026      6.8678      6.7265      6.8675    
  7.3023      8.0248      8.9992      10.878      14.363      19.217      24.338      28.245      29.704      28.242    
  34.938      28.453      21.179      14.956      10.877      8.8799      7.8802      7.1786      6.8253      6.8253    
  7.1785      7.8797      8.8796      10.878      14.958      21.182      28.456      34.940      38.765      38.764    
  45.519      38.890      29.994      21.180      14.362      10.339      8.5595      7.6134      7.0088      6.8061    
  7.0088      7.6130      8.5588      10.339      14.364      21.182      29.995      38.889      45.517      47.971    
  53.353      48.018      38.890      28.456      19.217      12.811      9.4810      8.1057      7.2684      6.8320    
  6.8320      7.2683      8.1051      9.4804      12.811      19.218      28.456      38.889      48.016      53.352    
  31.181      29.637      25.484      19.983      14.687      10.807      8.6789      7.6204      6.8628      6.4078    
  6.2599      6.4077      6.8627      7.6203      8.6788      10.807      14.687      19.983      25.484      29.637    
  29.637      29.637      26.760      21.905      16.523      12.034      9.2126      7.8373      6.9817      6.3949    
  6.1093      6.1092      6.3950      6.9821      7.8378      9.2127      12.033      16.523      21.906      26.761    
  25.485      26.823      25.485      21.906      17.221      12.804      9.6660      7.9873      7.0623      6.3867    
  5.9919      5.8651      5.9918      6.3870      7.0629      7.9875      9.6652      12.803      17.220      21.905    
  19.983      22.068      22.068      19.983      16.523      12.804      9.8454      8.0762      7.1020      6.3781    
  5.9091      5.6884      5.6884      5.9093      6.3783      7.1021      8.0758      9.8442      12.802      16.522    
  14.686      16.785      17.583      16.786      14.687      12.033      9.6655      8.0760      7.1127      6.3716    
  5.8603      5.5781      5.4902      5.5783      5.8606      6.3716      7.1127      8.0761      9.6654      12.033    
  10.807      12.368      13.339      13.340      12.368      10.807      9.2118      7.9867      7.1018      6.3716    
  5.8443      5.5262      5.3832      5.3835      5.5267      5.8445      6.3717      7.1025      7.9881      9.2132    
  8.6797      9.5805      10.309      10.591      10.309      9.5792      8.6779      7.8364      7.0620      6.3782    
  5.8605      5.5264      5.3501      5.2966      5.3503      5.5265      5.8604      6.3783      7.0629      7.8381    
  7.6201      8.2047      8.6681      8.9387      8.9382      8.6670      8.2037      7.6196      6.9814      6.3869    
  5.9095      5.5784      5.3835      5.2967      5.2966      5.3832      5.5781      5.9092      6.3865      6.9813    
  6.8615      7.3326      7.7345      8.0024      8.0958      8.0018      7.7342      7.3332      6.8626      6.3952    
  5.9924      5.6889      5.4906      5.3837      5.3504      5.3832      5.4901      5.6888      5.9921      6.3943    
  6.4076      6.7304      7.0358      7.2754      7.4071      7.4070      7.2754      7.0363      6.7312      6.4081    
  6.1098      5.8657      5.6888      5.5785      5.5268      5.5264      5.5779      5.6886      5.8660      6.1099    
  6.2608      6.4374      6.6237      6.7934      6.9144      6.9585      6.9146      6.7937      6.6237      6.4372    
  6.2605      6.1097      5.9921      5.9093      5.8605      5.8443      5.8602      5.9088      5.9919      6.1099    
  6.4076      6.4375      6.4913      6.5647      6.6384      6.6856      6.6859      6.6390      6.5648      6.4910    
  6.4373      6.4081      6.3950      6.3868      6.3780      6.3714      6.3714      6.3779      6.3862      6.3942    
  6.8615      6.7307      6.6239      6.5648      6.5523      6.5639      6.5722      6.5645      6.5528      6.5649    
  6.6241      6.7313      6.8625      6.9816      7.0623      7.1017      7.1125      7.1023      7.0627      6.9811    
  7.6202      7.3329      7.0362      6.7937      6.6385      6.5639      6.5395      6.5397      6.5642      6.6389    
  6.7940      7.0365      7.3329      7.6196      7.8370      7.9870      8.0758      8.0763      7.9882      7.8381    
  8.6798      8.2048      7.7347      7.2757      6.9145      6.6855      6.5720      6.5396      6.5718      6.6854    
  6.9146      7.2756      7.7339      8.2031      8.6779      9.2121      9.6653      9.8448      9.6660      9.2135    
  10.807      9.5803      8.6680      8.0025      7.4072      6.9585      6.6857      6.5643      6.5640      6.6853    
  6.9584      7.4072      8.0019      8.6666      9.5788      10.807      12.033      12.803      12.803      12.033    
  14.686      12.367      10.309      8.9384      8.0958      7.4071      6.9146      6.6388      6.5525      6.6386    
  6.9145      7.4072      8.0959      8.9384      10.309      12.368      14.687      16.524      17.221      16.523    
  19.983      16.784      13.338      10.591      8.9381      8.0021      7.2757      6.7937      6.5645      6.5646    
  6.7937      7.2756      8.0021      8.9386      10.592      13.340      16.786      19.984      21.907      21.906    
  25.485      22.067      17.582      13.339      10.309      8.6674      7.7347      7.0366      6.6236      6.4905    
  6.6237      7.0364      7.7342      8.6672      10.309      13.340      17.583      22.067      25.485      26.762    
  29.637      26.823      22.067      16.785      12.368      9.5798      8.2045      7.3338      6.7313      6.4368    
  6.4368      6.7311      7.3332      8.2039      9.5796      12.369      16.786      22.067      26.822      29.637    
  16.225      15.578      13.871      11.703      9.7578      8.4309      7.5573      6.8450      6.3477      6.0721    
  5.9863      6.0721      6.3476      6.8449      7.5573      8.4308      9.7578      11.703      13.871      15.578    
  15.578      15.578      14.374      12.402      10.335      8.7386      7.7198      6.9340      6.3367      5.9646    
  5.7940      5.7940      5.9646      6.3369      6.9344      7.7201      8.7384      10.335      12.401      14.374    
  13.871      14.432      13.871      12.402      10.562      8.9368      7.8141      6.9896      6.3257      5.8768    