unknown system                          
   1.00000000000000     
     2.330000    0.000000    0.000000
    -1.165000    2.017839    0.000000
     0.000000    0.000000    4.100000
   Fe
     2
Direct
  0.000000  0.000000  0.000000
  0.333333  0.666667  0.500000
 
   20   20   32
 0.16177078914E+03 0.15328299594E+03 0.13044656735E+03 0.99761975295E+02 0.68563398731E+02
 0.42439523032E+02 0.24208872154E+02 0.14032390738E+02 0.99400975752E+01 0.87168729332E+01
 0.83202752134E+01 0.87167987472E+01 0.99399281199E+01 0.14032150865E+02 0.24208659716E+02
 0.42439436006E+02 0.68563441627E+02 0.99762062019E+02 0.13044661752E+03 0.15328300401E+03
 0.15328801078E+03 0.15328299870E+03 0.13765563685E+03 0.11107350597E+03 0.80538065053E+02
 0.52489812068E+02 0.31041764009E+02 0.17598225470E+02 0.11180051640E+02 0.90786331510E+01
 0.83325805571E+01 0.83323887750E+01 0.90784150416E+01 0.11179978651E+02 0.17597384801E+02
 0.31039623338E+02 0.52488534544E+02 0.80541654492E+02 0.11108324962E+03 0.13766687228E+03
 0.13045399126E+03 0.13763659748E+03 0.13044651388E+03 0.11107344486E+03 0.84970699938E+02
 0.58389546874E+02 0.36206780500E+02 0.20930819739E+02 0.12649335599E+02 0.94561889918E+01
 0.83948847125E+01 0.80233631331E+01 0.83945698369E+01 0.94563968459E+01 0.12649710365E+02
 0.20929554917E+02 0.36203551065E+02 0.58387644695E+02 0.84974258248E+02 0.11108204605E+03
 0.99758585258E+02 0.11101448855E+03 0.11101558023E+03 0.99761813536E+02 0.80537919232E+02
 0.58389491132E+02 0.38131027798E+02 0.22945924591E+02 0.13859733008E+02 0.98516268116E+01
 0.84807273271E+01 0.78240864498E+01 0.78238862204E+01 0.84807247795E+01 0.98526495167E+01
 0.13861264897E+02 0.22946136712E+02 0.38128564707E+02 0.58384911108E+02 0.80533170956E+02
 0.68552644255E+02 0.80449457712E+02 0.84852827427E+02 0.80457743884E+02 0.68563174936E+02
 0.52489676592E+02 0.36206786206E+02 0.22945990031E+02 0.14329013402E+02 0.10118485010E+02
 0.85537726775E+01 0.77250526670E+01 0.74327853549E+01 0.77248242297E+01 0.85537613317E+01
 0.10119742666E+02 0.14332222917E+02 0.22949613473E+02 0.36206974695E+02 0.52483527769E+02
 0.42438038733E+02 0.52416449222E+02 0.58262103070E+02 0.58264825783E+02 0.52421424868E+02
 0.42439389920E+02 0.31041790328E+02 0.20930992844E+02 0.13859913969E+02 0.10118558285E+02
 0.85823333109E+01 0.76904804751E+01 0.72205551496E+01 0.72205363007E+01 0.76898620679E+01
 0.85809248256E+01 0.10118345394E+02 0.13863344386E+02 0.20937162538E+02 0.31046027386E+02
 0.24216033459E+02 0.31016637214E+02 0.36133557562E+02 0.38034316481E+02 0.36130364040E+02
 0.31010553462E+02 0.24208941531E+02 0.17598445295E+02 0.12649616314E+02 0.98518082199E+01
 0.85537937557E+01 0.76904332033E+01 0.71554621659E+01 0.69795089788E+01 0.71558104689E+01
 0.76892549134E+01 0.85503377021E+01 0.98483826373E+01 0.12649710365E+02 0.17603181694E+02
 0.14032156358E+02 0.17609690309E+02 0.20929111922E+02 0.22924318939E+02 0.22921031686E+02
 0.20921963271E+02 0.17604404239E+02 0.14032581376E+02 0.11180301899E+02 0.94563789847E+01
 0.84807444072E+01 0.77249271519E+01 0.72204242369E+01 0.69794600872E+01 0.69802936041E+01
 0.72219390661E+01 0.77248297224E+01 0.84772425255E+01 0.94501810053E+01 0.11174977369E+02
 0.99322231260E+01 0.11200990954E+02 0.12687735845E+02 0.13901026683E+02 0.14367815333E+02
 0.13899179580E+02 0.12688097967E+02 0.11206351381E+02 0.99401901471E+01 0.90787120301E+01
 0.83948588866E+01 0.78239255376E+01 0.74325856630E+01 0.72204187441E+01 0.71557934172E+01
 0.72219524222E+01 0.74358777332E+01 0.78273629816E+01 0.83949010882E+01 0.90734082663E+01
 0.87165903059E+01 0.91049064625E+01 0.95062701372E+01 0.99184628924E+01 0.10193442633E+02
 0.10194823799E+02 0.99227152679E+01 0.95125170940E+01 0.91099551736E+01 0.87167511853E+01
 0.83324771173E+01 0.80232203494E+01 0.78237170962E+01 0.77247132178E+01 0.76898515265E+01
 0.76892916438E+01 0.77248442257E+01 0.78273547697E+01 0.80297819223E+01 0.83376039917E+01
 0.83276489561E+01 0.83707267890E+01 0.84563409153E+01 0.85590208079E+01 0.86436358020E+01
 0.86777535290E+01 0.86468254628E+01 0.85621940092E+01 0.84557646771E+01 0.83653261694E+01
 0.83200812717E+01 0.83323086563E+01 0.83945276353E+01 0.84807099196E+01 0.85537937557E+01
 0.85809760187E+01 0.85503490479E+01 0.84772105855E+01 0.83948847126E+01 0.83376273129E+01
 0.87167141156E+01 0.83708030292E+01 0.80932309848E+01 0.79155127917E+01 0.78305056325E+01
 0.78040133133E+01 0.78044598221E+01 0.78301025951E+01 0.79115813401E+01 0.80864418859E+01
 0.83655249673E+01 0.87168008090E+01 0.90785532126E+01 0.94565432950E+01 0.98527571555E+01
 0.10119796740E+02 0.10118326193E+02 0.98483088679E+01 0.94501374615E+01 0.90734675581E+01
 0.99324355723E+01 0.91051164996E+01 0.84564073719E+01 0.79154640203E+01 0.75463983074E+01
 0.73482539568E+01 0.72878699241E+01 0.73466330479E+01 0.75429134101E+01 0.79117401576E+01
 0.84560529374E+01 0.91101636149E+01 0.99402331381E+01 0.11180296406E+02 0.12649904575E+02
 0.13861311242E+02 0.14332148771E+02 0.13863209769E+02 0.12649623859E+02 0.11175044864E+02
 0.14032399343E+02 0.11201284853E+02 0.95063947012E+01 0.85588948763E+01 0.78302742846E+01
 0.73481245859E+01 0.71191416506E+01 0.71183442988E+01 0.73466416539E+01 0.78302700186E+01
 0.85621454230E+01 0.95123000467E+01 0.11206359987E+02 0.14032584490E+02 0.17597646571E+02
 0.20929586966E+02 0.22945998637E+02 0.22949409959E+02 0.20937021481E+02 0.17603223640E+02
 0.24216245897E+02 0.17610002989E+02 0.12687903340E+02 0.99183129912E+01 0.86432493250E+01
 0.78036641577E+01 0.72877553448E+01 0.71183971850E+01 0.72875816639E+01 0.78050540761E+01
 0.86468254628E+01 0.99217537550E+01 0.12687766715E+02 0.17605162804E+02 0.24208941531E+02
 0.31039639984E+02 0.36203362577E+02 0.38128304108E+02 0.36206780500E+02 0.31046017713E+02
 0.42438176774E+02 0.31016908693E+02 0.20929302968E+02 0.13900917995E+02 0.10193025540E+02
 0.86772876033E+01 0.78042573435E+01 0.73467697226E+01 0.73469076994E+01 0.78052007532E+01
 0.86791397668E+01 0.10193685983E+02 0.13897833322E+02 0.20923315021E+02 0.31012689838E+02
 0.42439440936E+02 0.52488330335E+02 0.58387360629E+02 0.58384682784E+02 0.52483459035E+02
 0.68552694387E+02 0.52416641705E+02 0.36133751614E+02 0.22924302968E+02 0.14367495136E+02
 0.10194371798E+02 0.86465799265E+01 0.78302656787E+01 0.75433559662E+01 0.78306644500E+01
 0.86469664035E+01 0.10193651074E+02 0.14364815983E+02 0.22921026193E+02 0.36133694642E+02
 0.52422822141E+02 0.68563267964E+02 0.80541395993E+02 0.84974030540E+02 0.80533058278E+02
 0.99758565628E+02 0.80449563578E+02 0.58262281133E+02 0.38034410398E+02 0.22920893301E+02
 0.13898854585E+02 0.99224757302E+01 0.85623131497E+01 0.79120543529E+01 0.79122619418E+01
 0.85623904950E+01 0.99216641185E+01 0.13897617015E+02 0.22920903779E+02 0.38036936030E+02
 0.58266838178E+02 0.80454334217E+02 0.99761880630E+02 0.11108306487E+03 0.11108192242E+03
 0.13045394109E+03 0.11101452682E+03 0.84852973916E+02 0.58265004787E+02 0.36130421013E+02
 0.20921823390E+02 0.12687903340E+02 0.95125366281E+01 0.84561191116E+01 0.80869388463E+01
 0.84563409153E+01 0.95121950168E+01 0.12687404594E+02 0.20922984094E+02 0.36133557562E+02
 0.58266839118E+02 0.84849403797E+02 0.11100597015E+03 0.13044651388E+03 0.13766677695E+03
 0.15328797229E+03 0.13763660070E+03 0.11101568379E+03 0.80457949589E+02 0.52421618048E+02
 0.31010586092E+02 0.17604273575E+02 0.11206252590E+02 0.91100928430E+01 0.83656678683E+01
 0.83657904260E+01 0.91100912471E+01 0.11205967298E+02 0.17604719458E+02 0.31012450989E+02
 0.52422822838E+02 0.80454434055E+02 0.11100603545E+03 0.13762541079E+03 0.15328296827E+03
 0.15149207154E+03 0.14356612326E+03 0.12221956619E+03 0.93490643711E+02 0.64244625103E+02
 0.39774043843E+02 0.22779716631E+02 0.13401341737E+02 0.96966279654E+01 0.85492176259E+01
 0.81636690352E+01 0.85491796719E+01 0.96965202310E+01 0.13401170325E+02 0.22779559340E+02
 0.39773986218E+02 0.64244672137E+02 0.93490719892E+02 0.12221960344E+03 0.14356612360E+03
 0.14357081759E+03 0.14356618012E+03 0.12895984736E+03 0.10408149596E+03 0.75462219361E+02
 0.49167747260E+02 0.29117698374E+02 0.16653640563E+02 0.10796787404E+02 0.88900292553E+01
 0.81639909682E+01 0.81638272593E+01 0.88898879235E+01 0.10796838796E+02 0.16652979792E+02
 0.29115731085E+02 0.49166439736E+02 0.75465356583E+02 0.10409038334E+03 0.12897020497E+03
 0.12222652051E+03 0.12894589813E+03 0.12221967706E+03 0.10408150975E+03 0.79614385546E+02
 0.54687402458E+02 0.33923591247E+02 0.19714358255E+02 0.12111953921E+02 0.92286800211E+01
 0.82185611867E+01 0.78592969604E+01 0.82182863574E+01 0.92289400669E+01 0.12112398615E+02
 0.19713204624E+02 0.33920436768E+02 0.54685323643E+02 0.79617354990E+02 0.10408926568E+03
 0.93487478507E+02 0.10403693961E+03 0.10403802498E+03 0.93490682607E+02 0.75462133181E+02
 0.54687326091E+02 0.35716311932E+02 0.21571653698E+02 0.13203386466E+02 0.95752607315E+01
 0.82998840046E+01 0.76660295351E+01 0.76658506754E+01 0.82999044405E+01 0.95762370127E+01
 0.13204792995E+02 0.21571731221E+02 0.35713780439E+02 0.54682753378E+02 0.75457421214E+02
 0.64234586720E+02 0.75397967012E+02 0.79529522724E+02 0.75405760458E+02 0.64244494678E+02
 0.49167550998E+02 0.33923487266E+02 0.21571656029E+02 0.13628035932E+02 0.98092695427E+01
 0.83705915723E+01 0.75716398665E+01 0.72919603998E+01 0.75714713264E+01 0.83706184173E+01
 0.98104293790E+01 0.13630973576E+02 0.21574972606E+02 0.33923605113E+02 0.49161745752E+02
 0.39772714394E+02 0.49124801761E+02 0.54608544755E+02 0.54611069593E+02 0.49129371043E+02
 0.39773813302E+02 0.29117531386E+02 0.19714361598E+02 0.13203485444E+02 0.98093314245E+01
 0.83984333472E+01 0.75393688877E+01 0.70909614467E+01 0.70909808394E+01 0.75388636793E+01
 0.83971642932E+01 0.98091575549E+01 0.13206762556E+02 0.19720288098E+02 0.29121696893E+02
 0.22786476411E+02 0.29124312080E+02 0.33906858578E+02 0.35685481445E+02 0.33903767594E+02
 0.29118409407E+02 0.22779552807E+02 0.16653635635E+02 0.12112105131E+02 0.95754191106E+01
 0.83706474903E+01 0.75393551529E+01 0.70296627637E+01 0.68628533391E+01 0.70300044805E+01
 0.75382725471E+01 0.83674500721E+01 0.95723149355E+01 0.12112398615E+02 0.16658354467E+02
 0.13401134697E+02 0.16695978781E+02 0.19770554678E+02 0.21624101303E+02 0.21620965962E+02
 0.19763707096E+02 0.16690821316E+02 0.13401317950E+02 0.10796916085E+02 0.92288638682E+01
 0.82999733025E+01 0.75716067032E+01 0.70908997332E+01 0.68628345710E+01 0.68635696587E+01
 0.70922170357E+01 0.75714356987E+01 0.82966986829E+01 0.92231640450E+01 0.10792109185E+02
 0.96892461353E+01 0.10847645440E+02 0.12207238415E+02 0.13321109804E+02 0.13750528705E+02
 0.13319282337E+02 0.12207449827E+02 0.10852572402E+02 0.96966615619E+01 0.88901519405E+01
 0.82186475127E+01 0.76659977216E+01 0.72918695481E+01 0.70909353609E+01 0.70300197881E+01
 0.70922332707E+01 0.72947717206E+01 0.76690920607E+01 0.82186433818E+01 0.88851939402E+01
 0.85489644625E+01 0.89452803662E+01 0.93345951457E+01 0.97192872530E+01 0.99733784633E+01
 0.99746391665E+01 0.97232096534E+01 0.93404292907E+01 0.89500638841E+01 0.85492116142E+01
 0.81640382613E+01 0.78592912815E+01 0.76657825122E+01 0.75714271216E+01 0.75388896705E+01
 0.75383122730E+01 0.75714246571E+01 0.76690557109E+01 0.78653238195E+01 0.81687364521E+01
 0.81705861065E+01 0.82301115921E+01 0.83349555627E+01 0.84559539649E+01 0.85536997161E+01
 0.85925079669E+01 0.85567197826E+01 0.84590016343E+01 0.83345400858E+01 0.82252115182E+01
 0.81636556018E+01 0.81638658029E+01 0.82182904883E+01 0.82998949239E+01 0.83706474903E+01
 0.83972042741E+01 0.83674232271E+01 0.82965998684E+01 0.82185611867E+01 0.81687277025E+01
 0.85490561640E+01 0.82301940762E+01 0.79834602170E+01 0.78349339269E+01 0.77723072272E+01
 0.77578313318E+01 0.77583189091E+01 0.77721017829E+01 0.78314547175E+01 0.79772900362E+01
 0.82254157310E+01 0.85492653617E+01 0.88899904786E+01 0.92289897023E+01 0.95762612643E+01
 0.98104417867E+01 0.98091080808E+01 0.95721808082E+01 0.92230298334E+01 0.88851738101E+01
 0.96894034794E+01 0.89454999517E+01 0.83350747973E+01 0.78349280246E+01 0.75011542309E+01
 0.73262978037E+01 0.72740431586E+01 0.73249356922E+01 0.74981064355E+01 0.78316161794E+01
 0.83348475006E+01 0.89502790935E+01 0.96967111715E+01 0.10796951713E+02 0.12112412546E+02
 0.13204757268E+02 0.13630896862E+02 0.13206627851E+02 0.12112261335E+02 0.10792093421E+02
 0.13401314641E+02 0.10847928814E+02 0.93347892585E+01 0.84559357156E+01 0.77721575545E+01
 0.73261955995E+01 0.71167884219E+01 0.71160872943E+01 0.73249085970E+01 0.77722361496E+01
 0.84589859786E+01 0.93402411764E+01 0.10852545307E+02 0.13401326482E+02 0.16652982038E+02
 0.19713116869E+02 0.21571628934E+02 0.21574867989E+02 0.19720197000E+02 0.16658361641E+02
 0.22786633702E+02 0.16696234156E+02 0.12207435520E+02 0.97192555106E+01 0.85534485222E+01
 0.77575600879E+01 0.72739303351E+01 0.71161090480E+01 0.72737357438E+01 0.77588097260E+01
 0.85567197826E+01 0.97223421652E+01 0.12207092803E+02 0.16691437967E+02 0.22779552807E+02
 0.29115607283E+02 0.33920318921E+02 0.35713722826E+02 0.33923591247E+02 0.29121740079E+02
 0.39772816551E+02 0.29124462639E+02 0.19770682595E+02 0.13321064050E+02 0.99731045419E+01
 0.85921606389E+01 0.77581351009E+01 0.73249954029E+01 0.73250705119E+01 0.77588971617E+01
 0.85937780096E+01 0.99736270841E+01 0.13318055045E+02 0.19764898760E+02 0.29120317391E+02
 0.39773857834E+02 0.49166323706E+02 0.54685311998E+02 0.54682818101E+02 0.49161825985E+02
 0.64234623745E+02 0.49124812973E+02 0.33906872103E+02 0.21624043084E+02 0.13750313075E+02
 0.99743318337E+01 0.85565328091E+01 0.77721846496E+01 0.74983773588E+01 0.77724686890E+01
 0.85567840030E+01 0.99735936727E+01 0.13747801443E+02 0.21621001590E+02 0.33906851880E+02
 0.49130642867E+02 0.64244578736E+02 0.75465374566E+02 0.79617469833E+02 0.75457525378E+02
 0.93487463856E+02 0.75397857573E+02 0.54608442562E+02 0.35685415340E+02 0.21620863230E+02
 0.13319111487E+02 0.97230876440E+01 0.84590884752E+01 0.78317481699E+01 0.78319155340E+01
 0.84590910687E+01 0.97222518983E+01 0.13317929949E+02 0.21620957076E+02 0.35687980608E+02
 0.54612977624E+02 0.75402580603E+02 0.93490744137E+02 0.10409050126E+03 0.10408936980E+03
 0.12222648326E+03 0.10403677205E+03 0.79529347502E+02 0.54611003193E+02 0.33903787816E+02
 0.19763714818E+02 0.12207435520E+02 0.93405026490E+01 0.83347673825E+01 0.79775582696E+01
 0.83349555627E+01 0.93401204219E+01 0.12206881390E+02 0.19764778565E+02 0.33906858578E+02
 0.54613013416E+02 0.79526354379E+02 0.10402904311E+03 0.12221967706E+03 0.12897028183E+03
 0.14357078902E+03 0.12894575290E+03 0.10403784677E+03 0.75405703195E+02 0.49129478740E+02
 0.29118569580E+02 0.16690916110E+02 0.10852621676E+02 0.89501657184E+01 0.82253668476E+01
 0.82254885763E+01 0.89501613422E+01 0.10852311206E+02 0.16691277387E+02 0.29120327005E+02
 0.49130739351E+02 0.75402632778E+02 0.10402903246E+03 0.12893542071E+03 0.14356615190E+03
 0.12437741158E+03 0.11791199156E+03 0.10045296565E+03 0.76864880269E+02 0.52803013814E+02
 0.32762154677E+02 0.19086034616E+02 0.11818424311E+02 0.90847015828E+01 0.80998631263E+01
 0.77484052063E+01 0.80998949164E+01 0.90847149584E+01 0.11818390454E+02 0.19085990464E+02
 0.32762158073E+02 0.52803069178E+02 0.76864934248E+02 0.10045297640E+03 0.11791197650E+03
 0.11791582295E+03 0.11791217277E+03 0.10596625912E+03 0.85552794681E+02 0.62000410830E+02
 0.40390215868E+02 0.24096258633E+02 0.14248202378E+02 0.98456392510E+01 0.83839585383E+01
 0.77182233896E+01 0.77181212235E+01 0.83839833191E+01 0.98459692359E+01 0.14247980996E+02
 0.24094756571E+02 0.40388882069E+02 0.62002422012E+02 0.85559468353E+02 0.10597431564E+03
 0.10045865444E+03 0.10596821917E+03 0.10045345221E+03 0.85552979086E+02 0.65405931504E+02
 0.44888731927E+02 0.27934804245E+02 0.16585182414E+02 0.10767566802E+02 0.86443043235E+01
 0.77481640569E+01 0.74256784351E+01 0.77479826176E+01 0.86446763351E+01 0.10768172045E+02
 0.16584333976E+02 0.27931919241E+02 0.44886303458E+02 0.65407462055E+02 0.85558580215E+02
 0.76862325352E+02 0.85552113202E+02 0.85553149800E+02 0.76865376450E+02 0.62000458892E+02
 0.44888606898E+02 0.29372824675E+02 0.18019652219E+02 0.11548948097E+02 0.88769026341E+01
 0.78110947881E+01 0.72448363790E+01 0.72447123319E+01 0.78111704502E+01 0.88777506408E+01
 0.11550032883E+02 0.18019419926E+02 0.29370204488E+02 0.44884177768E+02 0.61995966668E+02
 0.52794902691E+02 0.62007855014E+02 0.65418819672E+02 0.62014295054E+02 0.52803094176E+02
 0.40389877008E+02 0.27934446652E+02 0.18019509283E+02 0.11856314244E+02 0.90305782815E+01
 0.78702078970E+01 0.71585277843E+01 0.69144323953E+01 0.71585119750E+01 0.78703323156E+01
 0.90314833587E+01 0.11858542071E+02 0.18022028823E+02 0.27934407689E+02 0.40385035621E+02
 0.32761215308E+02 0.40433897832E+02 0.44949459671E+02 0.44951463047E+02 0.40437410134E+02
 0.32761697960E+02 0.24095645264E+02 0.16584794853E+02 0.11548859629E+02 0.90306154227E+01
 0.78940753713E+01 0.71296842012E+01 0.67410038325E+01 0.67411192673E+01 0.71294710687E+01
 0.78931748166E+01 0.90305405936E+01 0.11551699015E+02 0.16590011327E+02 0.24099545784E+02
 0.19091668501E+02 0.24189623743E+02 0.28074338399E+02 0.29524959760E+02 0.28071585194E+02
 0.24184320566E+02 0.19085333616E+02 0.14247679489E+02 0.10767421172E+02 0.88770114559E+01
 0.78703477858E+01 0.71297495812E+01 0.66888792077E+01 0.65466289768E+01 0.66892060969E+01
 0.71289297626E+01 0.78678438671E+01 0.88747402853E+01 0.10768172045E+02 0.14252228903E+02
 0.11818255481E+02 0.14370848534E+02 0.16794188519E+02 0.18268925888E+02 0.18266235435E+02
 0.16788246554E+02 0.14366160680E+02 0.11817905482E+02 0.98454873556E+01 0.86444768808E+01
 0.78113560142E+01 0.71587123538E+01 0.67411033249E+01 0.65466788493E+01 0.65471654087E+01
 0.67419270595E+01 0.71583770021E+01 0.78086965267E+01 0.86400767223E+01 0.98419878150E+01
 0.90786247660E+01 0.99706386381E+01 0.11005409393E+02 0.11859560875E+02 0.12190536862E+02
 0.11857831077E+02 0.11005280474E+02 0.99744576498E+01 0.90845949326E+01 0.83841812860E+01
 0.77485131891E+01 0.72451085339E+01 0.69145959650E+01 0.67412382979E+01 0.66892913623E+01
 0.67419465976E+01 0.69165086893E+01 0.72473212283E+01 0.77483947721E+01 0.83801368711E+01
 0.80996688049E+01 0.85082597378E+01 0.88838412302E+01 0.92060211484E+01 0.94086117268E+01
 0.94095515356E+01 0.92090580330E+01 0.88885537394E+01 0.85123039928E+01 0.81001169672E+01
 0.77186183915E+01 0.74259948023E+01 0.72448824225E+01 0.71586212153E+01 0.71295742336E+01
 0.71289675475E+01 0.71583016729E+01 0.72472191640E+01 0.74306391323E+01 0.77221937829E+01
 0.77540832442E+01 0.78491720816E+01 0.79915008320E+01 0.81459594504E+01 0.82667267411E+01
 0.83135153464E+01 0.82692553817E+01 0.81486064719E+01 0.79914401426E+01 0.78455411966E+01
 0.77488025541E+01 0.77184372978E+01 0.77481010345E+01 0.78111760236E+01 0.78703477858E+01
 0.78931776239E+01 0.78677194484E+01 0.78084408740E+01 0.77481640569E+01 0.77221148553E+01
 0.80996946350E+01 0.78492717599E+01 0.76735147513E+01 0.75871837171E+01 0.75693527241E+01
 0.75779027208E+01 0.75784697079E+01 0.75695988212E+01 0.75848204772E+01 0.76689116913E+01
 0.78457547056E+01 0.81001745873E+01 0.83840127947E+01 0.86445103992E+01 0.88775814063E+01
 0.90313896965E+01 0.90304097902E+01 0.88744622290E+01 0.86397382290E+01 0.83799435990E+01
 0.90786690652E+01 0.85085091193E+01 0.79917418384E+01 0.75872737574E+01 0.73317369843E+01
 0.72063275219E+01 0.71709433629E+01 0.72056058729E+01 0.73297808483E+01 0.75849889685E+01
 0.79917946224E+01 0.85125301042E+01 0.90846526074E+01 0.98456223285E+01 0.10767775652E+02
 0.11549802394E+02 0.11858448213E+02 0.11551556994E+02 0.10767921282E+02 0.98417928031E+01
 0.11818306094E+02 0.99709088631E+01 0.88841963097E+01 0.81461817756E+01 0.75693825076E+01
 0.72062836606E+01 0.70404757914E+01 0.70400182674E+01 0.72054876557E+01 0.75696490954E+01
 0.81486796714E+01 0.88884458452E+01 0.99743394327E+01 0.11817922238E+02 0.14247396247E+02
 0.16583970305E+02 0.18019391066E+02 0.18022142899E+02 0.16590035216E+02 0.14252167043E+02
 0.19091712654E+02 0.14370984045E+02 0.11005676578E+02 0.92062519394E+01 0.82667723354E+01
 0.75777994196E+01 0.71708305755E+01 0.70399693087E+01 0.71705888831E+01 0.75786894822E+01
 0.82692553817E+01 0.92084436560E+01 0.11004868320E+02 0.14366413972E+02 0.19085333616E+02
 0.24094314233E+02 0.27931958204E+02 0.29370604044E+02 0.27934804245E+02 0.24099716816E+02
 0.32761243845E+02 0.24189506827E+02 0.16794174444E+02 0.11859651391E+02 0.94086507781E+01
 0.83134255216E+01 0.75783219860E+01 0.72054910458E+01 0.72054166899E+01 0.75786450615E+01
 0.83144711961E+01 0.94088668150E+01 0.11856920245E+02 0.16789022413E+02 0.24185632857E+02
 0.32761729894E+02 0.40388966176E+02 0.44886908833E+02 0.44884908173E+02 0.40385458588E+02
 0.52794912821E+02 0.40433500037E+02 0.28073941099E+02 0.18268765214E+02 0.12190547657E+02
 0.94095616101E+01 0.82691952904E+01 0.75695007248E+01 0.73296685092E+01 0.75695212154E+01
 0.82691496960E+01 0.94088378382E+01 0.12188526061E+02 0.18266370408E+02 0.28074008149E+02
 0.40438352900E+02 0.52803159669E+02 0.62003067788E+02 0.65408354459E+02 0.61996564382E+02
 0.76862320914E+02 0.62007255175E+02 0.44948718038E+02 0.29524524641E+02 0.18266205860E+02
 0.11858002869E+02 0.92091995593E+01 0.81486229128E+01 0.75847144031E+01 0.75847928541E+01
 0.81484737870E+01 0.92083543913E+01 0.11857001520E+02 0.18266501507E+02 0.29527117655E+02
 0.44953079636E+02 0.62011735700E+02 0.76865425992E+02 0.85560273026E+02 0.85559200483E+02
 0.10045864369E+03 0.85551474485E+02 0.65417909644E+02 0.44950835058E+02 0.28071518144E+02
 0.16788587237E+02 0.11005676578E+02 0.88887544672E+01 0.79913873586E+01 0.76686698854E+01
 0.79915008320E+01 0.88882914934E+01 0.11004997239E+02 0.16789377172E+02 0.28074338399E+02
 0.44953193280E+02 0.65416331224E+02 0.85545864529E+02 0.10045345221E+03 0.10597478194E+03
 0.11791581476E+03 0.10596773320E+03 0.85552327667E+02 0.62013637722E+02 0.40437323230E+02
 0.24184772802E+02 0.14366772587E+02 0.99748502729E+01 0.85123323119E+01 0.78452800760E+01
 0.78453939067E+01 0.85123090418E+01 0.99744618308E+01 0.14366890368E+02 0.24186202010E+02
 0.40438663790E+02 0.62011678207E+02 0.85545681113E+02 0.10595966139E+03 0.11791214951E+03
 0.89431858997E+02 0.84808112532E+02 0.72287348910E+02 0.55320983496E+02 0.38052658516E+02
 0.23891224500E+02 0.14598981656E+02 0.10006643779E+02 0.83337342333E+01 0.75016181227E+01
 0.72069488443E+01 0.75016760289E+01 0.83338010351E+01 0.10006681778E+02 0.14599004707E+02
 0.23891266875E+02 0.38052718902E+02 0.55321022788E+02 0.72287343933E+02 0.84808089541E+02
 0.84810789413E+02 0.84808402163E+02 0.76233672000E+02 0.61539891334E+02 0.44583577020E+02
 0.29167780629E+02 0.17864092702E+02 0.11416746822E+02 0.87579430204E+01 0.76994617023E+01
 0.71379722371E+01 0.71379183899E+01 0.76996072840E+01 0.87584993319E+01 0.11416991203E+02
 0.17863204101E+02 0.29166554819E+02 0.44584327732E+02 0.61543851810E+02 0.76238819305E+02
 0.72291341244E+02 0.76260422031E+02 0.72288158852E+02 0.61540221600E+02 0.47007281804E+02
 0.32306607204E+02 0.20418355105E+02 0.12825766232E+02 0.92301251885E+01 0.78841257020E+01
 0.71258986907E+01 0.68618435129E+01 0.71258067331E+01 0.78845724244E+01 0.92308666359E+01
 0.12825333423E+02 0.20416004966E+02 0.32304045860E+02 0.47007280652E+02 0.61543264888E+02
 0.55319254299E+02 0.61605440344E+02 0.61606329027E+02 0.55321871208E+02 0.44583737154E+02
 0.32306437322E+02 0.21383875307E+02 0.13709935556E+02 0.96373708684E+01 0.80206638065E+01
 0.71501934957E+01 0.66894450095E+01 0.66893866096E+01 0.71503238547E+01 0.80213289526E+01
 0.96380644472E+01 0.13709426661E+02 0.21381389011E+02 0.32302527556E+02 0.44579859371E+02
 0.38047118728E+02 0.44695491747E+02 0.47163571497E+02 0.44700055072E+02 0.38052916401E+02
 0.29167311957E+02 0.20417772266E+02 0.13709664334E+02 0.98003211701E+01 0.80954173084E+01
 0.71818234295E+01 0.66039515106E+01 0.64114421574E+01 0.66041117072E+01 0.71820581082E+01
 0.80960020044E+01 0.98016593217E+01 0.13711195149E+02 0.20417607829E+02 0.29163854948E+02
 0.23890737854E+02 0.29332576731E+02 0.32564656878E+02 0.32565992380E+02 0.29334774155E+02
 0.23890566649E+02 0.17863084093E+02 0.12825033168E+02 0.96371186906E+01 0.80954354715E+01
 0.71957338881E+01 0.65732831356E+01 0.62685892647E+01 0.62688101814E+01 0.65734168341E+01
 0.71952992550E+01 0.80954729830E+01 0.96393039147E+01 0.12829149238E+02 0.17866432994E+02
 0.14603002018E+02 0.18072554519E+02 0.20768600296E+02 0.21784049514E+02 0.20766454930E+02
 0.18068340296E+02 0.14597807838E+02 0.11415765182E+02 0.92297185076E+01 0.80207353423E+01
 0.71820462224E+01 0.65734234306E+01 0.62262061578E+01 0.61165366992E+01 0.62265158646E+01
 0.65729613754E+01 0.71804552448E+01 0.80194869010E+01 0.92308666359E+01 0.11419764637E+02
 0.10006447069E+02 0.11639494272E+02 0.13229049910E+02 0.14211989469E+02 0.14209984487E+02
 0.13224558984E+02 0.11635747004E+02 0.10005684568E+02 0.87575397455E+01 0.78842928916E+01
 0.71506196725E+01 0.66043418715E+01 0.62688368541E+01 0.61166456756E+01 0.61168449705E+01
 0.62691044943E+01 0.66038769987E+01 0.71487900744E+01 0.78815203392E+01 0.87555647515E+01
 0.83293586896E+01 0.89699540971E+01 0.96379115799E+01 0.10180380189E+02 0.10390626046E+02
 0.10178898255E+02 0.96374958237E+01 0.89724389568E+01 0.83334919400E+01 0.76997690976E+01
 0.71264904169E+01 0.66900032665E+01 0.64118415431E+01 0.62690715626E+01 0.62266511929E+01
 0.62691182861E+01 0.64125999856E+01 0.66911550984E+01 0.71262517682E+01 0.76969074122E+01
 0.75014556769E+01 0.79007007362E+01 0.82739469300E+01 0.85589165916E+01 0.87157127959E+01
 0.87162367236E+01 0.85607857219E+01 0.82771386482E+01 0.79036892055E+01 0.75020849173E+01
 0.71386754734E+01 0.68624606838E+01 0.66897829146E+01 0.66043562281E+01 0.65735702198E+01
 0.65729744662E+01 0.66037311586E+01 0.66909931464E+01 0.68653506585E+01 0.71408386137E+01
 0.72109461547E+01 0.73382049486E+01 0.75048445944E+01 0.76753728474E+01 0.78046913265E+01
 0.78537775861E+01 0.78064793487E+01 0.76773310271E+01 0.75050625793E+01 0.73360685587E+01
 0.72076971526E+01 0.71384901029E+01 0.71260453818E+01 0.71503499825E+01 0.71820462224E+01
 0.71952398482E+01 0.71802205661E+01 0.71483900254E+01 0.71258986907E+01 0.71407070904E+01
 0.75014423836E+01 0.73383257540E+01 0.72389587031E+01 0.72091481727E+01 0.72257718492E+01
 0.72497106000E+01 0.72503024694E+01 0.72264132703E+01 0.72080166575E+01 0.72361984104E+01
 0.73362792793E+01 0.75021295301E+01 0.76995933585E+01 0.78842339222E+01 0.80209846442E+01
 0.80957887537E+01 0.80952415693E+01 0.80190710568E+01 0.78810146475E+01 0.76965860914E+01
 0.83293358463E+01 0.79009930289E+01 0.75051920789E+01 0.72093160552E+01 0.70332231472E+01
 0.69535674191E+01 0.69329656166E+01 0.69535501826E+01 0.70325006681E+01 0.72081923967E+01
 0.75054636560E+01 0.79039095575E+01 0.83335358985E+01 0.87577744540E+01 0.92301195843E+01
 0.96376477119E+01 0.98015229568E+01 0.96391393572E+01 0.92305262651E+01 0.87552431487E+01
 0.10006420863E+02 0.89702366389E+01 0.82744434844E+01 0.76757893046E+01 0.72259405420E+01
 0.69535659098E+01 0.68329803037E+01 0.68328060373E+01 0.69533272672E+01 0.72263660940E+01
 0.76775189611E+01 0.82771412118E+01 0.89722160414E+01 0.10005696361E+02 0.11415914534E+02
 0.12824727062E+02 0.13709441418E+02 0.13711481129E+02 0.12829275941E+02 0.11419669609E+02
 0.14602978966E+02 0.11639550749E+02 0.96382425925E+01 0.85593556143E+01 0.78049654931E+01
 0.72497305642E+01 0.69328443059E+01 0.68326967191E+01 0.69325645400E+01 0.72501873994E+01
 0.78064793488E+01 0.85605047008E+01 0.96370507886E+01 0.11635572965E+02 0.14597807838E+02
 0.17862494403E+02 0.20416169402E+02 0.21382167487E+02 0.20418355105E+02 0.17866731905E+02
 0.23890722656E+02 0.18072226777E+02 0.13228916974E+02 0.10180569829E+02 0.87159900264E+01
 0.78538808038E+01 0.72501717399E+01 0.69532869805E+01 0.69530655744E+01 0.72500367057E+01
 0.78543144123E+01 0.87159552309E+01 0.10178396410E+02 0.13224826120E+02 0.18068915703E+02
 0.23890593826E+02 0.29166810112E+02 0.32305170678E+02 0.32303822255E+02 0.29164578912E+02
 0.38047112870E+02 0.29331838553E+02 0.20767852023E+02 0.14211725919E+02 0.10390803630E+02
 0.87164918712E+01 0.78065138282E+01 0.72261634575E+01 0.70320758887E+01 0.72259475884E+01
 0.78062396617E+01 0.87159331479E+01 0.10389522746E+02 0.14210219195E+02 0.20768003265E+02
 0.29335303177E+02 0.38052970930E+02 0.44585505643E+02 0.47008830139E+02 0.44580877148E+02
 0.55319255913E+02 0.44694473689E+02 0.32563366515E+02 0.21783287815E+02 0.14209998336E+02
 0.10179344091E+02 0.85611438664E+01 0.76772939722E+01 0.72075884722E+01 0.72075963288E+01
 0.76770654489E+01 0.85604238226E+01 0.10178652606E+02 0.14210496594E+02 0.21785703534E+02
 0.32567190941E+02 0.44698327489E+02 0.55321912114E+02 0.61545235977E+02 0.61544318789E+02
 0.72291346220E+02 0.61604394687E+02 0.47162029753E+02 0.32564877850E+02 0.20766303688E+02
 0.13225176210E+02 0.96382425925E+01 0.82774594874E+01 0.75047910022E+01 0.72355440455E+01
 0.75048445944E+01 0.82769654966E+01 0.96374665448E+01 0.13225576283E+02 0.20768600296E+02
 0.32567366776E+02 0.47161968634E+02 0.61601321619E+02 0.72288158852E+02 0.76239610790E+02
 0.84810793313E+02 0.76259639788E+02 0.61604952824E+02 0.44698882053E+02 0.29334519334E+02
 0.18069044151E+02 0.11636809298E+02 0.89731403355E+01 0.79036738100E+01 0.73354692336E+01
 0.73355591489E+01 0.79036018693E+01 0.89726348782E+01 0.11636578782E+02 0.18069947301E+02
 0.29335786533E+02 0.44698172528E+02 0.61600991074E+02 0.76254454456E+02 0.84808383072E+02
 0.56244591526E+02 0.53351387471E+02 0.45516241797E+02 0.34939281498E+02 0.24338066045E+02
 0.15970070866E+02 0.10874751620E+02 0.85933288401E+01 0.75576635165E+01 0.69021379004E+01
 0.66799562338E+01 0.69021448108E+01 0.75576594660E+01 0.85933108524E+01 0.10874746363E+02
 0.15970103932E+02 0.24338124469E+02 0.34939323046E+02 0.45516243509E+02 0.53351371056E+02
 0.53352913975E+02 0.53351697179E+02 0.47967895144E+02 0.38761506264E+02 0.28243454933E+02
 0.18939877020E+02 0.12501627241E+02 0.91712640968E+01 0.78138679322E+01 0.69955865228E+01