   2   2   0   0
  0.9638209E+01  0.2330000E-09  0.2330000E-09  0.4100000E-09  0.5000000E-15
  1.000000000000000E-004
  CAR 
 unknown system                          
     74.57149509     -5.31044448  301      7.60508814      1.00000000
     -5.310  0.0000E+00  0.0000E+00
     -5.044  0.0000E+00  0.0000E+00
     -4.778  0.0000E+00  0.0000E+00
     -4.512  0.0000E+00  0.0000E+00
     -4.245  0.0000E+00  0.0000E+00
     -3.979  0.0000E+00  0.0000E+00
     -3.713  0.0000E+00  0.0000E+00
     -3.447 -0.1872E-34 -0.4985E-35
     -3.180 -0.4456E-25 -0.1187E-25
     -2.914 -0.2966E-17 -0.7896E-18
     -2.648 -0.5205E-11 -0.1386E-11
     -2.381 -0.2447E-06 -0.6516E-07
     -2.115 -0.2585E-03 -0.6889E-04
     -1.849  0.1617E-03 -0.2582E-04
     -1.583  0.4856E-01  0.1290E-01
     -1.316  0.5507E-01  0.2757E-01
     -1.050  0.8091E-01  0.4911E-01
     -0.784 -0.4037E-02  0.4804E-01
     -0.518 -0.4967E-02  0.4671E-01
     -0.251  0.4344E-01  0.5828E-01
      0.015  0.3965E+00  0.1638E+00
      0.281  0.5695E+00  0.3155E+00
      0.548  0.2137E+00  0.3724E+00
      0.814 -0.3219E-01  0.3638E+00
      1.080  0.1970E+00  0.4163E+00
      1.346  0.6737E+00  0.5956E+00
      1.613 -0.1171E-01  0.5925E+00
      1.879 -0.1560E-01  0.5884E+00
      2.145  0.1247E+00  0.6216E+00
      2.411  0.2533E+01  0.1296E+01
      2.678  0.1931E+01  0.1810E+01
      2.944  0.1756E+01  0.2278E+01
      3.210  0.3354E+01  0.3171E+01
      3.477  0.2365E+01  0.3801E+01
      3.743  0.2241E+01  0.4397E+01
      4.009  0.9707E+00  0.4656E+01
      4.275  0.4335E+01  0.5810E+01
      4.542  0.3852E+01  0.6836E+01
      4.808  0.1803E+01  0.7316E+01
      5.074  0.1818E+01  0.7800E+01
      5.340  0.4097E+01  0.8891E+01
      5.607  0.3790E+01  0.9900E+01
      5.873  0.2645E+01  0.1060E+02
      6.139  0.3377E+01  0.1150E+02
      6.406  0.2566E+01  0.1219E+02
      6.672  0.3907E+01  0.1323E+02
      6.938  0.4388E+01  0.1440E+02
      7.204  0.3861E+01  0.1542E+02
      7.471  0.1378E+01  0.1579E+02
      7.737  0.2014E+01  0.1633E+02
      8.003  0.2997E+01  0.1712E+02
      8.269  0.4178E+01  0.1824E+02
      8.536  0.5251E+01  0.1964E+02
      8.802  0.5396E+01  0.2107E+02
      9.068  0.9891E+00  0.2134E+02
      9.335  0.1090E+01  0.2163E+02
      9.601  0.6499E+00  0.2180E+02
      9.867 -0.2308E-01  0.2179E+02
     10.133 -0.2813E-01  0.2178E+02
     10.400  0.2788E+00  0.2186E+02
     10.666  0.1794E+01  0.2234E+02
     10.932  0.1341E+00  0.2237E+02
     11.198 -0.1710E-01  0.2237E+02
     11.465 -0.4456E-02  0.2237E+02
     11.731  0.4599E-01  0.2238E+02
     11.997  0.3151E+00  0.2246E+02
     12.264 -0.2066E-01  0.2246E+02
     12.530  0.4372E+00  0.2257E+02
     12.796  0.7289E+00  0.2277E+02
     13.062  0.1879E+01  0.2327E+02
     13.329  0.2254E+00  0.2333E+02
     13.595  0.3523E+00  0.2342E+02
     13.861  0.3673E+00  0.2352E+02
     14.127  0.3554E+00  0.2361E+02
     14.394  0.6738E+00  0.2379E+02
     14.660  0.5203E-01  0.2381E+02
     14.926  0.1026E+00  0.2384E+02
     15.193  0.2592E+00  0.2390E+02
     15.459  0.1453E+00  0.2394E+02
     15.725  0.6045E+00  0.2410E+02
     15.991  0.3543E-01  0.2411E+02
     16.258 -0.1194E-01  0.2411E+02
     16.524  0.2807E+00  0.2418E+02
     16.790  0.2458E+00  0.2425E+02
     17.056  0.2611E+00  0.2432E+02
     17.323  0.6245E-01  0.2434E+02
     17.589 -0.1868E-01  0.2433E+02
     17.855  0.8080E+00  0.2455E+02
     18.122  0.1877E+01  0.2505E+02
     18.388  0.2320E+00  0.2511E+02
     18.654  0.5045E-01  0.2512E+02
     18.920  0.9891E+00  0.2538E+02
     19.187  0.5333E+00  0.2553E+02
     19.453  0.9271E+00  0.2577E+02
     19.719  0.8627E+00  0.2600E+02
     19.986  0.6999E+00  0.2619E+02
     20.252  0.1167E+01  0.2650E+02
     20.518  0.1482E+00  0.2654E+02
     20.784  0.6624E+00  0.2672E+02
     21.051  0.5779E+00  0.2687E+02
     21.317 -0.2828E-01  0.2686E+02
     21.583  0.3450E+00  0.2695E+02
     21.849  0.1368E+01  0.2732E+02
     22.116  0.8423E+00  0.2754E+02
     22.382  0.2481E+00  0.2761E+02
     22.648  0.6861E+00  0.2779E+02
     22.915  0.1169E+01  0.2810E+02
     23.181  0.6815E+00  0.2828E+02
     23.447  0.1088E+01  0.2857E+02
     23.713  0.1135E+01  0.2888E+02
     23.980  0.3045E+00  0.2896E+02
     24.246  0.6757E-01  0.2898E+02
     24.512  0.5778E-01  0.2899E+02
     24.778  0.6192E+00  0.2916E+02
     25.045  0.3441E+00  0.2925E+02
     25.311  0.1199E+01  0.2957E+02
     25.577  0.1364E+01  0.2993E+02
     25.844  0.7560E+00  0.3013E+02
     26.110  0.1115E+01  0.3043E+02
     26.376  0.1348E+01  0.3079E+02
     26.642  0.9239E+00  0.3103E+02
     26.909  0.7729E+00  0.3124E+02
     27.175  0.1245E+01  0.3157E+02
     27.441  0.6384E+00  0.3174E+02
     27.707  0.1239E+01  0.3207E+02
     27.974  0.4121E+00  0.3218E+02
     28.240  0.1342E+01  0.3254E+02
     28.506  0.4372E+00  0.3265E+02
     28.773  0.9274E+00  0.3290E+02
     29.039  0.8972E+00  0.3314E+02
     29.305  0.5344E+00  0.3328E+02
     29.571  0.5631E+00  0.3343E+02
     29.838  0.4795E+00  0.3356E+02
     30.104  0.2934E+00  0.3364E+02
     30.370  0.3982E-01  0.3365E+02
     30.636 -0.3979E-01  0.3364E+02
     30.903  0.6946E+00  0.3382E+02
     31.169  0.7806E+00  0.3403E+02
     31.435  0.1462E+01  0.3442E+02
     31.702  0.1202E+01  0.3474E+02
     31.968  0.2207E+01  0.3533E+02
     32.234  0.6055E+00  0.3549E+02
     32.500  0.6135E+00  0.3565E+02
     32.767  0.1665E+01  0.3610E+02
     33.033  0.1514E+01  0.3650E+02
     33.299  0.3104E+00  0.3658E+02
     33.565  0.6185E+00  0.3675E+02
     33.832  0.4628E-01  0.3676E+02
     34.098  0.5957E+00  0.3692E+02
     34.364  0.2170E+01  0.3750E+02
     34.631  0.6956E+00  0.3768E+02
     34.897  0.1209E+01  0.3800E+02
     35.163  0.1895E+00  0.3805E+02
     35.429 -0.5807E-01  0.3804E+02
     35.696  0.5941E+00  0.3820E+02
     35.962  0.9081E+00  0.3844E+02
     36.228  0.3767E+00  0.3854E+02
     36.494  0.5278E+00  0.3868E+02
     36.761  0.5819E+00  0.3883E+02
     37.027  0.9475E+00  0.3909E+02
     37.293  0.9947E+00  0.3935E+02
     37.560  0.1184E+01  0.3967E+02
     37.826  0.5621E-01  0.3968E+02
     38.092  0.1397E+01  0.4005E+02
     38.358  0.1323E+01  0.4040E+02
     38.625  0.9121E+00  0.4065E+02
     38.891  0.8070E-01  0.4067E+02
     39.157  0.2821E+00  0.4074E+02
     39.423  0.6857E+00  0.4093E+02
     39.690  0.1480E+01  0.4132E+02
     39.956  0.1702E+01  0.4177E+02
     40.222  0.2568E+00  0.4184E+02
     40.489  0.3115E+00  0.4193E+02
     40.755  0.1365E+01  0.4229E+02
     41.021  0.1199E+01  0.4261E+02
     41.287  0.3749E+00  0.4271E+02
     41.554  0.5588E+00  0.4286E+02
     41.820  0.1345E+01  0.4321E+02
     42.086  0.1586E+01  0.4364E+02
     42.352  0.7810E+00  0.4385E+02
     42.619  0.8674E+00  0.4408E+02
     42.885  0.2341E+00  0.4414E+02
     43.151  0.7934E+00  0.4435E+02
     43.418  0.9455E+00  0.4460E+02
     43.684  0.1097E+01  0.4489E+02
     43.950  0.1830E+01  0.4538E+02
     44.216  0.5264E+00  0.4552E+02
     44.483  0.1017E+01  0.4579E+02
     44.749  0.6373E+00  0.4596E+02
     45.015  0.1859E+01  0.4646E+02
     45.281  0.4672E+00  0.4658E+02
     45.548  0.1385E+01  0.4695E+02
     45.814  0.1664E+01  0.4739E+02
     46.080  0.6667E+00  0.4757E+02
     46.347  0.4416E+00  0.4769E+02
     46.613  0.1355E+01  0.4805E+02
     46.879  0.8755E+00  0.4828E+02
     47.145  0.1064E+01  0.4856E+02
     47.412  0.1512E+01  0.4897E+02
     47.678  0.7723E+00  0.4917E+02
     47.944  0.9201E+00  0.4942E+02
     48.210  0.1711E+00  0.4946E+02
     48.477  0.1096E+01  0.4976E+02
     48.743  0.3423E+00  0.4985E+02
     49.009 -0.8472E-01  0.4982E+02
     49.276  0.1208E+01  0.5015E+02
     49.542  0.1922E+01  0.5066E+02
     49.808  0.4621E+00  0.5078E+02
     50.074  0.7634E+00  0.5098E+02
     50.341  0.1618E+01  0.5141E+02
     50.607  0.1822E+01  0.5190E+02
     50.873  0.2167E+01  0.5248E+02
     51.139  0.2252E+00  0.5254E+02
     51.406  0.7795E+00  0.5274E+02
     51.672  0.3544E+00  0.5284E+02
     51.938  0.3299E+00  0.5293E+02
     52.205  0.6178E+00  0.5309E+02
     52.471  0.2727E+00  0.5316E+02
     52.737  0.1357E+01  0.5352E+02
     53.003  0.7873E+00  0.5373E+02
     53.270  0.7387E+00  0.5393E+02
     53.536  0.1104E+01  0.5423E+02
     53.802  0.6921E+00  0.5441E+02
     54.068  0.1529E+01  0.5482E+02
     54.335  0.2209E+01  0.5541E+02
     54.601  0.1781E+01  0.5588E+02
     54.867  0.1408E+01  0.5625E+02
     55.134  0.8228E+00  0.5647E+02
     55.400  0.8817E+00  0.5671E+02
     55.666  0.9397E+00  0.5696E+02
     55.932  0.1094E+01  0.5725E+02
     56.199  0.5212E+00  0.5739E+02
     56.465  0.1268E+01  0.5773E+02
     56.731  0.1548E+01  0.5814E+02
     56.997  0.1236E+01  0.5847E+02
     57.264  0.2356E+01  0.5909E+02
     57.530  0.1548E+01  0.5951E+02
     57.796  0.1931E+01  0.6002E+02
     58.063  0.2196E+01  0.6061E+02
     58.329  0.1778E+01  0.6108E+02
     58.595  0.1596E+01  0.6150E+02
     58.861  0.1430E+01  0.6189E+02
     59.128  0.2552E+01  0.6256E+02
     59.394  0.1119E+01  0.6286E+02
     59.660  0.1388E+01  0.6323E+02
     59.926  0.2275E+01  0.6384E+02
     60.193  0.1084E+01  0.6413E+02
     60.459  0.1093E+00  0.6416E+02
     60.725  0.1626E+01  0.6459E+02
     60.992  0.1775E+01  0.6506E+02
     61.258  0.3180E+00  0.6515E+02
     61.524  0.7637E+00  0.6535E+02
     61.790  0.2313E+01  0.6597E+02
     62.057  0.2365E+01  0.6659E+02
     62.323  0.2550E+01  0.6727E+02
     62.589  0.1466E+01  0.6766E+02
     62.855  0.2407E+01  0.6831E+02
     63.122  0.1854E+01  0.6880E+02
     63.388  0.1813E+00  0.6885E+02
     63.654  0.1296E+01  0.6919E+02
     63.921  0.2836E+01  0.6995E+02
     64.187  0.1760E+01  0.7042E+02
     64.453  0.1238E+01  0.7075E+02
     64.719  0.1183E+01  0.7106E+02
     64.986  0.1204E+01  0.7138E+02
     65.252  0.1085E+01  0.7167E+02
     65.518  0.3127E+01  0.7250E+02
     65.784  0.2266E+01  0.7311E+02
     66.051  0.1004E+01  0.7337E+02
     66.317  0.2327E+01  0.7399E+02
     66.583  0.6682E+00  0.7417E+02
     66.850  0.9238E+00  0.7442E+02
     67.116  0.1259E+01  0.7475E+02
     67.382  0.2110E+01  0.7531E+02
     67.648  0.1850E+01  0.7581E+02
     67.915  0.6952E+00  0.7599E+02
     68.181  0.6126E+00  0.7616E+02
     68.447  0.2110E+01  0.7672E+02
     68.713  0.2103E+01  0.7728E+02
     68.980  0.1047E+01  0.7756E+02
     69.246  0.8699E+00  0.7779E+02
     69.512  0.1468E+01  0.7818E+02
     69.779  0.2180E+01  0.7876E+02
     70.045  0.1477E+01  0.7915E+02
     70.311  0.1016E+01  0.7942E+02
     70.577  0.3421E+00  0.7951E+02
     70.844  0.1170E+01  0.7983E+02
     71.110  0.6649E+00  0.8000E+02
     71.376 -0.5564E-02  0.8000E+02
     71.642 -0.3115E-02  0.8000E+02
     71.909 -0.2937E-05  0.8000E+02
     72.175 -0.6246E-10  0.8000E+02
     72.441  0.0000E+00  0.8000E+02
     72.708  0.0000E+00  0.8000E+02
     72.974  0.0000E+00  0.8000E+02
     73.240  0.0000E+00  0.8000E+02
     73.506  0.0000E+00  0.8000E+02
     73.773  0.0000E+00  0.8000E+02
     74.039  0.0000E+00  0.8000E+02
     74.305  0.0000E+00  0.8000E+02
     74.571  0.0000E+00  0.8000E+02
