<?xml version="1.0" encoding="ISO-8859-1"?>
<modeling>
 <generator>
  <i name="program" type="string">vasp </i>
  <i name="version" type="string">6.2.0  </i>
  <i name="subversion" type="string">18Jan21 (build Mar 17 2021 09:06:54) complex                          serial </i>
  <i name="platform" type="string">LinuxIFC </i>
  <i name="date" type="string">2021 09 09 </i>
  <i name="time" type="string">13:51:17 </i>
 </generator>
 <incar>
  <i type="string" name="PREC">normal</i>
  <i type="int" name="ICHARG">     1</i>
  <i type="int" name="IBRION">    -1</i>
  <i name="EDIFF">      0.00000100</i>
  <i type="int" name="NSW">     0</i>
  <i name="ENCUT">    240.00000000</i>
  <i type="int" name="NBANDS">    40</i>
  <i type="int" name="ISMEAR">     1</i>
  <i name="SIGMA">      0.20000000</i>
  <i type="logical" name="LCHARG"> T  </i>
  <i type="int" name="KPAR">     1</i>
  <i type="int" name="NCORE">     1</i>
  <i type="string" name="GGA">PE</i>
 </incar>
 <primitive_cell>
  <structure name="primitive_cell" >
   <crystal>
    <varray name="basis" >
     <v>       2.33000000       0.00000000       0.00000000 </v>
     <v>      -1.16500000       2.01783919       0.00000000 </v>
     <v>       0.00000000       0.00000000       4.10000000 </v>
    </varray>
    <i name="volume">     19.27641779 </i>
    <varray name="rec_basis" >
     <v>       0.42918455       0.24778982       0.00000000 </v>
     <v>       0.00000000       0.49557963       0.00000000 </v>
     <v>       0.00000000       0.00000000       0.24390244 </v>
    </varray>
   </crystal>
   <varray name="positions" >
    <v>       0.00000000       0.00000000       0.00000000 </v>
    <v>       0.33333333       0.66666667       0.50000000 </v>
   </varray>
  </structure>
  <varray name="primitive_index" >
   <v type="int" >        1 </v>
   <v type="int" >        2 </v>
  </varray>
 </primitive_cell>
 <kpoints>
  <generation param="Monkhorst-Pack">
   <v type="int" name="divisions">       5        5        5 </v>
   <v name="usershift">      0.00000000       0.00000000       0.00000000 </v>
   <v name="genvec1">      0.20000000       0.00000000       0.00000000 </v>
   <v name="genvec2">      0.00000000       0.20000000       0.00000000 </v>
   <v name="genvec3">      0.00000000       0.00000000       0.20000000 </v>
   <v name="shift">      0.00000000       0.00000000       0.00000000 </v>
  </generation>
  <varray name="kpointlist" >
   <v>       0.00000000       0.00000000       0.00000000 </v>
   <v>       0.20000000      -0.00000000       0.00000000 </v>
   <v>       0.40000000       0.00000000       0.00000000 </v>
   <v>       0.20000000       0.20000000       0.00000000 </v>
   <v>       0.40000000       0.20000000       0.00000000 </v>
   <v>       0.00000000       0.00000000       0.20000000 </v>
   <v>       0.20000000      -0.00000000       0.20000000 </v>
   <v>       0.40000000       0.00000000       0.20000000 </v>
   <v>       0.20000000       0.20000000       0.20000000 </v>
   <v>       0.40000000       0.20000000       0.20000000 </v>
   <v>       0.00000000       0.00000000       0.40000000 </v>
   <v>       0.20000000      -0.00000000       0.40000000 </v>
   <v>       0.40000000       0.00000000       0.40000000 </v>
   <v>       0.20000000       0.20000000       0.40000000 </v>
   <v>       0.40000000       0.20000000       0.40000000 </v>
  </varray>
  <varray name="weights" >
   <v>       0.00800000 </v>
   <v>       0.04800000 </v>
   <v>       0.04800000 </v>
   <v>       0.04800000 </v>
   <v>       0.04800000 </v>
   <v>       0.01600000 </v>
   <v>       0.09600000 </v>
   <v>       0.09600000 </v>
   <v>       0.09600000 </v>
   <v>       0.09600000 </v>
   <v>       0.01600000 </v>
   <v>       0.09600000 </v>
   <v>       0.09600000 </v>
   <v>       0.09600000 </v>
   <v>       0.09600000 </v>
  </varray>
 </kpoints>
 <parameters>
  <separator name="general" >
   <i type="string" name="SYSTEM">unknown system</i>
   <i type="logical" name="LCOMPAT"> F  </i>
  </separator>
  <separator name="electronic" >
   <i type="string" name="PREC">normal</i>
   <i name="ENMAX">    240.00000000</i>
   <i name="ENAUG">    511.36800000</i>
   <i name="EDIFF">      0.00000100</i>
   <i type="int" name="IALGO">    38</i>
   <i type="int" name="IWAVPR">     0</i>
   <i type="int" name="NBANDS">    40</i>
   <i type="int" name="NBANDSLOW">    -1</i>
   <i type="int" name="NBANDSHIGH">    -1</i>
   <i name="NELECT">     16.00000000</i>
   <i type="int" name="TURBO">     0</i>
   <i type="int" name="IRESTART">     0</i>
   <i type="int" name="NREBOOT">     0</i>
   <i type="int" name="NMIN">     0</i>
   <i name="EREF">      0.00000000</i>
   <separator name="electronic smearing" >
    <i type="int" name="ISMEAR">     1</i>
    <i name="SIGMA">      0.20000000</i>
    <i name="KSPACING">      0.50000000</i>
    <i type="logical" name="KGAMMA"> T  </i>
    <i type="logical" name="KBLOWUP"> T  </i>
   </separator>
   <separator name="electronic projectors" >
    <i type="logical" name="LREAL"> F  </i>
    <v name="ROPT">      0.00000000</v>
    <i type="int" name="LMAXPAW">  -100</i>
    <i type="int" name="LMAXMIX">     2</i>
    <i type="logical" name="NLSPLINE"> F  </i>
   </separator>
   <separator name="electronic startup" >
    <i type="int" name="ISTART">     1</i>
    <i type="int" name="ICHARG">     1</i>
    <i type="int" name="INIWAV">     1</i>
   </separator>
   <separator name="electronic spin" >
    <i type="int" name="ISPIN">     1</i>
    <i type="logical" name="LNONCOLLINEAR"> F  </i>
    <v name="MAGMOM">      1.00000000      1.00000000</v>
    <i name="NUPDOWN">     -1.00000000</i>
    <i type="logical" name="LSORBIT"> F  </i>
    <v name="SAXIS">      0.00000000      0.00000000      1.00000000</v>
    <i type="logical" name="LSPIRAL"> F  </i>
    <v name="QSPIRAL">      0.00000000      0.00000000      0.00000000</v>
    <i type="logical" name="LZEROZ"> F  </i>
   </separator>
   <separator name="electronic exchange-correlation" >
    <i type="logical" name="LASPH"> F  </i>
    <i type="logical" name="LMETAGGA"> F  </i>
   </separator>
   <separator name="electronic convergence" >
    <i type="int" name="NELM">    60</i>
    <i type="int" name="NELMDL">     0</i>
    <i type="int" name="NELMIN">     2</i>
    <i name="ENINI">    240.00000000</i>
    <separator name="electronic convergence detail" >
     <i type="logical" name="LDIAG"> T  </i>
     <i type="logical" name="LSUBROT"> F  </i>
     <i name="WEIMIN">      0.00000000</i>
     <i name="EBREAK">      0.00000001</i>
     <i name="DEPER">      0.30000000</i>
     <i type="int" name="NRMM">     4</i>
     <i name="TIME">      0.40000000</i>
    </separator>
   </separator>
   <separator name="electronic mixer" >
    <i name="AMIX">      0.40000000</i>
    <i name="BMIX">      1.00000000</i>
    <i name="AMIN">      0.10000000</i>
    <i name="AMIX_MAG">      1.60000000</i>
    <i name="BMIX_MAG">      1.00000000</i>
    <separator name="electronic mixer details" >
     <i type="int" name="IMIX">     4</i>
     <i type="logical" name="MIXFIRST"> F  </i>
     <i type="int" name="MAXMIX">   -45</i>
     <i name="WC">    100.00000000</i>
     <i type="int" name="INIMIX">     1</i>
     <i type="int" name="MIXPRE">     1</i>
     <i type="int" name="MREMOVE">     5</i>
    </separator>
   </separator>
   <separator name="electronic dipolcorrection" >
    <i type="logical" name="LDIPOL"> F  </i>
    <i type="logical" name="LMONO"> F  </i>
    <i type="int" name="IDIPOL">     0</i>
    <i name="EPSILON">      1.00000000</i>
    <v name="DIPOL">   -100.00000000   -100.00000000   -100.00000000</v>
    <i name="EFIELD">      0.00000000</i>
   </separator>
  </separator>
  <separator name="grids" >
   <i type="int" name="NGX">    10</i>
   <i type="int" name="NGY">    10</i>
   <i type="int" name="NGZ">    16</i>
   <i type="int" name="NGXF">    20</i>
   <i type="int" name="NGYF">    20</i>
   <i type="int" name="NGZF">    32</i>
   <i type="logical" name="ADDGRID"> F  </i>
  </separator>
  <separator name="ionic" >
   <i type="int" name="NSW">     0</i>
   <i type="int" name="IBRION">    -1</i>
   <i type="int" name="MDALGO">     0</i>
   <i type="int" name="ISIF">     2</i>
   <i name="PSTRESS">      0.00000000</i>
   <i name="EDIFFG">      0.00001000</i>
   <i type="int" name="NFREE">     0</i>
   <i name="POTIM">      0.50000000</i>
   <i name="SMASS">     -3.00000000</i>
   <i name="SCALEE">      1.00000000</i>
  </separator>
  <separator name="ionic md" >
   <i name="TEBEG">      0.00010000</i>
   <i name="TEEND">      0.00010000</i>
   <i type="int" name="NBLOCK">     1</i>
   <i type="int" name="KBLOCK">     1</i>
   <i type="int" name="NPACO">   256</i>
   <i name="APACO">     16.00000000</i>
  </separator>
  <separator name="symmetry" >
   <i type="int" name="ISYM">     2</i>
   <i name="SYMPREC">      0.00001000</i>
  </separator>
  <separator name="dos" >
   <i type="int" name="LORBIT">     0</i>
   <v name="RWIGS">     -1.00000000</v>
   <i type="int" name="NEDOS">   301</i>
   <i name="EMIN">     10.00000000</i>
   <i name="EMAX">    -10.00000000</i>
   <i name="EFERMI">      0.00000000</i>
  </separator>
  <separator name="writing" >
   <i type="int" name="NWRITE">     2</i>
   <i type="logical" name="LWAVE"> T  </i>
   <i type="logical" name="LDOWNSAMPLE"> F  </i>
   <i type="logical" name="LCHARG"> T  </i>
   <i type="logical" name="LPARD"> F  </i>
   <i type="logical" name="LVTOT"> F  </i>
   <i type="logical" name="LVHAR"> F  </i>
   <i type="logical" name="LELF"> F  </i>
   <i type="logical" name="LOPTICS"> F  </i>
   <v name="STM">      0.00000000      0.00000000      0.00000000      0.00000000      0.00000000      0.00000000      0.00000000</v>
  </separator>
  <separator name="performance" >
   <i type="int" name="NPAR">     1</i>
   <i type="int" name="NSIM">     4</i>
   <i type="int" name="NBLK">    -1</i>
   <i type="logical" name="LPLANE"> T  </i>
   <i type="logical" name="LSCALAPACK"> F  </i>
   <i type="logical" name="LSCAAWARE"> F  </i>
   <i type="logical" name="LSCALU"> F  </i>
   <i type="logical" name="LASYNC"> F  </i>
   <i type="logical" name="LORBITALREAL"> F  </i>
  </separator>
  <separator name="miscellaneous" >
   <i type="int" name="IDIOT">     3</i>
   <i type="int" name="PHON_NSTRUCT">    -1</i>
   <i type="logical" name="LMUSIC"> F  </i>
   <v name="POMASS">     55.84700000</v>
   <v name="DARWINR">      0.00000000</v>
   <v name="DARWINV">      1.00000000</v>
   <i type="logical" name="LCORR"> T  </i>
  </separator>
  <i type="logical" name="GGA_COMPAT"> T  </i>
  <i type="logical" name="LBERRY"> F  </i>
  <i type="int" name="ICORELEVEL">     0</i>
  <i type="logical" name="LDAU"> F  </i>
  <i type="int" name="I_CONSTRAINED_M">     0</i>
  <separator name="electronic exchange-correlation" >
   <i type="string" name="GGA">PE</i>
   <i type="int" name="VOSKOWN">     0</i>
   <i type="logical" name="LHFCALC"> F  </i>
   <i type="string" name="PRECFOCK"></i>
   <i type="logical" name="LSYMGRAD"> F  </i>
   <i type="logical" name="LHFONE"> F  </i>
   <i type="logical" name="LRHFCALC"> F  </i>
   <i type="logical" name="LTHOMAS"> F  </i>
   <i type="logical" name="LMODELHF"> F  </i>
   <i type="logical" name="LFOCKACE"> F  </i>
   <i name="ENCUT4O">     -1.00000000</i>
   <i type="int" name="EXXOEP">     0</i>
   <i type="int" name="FOURORBIT">     0</i>
   <i name="AEXX">      0.00000000</i>
   <i name="HFALPHA">      0.00000000</i>
   <i name="MCALPHA">      0.00000000</i>
   <i name="ALDAX">      1.00000000</i>
   <i name="AGGAX">      1.00000000</i>
   <i name="ALDAC">      1.00000000</i>
   <i name="AGGAC">      1.00000000</i>
   <i type="int" name="NKREDX">     1</i>
   <i type="int" name="NKREDY">     1</i>
   <i type="int" name="NKREDZ">     1</i>
   <i type="logical" name="SHIFTRED"> F  </i>
   <i type="logical" name="ODDONLY"> F  </i>
   <i type="logical" name="EVENONLY"> F  </i>
   <i type="int" name="LMAXFOCK">     0</i>
   <i type="int" name="NMAXFOCKAE">     0</i>
   <i type="logical" name="LFOCKAEDFT"> F  </i>
   <i name="HFSCREEN">      0.00000000</i>
   <i name="HFSCREENC">      0.00000000</i>
   <i type="int" name="NBANDSGWLOW">     0</i>
  </separator>
  <separator name="vdW DFT" >
   <i type="logical" name="LUSE_VDW"> F  </i>
   <i name="Zab_VDW">     -0.84910000</i>
   <i name="PARAM1">      0.12340000</i>
   <i name="PARAM2">      1.00000000</i>
   <i name="PARAM3">      0.00000000</i>
  </separator>
  <separator name="model GW" >
   <i type="int" name="MODEL_GW">     0</i>
   <i name="MODEL_EPS0">      5.78292534</i>
   <i name="MODEL_ALPHA">      1.00000000</i>
  </separator>
  <separator name="linear response parameters" >
   <i type="logical" name="LEPSILON"> F  </i>
   <i type="logical" name="LRPA"> F  </i>
   <i type="logical" name="LNABLA"> F  </i>
   <i type="logical" name="LVEL"> F  </i>
   <i type="int" name="KINTER">     0</i>
   <i name="CSHIFT">      0.10000000</i>
   <i name="OMEGAMAX">     -1.00000000</i>
   <i name="DEG_THRESHOLD">      0.00200000</i>
   <i name="RTIME">     -0.10000000</i>
   <i name="WPLASMAI">      0.00000000</i>
   <v name="DFIELD">      0.00000000      0.00000000      0.00000000</v>
   <v name="WPLASMA">      0.00000000      0.00000000      0.00000000      0.00000000      0.00000000      0.00000000      0.00000000      0.00000000      0.00000000</v>
  </separator>
  <separator name="orbital magnetization" >
   <i type="logical" name="NUCIND"> F  </i>
   <v name="MAGPOS">      0.00000000      0.00000000      0.00000000</v>
   <i type="logical" name="LNICSALL"> T  </i>
   <i type="logical" name="ORBITALMAG"> F  </i>
   <i type="logical" name="LMAGBLOCH"> F  </i>
   <i type="logical" name="LCHIMAG"> F  </i>
   <i type="logical" name="LGAUGE"> T  </i>
   <i type="int" name="MAGATOM">     0</i>
   <v name="MAGDIPOL">      0.00000000      0.00000000      0.00000000</v>
   <v name="AVECCONST">      0.00000000      0.00000000      0.00000000</v>
  </separator>
  <separator name="response functions" >
   <i type="logical" name="LFINITE_TEMPERATURE"> F  </i>
   <i type="logical" name="LADDER"> F  </i>
   <i type="logical" name="LRPAFORCE"> F  </i>
   <i type="logical" name="LFXC"> F  </i>
   <i type="logical" name="LHARTREE"> T  </i>
   <i type="int" name="IBSE">     0</i>
   <v type="int" name="KPOINT">    -1     0     0     0</v>
   <i type="logical" name="LTCTC"> F  </i>
   <i type="logical" name="LTCTE"> F  </i>
   <i type="logical" name="LTETE"> F  </i>
   <i type="logical" name="LTRIPLET"> F  </i>
   <i type="logical" name="LFXCEPS"> F  </i>
   <i type="logical" name="LFXHEG"> F  </i>
   <i type="int" name="NATURALO">     2</i>
   <i type="logical" name="LHOLEGF"> F  </i>
   <i type="logical" name="L2ORDER"> F  </i>
   <i type="logical" name="LDMP1"> F  </i>
   <i type="logical" name="LMP2LT"> F  </i>
   <i type="logical" name="LSMP2LT"> F  </i>
   <i type="logical" name="LGWLF"> F  </i>
   <i name="ENCUTGW">     -2.00000000</i>
   <i name="ENCUTGWSOFT">     -2.00000000</i>
   <i name="ENCUTLF">     -1.00000000</i>
   <i type="logical" name="LESF_SPLINES"> F  </i>
   <i type="int" name="LMAXMP2">    -1</i>
   <i name="SCISSOR">      0.00000000</i>
   <i type="int" name="NOMEGA">     0</i>
   <i type="int" name="NOMEGAR">     0</i>
   <i type="int" name="NBANDSGW">    -1</i>
   <i type="int" name="NBANDSO">    -1</i>
   <i type="int" name="NBANDSV">    -1</i>
   <i type="int" name="NELM">     1</i>
   <i type="int" name="NELMHF">     1</i>
   <i type="int" name="DIM">     3</i>
   <i type="int" name="IESPILON">     4</i>
   <i type="int" name="ANTIRES">     0</i>
   <i name="OMEGAMAX">    -30.00000000</i>
   <i name="OMEGAMIN">    -30.00000000</i>
   <i name="OMEGATL">   -200.00000000</i>
   <i type="int" name="OMEGAGRID">     0</i>
   <i name="CSHIFT">     -0.10000000</i>
   <i type="logical" name="LSELFENERGY"> F  </i>
   <i type="logical" name="LSPECTRAL"> F  </i>
   <i type="logical" name="LSPECTRALGW"> F  </i>
   <i type="logical" name="LSINGLES"> F  </i>
   <i type="logical" name="LFERMIGW"> F  </i>
   <i type="logical" name="ODDONLYGW"> F  </i>
   <i type="logical" name="EVENONLYGW"> F  </i>
   <i type="int" name="NKREDLFX">     1</i>
   <i type="int" name="NKREDLFY">     1</i>
   <i type="int" name="NKREDLFZ">     1</i>
   <i type="int" name="MAXMEM">  2800</i>
   <i type="int" name="TELESCOPE">     0</i>
   <i type="int" name="NTAUPAR">    -1</i>
   <i type="int" name="NOMEGAPAR">    -1</i>
   <i name="DAMP_NEWTON">      0.80000001</i>
   <i name="LAMBDA">      1.00000000</i>
  </separator>
  <separator name="External order field" >
   <i name="OFIELD_KAPPA">      0.00000000</i>
   <v name="OFIELD_K">      0.00000000      0.00000000      0.00000000</v>
   <i name="OFIELD_Q6_NEAR">      0.00000000</i>
   <i name="OFIELD_Q6_FAR">      0.00000000</i>
   <i name="OFIELD_A">      0.00000000</i>
  </separator>
 </parameters>
 <atominfo>
  <atoms>       2 </atoms>
  <types>       1 </types>
  <array name="atoms" >
   <dimension dim="1">ion</dimension>
   <field type="string">element</field>
   <field type="int">atomtype</field>
   <set>
    <rc><c>Fe</c><c>   1</c></rc>
    <rc><c>Fe</c><c>   1</c></rc>
   </set>
  </array>
  <array name="atomtypes" >
   <dimension dim="1">type</dimension>
   <field type="int">atomspertype</field>
   <field type="string">element</field>
   <field>mass</field>
   <field>valence</field>
   <field type="string">pseudopotential</field>
   <set>
    <rc><c>   2</c><c>Fe</c><c>     55.84700000</c><c>      8.00000000</c><c>  PAW_PBE Fe 06Sep2000                  </c></rc>
   </set>
  </array>
 </atominfo>
 <structure name="initialpos" >
  <crystal>
   <varray name="basis" >
    <v>       2.33000000       0.00000000       0.00000000 </v>
    <v>      -1.16500000       2.01783919       0.00000000 </v>
    <v>       0.00000000       0.00000000       4.10000000 </v>
   </varray>
   <i name="volume">     19.27641779 </i>
   <varray name="rec_basis" >
    <v>       0.42918455       0.24778982       0.00000000 </v>
    <v>       0.00000000       0.49557963       0.00000000 </v>
    <v>       0.00000000       0.00000000       0.24390244 </v>
   </varray>
  </crystal>
  <varray name="positions" >
   <v>       0.00000000       0.00000000       0.00000000 </v>
   <v>       0.33333333       0.66666667       0.50000000 </v>
  </varray>
 </structure>
 <calculation>
  <scstep>
   <time name="dav">    0.11    0.12</time>
   <time name="total">    0.12    0.13</time>
   <energy>
    <i name="alphaZ">    143.41622339 </i>
    <i name="ewald">  -1249.69361233 </i>
    <i name="hartreedc">   -166.05196499 </i>
    <i name="XCdc">      7.26542217 </i>
    <i name="pawpsdc">   1549.35585588 </i>
    <i name="pawaedc">  -1566.32541153 </i>
    <i name="eentropy">      0.00051791 </i>
    <i name="bandstr">     77.62416367 </i>
    <i name="atom">   1188.42178699 </i>
    <i name="e_fr_energy">    -15.98701884 </i>
    <i name="e_wo_entrp">    -15.98753675 </i>
    <i name="e_0_energy">    -15.98719148 </i>
   </energy>
  </scstep>
  <scstep>
   <time name="dav">    0.08    0.08</time>
   <time name="total">    0.09    0.09</time>
   <energy>
    <i name="e_fr_energy">    -15.98682754 </i>
    <i name="e_wo_entrp">    -15.98720632 </i>
    <i name="e_0_energy">    -15.98695380 </i>
   </energy>
  </scstep>
  <scstep>
   <time name="dav">    0.06    0.06</time>
   <time name="total">    0.07    0.07</time>
   <energy>
    <i name="e_fr_energy">    -15.98684253 </i>
    <i name="e_wo_entrp">    -15.98723049 </i>
    <i name="e_0_energy">    -15.98697185 </i>
   </energy>
  </scstep>
  <scstep>
   <time name="dav">    0.06    0.06</time>
   <time name="total">    0.06    0.06</time>
   <energy>
    <i name="alphaZ">    143.41622339 </i>
    <i name="ewald">  -1249.69361233 </i>
    <i name="hartreedc">   -166.05215296 </i>
    <i name="XCdc">      7.26542757 </i>
    <i name="pawpsdc">   1549.35905112 </i>
    <i name="pawaedc">  -1566.32887139 </i>
    <i name="eentropy">      0.00038690 </i>
    <i name="bandstr">     77.62491766 </i>
    <i name="atom">   1188.42178699 </i>
    <i name="e_fr_energy">    -15.98684305 </i>
    <i name="e_wo_entrp">    -15.98722996 </i>
    <i name="e_0_energy">    -15.98697202 </i>
   </energy>
  </scstep>
  <structure>
   <crystal>
    <varray name="basis" >
     <v>       2.33000000       0.00000000       0.00000000 </v>
     <v>      -1.16500000       2.01783919       0.00000000 </v>
     <v>       0.00000000       0.00000000       4.10000000 </v>
    </varray>
    <i name="volume">     19.27641779 </i>
    <varray name="rec_basis" >
     <v>       0.42918455       0.24778982       0.00000000 </v>
     <v>       0.00000000       0.49557963       0.00000000 </v>
     <v>       0.00000000       0.00000000       0.24390244 </v>
    </varray>
   </crystal>
   <varray name="positions" >
    <v>       0.00000000       0.00000000       0.00000000 </v>
    <v>       0.33333333       0.66666667       0.50000000 </v>
   </varray>
  </structure>
  <varray name="forces" >
   <v>       0.00000000      -0.00000000      -0.00000000 </v>
   <v>      -0.00000000       0.00000000       0.00000000 </v>
  </varray>
  <varray name="stress" >
   <v>     122.32894404      -0.00000000       0.00000000 </v>
   <v>       0.00000000     122.32894404      -0.00000000 </v>
   <v>       0.00000000       0.00000000    -409.91145923 </v>
  </varray>
  <energy>
   <i name="e_fr_energy">    -15.98684305 </i>
   <i name="e_wo_entrp">    -15.98722996 </i>
   <i name="e_0_energy">    -15.98697202 </i>
  </energy>
  <time name="totalsc">    0.40    0.41</time>
  <eigenvalues>
   <array>
    <dimension dim="1">band</dimension>
    <dimension dim="2">kpoint</dimension>
    <dimension dim="3">spin</dimension>
    <field>eigene</field>
    <field>occ</field>
    <set>
     <set comment="spin 1">
      <set comment="kpoint 1">
       <r>   -1.6794    1.0000 </r>
       <r>    2.2057    1.0000 </r>
       <r>    5.1768    1.0000 </r>
       <r>    5.8297    1.0000 </r>
       <r>    5.8297    1.0000 </r>
       <r>    6.1728    1.0000 </r>
       <r>    6.1728    1.0000 </r>
       <r>    6.7976    1.0000 </r>
       <r>    7.2023    1.0076 </r>
       <r>    7.2024    1.0076 </r>
       <r>    8.3137   -0.0000 </r>
       <r>    8.3138   -0.0000 </r>
       <r>   15.3836    0.0000 </r>
       <r>   31.4514    0.0000 </r>
       <r>   31.6531    0.0000 </r>
       <r>   34.5823    0.0000 </r>
       <r>   37.3331    0.0000 </r>
       <r>   37.3331    0.0000 </r>
       <r>   38.1902    0.0000 </r>
       <r>   38.1902    0.0000 </r>
       <r>   39.4617    0.0000 </r>
       <r>   40.7094    0.0000 </r>
       <r>   40.7094    0.0000 </r>
       <r>   41.7428    0.0000 </r>
       <r>   44.8962    0.0000 </r>
       <r>   44.8963    0.0000 </r>
       <r>   45.5094    0.0000 </r>
       <r>   49.1740    0.0000 </r>
       <r>   49.1741    0.0000 </r>
       <r>   50.7249    0.0000 </r>
       <r>   50.7250    0.0000 </r>
       <r>   53.3408    0.0000 </r>
       <r>   61.1906    0.0000 </r>
       <r>   63.1731    0.0000 </r>
       <r>   63.2937    0.0000 </r>
       <r>   63.2938    0.0000 </r>
       <r>   64.7341    0.0000 </r>
       <r>   66.2041    0.0000 </r>
       <r>   66.2043    0.0000 </r>
       <r>   67.8084    0.0000 </r>
      </set>
      <set comment="kpoint 2">
       <r>   -0.1076    1.0000 </r>
       <r>    3.1845    1.0000 </r>
       <r>    4.5544    1.0000 </r>
       <r>    4.9224    1.0000 </r>
       <r>    5.5123    1.0000 </r>
       <r>    6.2959    1.0000 </r>
       <r>    6.5471    1.0000 </r>
       <r>    6.7364    1.0000 </r>
       <r>    6.7566    1.0000 </r>
       <r>    7.0209    1.0001 </r>
       <r>    8.4240   -0.0000 </r>
       <r>   11.8365   -0.0000 </r>
       <r>   15.5180    0.0000 </r>
       <r>   25.7706    0.0000 </r>
       <r>   30.9116    0.0000 </r>
       <r>   31.4010    0.0000 </r>
       <r>   31.5638    0.0000 </r>
       <r>   33.0838    0.0000 </r>
       <r>   37.0608    0.0000 </r>
       <r>   38.5306    0.0000 </r>
       <r>   38.5329    0.0000 </r>
       <r>   39.3889    0.0000 </r>
       <r>   41.8144    0.0000 </r>
       <r>   43.1744    0.0000 </r>
       <r>   46.5927    0.0000 </r>
       <r>   47.9393    0.0000 </r>
       <r>   49.2262    0.0000 </r>
       <r>   51.7497    0.0000 </r>
       <r>   53.2404    0.0000 </r>
       <r>   55.9389    0.0000 </r>
       <r>   56.4624    0.0000 </r>
       <r>   58.4418    0.0000 </r>
       <r>   59.3497    0.0000 </r>
       <r>   59.6021    0.0000 </r>
       <r>   60.0824    0.0000 </r>
       <r>   61.5248    0.0000 </r>
       <r>   64.0670    0.0000 </r>
       <r>   67.4795    0.0000 </r>
       <r>   68.1489    0.0000 </r>
       <r>   68.6395    0.0000 </r>
      </set>
      <set comment="kpoint 3">
       <r>    2.4538    1.0000 </r>
       <r>    2.9556    1.0000 </r>
       <r>    3.1347    1.0000 </r>
       <r>    5.3325    1.0000 </r>
       <r>    5.6045    1.0000 </r>
       <r>    5.9699    1.0000 </r>
       <r>    6.1155    1.0000 </r>
       <r>    8.4686   -0.0000 </r>
       <r>    8.5183   -0.0000 </r>
       <r>    8.6515   -0.0000 </r>
       <r>    8.9660   -0.0000 </r>
       <r>   14.9799    0.0000 </r>
       <r>   16.8068    0.0000 </r>
       <r>   19.2960    0.0000 </r>
       <r>   23.9048    0.0000 </r>
       <r>   26.1121    0.0000 </r>
       <r>   26.4626    0.0000 </r>
       <r>   31.7695    0.0000 </r>
       <r>   34.2277    0.0000 </r>
       <r>   37.0046    0.0000 </r>
       <r>   38.4200    0.0000 </r>
       <r>   40.6221    0.0000 </r>
       <r>   41.7696    0.0000 </r>
       <r>   43.4781    0.0000 </r>
       <r>   49.8732    0.0000 </r>
       <r>   52.8643    0.0000 </r>
       <r>   53.9429    0.0000 </r>
       <r>   57.3020    0.0000 </r>
       <r>   57.8845    0.0000 </r>
       <r>   58.0706    0.0000 </r>
       <r>   58.7622    0.0000 </r>
       <r>   61.2425    0.0000 </r>
       <r>   61.9132    0.0000 </r>
       <r>   61.9186    0.0000 </r>
       <r>   63.8849    0.0000 </r>
       <r>   65.6288    0.0000 </r>
       <r>   66.7617    0.0000 </r>
       <r>   67.7754    0.0000 </r>
       <r>   68.1593    0.0000 </r>
       <r>   68.9821    0.0000 </r>
      </set>
      <set comment="kpoint 4">
       <r>    2.3590    1.0000 </r>
       <r>    3.5595    1.0000 </r>
       <r>    4.0421    1.0000 </r>
       <r>    4.0797    1.0000 </r>
       <r>    5.5162    1.0000 </r>
       <r>    5.6467    1.0000 </r>
       <r>    6.3490    1.0000 </r>
       <r>    6.7660    1.0000 </r>
       <r>    8.2043   -0.0001 </r>
       <r>    8.2798   -0.0000 </r>
       <r>    9.1281   -0.0000 </r>
       <r>   15.6207    0.0000 </r>
       <r>   16.4505    0.0000 </r>
       <r>   21.4792    0.0000 </r>
       <r>   22.3430    0.0000 </r>
       <r>   27.5167    0.0000 </r>
       <r>   28.9064    0.0000 </r>
       <r>   31.0683    0.0000 </r>
       <r>   31.7411    0.0000 </r>
       <r>   38.2488    0.0000 </r>
       <r>   39.9007    0.0000 </r>
       <r>   43.7167    0.0000 </r>
       <r>   44.0639    0.0000 </r>
       <r>   46.4416    0.0000 </r>
       <r>   47.1553    0.0000 </r>
       <r>   49.3135    0.0000 </r>
       <r>   49.6777    0.0000 </r>
       <r>   54.0708    0.0000 </r>
       <r>   56.2191    0.0000 </r>
       <r>   56.9244    0.0000 </r>
       <r>   56.9789    0.0000 </r>
       <r>   61.6194    0.0000 </r>
       <r>   61.6861    0.0000 </r>
       <r>   62.6187    0.0000 </r>
       <r>   64.3772    0.0000 </r>
       <r>   65.6646    0.0000 </r>
       <r>   65.7350    0.0000 </r>
       <r>   67.0535    0.0000 </r>
       <r>   67.7377    0.0000 </r>
       <r>   70.6449    0.0000 </r>
      </set>
      <set comment="kpoint 5">
       <r>    3.2563    1.0000 </r>
       <r>    3.4504    1.0000 </r>
       <r>    3.6313    1.0000 </r>
       <r>    4.9605    1.0000 </r>
       <r>    5.4133    1.0000 </r>
       <r>    5.5181    1.0000 </r>
       <r>    6.2117    1.0000 </r>
       <r>    8.0569   -0.0032 </r>
       <r>    8.0593   -0.0030 </r>
       <r>    8.4085   -0.0000 </r>
       <r>   12.4816   -0.0000 </r>
       <r>   14.3215    0.0000 </r>
       <r>   19.6908    0.0000 </r>
       <r>   20.1451    0.0000 </r>
       <r>   20.8681    0.0000 </r>
       <r>   22.4723    0.0000 </r>
       <r>   25.0830    0.0000 </r>
       <r>   26.9874    0.0000 </r>
       <r>   29.9944    0.0000 </r>
       <r>   40.4157    0.0000 </r>
       <r>   42.5416    0.0000 </r>
       <r>   43.9219    0.0000 </r>
       <r>   45.2445    0.0000 </r>
       <r>   46.2567    0.0000 </r>
       <r>   50.3070    0.0000 </r>
       <r>   50.3512    0.0000 </r>
       <r>   51.4205    0.0000 </r>
       <r>   53.6484    0.0000 </r>
       <r>   55.4583    0.0000 </r>
       <r>   57.8310    0.0000 </r>
       <r>   58.7379    0.0000 </r>
       <r>   59.8936    0.0000 </r>
       <r>   62.1166    0.0000 </r>
       <r>   62.2607    0.0000 </r>
       <r>   67.2223    0.0000 </r>
       <r>   67.5888    0.0000 </r>
       <r>   69.5042    0.0000 </r>
       <r>   69.9267    0.0000 </r>
       <r>   69.9822    0.0000 </r>
       <r>   70.5410    0.0000 </r>
      </set>
      <set comment="kpoint 6">
       <r>   -1.2814    1.0000 </r>
       <r>    2.0463    1.0000 </r>
       <r>    5.0799    1.0000 </r>
       <r>    5.7984    1.0000 </r>
       <r>    5.7984    1.0000 </r>
       <r>    5.9154    1.0000 </r>
       <r>    6.0917    1.0000 </r>
       <r>    6.0917    1.0000 </r>
       <r>    7.3928    1.0304 </r>
       <r>    7.3928    1.0304 </r>
       <r>    8.2646   -0.0000 </r>
       <r>    8.2646   -0.0000 </r>
       <r>   17.0844    0.0000 </r>
       <r>   29.1171    0.0000 </r>
       <r>   31.8446    0.0000 </r>
       <r>   33.8526    0.0000 </r>
       <r>   37.5165    0.0000 </r>
       <r>   37.5166    0.0000 </r>
       <r>   38.2026    0.0000 </r>
       <r>   38.2027    0.0000 </r>
       <r>   40.5574    0.0000 </r>
       <r>   40.5574    0.0000 </r>
       <r>   40.9451    0.0000 </r>
       <r>   42.9205    0.0000 </r>
       <r>   43.5804    0.0000 </r>
       <r>   43.5805    0.0000 </r>
       <r>   47.0123    0.0000 </r>
       <r>   50.2516    0.0000 </r>
       <r>   50.2518    0.0000 </r>
       <r>   52.4598    0.0000 </r>
       <r>   52.4599    0.0000 </r>
       <r>   52.5852    0.0000 </r>
       <r>   58.4885    0.0000 </r>
       <r>   62.2887    0.0000 </r>
       <r>   62.2888    0.0000 </r>
       <r>   62.3888    0.0000 </r>
       <r>   62.3888    0.0000 </r>
       <r>   63.1440    0.0000 </r>
       <r>   64.0751    0.0000 </r>
       <r>   68.0220    0.0000 </r>
      </set>
      <set comment="kpoint 7">
       <r>    0.2268    1.0000 </r>
       <r>    3.1089    1.0000 </r>
       <r>    4.2856    1.0000 </r>
       <r>    5.0165    1.0000 </r>
       <r>    5.3209    1.0000 </r>
       <r>    5.9803    1.0000 </r>
       <r>    6.5580    1.0000 </r>
       <r>    6.8704    1.0000 </r>
       <r>    7.0471    1.0003 </r>
       <r>    7.1757    1.0048 </r>
       <r>    8.3240   -0.0000 </r>
       <r>   10.4490   -0.0000 </r>
       <r>   17.7544    0.0000 </r>
       <r>   26.0569    0.0000 </r>
       <r>   29.6074    0.0000 </r>
       <r>   30.8561    0.0000 </r>
       <r>   31.3820    0.0000 </r>
       <r>   32.7874    0.0000 </r>
       <r>   35.6949    0.0000 </r>
       <r>   37.3877    0.0000 </r>
       <r>   39.1805    0.0000 </r>
       <r>   40.7791    0.0000 </r>
       <r>   43.3737    0.0000 </r>
       <r>   45.6172    0.0000 </r>
       <r>   47.6150    0.0000 </r>
       <r>   47.7319    0.0000 </r>
       <r>   48.3416    0.0000 </r>
       <r>   50.8271    0.0000 </r>
       <r>   52.7100    0.0000 </r>
       <r>   55.6723    0.0000 </r>
       <r>   56.7584    0.0000 </r>
       <r>   57.6364    0.0000 </r>
       <r>   57.9117    0.0000 </r>
       <r>   58.1448    0.0000 </r>
       <r>   61.7724    0.0000 </r>
       <r>   62.9941    0.0000 </r>
       <r>   64.4487    0.0000 </r>
       <r>   64.9083    0.0000 </r>
       <r>   66.1587    0.0000 </r>
       <r>   68.6393    0.0000 </r>
      </set>
      <set comment="kpoint 8">
       <r>    2.2856    1.0000 </r>
       <r>    2.8458    1.0000 </r>
       <r>    3.6010    1.0000 </r>
       <r>    4.4322    1.0000 </r>
       <r>    6.0270    1.0000 </r>
       <r>    6.2983    1.0000 </r>
       <r>    6.9067    1.0000 </r>
       <r>    8.1416   -0.0005 </r>
       <r>    8.5335   -0.0000 </r>
       <r>    8.6730   -0.0000 </r>
       <r>    8.6800   -0.0000 </r>
       <r>   12.9591   -0.0000 </r>
       <r>   17.9920    0.0000 </r>
       <r>   20.1737    0.0000 </r>
       <r>   23.1662    0.0000 </r>
       <r>   27.0791    0.0000 </r>
       <r>   27.5706    0.0000 </r>
       <r>   31.7578    0.0000 </r>
       <r>   34.0392    0.0000 </r>
       <r>   34.2862    0.0000 </r>
       <r>   37.2806    0.0000 </r>
       <r>   41.2775    0.0000 </r>
       <r>   42.0358    0.0000 </r>
       <r>   45.4884    0.0000 </r>
       <r>   49.3522    0.0000 </r>
       <r>   52.0648    0.0000 </r>
       <r>   54.4119    0.0000 </r>
       <r>   56.2702    0.0000 </r>
       <r>   56.4993    0.0000 </r>
       <r>   59.4116    0.0000 </r>
       <r>   59.7498    0.0000 </r>
       <r>   60.7177    0.0000 </r>
       <r>   62.1429    0.0000 </r>
       <r>   63.6636    0.0000 </r>
       <r>   63.8760    0.0000 </r>
       <r>   65.3138    0.0000 </r>
       <r>   66.0389    0.0000 </r>
       <r>   67.0148    0.0000 </r>
       <r>   69.6206    0.0000 </r>
       <r>   69.7752    0.0000 </r>
      </set>
      <set comment="kpoint 9">
       <r>    2.4541    1.0000 </r>
       <r>    3.3860    1.0000 </r>
       <r>    4.1716    1.0000 </r>
       <r>    4.2410    1.0000 </r>
       <r>    5.4766    1.0000 </r>
       <r>    5.5549    1.0000 </r>
       <r>    6.3119    1.0000 </r>
       <r>    7.0478    1.0003 </r>
       <r>    7.8885   -0.0311 </r>
       <r>    8.4282   -0.0000 </r>
       <r>    9.2254   -0.0000 </r>
       <r>   12.9447   -0.0000 </r>
       <r>   19.6048    0.0000 </r>
       <r>   21.8179    0.0000 </r>
       <r>   22.7342    0.0000 </r>
       <r>   26.3414    0.0000 </r>
       <r>   27.4279    0.0000 </r>
       <r>   32.3734    0.0000 </r>
       <r>   32.8834    0.0000 </r>
       <r>   35.7536    0.0000 </r>
       <r>   40.8289    0.0000 </r>
       <r>   43.7968    0.0000 </r>
       <r>   44.3241    0.0000 </r>
       <r>   44.8576    0.0000 </r>
       <r>   47.2615    0.0000 </r>
       <r>   49.4563    0.0000 </r>
       <r>   51.2876    0.0000 </r>
       <r>   53.2348    0.0000 </r>
       <r>   55.0732    0.0000 </r>
       <r>   58.1872    0.0000 </r>
       <r>   59.9797    0.0000 </r>
       <r>   61.5313    0.0000 </r>
       <r>   61.6783    0.0000 </r>
       <r>   62.1690    0.0000 </r>
       <r>   62.9578    0.0000 </r>
       <r>   65.3820    0.0000 </r>
       <r>   65.5474    0.0000 </r>
       <r>   67.1495    0.0000 </r>
       <r>   68.3191    0.0000 </r>
       <r>   68.3588    0.0000 </r>
      </set>
      <set comment="kpoint 10">
       <r>    3.0224    1.0000 </r>
       <r>    3.5435    1.0000 </r>
       <r>    4.1644    1.0000 </r>
       <r>    4.3336    1.0000 </r>
       <r>    5.2179    1.0000 </r>
       <r>    5.9007    1.0000 </r>
       <r>    6.5160    1.0000 </r>
       <r>    7.7089    0.1196 </r>
       <r>    8.0889   -0.0017 </r>
       <r>    8.4921   -0.0000 </r>
       <r>   12.5950   -0.0000 </r>
       <r>   14.1270    0.0000 </r>
       <r>   18.7563    0.0000 </r>
       <r>   19.2917    0.0000 </r>
       <r>   20.7423    0.0000 </r>
       <r>   24.6322    0.0000 </r>
       <r>   25.6256    0.0000 </r>
       <r>   26.6276    0.0000 </r>
       <r>   31.9861    0.0000 </r>
       <r>   38.0552    0.0000 </r>
       <r>   39.7108    0.0000 </r>
       <r>   41.9075    0.0000 </r>
       <r>   45.9899    0.0000 </r>
       <r>   47.2435    0.0000 </r>
       <r>   50.4435    0.0000 </r>
       <r>   50.6793    0.0000 </r>
       <r>   54.0319    0.0000 </r>
       <r>   54.6902    0.0000 </r>
       <r>   57.4576    0.0000 </r>
       <r>   57.6876    0.0000 </r>
       <r>   58.9378    0.0000 </r>
       <r>   59.0217    0.0000 </r>
       <r>   62.4225    0.0000 </r>
       <r>   62.8319    0.0000 </r>
       <r>   65.6099    0.0000 </r>
       <r>   67.3304    0.0000 </r>
       <r>   67.4244    0.0000 </r>
       <r>   69.5453    0.0000 </r>
       <r>   69.5746    0.0000 </r>
       <r>   70.9405    0.0000 </r>
      </set>
      <set comment="kpoint 11">
       <r>   -0.1835    1.0000 </r>
       <r>    1.2067    1.0000 </r>
       <r>    4.8334    1.0000 </r>
       <r>    4.9250    1.0000 </r>
       <r>    5.8040    1.0000 </r>
       <r>    5.8040    1.0000 </r>
       <r>    5.9221    1.0000 </r>
       <r>    5.9221    1.0000 </r>
       <r>    7.7363    0.0565 </r>
       <r>    7.7363    0.0564 </r>
       <r>    8.0750   -0.0022 </r>
       <r>    8.0750   -0.0022 </r>
       <r>   20.7036    0.0000 </r>
       <r>   24.9790    0.0000 </r>
       <r>   31.9602    0.0000 </r>
       <r>   32.6727    0.0000 </r>
       <r>   37.9283    0.0000 </r>
       <r>   37.9284    0.0000 </r>
       <r>   38.1834    0.0000 </r>
       <r>   38.1834    0.0000 </r>
       <r>   40.6482    0.0000 </r>
       <r>   40.6483    0.0000 </r>
       <r>   41.6526    0.0000 </r>
       <r>   41.6527    0.0000 </r>
       <r>   43.6855    0.0000 </r>
       <r>   44.6560    0.0000 </r>
       <r>   49.1708    0.0000 </r>
       <r>   50.8065    0.0000 </r>
       <r>   52.8448    0.0000 </r>
       <r>   52.8449    0.0000 </r>
       <r>   54.6607    0.0000 </r>
       <r>   54.6608    0.0000 </r>
       <r>   55.9511    0.0000 </r>
       <r>   57.7121    0.0000 </r>
       <r>   58.6963    0.0000 </r>
       <r>   58.6965    0.0000 </r>
       <r>   59.9068    0.0000 </r>
       <r>   59.9069    0.0000 </r>
       <r>   65.8513    0.0000 </r>
       <r>   68.6663    0.0000 </r>
      </set>
      <set comment="kpoint 12">
       <r>    1.1451    1.0000 </r>
       <r>    2.3408    1.0000 </r>
       <r>    4.2977    1.0000 </r>
       <r>    4.7872    1.0000 </r>
       <r>    5.2895    1.0000 </r>
       <r>    5.6556    1.0000 </r>
       <r>    6.5560    1.0000 </r>
       <r>    6.7063    1.0000 </r>
       <r>    7.6006    0.5191 </r>
       <r>    7.8165   -0.0301 </r>
       <r>    8.0264   -0.0056 </r>
       <r>    8.8715   -0.0000 </r>
       <r>   21.6995    0.0000 </r>
       <r>   26.1168    0.0000 </r>
       <r>   26.9100    0.0000 </r>
       <r>   28.2776    0.0000 </r>
       <r>   32.7332    0.0000 </r>
       <r>   33.4147    0.0000 </r>
       <r>   34.2994    0.0000 </r>
       <r>   34.8180    0.0000 </r>
       <r>   42.1632    0.0000 </r>
       <r>   43.7765    0.0000 </r>
       <r>   44.9724    0.0000 </r>
       <r>   45.7190    0.0000 </r>
       <r>   46.5291    0.0000 </r>
       <r>   47.0280    0.0000 </r>
       <r>   50.6027    0.0000 </r>
       <r>   50.6525    0.0000 </r>
       <r>   53.4368    0.0000 </r>
       <r>   53.8187    0.0000 </r>
       <r>   54.3507    0.0000 </r>
       <r>   55.2760    0.0000 </r>
       <r>   57.3033    0.0000 </r>
       <r>   59.7818    0.0000 </r>
       <r>   60.7923    0.0000 </r>
       <r>   63.6749    0.0000 </r>
       <r>   63.7696    0.0000 </r>
       <r>   64.9604    0.0000 </r>
       <r>   65.4099    0.0000 </r>
       <r>   67.4109    0.0000 </r>
      </set>
      <set comment="kpoint 13">
       <r>    2.2928    1.0000 </r>
       <r>    2.6221    1.0000 </r>
       <r>    3.8401    1.0000 </r>
       <r>    4.0883    1.0000 </r>
       <r>    6.7092    1.0000 </r>
       <r>    6.8101    1.0000 </r>
       <r>    7.4933    0.9006 </r>
       <r>    7.7838   -0.0103 </r>
       <r>    8.5922   -0.0000 </r>
       <r>    8.6012   -0.0000 </r>
       <r>    8.6516   -0.0000 </r>
       <r>   10.5316   -0.0000 </r>
       <r>   18.9238    0.0000 </r>
       <r>   19.9514    0.0000 </r>
       <r>   25.1385    0.0000 </r>
       <r>   28.0032    0.0000 </r>
       <r>   28.7894    0.0000 </r>
       <r>   31.2927    0.0000 </r>
       <r>   31.8716    0.0000 </r>
       <r>   32.6200    0.0000 </r>
       <r>   36.8754    0.0000 </r>
       <r>   39.5839    0.0000 </r>
       <r>   44.8506    0.0000 </r>
       <r>   46.6835    0.0000 </r>
       <r>   48.4510    0.0000 </r>
       <r>   50.1963    0.0000 </r>
       <r>   54.5360    0.0000 </r>
       <r>   57.0752    0.0000 </r>
       <r>   58.3816    0.0000 </r>
       <r>   58.4301    0.0000 </r>
       <r>   59.6435    0.0000 </r>
       <r>   60.9168    0.0000 </r>
       <r>   64.0418    0.0000 </r>
       <r>   64.3938    0.0000 </r>
       <r>   64.6629    0.0000 </r>
       <r>   65.2332    0.0000 </r>
       <r>   66.1401    0.0000 </r>
       <r>   66.4263    0.0000 </r>
       <r>   68.6503    0.0000 </r>
       <r>   70.7212    0.0000 </r>
      </set>
      <set comment="kpoint 14">
       <r>    2.7183    1.0000 </r>
       <r>    3.0713    1.0000 </r>
       <r>    4.4634    1.0000 </r>
       <r>    4.5629    1.0000 </r>
       <r>    5.2108    1.0000 </r>
       <r>    5.2456    1.0000 </r>
       <r>    6.5500    1.0000 </r>
       <r>    7.1518    1.0031 </r>
       <r>    8.0897   -0.0016 </r>
       <r>    8.6174   -0.0000 </r>
       <r>    9.4067   -0.0000 </r>
       <r>   10.5709   -0.0000 </r>
       <r>   22.7424    0.0000 </r>
       <r>   23.2138    0.0000 </r>
       <r>   23.5721    0.0000 </r>
       <r>   25.3538    0.0000 </r>
       <r>   25.4273    0.0000 </r>
       <r>   28.6878    0.0000 </r>
       <r>   36.2118    0.0000 </r>
       <r>   37.9974    0.0000 </r>
       <r>   39.9033    0.0000 </r>
       <r>   41.6103    0.0000 </r>
       <r>   42.5311    0.0000 </r>
       <r>   43.0661    0.0000 </r>
       <r>   49.2538    0.0000 </r>
       <r>   50.0554    0.0000 </r>
       <r>   52.5641    0.0000 </r>
       <r>   54.8311    0.0000 </r>
       <r>   57.0875    0.0000 </r>
       <r>   58.8768    0.0000 </r>
       <r>   58.9637    0.0000 </r>
       <r>   60.5273    0.0000 </r>
       <r>   61.9438    0.0000 </r>
       <r>   62.0571    0.0000 </r>
       <r>   62.5875    0.0000 </r>
       <r>   62.7505    0.0000 </r>
       <r>   65.4635    0.0000 </r>
       <r>   68.7354    0.0000 </r>
       <r>   69.2099    0.0000 </r>
       <r>   70.0183    0.0000 </r>
      </set>
      <set comment="kpoint 15">
       <r>    3.0317    1.0000 </r>
       <r>    3.3812    1.0000 </r>
       <r>    4.1630    1.0000 </r>
       <r>    4.5851    1.0000 </r>
       <r>    5.1542    1.0000 </r>
       <r>    5.9032    1.0000 </r>
       <r>    6.9423    1.0000 </r>
       <r>    7.1940    1.0067 </r>
       <r>    8.2684   -0.0000 </r>
       <r>    8.5152   -0.0000 </r>
       <r>   12.9538   -0.0000 </r>
       <r>   13.5973    0.0000 </r>
       <r>   17.9299    0.0000 </r>
       <r>   18.0661    0.0000 </r>
       <r>   21.9100    0.0000 </r>
       <r>   23.5026    0.0000 </r>
       <r>   28.0619    0.0000 </r>
       <r>   29.2775    0.0000 </r>
       <r>   34.3267    0.0000 </r>
       <r>   34.7607    0.0000 </r>
       <r>   36.5535    0.0000 </r>
       <r>   39.6833    0.0000 </r>
       <r>   44.4743    0.0000 </r>
       <r>   45.5065    0.0000 </r>
       <r>   54.1895    0.0000 </r>
       <r>   54.1897    0.0000 </r>
       <r>   55.7025    0.0000 </r>
       <r>   56.6081    0.0000 </r>
       <r>   57.1968    0.0000 </r>
       <r>   57.8552    0.0000 </r>
       <r>   59.1786    0.0000 </r>
       <r>   60.6941    0.0000 </r>
       <r>   62.7758    0.0000 </r>
       <r>   63.5647    0.0000 </r>
       <r>   63.9248    0.0000 </r>
       <r>   66.1184    0.0000 </r>
       <r>   66.7080    0.0000 </r>
       <r>   68.3522    0.0000 </r>
       <r>   69.2733    0.0000 </r>
       <r>   70.1575    0.0000 </r>
      </set>
     </set>
    </set>
   </array>
  </eigenvalues>
  <separator name="orbital magnetization" >
   <v name="MAGDIPOLOUT">      0.00000000      0.00000000      0.00000000</v>
  </separator>
  <dos>
   <i name="efermi">      7.60508814 </i>
   <total>
    <array>
     <dimension dim="1">gridpoints</dimension>
     <dimension dim="2">spin</dimension>
     <field>energy</field>
     <field>total</field>
     <field>integrated</field>
     <set>
      <set comment="spin 1">
       <r>    -5.3104     0.0000     0.0000 </r>
       <r>    -5.0442     0.0000     0.0000 </r>
       <r>    -4.7779     0.0000     0.0000 </r>
       <r>    -4.5116     0.0000     0.0000 </r>
       <r>    -4.2454     0.0000     0.0000 </r>
       <r>    -3.9791     0.0000     0.0000 </r>
       <r>    -3.7128     0.0000     0.0000 </r>
       <r>    -3.4465    -0.0000    -0.0000 </r>
       <r>    -3.1803    -0.0000    -0.0000 </r>
       <r>    -2.9140    -0.0000    -0.0000 </r>
       <r>    -2.6477    -0.0000    -0.0000 </r>
       <r>    -2.3814    -0.0000    -0.0000 </r>
       <r>    -2.1152    -0.0003    -0.0001 </r>
       <r>    -1.8489     0.0002    -0.0000 </r>
       <r>    -1.5826     0.0486     0.0129 </r>
       <r>    -1.3163     0.0551     0.0276 </r>
       <r>    -1.0501     0.0809     0.0491 </r>
       <r>    -0.7838    -0.0040     0.0480 </r>
       <r>    -0.5175    -0.0050     0.0467 </r>
       <r>    -0.2513     0.0434     0.0583 </r>
       <r>     0.0150     0.3965     0.1638 </r>
       <r>     0.2813     0.5695     0.3155 </r>
       <r>     0.5476     0.2137     0.3724 </r>
       <r>     0.8138    -0.0322     0.3638 </r>
       <r>     1.0801     0.1970     0.4163 </r>
       <r>     1.3464     0.6737     0.5956 </r>
       <r>     1.6127    -0.0117     0.5925 </r>
       <r>     1.8789    -0.0156     0.5884 </r>
       <r>     2.1452     0.1247     0.6216 </r>
       <r>     2.4115     2.5327     1.2960 </r>
       <r>     2.6777     1.9306     1.8100 </r>
       <r>     2.9440     1.7563     2.2777 </r>
       <r>     3.2103     3.3544     3.1709 </r>
       <r>     3.4766     2.3646     3.8005 </r>
       <r>     3.7428     2.2406     4.3971 </r>
       <r>     4.0091     0.9707     4.6556 </r>
       <r>     4.2754     4.3351     5.8099 </r>
       <r>     4.5417     3.8520     6.8356 </r>
       <r>     4.8079     1.8026     7.3156 </r>
       <r>     5.0742     1.8185     7.7998 </r>
       <r>     5.3405     4.0968     8.8906 </r>
       <r>     5.6068     3.7896     9.8997 </r>
       <r>     5.8730     2.6448    10.6039 </r>
       <r>     6.1393     3.3770    11.5031 </r>
       <r>     6.4056     2.5657    12.1863 </r>
       <r>     6.6718     3.9071    13.2267 </r>
       <r>     6.9381     4.3880    14.3951 </r>
       <r>     7.2044     3.8610    15.4231 </r>
       <r>     7.4707     1.3779    15.7901 </r>
       <r>     7.7369     2.0145    16.3265 </r>
       <r>     8.0032     2.9972    17.1245 </r>
       <r>     8.2695     4.1782    18.2371 </r>
       <r>     8.5358     5.2512    19.6353 </r>
       <r>     8.8020     5.3958    21.0721 </r>
       <r>     9.0683     0.9891    21.3354 </r>
       <r>     9.3346     1.0897    21.6256 </r>
       <r>     9.6009     0.6499    21.7986 </r>
       <r>     9.8671    -0.0231    21.7925 </r>
       <r>    10.1334    -0.0281    21.7850 </r>
       <r>    10.3997     0.2788    21.8592 </r>
       <r>    10.6659     1.7937    22.3369 </r>
       <r>    10.9322     0.1341    22.3726 </r>
       <r>    11.1985    -0.0171    22.3680 </r>
       <r>    11.4648    -0.0045    22.3668 </r>
       <r>    11.7310     0.0460    22.3791 </r>
       <r>    11.9973     0.3151    22.4630 </r>
       <r>    12.2636    -0.0207    22.4575 </r>
       <r>    12.5299     0.4372    22.5739 </r>
       <r>    12.7961     0.7289    22.7680 </r>
       <r>    13.0624     1.8786    23.2682 </r>
       <r>    13.3287     0.2254    23.3282 </r>
       <r>    13.5949     0.3523    23.4220 </r>
       <r>    13.8612     0.3673    23.5198 </r>
       <r>    14.1275     0.3554    23.6144 </r>
       <r>    14.3938     0.6738    23.7938 </r>
       <r>    14.6600     0.0520    23.8077 </r>
       <r>    14.9263     0.1026    23.8350 </r>
       <r>    15.1926     0.2592    23.9040 </r>
       <r>    15.4589     0.1453    23.9427 </r>
       <r>    15.7251     0.6045    24.1037 </r>
       <r>    15.9914     0.0354    24.1131 </r>
       <r>    16.2577    -0.0119    24.1100 </r>
       <r>    16.5240     0.2807    24.1847 </r>
       <r>    16.7902     0.2458    24.2502 </r>
       <r>    17.0565     0.2611    24.3197 </r>
       <r>    17.3228     0.0625    24.3363 </r>
       <r>    17.5890    -0.0187    24.3313 </r>
       <r>    17.8553     0.8080    24.5465 </r>
       <r>    18.1216     1.8767    25.0462 </r>
       <r>    18.3879     0.2320    25.1080 </r>
       <r>    18.6541     0.0504    25.1214 </r>
       <r>    18.9204     0.9891    25.3848 </r>
       <r>    19.1867     0.5333    25.5268 </r>
       <r>    19.4530     0.9271    25.7736 </r>
       <r>    19.7192     0.8627    26.0033 </r>
       <r>    19.9855     0.6999    26.1897 </r>
       <r>    20.2518     1.1675    26.5006 </r>
       <r>    20.5180     0.1482    26.5401 </r>
       <r>    20.7843     0.6624    26.7164 </r>
       <r>    21.0506     0.5779    26.8703 </r>
       <r>    21.3169    -0.0283    26.8628 </r>
       <r>    21.5831     0.3450    26.9547 </r>
       <r>    21.8494     1.3679    27.3189 </r>
       <r>    22.1157     0.8423    27.5432 </r>
       <r>    22.3820     0.2481    27.6093 </r>
       <r>    22.6482     0.6861    27.7919 </r>
       <r>    22.9145     1.1690    28.1032 </r>
       <r>    23.1808     0.6815    28.2847 </r>
       <r>    23.4471     1.0883    28.5745 </r>
       <r>    23.7133     1.1354    28.8768 </r>
       <r>    23.9796     0.3045    28.9579 </r>
       <r>    24.2459     0.0676    28.9759 </r>
       <r>    24.5121     0.0578    28.9912 </r>
       <r>    24.7784     0.6192    29.1561 </r>
       <r>    25.0447     0.3441    29.2477 </r>
       <r>    25.3110     1.1986    29.5669 </r>
       <r>    25.5772     1.3643    29.9302 </r>
       <r>    25.8435     0.7560    30.1315 </r>
       <r>    26.1098     1.1155    30.4285 </r>
       <r>    26.3761     1.3483    30.7875 </r>
       <r>    26.6423     0.9239    31.0335 </r>
       <r>    26.9086     0.7729    31.2393 </r>
       <r>    27.1749     1.2454    31.5709 </r>
       <r>    27.4412     0.6384    31.7409 </r>
       <r>    27.7074     1.2386    32.0707 </r>
       <r>    27.9737     0.4121    32.1805 </r>
       <r>    28.2400     1.3424    32.5379 </r>
       <r>    28.5062     0.4372    32.6543 </r>
       <r>    28.7725     0.9274    32.9012 </r>
       <r>    29.0388     0.8972    33.1401 </r>
       <r>    29.3051     0.5344    33.2824 </r>
       <r>    29.5713     0.5631    33.4324 </r>
       <r>    29.8376     0.4795    33.5600 </r>
       <r>    30.1039     0.2934    33.6382 </r>
       <r>    30.3702     0.0398    33.6488 </r>
       <r>    30.6364    -0.0398    33.6382 </r>
       <r>    30.9027     0.6946    33.8231 </r>
       <r>    31.1690     0.7806    34.0310 </r>
       <r>    31.4352     1.4619    34.4202 </r>
       <r>    31.7015     1.2017    34.7402 </r>
       <r>    31.9678     2.2072    35.3280 </r>
       <r>    32.2341     0.6055    35.4892 </r>
       <r>    32.5003     0.6135    35.6525 </r>
       <r>    32.7666     1.6648    36.0958 </r>
       <r>    33.0329     1.5145    36.4991 </r>
       <r>    33.2992     0.3104    36.5817 </r>
       <r>    33.5654     0.6185    36.7464 </r>
       <r>    33.8317     0.0463    36.7588 </r>
       <r>    34.0980     0.5957    36.9174 </r>
       <r>    34.3643     2.1695    37.4951 </r>
       <r>    34.6305     0.6956    37.6803 </r>
       <r>    34.8968     1.2091    38.0023 </r>
       <r>    35.1631     0.1895    38.0527 </r>
       <r>    35.4293    -0.0581    38.0372 </r>
       <r>    35.6956     0.5941    38.1954 </r>
       <r>    35.9619     0.9081    38.4372 </r>
       <r>    36.2282     0.3767    38.5375 </r>
       <r>    36.4944     0.5278    38.6781 </r>
       <r>    36.7607     0.5819    38.8330 </r>
       <r>    37.0270     0.9475    39.0853 </r>
       <r>    37.2933     0.9947    39.3502 </r>
       <r>    37.5595     1.1844    39.6655 </r>
       <r>    37.8258     0.0562    39.6805 </r>
       <r>    38.0921     1.3974    40.0526 </r>
       <r>    38.3583     1.3227    40.4048 </r>
       <r>    38.6246     0.9121    40.6477 </r>
       <r>    38.8909     0.0807    40.6692 </r>
       <r>    39.1572     0.2821    40.7443 </r>
       <r>    39.4234     0.6857    40.9269 </r>
       <r>    39.6897     1.4795    41.3208 </r>
       <r>    39.9560     1.7020    41.7740 </r>
       <r>    40.2223     0.2568    41.8424 </r>
       <r>    40.4885     0.3115    41.9253 </r>
       <r>    40.7548     1.3649    42.2888 </r>
       <r>    41.0211     1.1990    42.6080 </r>
       <r>    41.2874     0.3749    42.7079 </r>
       <r>    41.5536     0.5588    42.8566 </r>
       <r>    41.8199     1.3452    43.2148 </r>
       <r>    42.0862     1.5863    43.6372 </r>
       <r>    42.3524     0.7810    43.8452 </r>
       <r>    42.6187     0.8674    44.0761 </r>
       <r>    42.8850     0.2341    44.1384 </r>
       <r>    43.1513     0.7934    44.3497 </r>
       <r>    43.4175     0.9455    44.6015 </r>
       <r>    43.6838     1.0967    44.8935 </r>
       <r>    43.9501     1.8303    45.3809 </r>
       <r>    44.2164     0.5264    45.5210 </r>
       <r>    44.4826     1.0166    45.7917 </r>
       <r>    44.7489     0.6373    45.9614 </r>
       <r>    45.0152     1.8592    46.4565 </r>
       <r>    45.2815     0.4672    46.5809 </r>
       <r>    45.5477     1.3848    46.9496 </r>
       <r>    45.8140     1.6638    47.3926 </r>
       <r>    46.0803     0.6667    47.5702 </r>
       <r>    46.3465     0.4416    47.6877 </r>
       <r>    46.6128     1.3551    48.0486 </r>
       <r>    46.8791     0.8755    48.2817 </r>
       <r>    47.1454     1.0636    48.5649 </r>
       <r>    47.4116     1.5117    48.9674 </r>
       <r>    47.6779     0.7723    49.1731 </r>
       <r>    47.9442     0.9201    49.4181 </r>
       <r>    48.2105     0.1711    49.4636 </r>
       <r>    48.4767     1.0955    49.7553 </r>
       <r>    48.7430     0.3423    49.8465 </r>
       <r>    49.0093    -0.0847    49.8239 </r>
       <r>    49.2755     1.2078    50.1455 </r>
       <r>    49.5418     1.9217    50.6572 </r>
       <r>    49.8081     0.4621    50.7803 </r>
       <r>    50.0744     0.7634    50.9835 </r>
       <r>    50.3406     1.6183    51.4144 </r>
       <r>    50.6069     1.8221    51.8996 </r>
       <r>    50.8732     2.1671    52.4766 </r>
       <r>    51.1395     0.2252    52.5366 </r>
       <r>    51.4057     0.7795    52.7442 </r>
       <r>    51.6720     0.3544    52.8385 </r>
       <r>    51.9383     0.3299    52.9264 </r>
       <r>    52.2046     0.6178    53.0909 </r>
       <r>    52.4708     0.2727    53.1635 </r>
       <r>    52.7371     1.3573    53.5249 </r>
       <r>    53.0034     0.7873    53.7346 </r>
       <r>    53.2696     0.7387    53.9313 </r>
       <r>    53.5359     1.1043    54.2253 </r>
       <r>    53.8022     0.6921    54.4096 </r>
       <r>    54.0685     1.5293    54.8168 </r>
       <r>    54.3347     2.2093    55.4051 </r>
       <r>    54.6010     1.7807    55.8793 </r>
       <r>    54.8673     1.4083    56.2543 </r>
       <r>    55.1336     0.8228    56.4734 </r>
       <r>    55.3998     0.8817    56.7081 </r>
       <r>    55.6661     0.9397    56.9584 </r>
       <r>    55.9324     1.0938    57.2496 </r>
       <r>    56.1986     0.5212    57.3884 </r>
       <r>    56.4649     1.2678    57.7260 </r>
       <r>    56.7312     1.5483    58.1383 </r>
       <r>    56.9975     1.2360    58.4674 </r>
       <r>    57.2637     2.3562    59.0948 </r>
       <r>    57.5300     1.5484    59.5071 </r>
       <r>    57.7963     1.9313    60.0213 </r>
       <r>    58.0626     2.1963    60.6062 </r>
       <r>    58.3288     1.7780    61.0796 </r>
       <r>    58.5951     1.5956    61.5045 </r>
       <r>    58.8614     1.4300    61.8852 </r>
       <r>    59.1277     2.5516    62.5647 </r>
       <r>    59.3939     1.1192    62.8627 </r>
       <r>    59.6602     1.3883    63.2323 </r>
       <r>    59.9265     2.2747    63.8380 </r>
       <r>    60.1927     1.0836    64.1266 </r>
       <r>    60.4590     0.1093    64.1557 </r>
       <r>    60.7253     1.6261    64.5887 </r>
       <r>    60.9916     1.7749    65.0613 </r>
       <r>    61.2578     0.3180    65.1460 </r>
       <r>    61.5241     0.7637    65.3493 </r>
       <r>    61.7904     2.3128    65.9651 </r>
       <r>    62.0567     2.3650    66.5949 </r>
       <r>    62.3229     2.5500    67.2739 </r>
       <r>    62.5892     1.4664    67.6643 </r>
       <r>    62.8555     2.4072    68.3053 </r>
       <r>    63.1218     1.8544    68.7991 </r>
       <r>    63.3880     0.1813    68.8474 </r>
       <r>    63.6543     1.2955    69.1924 </r>
       <r>    63.9206     2.8360    69.9475 </r>
       <r>    64.1868     1.7604    70.4163 </r>
       <r>    64.4531     1.2379    70.7459 </r>
       <r>    64.7194     1.1825    71.0608 </r>
       <r>    64.9857     1.2039    71.3813 </r>
       <r>    65.2519     1.0852    71.6703 </r>
       <r>    65.5182     3.1272    72.5030 </r>
       <r>    65.7845     2.2660    73.1063 </r>
       <r>    66.0508     1.0040    73.3737 </r>
       <r>    66.3170     2.3271    73.9933 </r>
       <r>    66.5833     0.6682    74.1712 </r>
       <r>    66.8496     0.9238    74.4172 </r>
       <r>    67.1158     1.2588    74.7524 </r>
       <r>    67.3821     2.1096    75.3141 </r>
       <r>    67.6484     1.8501    75.8068 </r>
       <r>    67.9147     0.6952    75.9919 </r>
       <r>    68.1809     0.6126    76.1550 </r>
       <r>    68.4472     2.1099    76.7168 </r>
       <r>    68.7135     2.1033    77.2769 </r>
       <r>    68.9798     1.0469    77.5557 </r>
       <r>    69.2460     0.8699    77.7873 </r>
       <r>    69.5123     1.4676    78.1781 </r>
       <r>    69.7786     2.1805    78.7587 </r>
       <r>    70.0449     1.4773    79.1521 </r>
       <r>    70.3111     1.0161    79.4226 </r>
       <r>    70.5774     0.3421    79.5137 </r>
       <r>    70.8437     1.1701    79.8253 </r>
       <r>    71.1099     0.6649    80.0023 </r>
       <r>    71.3762    -0.0056    80.0008 </r>
       <r>    71.6425    -0.0031    80.0000 </r>
       <r>    71.9088    -0.0000    80.0000 </r>
       <r>    72.1750    -0.0000    80.0000 </r>
       <r>    72.4413     0.0000    80.0000 </r>
       <r>    72.7076     0.0000    80.0000 </r>
       <r>    72.9739     0.0000    80.0000 </r>
       <r>    73.2401     0.0000    80.0000 </r>
       <r>    73.5064     0.0000    80.0000 </r>
       <r>    73.7727     0.0000    80.0000 </r>
       <r>    74.0389     0.0000    80.0000 </r>
       <r>    74.3052     0.0000    80.0000 </r>
       <r>    74.5715     0.0000    80.0000 </r>
      </set>
     </set>
    </array>
   </total>
  </dos>
 </calculation>
 <structure name="finalpos" >
  <crystal>
   <varray name="basis" >
    <v>       2.33000000       0.00000000       0.00000000 </v>
    <v>      -1.16500000       2.01783919       0.00000000 </v>
    <v>       0.00000000       0.00000000       4.10000000 </v>
   </varray>
   <i name="volume">     19.27641779 </i>
   <varray name="rec_basis" >
    <v>       0.42918455       0.24778982       0.00000000 </v>
    <v>       0.00000000       0.49557963       0.00000000 </v>
    <v>       0.00000000       0.00000000       0.24390244 </v>
   </varray>
  </crystal>
  <varray name="positions" >
   <v>       0.00000000       0.00000000       0.00000000 </v>
   <v>       0.33333333       0.66666667       0.50000000 </v>
  </varray>
 </structure>
</modeling>
