unknown system                          
   1.00000000000000     
     3.573378    0.000000    0.000000
     0.000000    3.573378    0.000000
     0.000000    0.000000    3.573378
   Cu
     4
Direct
  0.000000  0.000000  0.000000
  0.500000  0.500000  0.000000
  0.500000  0.000000  0.500000
  0.000000  0.500000  0.500000
 
   32   32   32
  801.74      757.12      636.99      475.57      312.04      176.88      85.570      38.005      21.132      15.556    
  11.933      9.6819      8.3855      7.7136      7.3021      6.9573      6.8002      6.9573      7.3021      7.7136    
  8.3855      9.6819      11.933      15.556      21.132      38.005      85.570      176.88      312.04      475.57    
  636.99      757.12      757.12      714.81      600.89      447.87      293.05      165.53      79.999      36.029    
  20.701      15.365      11.861      9.6973      8.4563      7.8158      7.4271      7.1041      6.9573      7.1041    
  7.4271      7.8158      8.4563      9.6973      11.861      15.365      20.701      36.029      79.999      165.53    
  293.05      447.87      600.89      714.81      636.99      600.89      503.74      373.44      242.28      135.51    
  65.568      31.111      19.623      14.838      11.669      9.7359      8.6309      8.0553      7.7073      7.4271    
  7.3021      7.4271      7.7073      8.0553      8.6309      9.7359      11.669      14.838      19.623      31.111    
  65.568      135.51      242.28      373.44      503.74      600.89      475.57      447.87      373.44      274.13    
  175.34      96.912      47.877      25.566      18.227      14.096      11.423      9.8102      8.8781      8.3704    
  8.0553      7.8158      7.7136      7.8158      8.0553      8.3704      8.8781      9.8102      11.423      14.096    
  18.227      25.566      47.877      96.912      175.34      274.13      373.44      447.87      312.04      293.05    
  242.28      175.34      110.40      61.187      32.852      21.359      16.617      13.306      11.230      9.9948    
  9.2787      8.8781      8.6309      8.4563      8.3855      8.4563      8.6309      8.8781      9.2787      9.9948    
  11.230      13.306      16.617      21.359      32.852      61.187      110.40      175.34      242.28      293.05    
  176.88      165.53      135.51      96.912      61.187      36.273      23.689      18.548      15.037      12.645    
  11.212      10.410      9.9948      9.8102      9.7359      9.6973      9.6819      9.6973      9.7359      9.8102    
  9.9948      10.410      11.212      12.645      15.037      18.548      23.689      36.273      61.187      96.912    
  135.51      165.53      85.570      79.999      65.568      47.877      32.852      23.689      19.262      16.095    
  13.738      12.265      11.499      11.212      11.230      11.423      11.669      11.861      11.933      11.861    
  11.669      11.423      11.230      11.212      11.499      12.265      13.738      16.095      19.262      23.689    
  32.852      47.877      65.568      79.999      38.005      36.029      31.111      25.566      21.359      18.548    
  16.095      14.157      12.899      12.306      12.265      12.645      13.306      14.096      14.838      15.365    
  15.556      15.365      14.838      14.096      13.306      12.645      12.265      12.306      12.899      14.157    
  16.095      18.548      21.359      25.566      31.111      36.029      21.132      20.701      19.623      18.227    
  16.617      15.037      13.738      12.899      12.611      12.899      13.738      15.037      16.617      18.227    
  19.623      20.701      21.132      20.701      19.623      18.227      16.617      15.037      13.738      12.899    
  12.611      12.899      13.738      15.037      16.617      18.227      19.623      20.701      15.556      15.365    
  14.838      14.096      13.306      12.645      12.265      12.306      12.899      14.157      16.095      18.548    
  21.359      25.566      31.111      36.029      38.005      36.029      31.111      25.566      21.359      18.548    
  16.095      14.157      12.899      12.306      12.265      12.645      13.306      14.096      14.838      15.365    
  11.933      11.861      11.669      11.423      11.230      11.212      11.499      12.265      13.738      16.095    
  19.262      23.689      32.852      47.877      65.568      79.999      85.570      79.999      65.568      47.877    
  32.852      23.689      19.262      16.095      13.738      12.265      11.499      11.212      11.230      11.423    
  11.669      11.861      9.6819      9.6973      9.7359      9.8102      9.9948      10.410      11.212      12.645    
  15.037      18.548      23.689      36.273      61.187      96.912      135.51      165.53      176.88      165.53    
  135.51      96.912      61.187      36.273      23.689      18.548      15.037      12.645      11.212      10.410    
  9.9948      9.8102      9.7359      9.6973      8.3855      8.4563      8.6309      8.8781      9.2787      9.9948    
  11.230      13.306      16.617      21.359      32.852      61.187      110.40      175.34      242.28      293.05    
  312.04      293.05      242.28      175.34      110.40      61.187      32.852      21.359      16.617      13.306    
  11.230      9.9948      9.2787      8.8781      8.6309      8.4563      7.7136      7.8158      8.0553      8.3704    
  8.8781      9.8102      11.423      14.096      18.227      25.566      47.877      96.912      175.34      274.13    
  373.44      447.87      475.57      447.87      373.44      274.13      175.34      96.912      47.877      25.566    
  18.227      14.096      11.423      9.8102      8.8781      8.3704      8.0553      7.8158      7.3021      7.4271    
  7.7073      8.0553      8.6309      9.7359      11.669      14.838      19.623      31.111      65.568      135.51    
  242.28      373.44      503.74      600.89      636.99      600.89      503.74      373.44      242.28      135.51    
  65.568      31.111      19.623      14.838      11.669      9.7359      8.6309      8.0553      7.7073      7.4271    
  6.9573      7.1041      7.4271      7.8158      8.4563      9.6973      11.861      15.365      20.701      36.029    
  79.999      165.53      293.05      447.87      600.89      714.81      757.12      714.81      600.89      447.87    
  293.05      165.53      79.999      36.029      20.701      15.365      11.861      9.6973      8.4563      7.8158    
  7.4271      7.1041      6.8002      6.9573      7.3021      7.7136      8.3855      9.6819      11.933      15.556    
  21.132      38.005      85.570      176.88      312.04      475.57      636.99      757.12      801.74      757.12    
  636.99      475.57      312.04      176.88      85.570      38.005      21.132      15.556      11.933      9.6819    
  8.3855      7.7136      7.3021      6.9573      6.9573      7.1041      7.4271      7.8158      8.4563      9.6973    
  11.861      15.365      20.701      36.029      79.999      165.53      293.05      447.87      600.89      714.81    
  757.12      714.81      600.89      447.87      293.05      165.53      79.999      36.029      20.701      15.365    
  11.861      9.6973      8.4563      7.8158      7.4271      7.1041      7.3021      7.4271      7.7073      8.0553    
  8.6309      9.7359      11.669      14.838      19.623      31.111      65.568      135.51      242.28      373.44    
  503.74      600.89      636.99      600.89      503.74      373.44      242.28      135.51      65.568      31.111    
  19.623      14.838      11.669      9.7359      8.6309      8.0553      7.7073      7.4271      7.7136      7.8158    
  8.0553      8.3704      8.8781      9.8102      11.423      14.096      18.227      25.566      47.877      96.912    
  175.34      274.13      373.44      447.87      475.57      447.87      373.44      274.13      175.34      96.912    
  47.877      25.566      18.227      14.096      11.423      9.8102      8.8781      8.3704      8.0553      7.8158    
  8.3855      8.4563      8.6309      8.8781      9.2787      9.9948      11.230      13.306      16.617      21.359    
  32.852      61.187      110.40      175.34      242.28      293.05      312.04      293.05      242.28      175.34    
  110.40      61.187      32.852      21.359      16.617      13.306      11.230      9.9948      9.2787      8.8781    
  8.6309      8.4563      9.6819      9.6973      9.7359      9.8102      9.9948      10.410      11.212      12.645    
  15.037      18.548      23.689      36.273      61.187      96.912      135.51      165.53      176.88      165.53    
  135.51      96.912      61.187      36.273      23.689      18.548      15.037      12.645      11.212      10.410    
  9.9948      9.8102      9.7359      9.6973      11.933      11.861      11.669      11.423      11.230      11.212    
  11.499      12.265      13.738      16.095      19.262      23.689      32.852      47.877      65.568      79.999    
  85.570      79.999      65.568      47.877      32.852      23.689      19.262      16.095      13.738      12.265    
  11.499      11.212      11.230      11.423      11.669      11.861      15.556      15.365      14.838      14.096    
  13.306      12.645      12.265      12.306      12.899      14.157      16.095      18.548      21.359      25.566    
  31.111      36.029      38.005      36.029      31.111      25.566      21.359      18.548      16.095      14.157    
  12.899      12.306      12.265      12.645      13.306      14.096      14.838      15.365      21.132      20.701    
  19.623      18.227      16.617      15.037      13.738      12.899      12.611      12.899      13.738      15.037    
  16.617      18.227      19.623      20.701      21.132      20.701      19.623      18.227      16.617      15.037    
  13.738      12.899      12.611      12.899      13.738      15.037      16.617      18.227      19.623      20.701    
  38.005      36.029      31.111      25.566      21.359      18.548      16.095      14.157      12.899      12.306    
  12.265      12.645      13.306      14.096      14.838      15.365      15.556      15.365      14.838      14.096    
  13.306      12.645      12.265      12.306      12.899      14.157      16.095      18.548      21.359      25.566    
  31.111      36.029      85.570      79.999      65.568      47.877      32.852      23.689      19.262      16.095    
  13.738      12.265      11.499      11.212      11.230      11.423      11.669      11.861      11.933      11.861    
  11.669      11.423      11.230      11.212      11.499      12.265      13.738      16.095      19.262      23.689    
  32.852      47.877      65.568      79.999      176.88      165.53      135.51      96.912      61.187      36.273    
  23.689      18.548      15.037      12.645      11.212      10.410      9.9948      9.8102      9.7359      9.6973    
  9.6819      9.6973      9.7359      9.8102      9.9948      10.410      11.212      12.645      15.037      18.548    
  23.689      36.273      61.187      96.912      135.51      165.53      312.04      293.05      242.28      175.34    
  110.40      61.187      32.852      21.359      16.617      13.306      11.230      9.9948      9.2787      8.8781    
  8.6309      8.4563      8.3855      8.4563      8.6309      8.8781      9.2787      9.9948      11.230      13.306    
  16.617      21.359      32.852      61.187      110.40      175.34      242.28      293.05      475.57      447.87    
  373.44      274.13      175.34      96.912      47.877      25.566      18.227      14.096      11.423      9.8102    
  8.8781      8.3704      8.0553      7.8158      7.7136      7.8158      8.0553      8.3704      8.8781      9.8102    
  11.423      14.096      18.227      25.566      47.877      96.912      175.34      274.13      373.44      447.87    
  636.99      600.89      503.74      373.44      242.28      135.51      65.568      31.111      19.623      14.838    
  11.669      9.7359      8.6309      8.0553      7.7073      7.4271      7.3021      7.4271      7.7073      8.0553    
  8.6309      9.7359      11.669      14.838      19.623      31.111      65.568      135.51      242.28      373.44    
  503.74      600.89      757.12      714.81      600.89      447.87      293.05      165.53      79.999      36.029    
  20.701      15.365      11.861      9.6973      8.4563      7.8158      7.4271      7.1041      6.9573      7.1041    
  7.4271      7.8158      8.4563      9.6973      11.861      15.365      20.701      36.029      79.999      165.53    
  293.05      447.87      600.89      714.81      757.12      714.81      600.89      447.87      293.05      165.53    
  79.999      36.029      20.701      15.365      11.861      9.6973      8.4563      7.8158      7.4271      7.1041    
  6.9573      7.1041      7.4271      7.8158      8.4563      9.6973      11.861      15.365      20.701      36.029    
  79.999      165.53      293.05      447.87      600.89      714.81      714.81      674.69      566.67      421.64    
  275.11      154.87      74.819      34.227      20.306      15.179      11.791      9.7103      8.5221      7.9112    
  7.5438      7.2412      7.1041      7.2412      7.5438      7.9112      8.5221      9.7103      11.791      15.179    
  20.306      34.227      74.819      154.87      275.11      421.64      566.67      674.69      600.89      566.67    
  474.59      351.18      227.19      126.71      61.432      29.754      19.303      14.664      11.602      9.7438    
  8.6853      8.1358      7.8063      7.5438      7.4271      7.5438      7.8063      8.1358      8.6853      9.7438    
  11.602      14.664      19.303      29.754      61.432      126.71      227.19      351.18      474.59      566.67    
  447.87      421.64      351.18      257.28      164.14      90.607      45.103      24.738      17.950      13.941    
  11.362      9.8121      8.9192      8.4342      8.1358      7.9112      7.8158      7.9112      8.1358      8.4342    
  8.9192      9.8121      11.362      13.941      17.950      24.738      45.103      90.607      164.14      257.28    
  351.18      421.64      293.05      275.11      227.19      164.14      103.22      57.398      31.356      20.928    
  16.378      13.174      11.174      9.9877      9.3017      8.9192      8.6853      8.5221      8.4563      8.5221    
  8.6853      8.9192      9.3017      9.9877      11.174      13.174      16.378      20.928      31.356      57.398    
  103.22      164.14      227.19      275.11      165.53      154.87      126.71      90.607      57.398      34.479    
  23.060      18.248      14.842      12.534      11.155      10.386      9.9877      9.8121      9.7438      9.7103    
  9.6973      9.7103      9.7438      9.8121      9.9877      10.386      11.155      12.534      14.842      18.248    
  23.060      34.479      57.398      90.607      126.71      154.87      79.999      74.819      61.432      45.103    
  31.356      23.060      18.941      15.862      13.586      12.168      11.431      11.155      11.174      11.362    
  11.602      11.791      11.861      11.791      11.602      11.362      11.174      11.155      11.431      12.168    
  13.586      15.862      18.941      23.060      31.356      45.103      61.432      74.819      36.029      34.227    
  29.754      24.738      20.928      18.248      15.862      13.988      12.776      12.205      12.168      12.534    
  13.174      13.941      14.664      15.179      15.365      15.179      14.664      13.941      13.174      12.534    
  12.168      12.205      12.776      13.988      15.862      18.248      20.928      24.738      29.754      34.227    
  20.701      20.306      19.303      17.950      16.378      14.842      13.586      12.776      12.498      12.776    
  13.586      14.842      16.378      17.950      19.303      20.306      20.701      20.306      19.303      17.950    
  16.378      14.842      13.586      12.776      12.498      12.776      13.586      14.842      16.378      17.950    
  19.303      20.306      15.365      15.179      14.664      13.941      13.174      12.534      12.168      12.205    
  12.776      13.988      15.862      18.248      20.928      24.738      29.754      34.227      36.029      34.227    
  29.754      24.738      20.928      18.248      15.862      13.988      12.776      12.205      12.168      12.534    
  13.174      13.941      14.664      15.179      11.861      11.791      11.602      11.362      11.174      11.155    
  11.431      12.168      13.586      15.862      18.941      23.060      31.356      45.103      61.432      74.819    
  79.999      74.819      61.432      45.103      31.356      23.060      18.941      15.862      13.586      12.168    
  11.431      11.155      11.174      11.362      11.602      11.791      9.6973      9.7103      9.7438      9.8121    
  9.9877      10.386      11.155      12.534      14.842      18.248      23.060      34.479      57.398      90.607    
  126.71      154.87      165.53      154.87      126.71      90.607      57.398      34.479      23.060      18.248    
  14.842      12.534      11.155      10.386      9.9877      9.8121      9.7438      9.7103      8.4563      8.5221    
  8.6853      8.9192      9.3017      9.9877      11.174      13.174      16.378      20.928      31.356      57.398    
  103.22      164.14      227.19      275.11      293.05      275.11      227.19      164.14      103.22      57.398    
  31.356      20.928      16.378      13.174      11.174      9.9877      9.3017      8.9192      8.6853      8.5221    
  7.8158      7.9112      8.1358      8.4342      8.9192      9.8121      11.362      13.941      17.950      24.738    
  45.103      90.607      164.14      257.28      351.18      421.64      447.87      421.64      351.18      257.28    
  164.14      90.607      45.103      24.738      17.950      13.941      11.362      9.8121      8.9192      8.4342    
  8.1358      7.9112      7.4271      7.5438      7.8063      8.1358      8.6853      9.7438      11.602      14.664    
  19.303      29.754      61.432      126.71      227.19      351.18      474.59      566.67      600.89      566.67    
  474.59      351.18      227.19      126.71      61.432      29.754      19.303      14.664      11.602      9.7438    
  8.6853      8.1358      7.8063      7.5438      7.1041      7.2412      7.5438      7.9112      8.5221      9.7103    
  11.791      15.179      20.306      34.227      74.819      154.87      275.11      421.64      566.67      674.69    
  714.81      674.69      566.67      421.64      275.11      154.87      74.819      34.227      20.306      15.179    
  11.791      9.7103      8.5221      7.9112      7.5438      7.2412      6.9573      7.1041      7.4271      7.8158    
  8.4563      9.6973      11.861      15.365      20.701      36.029      79.999      165.53      293.05      447.87    
  600.89      714.81      757.12      714.81      600.89      447.87      293.05      165.53      79.999      36.029    
  20.701      15.365      11.861      9.6973      8.4563      7.8158      7.4271      7.1041      7.1041      7.2412    
  7.5438      7.9112      8.5221      9.7103      11.791      15.179      20.306      34.227      74.819      154.87    
  275.11      421.64      566.67      674.69      714.81      674.69      566.67      421.64      275.11      154.87    
  74.819      34.227      20.306      15.179      11.791      9.7103      8.5221      7.9112      7.5438      7.2412    
  7.4271      7.5438      7.8063      8.1358      8.6853      9.7438      11.602      14.664      19.303      29.754    
  61.432      126.71      227.19      351.18      474.59      566.67      600.89      566.67      474.59      351.18    
  227.19      126.71      61.432      29.754      19.303      14.664      11.602      9.7438      8.6853      8.1358    
  7.8063      7.5438      7.8158      7.9112      8.1358      8.4342      8.9192      9.8121      11.362      13.941    
  17.950      24.738      45.103      90.607      164.14      257.28      351.18      421.64      447.87      421.64    
  351.18      257.28      164.14      90.607      45.103      24.738      17.950      13.941      11.362      9.8121    
  8.9192      8.4342      8.1358      7.9112      8.4563      8.5221      8.6853      8.9192      9.3017      9.9877    
  11.174      13.174      16.378      20.928      31.356      57.398      103.22      164.14      227.19      275.11    
  293.05      275.11      227.19      164.14      103.22      57.398      31.356      20.928      16.378      13.174    
  11.174      9.9877      9.3017      8.9192      8.6853      8.5221      9.6973      9.7103      9.7438      9.8121    
  9.9877      10.386      11.155      12.534      14.842      18.248      23.060      34.479      57.398      90.607    
  126.71      154.87      165.53      154.87      126.71      90.607      57.398      34.479      23.060      18.248    
  14.842      12.534      11.155      10.386      9.9877      9.8121      9.7438      9.7103      11.861      11.791    
  11.602      11.362      11.174      11.155      11.431      12.168      13.586      15.862      18.941      23.060    
  31.356      45.103      61.432      74.819      79.999      74.819      61.432      45.103      31.356      23.060    
  18.941      15.862      13.586      12.168      11.431      11.155      11.174      11.362      11.602      11.791    
  15.365      15.179      14.664      13.941      13.174      12.534      12.168      12.205      12.776      13.988    
  15.862      18.248      20.928      24.738      29.754      34.227      36.029      34.227      29.754      24.738    
  20.928      18.248      15.862      13.988      12.776      12.205      12.168      12.534      13.174      13.941    
  14.664      15.179      20.701      20.306      19.303      17.950      16.378      14.842      13.586      12.776    
  12.498      12.776      13.586      14.842      16.378      17.950      19.303      20.306      20.701      20.306    
  19.303      17.950      16.378      14.842      13.586      12.776      12.498      12.776      13.586      14.842    
  16.378      17.950      19.303      20.306      36.029      34.227      29.754      24.738      20.928      18.248    
  15.862      13.988      12.776      12.205      12.168      12.534      13.174      13.941      14.664      15.179    
  15.365      15.179      14.664      13.941      13.174      12.534      12.168      12.205      12.776      13.988    
  15.862      18.248      20.928      24.738      29.754      34.227      79.999      74.819      61.432      45.103    
  31.356      23.060      18.941      15.862      13.586      12.168      11.431      11.155      11.174      11.362    
  11.602      11.791      11.861      11.791      11.602      11.362      11.174      11.155      11.431      12.168    
  13.586      15.862      18.941      23.060      31.356      45.103      61.432      74.819      165.53      154.87    
  126.71      90.607      57.398      34.479      23.060      18.248      14.842      12.534      11.155      10.386    
  9.9877      9.8121      9.7438      9.7103      9.6973      9.7103      9.7438      9.8121      9.9877      10.386    
  11.155      12.534      14.842      18.248      23.060      34.479      57.398      90.607      126.71      154.87    
  293.05      275.11      227.19      164.14      103.22      57.398      31.356      20.928      16.378      13.174    
  11.174      9.9877      9.3017      8.9192      8.6853      8.5221      8.4563      8.5221      8.6853      8.9192    
  9.3017      9.9877      11.174      13.174      16.378      20.928      31.356      57.398      103.22      164.14    
  227.19      275.11      447.87      421.64      351.18      257.28      164.14      90.607      45.103      24.738    
  17.950      13.941      11.362      9.8121      8.9192      8.4342      8.1358      7.9112      7.8158      7.9112    
  8.1358      8.4342      8.9192      9.8121      11.362      13.941      17.950      24.738      45.103      90.607    
  164.14      257.28      351.18      421.64      600.89      566.67      474.59      351.18      227.19      126.71    
  61.432      29.754      19.303      14.664      11.602      9.7438      8.6853      8.1358      7.8063      7.5438    
  7.4271      7.5438      7.8063      8.1358      8.6853      9.7438      11.602      14.664      19.303      29.754    
  61.432      126.71      227.19      351.18      474.59      566.67      714.81      674.69      566.67      421.64    
  275.11      154.87      74.819      34.227      20.306      15.179      11.791      9.7103      8.5221      7.9112    
  7.5438      7.2412      7.1041      7.2412      7.5438      7.9112      8.5221      9.7103      11.791      15.179    
  20.306      34.227      74.819      154.87      275.11      421.64      566.67      674.69      636.99      600.89    
  503.74      373.44      242.28      135.51      65.568      31.111      19.623      14.838      11.669      9.7359    
  8.6309      8.0553      7.7073      7.4271      7.3021      7.4271      7.7073      8.0553      8.6309      9.7359    
  11.669      14.838      19.623      31.111      65.568      135.51      242.28      373.44      503.74      600.89    
  600.89      566.67      474.59      351.18      227.19      126.71      61.432      29.754      19.303      14.664    
  11.602      9.7438      8.6853      8.1358      7.8063      7.5438      7.4271      7.5438      7.8063      8.1358    
  8.6853      9.7438      11.602      14.664      19.303      29.754      61.432      126.71      227.19      351.18    
  474.59      566.67      503.74      474.59      396.22      291.49      186.99      103.55      50.820      26.415    
  18.438      14.184      11.425      9.7661      8.8231      8.3288      8.0337      7.8063      7.7073      7.8063    
  8.0337      8.3288      8.8231      9.7661      11.425      14.184      18.438      26.415      50.820      103.55    
  186.99      291.49      396.22      474.59      373.44      351.18      291.49      212.29      134.48      74.179    
  38.084      22.715      17.170      13.517      11.202      9.8216      9.0278      8.5939      8.3288      8.1358    
  8.0553      8.1358      8.3288      8.5939      9.0278      9.8216      11.202      13.517      17.170      22.715    
  38.084      74.179      134.48      212.29      291.49      351.18      242.28      227.19      186.99      134.48    
  84.425      47.688      27.649      19.820      15.710      12.815      11.028      9.9750      9.3673      9.0278    
  8.8231      8.6853      8.6309      8.6853      8.8231      9.0278      9.3673      9.9750      11.028      12.815    
  15.710      19.820      27.649      47.688      84.425      134.48      186.99      227.19      135.51      126.71    
  103.55      74.179      47.688      30.000      21.498      17.402      14.302      12.233      11.007      10.326    
  9.9750      9.8216      9.7661      9.7438      9.7359      9.7438      9.7661      9.8216      9.9750      10.326    
  11.007      12.233      14.302      17.402      21.498      30.000      47.688      74.179      103.55      126.71    
  65.568      61.432      50.820      38.084      27.649      21.498      18.032      15.212      13.164      11.901    
  11.248      11.007      11.028      11.202      11.425      11.602      11.669      11.602      11.425      11.202    
  11.028      11.007      11.248      11.901      13.164      15.212      18.032      21.498      27.649      38.084    
  50.820      61.432      31.111      29.754      26.415      22.715      19.820      17.402      15.212      13.520    
  12.437      11.931      11.901      12.233      12.815      13.517      14.184      14.664      14.838      14.664    
  14.184      13.517      12.815      12.233      11.901      11.931      12.437      13.520      15.212      17.402    
  19.820      22.715      26.415      29.754      19.623      19.303      18.438      17.170      15.710      14.302    
  13.164      12.437      12.189      12.437      13.164      14.302      15.710      17.170      18.438      19.303    
  19.623      19.303      18.438      17.170      15.710      14.302      13.164      12.437      12.189      12.437    
  13.164      14.302      15.710      17.170      18.438      19.303      14.838      14.664      14.184      13.517    
  12.815      12.233      11.901      11.931      12.437      13.520      15.212      17.402      19.820      22.715    
  26.415      29.754      31.111      29.754      26.415      22.715      19.820      17.402      15.212      13.520    
  12.437      11.931      11.901      12.233      12.815      13.517      14.184      14.664      11.669      11.602    
  11.425      11.202      11.028      11.007      11.248      11.901      13.164      15.212      18.032      21.498    
  27.649      38.084      50.820      61.432      65.568      61.432      50.820      38.084      27.649      21.498    
  18.032      15.212      13.164      11.901      11.248      11.007      11.028      11.202      11.425      11.602    
  9.7359      9.7438      9.7661      9.8216      9.9750      10.326      11.007      12.233      14.302      17.402    
  21.498      30.000      47.688      74.179      103.55      126.71      135.51      126.71      103.55      74.179    
  47.688      30.000      21.498      17.402      14.302      12.233      11.007      10.326      9.9750      9.8216    
  9.7661      9.7438      8.6309      8.6853      8.8231      9.0278      9.3673      9.9750      11.028      12.815    
  15.710      19.820      27.649      47.688      84.425      134.48      186.99      227.19      242.28      227.19    