unknown system                          
   1.00000000000000     
     3.573378    0.000000    0.000000
     0.000000    3.573378    0.000000
     0.000000    0.000000    3.573378
   Cu
     4
Direct
  0.000000  0.000000  0.000000
  0.500000  0.500000  0.000000
  0.500000  0.000000  0.500000
  0.000000  0.500000  0.500000
 
   32   32   32
 0.80174137129E+03 0.75711919883E+03 0.63698761955E+03 0.47556703838E+03 0.31203524565E+03
 0.17687846932E+03 0.85569729632E+02 0.38004861685E+02 0.21131816506E+02 0.15555804276E+02
 0.11932693470E+02 0.96818763150E+01 0.83854711979E+01 0.77135834655E+01 0.73021270868E+01
 0.69572772733E+01 0.68001992591E+01 0.69572772733E+01 0.73021270868E+01 0.77135834655E+01
 0.83854711979E+01 0.96818763150E+01 0.11932693470E+02 0.15555804276E+02 0.21131816506E+02
 0.38004861685E+02 0.85569729632E+02 0.17687846932E+03 0.31203524565E+03 0.47556703838E+03
 0.63698761955E+03 0.75711919883E+03 0.75711919883E+03 0.71480732208E+03 0.60089255559E+03
 0.44786958432E+03 0.29304873683E+03 0.16553160483E+03 0.79998895697E+02 0.36029385491E+02
 0.20700605402E+02 0.15365345085E+02 0.11861354077E+02 0.96972848344E+01 0.84563221654E+01
 0.78158274408E+01 0.74271170826E+01 0.71040595774E+01 0.69572772733E+01 0.71040595774E+01
 0.74271170826E+01 0.78158274408E+01 0.84563221654E+01 0.96972848344E+01 0.11861354077E+02
 0.15365345085E+02 0.20700605402E+02 0.36029385491E+02 0.79998895697E+02 0.16553160483E+03
 0.29304873683E+03 0.44786958432E+03 0.60089255559E+03 0.71480732208E+03 0.63698761955E+03
 0.60089255559E+03 0.50374166374E+03 0.37344357711E+03 0.24227577243E+03 0.13551150245E+03
 0.65568050318E+02 0.31110770625E+02 0.19622613245E+02 0.14838093726E+02 0.11668955448E+02
 0.97359157408E+01 0.86308948266E+01 0.80553315475E+01 0.77072607905E+01 0.74271170826E+01
 0.73021270868E+01 0.74271170826E+01 0.77072607905E+01 0.80553315475E+01 0.86308948266E+01
 0.97359157408E+01 0.11668955448E+02 0.14838093726E+02 0.19622613245E+02 0.31110770625E+02
 0.65568050318E+02 0.13551150245E+03 0.24227577243E+03 0.37344357711E+03 0.50374166374E+03
 0.60089255559E+03 0.47556703838E+03 0.44786958432E+03 0.37344357711E+03 0.27412504590E+03
 0.17534094827E+03 0.96911929865E+02 0.47876914105E+02 0.25565806310E+02 0.18226542661E+02
 0.14095662075E+02 0.11422957530E+02 0.98101819620E+01 0.88780729093E+01 0.83703695593E+01
 0.80553315475E+01 0.78158274408E+01 0.77135834655E+01 0.78158274408E+01 0.80553315475E+01
 0.83703695593E+01 0.88780729093E+01 0.98101819620E+01 0.11422957530E+02 0.14095662075E+02
 0.18226542661E+02 0.25565806310E+02 0.47876914105E+02 0.96911929865E+02 0.17534094827E+03
 0.27412504590E+03 0.37344357711E+03 0.44786958432E+03 0.31203524565E+03 0.29304873683E+03
 0.24227577243E+03 0.17534094827E+03 0.11040028542E+03 0.61187210900E+02 0.32852098795E+02
 0.21358547520E+02 0.16617316004E+02 0.13306322771E+02 0.11229877407E+02 0.99948448077E+01
 0.92786596864E+01 0.88780729093E+01 0.86308948266E+01 0.84563221654E+01 0.83854711979E+01
 0.84563221654E+01 0.86308948266E+01 0.88780729093E+01 0.92786596864E+01 0.99948448077E+01
 0.11229877407E+02 0.13306322771E+02 0.16617316004E+02 0.21358547520E+02 0.32852098795E+02
 0.61187210900E+02 0.11040028542E+03 0.17534094827E+03 0.24227577243E+03 0.29304873683E+03
 0.17687846932E+03 0.16553160483E+03 0.13551150245E+03 0.96911929865E+02 0.61187210900E+02
 0.36272804616E+02 0.23688954650E+02 0.18547612823E+02 0.15037322083E+02 0.12644763293E+02
 0.11211559088E+02 0.10410254454E+02 0.99948448077E+01 0.98101819620E+01 0.97359157408E+01
 0.96972848344E+01 0.96818763150E+01 0.96972848344E+01 0.97359157408E+01 0.98101819620E+01
 0.99948448077E+01 0.10410254454E+02 0.11211559088E+02 0.12644763293E+02 0.15037322083E+02
 0.18547612823E+02 0.23688954650E+02 0.36272804616E+02 0.61187210900E+02 0.96911929865E+02
 0.13551150245E+03 0.16553160483E+03 0.85569729632E+02 0.79998895697E+02 0.65568050318E+02
 0.47876914105E+02 0.32852098795E+02 0.23688954650E+02 0.19262028257E+02 0.16094706740E+02
 0.13738427669E+02 0.12265460599E+02 0.11498939610E+02 0.11211559088E+02 0.11229877407E+02
 0.11422957530E+02 0.11668955448E+02 0.11861354077E+02 0.11932693470E+02 0.11861354077E+02
 0.11668955448E+02 0.11422957530E+02 0.11229877407E+02 0.11211559088E+02 0.11498939610E+02
 0.12265460599E+02 0.13738427669E+02 0.16094706740E+02 0.19262028257E+02 0.23688954650E+02
 0.32852098795E+02 0.47876914105E+02 0.65568050318E+02 0.79998895697E+02 0.38004861685E+02
 0.36029385491E+02 0.31110770625E+02 0.25565806310E+02 0.21358547520E+02 0.18547612823E+02
 0.16094706740E+02 0.14157049010E+02 0.12898934597E+02 0.12305532913E+02 0.12265460599E+02
 0.12644763293E+02 0.13306322771E+02 0.14095662075E+02 0.14838093726E+02 0.15365345085E+02
 0.15555804276E+02 0.15365345085E+02 0.14838093726E+02 0.14095662075E+02 0.13306322771E+02
 0.12644763293E+02 0.12265460599E+02 0.12305532913E+02 0.12898934597E+02 0.14157049010E+02
 0.16094706740E+02 0.18547612823E+02 0.21358547520E+02 0.25565806310E+02 0.31110770625E+02
 0.36029385491E+02 0.21131816506E+02 0.20700605402E+02 0.19622613245E+02 0.18226542661E+02
 0.16617316004E+02 0.15037322083E+02 0.13738427669E+02 0.12898934597E+02 0.12610513574E+02
 0.12898934597E+02 0.13738427669E+02 0.15037322083E+02 0.16617316004E+02 0.18226542661E+02
 0.19622613245E+02 0.20700605402E+02 0.21131816506E+02 0.20700605402E+02 0.19622613245E+02
 0.18226542661E+02 0.16617316004E+02 0.15037322083E+02 0.13738427669E+02 0.12898934597E+02
 0.12610513574E+02 0.12898934597E+02 0.13738427669E+02 0.15037322083E+02 0.16617316004E+02
 0.18226542661E+02 0.19622613245E+02 0.20700605402E+02 0.15555804276E+02 0.15365345085E+02
 0.14838093726E+02 0.14095662075E+02 0.13306322771E+02 0.12644763293E+02 0.12265460599E+02
 0.12305532913E+02 0.12898934597E+02 0.14157049010E+02 0.16094706740E+02 0.18547612823E+02
 0.21358547520E+02 0.25565806310E+02 0.31110770625E+02 0.36029385491E+02 0.38004861685E+02
 0.36029385491E+02 0.31110770625E+02 0.25565806310E+02 0.21358547520E+02 0.18547612823E+02
 0.16094706740E+02 0.14157049010E+02 0.12898934597E+02 0.12305532913E+02 0.12265460599E+02
 0.12644763293E+02 0.13306322771E+02 0.14095662075E+02 0.14838093726E+02 0.15365345085E+02
 0.11932693470E+02 0.11861354077E+02 0.11668955448E+02 0.11422957530E+02 0.11229877407E+02
 0.11211559088E+02 0.11498939610E+02 0.12265460599E+02 0.13738427669E+02 0.16094706740E+02
 0.19262028257E+02 0.23688954650E+02 0.32852098795E+02 0.47876914105E+02 0.65568050318E+02
 0.79998895697E+02 0.85569729632E+02 0.79998895697E+02 0.65568050318E+02 0.47876914105E+02
 0.32852098795E+02 0.23688954650E+02 0.19262028257E+02 0.16094706740E+02 0.13738427669E+02
 0.12265460599E+02 0.11498939610E+02 0.11211559088E+02 0.11229877407E+02 0.11422957530E+02
 0.11668955448E+02 0.11861354077E+02 0.96818763150E+01 0.96972848344E+01 0.97359157408E+01
 0.98101819620E+01 0.99948448077E+01 0.10410254454E+02 0.11211559088E+02 0.12644763293E+02
 0.15037322083E+02 0.18547612823E+02 0.23688954650E+02 0.36272804616E+02 0.61187210900E+02
 0.96911929865E+02 0.13551150245E+03 0.16553160483E+03 0.17687846932E+03 0.16553160483E+03
 0.13551150245E+03 0.96911929865E+02 0.61187210900E+02 0.36272804616E+02 0.23688954650E+02
 0.18547612823E+02 0.15037322083E+02 0.12644763293E+02 0.11211559088E+02 0.10410254454E+02
 0.99948448077E+01 0.98101819620E+01 0.97359157408E+01 0.96972848344E+01 0.83854711979E+01
 0.84563221654E+01 0.86308948266E+01 0.88780729093E+01 0.92786596864E+01 0.99948448077E+01
 0.11229877407E+02 0.13306322771E+02 0.16617316004E+02 0.21358547520E+02 0.32852098795E+02
 0.61187210900E+02 0.11040028542E+03 0.17534094827E+03 0.24227577243E+03 0.29304873683E+03
 0.31203524565E+03 0.29304873683E+03 0.24227577243E+03 0.17534094827E+03 0.11040028542E+03
 0.61187210900E+02 0.32852098795E+02 0.21358547520E+02 0.16617316004E+02 0.13306322771E+02
 0.11229877407E+02 0.99948448077E+01 0.92786596864E+01 0.88780729093E+01 0.86308948266E+01
 0.84563221654E+01 0.77135834655E+01 0.78158274408E+01 0.80553315475E+01 0.83703695593E+01
 0.88780729093E+01 0.98101819620E+01 0.11422957530E+02 0.14095662075E+02 0.18226542661E+02
 0.25565806310E+02 0.47876914105E+02 0.96911929865E+02 0.17534094827E+03 0.27412504590E+03
 0.37344357711E+03 0.44786958432E+03 0.47556703838E+03 0.44786958432E+03 0.37344357711E+03
 0.27412504590E+03 0.17534094827E+03 0.96911929865E+02 0.47876914105E+02 0.25565806310E+02
 0.18226542661E+02 0.14095662075E+02 0.11422957530E+02 0.98101819620E+01 0.88780729093E+01
 0.83703695593E+01 0.80553315475E+01 0.78158274408E+01 0.73021270868E+01 0.74271170826E+01
 0.77072607905E+01 0.80553315475E+01 0.86308948266E+01 0.97359157408E+01 0.11668955448E+02
 0.14838093726E+02 0.19622613245E+02 0.31110770625E+02 0.65568050318E+02 0.13551150245E+03
 0.24227577243E+03 0.37344357711E+03 0.50374166374E+03 0.60089255559E+03 0.63698761955E+03
 0.60089255559E+03 0.50374166374E+03 0.37344357711E+03 0.24227577243E+03 0.13551150245E+03
 0.65568050318E+02 0.31110770625E+02 0.19622613245E+02 0.14838093726E+02 0.11668955448E+02
 0.97359157408E+01 0.86308948266E+01 0.80553315475E+01 0.77072607905E+01 0.74271170826E+01
 0.69572772733E+01 0.71040595774E+01 0.74271170826E+01 0.78158274408E+01 0.84563221654E+01
 0.96972848344E+01 0.11861354077E+02 0.15365345085E+02 0.20700605402E+02 0.36029385491E+02
 0.79998895697E+02 0.16553160483E+03 0.29304873683E+03 0.44786958432E+03 0.60089255559E+03
 0.71480732208E+03 0.75711919883E+03 0.71480732208E+03 0.60089255559E+03 0.44786958432E+03
 0.29304873683E+03 0.16553160483E+03 0.79998895697E+02 0.36029385491E+02 0.20700605402E+02
 0.15365345085E+02 0.11861354077E+02 0.96972848344E+01 0.84563221654E+01 0.78158274408E+01
 0.74271170826E+01 0.71040595774E+01 0.68001992591E+01 0.69572772733E+01 0.73021270868E+01
 0.77135834655E+01 0.83854711979E+01 0.96818763150E+01 0.11932693470E+02 0.15555804276E+02
 0.21131816506E+02 0.38004861685E+02 0.85569729632E+02 0.17687846932E+03 0.31203524565E+03
 0.47556703838E+03 0.63698761955E+03 0.75711919883E+03 0.80174137129E+03 0.75711919883E+03
 0.63698761955E+03 0.47556703838E+03 0.31203524565E+03 0.17687846932E+03 0.85569729632E+02
 0.38004861685E+02 0.21131816506E+02 0.15555804276E+02 0.11932693470E+02 0.96818763150E+01
 0.83854711979E+01 0.77135834655E+01 0.73021270868E+01 0.69572772733E+01 0.69572772733E+01
 0.71040595774E+01 0.74271170826E+01 0.78158274408E+01 0.84563221654E+01 0.96972848344E+01
 0.11861354077E+02 0.15365345085E+02 0.20700605402E+02 0.36029385491E+02 0.79998895697E+02
 0.16553160483E+03 0.29304873683E+03 0.44786958432E+03 0.60089255559E+03 0.71480732208E+03
 0.75711919883E+03 0.71480732208E+03 0.60089255559E+03 0.44786958432E+03 0.29304873683E+03
 0.16553160483E+03 0.79998895697E+02 0.36029385491E+02 0.20700605402E+02 0.15365345085E+02
 0.11861354077E+02 0.96972848344E+01 0.84563221654E+01 0.78158274408E+01 0.74271170826E+01
 0.71040595774E+01 0.73021270868E+01 0.74271170826E+01 0.77072607905E+01 0.80553315475E+01
 0.86308948266E+01 0.97359157408E+01 0.11668955448E+02 0.14838093726E+02 0.19622613245E+02
 0.31110770625E+02 0.65568050318E+02 0.13551150245E+03 0.24227577243E+03 0.37344357711E+03
 0.50374166374E+03 0.60089255559E+03 0.63698761955E+03 0.60089255559E+03 0.50374166374E+03
 0.37344357711E+03 0.24227577243E+03 0.13551150245E+03 0.65568050318E+02 0.31110770625E+02
 0.19622613245E+02 0.14838093726E+02 0.11668955448E+02 0.97359157408E+01 0.86308948266E+01
 0.80553315475E+01 0.77072607905E+01 0.74271170826E+01 0.77135834655E+01 0.78158274408E+01
 0.80553315475E+01 0.83703695593E+01 0.88780729093E+01 0.98101819620E+01 0.11422957530E+02
 0.14095662075E+02 0.18226542661E+02 0.25565806310E+02 0.47876914105E+02 0.96911929865E+02
 0.17534094827E+03 0.27412504590E+03 0.37344357711E+03 0.44786958432E+03 0.47556703838E+03
 0.44786958432E+03 0.37344357711E+03 0.27412504590E+03 0.17534094827E+03 0.96911929865E+02
 0.47876914105E+02 0.25565806310E+02 0.18226542661E+02 0.14095662075E+02 0.11422957530E+02
 0.98101819620E+01 0.88780729093E+01 0.83703695593E+01 0.80553315475E+01 0.78158274408E+01
 0.83854711979E+01 0.84563221654E+01 0.86308948266E+01 0.88780729093E+01 0.92786596864E+01
 0.99948448077E+01 0.11229877407E+02 0.13306322771E+02 0.16617316004E+02 0.21358547520E+02
 0.32852098795E+02 0.61187210900E+02 0.11040028542E+03 0.17534094827E+03 0.24227577243E+03
 0.29304873683E+03 0.31203524565E+03 0.29304873683E+03 0.24227577243E+03 0.17534094827E+03
 0.11040028542E+03 0.61187210900E+02 0.32852098795E+02 0.21358547520E+02 0.16617316004E+02
 0.13306322771E+02 0.11229877407E+02 0.99948448077E+01 0.92786596864E+01 0.88780729093E+01
 0.86308948266E+01 0.84563221654E+01 0.96818763150E+01 0.96972848344E+01 0.97359157408E+01
 0.98101819620E+01 0.99948448077E+01 0.10410254454E+02 0.11211559088E+02 0.12644763293E+02
 0.15037322083E+02 0.18547612823E+02 0.23688954650E+02 0.36272804616E+02 0.61187210900E+02
 0.96911929865E+02 0.13551150245E+03 0.16553160483E+03 0.17687846932E+03 0.16553160483E+03
 0.13551150245E+03 0.96911929865E+02 0.61187210900E+02 0.36272804616E+02 0.23688954650E+02
 0.18547612823E+02 0.15037322083E+02 0.12644763293E+02 0.11211559088E+02 0.10410254454E+02
 0.99948448077E+01 0.98101819620E+01 0.97359157408E+01 0.96972848344E+01 0.11932693470E+02
 0.11861354077E+02 0.11668955448E+02 0.11422957530E+02 0.11229877407E+02 0.11211559088E+02
 0.11498939610E+02 0.12265460599E+02 0.13738427669E+02 0.16094706740E+02 0.19262028257E+02
 0.23688954650E+02 0.32852098795E+02 0.47876914105E+02 0.65568050318E+02 0.79998895697E+02
 0.85569729632E+02 0.79998895697E+02 0.65568050318E+02 0.47876914105E+02 0.32852098795E+02
 0.23688954650E+02 0.19262028257E+02 0.16094706740E+02 0.13738427669E+02 0.12265460599E+02
 0.11498939610E+02 0.11211559088E+02 0.11229877407E+02 0.11422957530E+02 0.11668955448E+02
 0.11861354077E+02 0.15555804276E+02 0.15365345085E+02 0.14838093726E+02 0.14095662075E+02
 0.13306322771E+02 0.12644763293E+02 0.12265460599E+02 0.12305532913E+02 0.12898934597E+02
 0.14157049010E+02 0.16094706740E+02 0.18547612823E+02 0.21358547520E+02 0.25565806310E+02
 0.31110770625E+02 0.36029385491E+02 0.38004861685E+02 0.36029385491E+02 0.31110770625E+02
 0.25565806310E+02 0.21358547520E+02 0.18547612823E+02 0.16094706740E+02 0.14157049010E+02
 0.12898934597E+02 0.12305532913E+02 0.12265460599E+02 0.12644763293E+02 0.13306322771E+02
 0.14095662075E+02 0.14838093726E+02 0.15365345085E+02 0.21131816506E+02 0.20700605402E+02
 0.19622613245E+02 0.18226542661E+02 0.16617316004E+02 0.15037322083E+02 0.13738427669E+02
 0.12898934597E+02 0.12610513574E+02 0.12898934597E+02 0.13738427669E+02 0.15037322083E+02
 0.16617316004E+02 0.18226542661E+02 0.19622613245E+02 0.20700605402E+02 0.21131816506E+02
 0.20700605402E+02 0.19622613245E+02 0.18226542661E+02 0.16617316004E+02 0.15037322083E+02
 0.13738427669E+02 0.12898934597E+02 0.12610513574E+02 0.12898934597E+02 0.13738427669E+02
 0.15037322083E+02 0.16617316004E+02 0.18226542661E+02 0.19622613245E+02 0.20700605402E+02
 0.38004861685E+02 0.36029385491E+02 0.31110770625E+02 0.25565806310E+02 0.21358547520E+02
 0.18547612823E+02 0.16094706740E+02 0.14157049010E+02 0.12898934597E+02 0.12305532913E+02
 0.12265460599E+02 0.12644763293E+02 0.13306322771E+02 0.14095662075E+02 0.14838093726E+02
 0.15365345085E+02 0.15555804276E+02 0.15365345085E+02 0.14838093726E+02 0.14095662075E+02
 0.13306322771E+02 0.12644763293E+02 0.12265460599E+02 0.12305532913E+02 0.12898934597E+02
 0.14157049010E+02 0.16094706740E+02 0.18547612823E+02 0.21358547520E+02 0.25565806310E+02
 0.31110770625E+02 0.36029385491E+02 0.85569729632E+02 0.79998895697E+02 0.65568050318E+02
 0.47876914105E+02 0.32852098795E+02 0.23688954650E+02 0.19262028257E+02 0.16094706740E+02
 0.13738427669E+02 0.12265460599E+02 0.11498939610E+02 0.11211559088E+02 0.11229877407E+02
 0.11422957530E+02 0.11668955448E+02 0.11861354077E+02 0.11932693470E+02 0.11861354077E+02
 0.11668955448E+02 0.11422957530E+02 0.11229877407E+02 0.11211559088E+02 0.11498939610E+02
 0.12265460599E+02 0.13738427669E+02 0.16094706740E+02 0.19262028257E+02 0.23688954650E+02
 0.32852098795E+02 0.47876914105E+02 0.65568050318E+02 0.79998895697E+02 0.17687846932E+03
 0.16553160483E+03 0.13551150245E+03 0.96911929865E+02 0.61187210900E+02 0.36272804616E+02
 0.23688954650E+02 0.18547612823E+02 0.15037322083E+02 0.12644763293E+02 0.11211559088E+02
 0.10410254454E+02 0.99948448077E+01 0.98101819620E+01 0.97359157408E+01 0.96972848344E+01
 0.96818763150E+01 0.96972848344E+01 0.97359157408E+01 0.98101819620E+01 0.99948448077E+01
 0.10410254454E+02 0.11211559088E+02 0.12644763293E+02 0.15037322083E+02 0.18547612823E+02
 0.23688954650E+02 0.36272804616E+02 0.61187210900E+02 0.96911929865E+02 0.13551150245E+03
 0.16553160483E+03 0.31203524565E+03 0.29304873683E+03 0.24227577243E+03 0.17534094827E+03
 0.11040028542E+03 0.61187210900E+02 0.32852098795E+02 0.21358547520E+02 0.16617316004E+02
 0.13306322771E+02 0.11229877407E+02 0.99948448077E+01 0.92786596864E+01 0.88780729093E+01
 0.86308948266E+01 0.84563221654E+01 0.83854711979E+01 0.84563221654E+01 0.86308948266E+01
 0.88780729093E+01 0.92786596864E+01 0.99948448077E+01 0.11229877407E+02 0.13306322771E+02
 0.16617316004E+02 0.21358547520E+02 0.32852098795E+02 0.61187210900E+02 0.11040028542E+03
 0.17534094827E+03 0.24227577243E+03 0.29304873683E+03 0.47556703838E+03 0.44786958432E+03
 0.37344357711E+03 0.27412504590E+03 0.17534094827E+03 0.96911929865E+02 0.47876914105E+02
 0.25565806310E+02 0.18226542661E+02 0.14095662075E+02 0.11422957530E+02 0.98101819620E+01
 0.88780729093E+01 0.83703695593E+01 0.80553315475E+01 0.78158274408E+01 0.77135834655E+01
 0.78158274408E+01 0.80553315475E+01 0.83703695593E+01 0.88780729093E+01 0.98101819620E+01
 0.11422957530E+02 0.14095662075E+02 0.18226542661E+02 0.25565806310E+02 0.47876914105E+02
 0.96911929865E+02 0.17534094827E+03 0.27412504590E+03 0.37344357711E+03 0.44786958432E+03
 0.63698761955E+03 0.60089255559E+03 0.50374166374E+03 0.37344357711E+03 0.24227577243E+03
 0.13551150245E+03 0.65568050318E+02 0.31110770625E+02 0.19622613245E+02 0.14838093726E+02
 0.11668955448E+02 0.97359157408E+01 0.86308948266E+01 0.80553315475E+01 0.77072607905E+01
 0.74271170826E+01 0.73021270868E+01 0.74271170826E+01 0.77072607905E+01 0.80553315475E+01
 0.86308948266E+01 0.97359157408E+01 0.11668955448E+02 0.14838093726E+02 0.19622613245E+02
 0.31110770625E+02 0.65568050318E+02 0.13551150245E+03 0.24227577243E+03 0.37344357711E+03
 0.50374166374E+03 0.60089255559E+03 0.75711919883E+03 0.71480732208E+03 0.60089255559E+03
 0.44786958432E+03 0.29304873683E+03 0.16553160483E+03 0.79998895697E+02 0.36029385491E+02
 0.20700605402E+02 0.15365345085E+02 0.11861354077E+02 0.96972848344E+01 0.84563221654E+01
 0.78158274408E+01 0.74271170826E+01 0.71040595774E+01 0.69572772733E+01 0.71040595774E+01
 0.74271170826E+01 0.78158274408E+01 0.84563221654E+01 0.96972848344E+01 0.11861354077E+02
 0.15365345085E+02 0.20700605402E+02 0.36029385491E+02 0.79998895697E+02 0.16553160483E+03
 0.29304873683E+03 0.44786958432E+03 0.60089255559E+03 0.71480732208E+03 0.75711919883E+03
 0.71480732208E+03 0.60089255559E+03 0.44786958432E+03 0.29304873683E+03 0.16553160483E+03
 0.79998895697E+02 0.36029385491E+02 0.20700605402E+02 0.15365345085E+02 0.11861354077E+02
 0.96972848344E+01 0.84563221654E+01 0.78158274408E+01 0.74271170826E+01 0.71040595774E+01
 0.69572772733E+01 0.71040595774E+01 0.74271170826E+01 0.78158274408E+01 0.84563221654E+01
 0.96972848344E+01 0.11861354077E+02 0.15365345085E+02 0.20700605402E+02 0.36029385491E+02
 0.79998895697E+02 0.16553160483E+03 0.29304873683E+03 0.44786958432E+03 0.60089255559E+03
 0.71480732208E+03 0.71480732208E+03 0.67468665312E+03 0.56667411398E+03 0.42163706403E+03
 0.27511255739E+03 0.15487090649E+03 0.74819352917E+02 0.34227097395E+02 0.20305731179E+02
 0.15178924894E+02 0.11791048610E+02 0.97103410069E+01 0.85221389192E+01 0.79112411835E+01
 0.75438244331E+01 0.72411826132E+01 0.71040595774E+01 0.72411826132E+01 0.75438244331E+01
 0.79112411835E+01 0.85221389192E+01 0.97103410069E+01 0.11791048610E+02 0.15178924894E+02
 0.20305731179E+02 0.34227097395E+02 0.74819352917E+02 0.15487090649E+03 0.27511255739E+03
 0.42163706403E+03 0.56667411398E+03 0.67468665312E+03 0.60089255559E+03 0.56667411398E+03
 0.47459145290E+03 0.35117970289E+03 0.22718880217E+03 0.12670541811E+03 0.61432248595E+02
 0.29753836266E+02 0.19303129812E+02 0.14663790372E+02 0.11602181388E+02 0.97437955056E+01
 0.86852906738E+01 0.81357632870E+01 0.78063373240E+01 0.75438244331E+01 0.74271170826E+01
 0.75438244331E+01 0.78063373240E+01 0.81357632870E+01 0.86852906738E+01 0.97437955056E+01
 0.11602181388E+02 0.14663790372E+02 0.19303129812E+02 0.29753836266E+02 0.61432248595E+02
 0.12670541811E+03 0.22718880217E+03 0.35117970289E+03 0.47459145290E+03 0.56667411398E+03
 0.44786958432E+03 0.42163706403E+03 0.35117970289E+03 0.25727608147E+03 0.16414009873E+03
 0.90606993037E+02 0.45103239084E+02 0.24738483158E+02 0.17949534207E+02 0.13940612421E+02
 0.11361950334E+02 0.98121281320E+01 0.89191663446E+01 0.84342109525E+01 0.81357632870E+01
 0.79112411835E+01 0.78158274408E+01 0.79112411835E+01 0.81357632870E+01 0.84342109525E+01
 0.89191663446E+01 0.98121281320E+01 0.11361950334E+02 0.13940612421E+02 0.17949534207E+02
 0.24738483158E+02 0.45103239084E+02 0.90606993037E+02 0.16414009873E+03 0.25727608147E+03
 0.35117970289E+03 0.42163706403E+03 0.29304873683E+03 0.27511255739E+03 0.22718880217E+03
 0.16414009873E+03 0.10321908128E+03 0.57398138915E+02 0.31356410381E+02 0.20928335174E+02
 0.16377761436E+02 0.13174336790E+02 0.11173925368E+02 0.99877466141E+01 0.93016913284E+01
 0.89191663446E+01 0.86852906738E+01 0.85221389192E+01 0.84563221654E+01 0.85221389192E+01
 0.86852906738E+01 0.89191663446E+01 0.93016913284E+01 0.99877466141E+01 0.11173925368E+02
 0.13174336790E+02 0.16377761436E+02 0.20928335174E+02 0.31356410381E+02 0.57398138915E+02
 0.10321908128E+03 0.16414009873E+03 0.22718880217E+03 0.27511255739E+03 0.16553160483E+03
 0.15487090649E+03 0.12670541811E+03 0.90606993037E+02 0.57398138915E+02 0.34478627529E+02
 0.23060409116E+02 0.18247876906E+02 0.14842430235E+02 0.12534020405E+02 0.11155025431E+02
 0.10385604961E+02 0.99877466141E+01 0.98121281320E+01 0.97437955056E+01 0.97103410069E+01
 0.96972848344E+01 0.97103410069E+01 0.97437955056E+01 0.98121281320E+01 0.99877466141E+01
 0.10385604961E+02 0.11155025431E+02 0.12534020405E+02 0.14842430235E+02 0.18247876906E+02
 0.23060409116E+02 0.34478627529E+02 0.57398138915E+02 0.90606993037E+02 0.12670541811E+03
 0.15487090649E+03 0.79998895697E+02 0.74819352917E+02 0.61432248595E+02 0.45103239084E+02
 0.31356410381E+02 0.23060409116E+02 0.18941275729E+02 0.15861942301E+02 0.13585704093E+02
 0.12167555481E+02 0.11430680472E+02 0.11155025431E+02 0.11173925368E+02 0.11361950334E+02
 0.11602181388E+02 0.11791048610E+02 0.11861354077E+02 0.11791048610E+02 0.11602181388E+02
 0.11361950334E+02 0.11173925368E+02 0.11155025431E+02 0.11430680472E+02 0.12167555481E+02
 0.13585704093E+02 0.15861942301E+02 0.18941275729E+02 0.23060409116E+02 0.31356410381E+02
 0.45103239084E+02 0.61432248595E+02 0.74819352917E+02 0.36029385491E+02 0.34227097395E+02
 0.29753836266E+02 0.24738483158E+02 0.20928335174E+02 0.18247876906E+02 0.15861942301E+02
 0.13988112380E+02 0.12776007136E+02 0.12205490828E+02 0.12167555481E+02 0.12534020405E+02
 0.13174336790E+02 0.13940612421E+02 0.14663790372E+02 0.15178924894E+02 0.15365345085E+02
 0.15178924894E+02 0.14663790372E+02 0.13940612421E+02 0.13174336790E+02 0.12534020405E+02
 0.12167555481E+02 0.12205490828E+02 0.12776007136E+02 0.13988112380E+02 0.15861942301E+02
 0.18247876906E+02 0.20928335174E+02 0.24738483158E+02 0.29753836266E+02 0.34227097395E+02
 0.20700605402E+02 0.20305731179E+02 0.19303129812E+02 0.17949534207E+02 0.16377761436E+02
 0.14842430235E+02 0.13585704093E+02 0.12776007136E+02 0.12498283188E+02 0.12776007136E+02
 0.13585704093E+02 0.14842430235E+02 0.16377761436E+02 0.17949534207E+02 0.19303129812E+02
 0.20305731179E+02 0.20700605402E+02 0.20305731179E+02 0.19303129812E+02 0.17949534207E+02
 0.16377761436E+02 0.14842430235E+02 0.13585704093E+02 0.12776007136E+02 0.12498283188E+02
 0.12776007136E+02 0.13585704093E+02 0.14842430235E+02 0.16377761436E+02 0.17949534207E+02
 0.19303129812E+02 0.20305731179E+02 0.15365345085E+02 0.15178924894E+02 0.14663790372E+02
 0.13940612421E+02 0.13174336790E+02 0.12534020405E+02 0.12167555481E+02 0.12205490828E+02
 0.12776007136E+02 0.13988112380E+02 0.15861942301E+02 0.18247876906E+02 0.20928335174E+02
 0.24738483158E+02 0.29753836266E+02 0.34227097395E+02 0.36029385491E+02 0.34227097395E+02
 0.29753836266E+02 0.24738483158E+02 0.20928335174E+02 0.18247876906E+02 0.15861942301E+02
 0.13988112380E+02 0.12776007136E+02 0.12205490828E+02 0.12167555481E+02 0.12534020405E+02
 0.13174336790E+02 0.13940612421E+02 0.14663790372E+02 0.15178924894E+02 0.11861354077E+02
 0.11791048610E+02 0.11602181388E+02 0.11361950334E+02 0.11173925368E+02 0.11155025431E+02
 0.11430680472E+02 0.12167555481E+02 0.13585704093E+02 0.15861942301E+02 0.18941275729E+02
 0.23060409116E+02 0.31356410381E+02 0.45103239084E+02 0.61432248595E+02 0.74819352917E+02
 0.79998895697E+02 0.74819352917E+02 0.61432248595E+02 0.45103239084E+02 0.31356410381E+02
 0.23060409116E+02 0.18941275729E+02 0.15861942301E+02 0.13585704093E+02 0.12167555481E+02
 0.11430680472E+02 0.11155025431E+02 0.11173925368E+02 0.11361950334E+02 0.11602181388E+02
 0.11791048610E+02 0.96972848344E+01 0.97103410069E+01 0.97437955056E+01 0.98121281320E+01
 0.99877466141E+01 0.10385604961E+02 0.11155025431E+02 0.12534020405E+02 0.14842430235E+02
 0.18247876906E+02 0.23060409116E+02 0.34478627529E+02 0.57398138915E+02 0.90606993037E+02
 0.12670541811E+03 0.15487090649E+03 0.16553160483E+03 0.15487090649E+03 0.12670541811E+03
 0.90606993037E+02 0.57398138915E+02 0.34478627529E+02 0.23060409116E+02 0.18247876906E+02
 0.14842430235E+02 0.12534020405E+02 0.11155025431E+02 0.10385604961E+02 0.99877466141E+01
 0.98121281320E+01 0.97437955056E+01 0.97103410069E+01 0.84563221654E+01 0.85221389192E+01
 0.86852906738E+01 0.89191663446E+01 0.93016913284E+01 0.99877466141E+01 0.11173925368E+02
 0.13174336790E+02 0.16377761436E+02 0.20928335174E+02 0.31356410381E+02 0.57398138915E+02
 0.10321908128E+03 0.16414009873E+03 0.22718880217E+03 0.27511255739E+03 0.29304873683E+03
 0.27511255739E+03 0.22718880217E+03 0.16414009873E+03 0.10321908128E+03 0.57398138915E+02
 0.31356410381E+02 0.20928335174E+02 0.16377761436E+02 0.13174336790E+02 0.11173925368E+02
 0.99877466141E+01 0.93016913284E+01 0.89191663446E+01 0.86852906738E+01 0.85221389192E+01
 0.78158274408E+01 0.79112411835E+01 0.81357632870E+01 0.84342109525E+01 0.89191663446E+01
 0.98121281320E+01 0.11361950334E+02 0.13940612421E+02 0.17949534207E+02 0.24738483158E+02
 0.45103239084E+02 0.90606993037E+02 0.16414009873E+03 0.25727608147E+03 0.35117970289E+03
 0.42163706403E+03 0.44786958432E+03 0.42163706403E+03 0.35117970289E+03 0.25727608147E+03
 0.16414009873E+03 0.90606993037E+02 0.45103239084E+02 0.24738483158E+02 0.17949534207E+02
 0.13940612421E+02 0.11361950334E+02 0.98121281320E+01 0.89191663446E+01 0.84342109525E+01
 0.81357632870E+01 0.79112411835E+01 0.74271170826E+01 0.75438244331E+01 0.78063373240E+01
 0.81357632870E+01 0.86852906738E+01 0.97437955056E+01 0.11602181388E+02 0.14663790372E+02
 0.19303129812E+02 0.29753836266E+02 0.61432248595E+02 0.12670541811E+03 0.22718880217E+03
 0.35117970289E+03 0.47459145290E+03 0.56667411398E+03 0.60089255559E+03 0.56667411398E+03
 0.47459145290E+03 0.35117970289E+03 0.22718880217E+03 0.12670541811E+03 0.61432248595E+02
 0.29753836266E+02 0.19303129812E+02 0.14663790372E+02 0.11602181388E+02 0.97437955056E+01
 0.86852906738E+01 0.81357632870E+01 0.78063373240E+01 0.75438244331E+01 0.71040595774E+01
 0.72411826132E+01 0.75438244331E+01 0.79112411835E+01 0.85221389192E+01 0.97103410069E+01
 0.11791048610E+02 0.15178924894E+02 0.20305731179E+02 0.34227097395E+02 0.74819352917E+02
 0.15487090649E+03 0.27511255739E+03 0.42163706403E+03 0.56667411398E+03 0.67468665312E+03
 0.71480732208E+03 0.67468665312E+03 0.56667411398E+03 0.42163706403E+03 0.27511255739E+03
 0.15487090649E+03 0.74819352917E+02 0.34227097395E+02 0.20305731179E+02 0.15178924894E+02
 0.11791048610E+02 0.97103410069E+01 0.85221389192E+01 0.79112411835E+01 0.75438244331E+01
 0.72411826132E+01 0.69572772733E+01 0.71040595774E+01 0.74271170826E+01 0.78158274408E+01
 0.84563221654E+01 0.96972848344E+01 0.11861354077E+02 0.15365345085E+02 0.20700605402E+02
 0.36029385491E+02 0.79998895697E+02 0.16553160483E+03 0.29304873683E+03 0.44786958432E+03
 0.60089255559E+03 0.71480732208E+03 0.75711919883E+03 0.71480732208E+03 0.60089255559E+03
 0.44786958432E+03 0.29304873683E+03 0.16553160483E+03 0.79998895697E+02 0.36029385491E+02
 0.20700605402E+02 0.15365345085E+02 0.11861354077E+02 0.96972848344E+01 0.84563221654E+01
 0.78158274408E+01 0.74271170826E+01 0.71040595774E+01 0.71040595774E+01 0.72411826132E+01
 0.75438244331E+01 0.79112411835E+01 0.85221389192E+01 0.97103410069E+01 0.11791048610E+02
 0.15178924894E+02 0.20305731179E+02 0.34227097395E+02 0.74819352917E+02 0.15487090649E+03
 0.27511255739E+03 0.42163706403E+03 0.56667411398E+03 0.67468665312E+03 0.71480732208E+03
 0.67468665312E+03 0.56667411398E+03 0.42163706403E+03 0.27511255739E+03 0.15487090649E+03
 0.74819352917E+02 0.34227097395E+02 0.20305731179E+02 0.15178924894E+02 0.11791048610E+02
 0.97103410069E+01 0.85221389192E+01 0.79112411835E+01 0.75438244331E+01 0.72411826132E+01
 0.74271170826E+01 0.75438244331E+01 0.78063373240E+01 0.81357632870E+01 0.86852906738E+01
 0.97437955056E+01 0.11602181388E+02 0.14663790372E+02 0.19303129812E+02 0.29753836266E+02
 0.61432248595E+02 0.12670541811E+03 0.22718880217E+03 0.35117970289E+03 0.47459145290E+03
 0.56667411398E+03 0.60089255559E+03 0.56667411398E+03 0.47459145290E+03 0.35117970289E+03
 0.22718880217E+03 0.12670541811E+03 0.61432248595E+02 0.29753836266E+02 0.19303129812E+02