<?xml version="1.0" encoding="ISO-8859-1"?>
<modeling>
 <generator>
  <i name="program" type="string">vasp </i>
  <i name="version" type="string">6.2.0  </i>
  <i name="subversion" type="string">18Jan21 (build Mar 17 2021 09:06:54) complex                          serial </i>
  <i name="platform" type="string">LinuxIFC </i>
  <i name="date" type="string">2021 08 03 </i>
  <i name="time" type="string">10:15:45 </i>
 </generator>
 <incar>
  <i type="string" name="PREC">normal</i>
  <i type="int" name="ICHARG">     1</i>
  <i type="int" name="IBRION">     1</i>
  <i name="EDIFF">      0.00000100</i>
  <i type="int" name="NSW">     0</i>
  <i type="int" name="ISIF">     4</i>
  <i name="ENCUT">    320.00000000</i>
  <i type="int" name="NBANDS">    30</i>
  <i type="int" name="ISMEAR">     1</i>
  <i name="SIGMA">      0.20000000</i>
  <i type="logical" name="LCHARG"> T  </i>
  <i type="int" name="KPAR">     1</i>
  <i type="int" name="NCORE">     1</i>
  <i type="string" name="GGA">PE</i>
 </incar>
 <primitive_cell>
  <structure name="primitive_cell" >
   <crystal>
    <varray name="basis" >
     <v>       1.78668896      -1.78668896       0.00000000 </v>
     <v>       1.78668896       0.00000000       1.78668896 </v>
     <v>       0.00000000      -1.78668896       1.78668896 </v>
    </varray>
    <i name="volume">     11.40714231 </i>
    <varray name="rec_basis" >
     <v>       0.27984725      -0.27984725      -0.27984725 </v>
     <v>       0.27984725       0.27984725       0.27984725 </v>
     <v>      -0.27984725      -0.27984725       0.27984725 </v>
    </varray>
   </crystal>
   <varray name="positions" >
    <v>       0.00000000       0.00000000       0.00000000 </v>
   </varray>
  </structure>
  <varray name="primitive_index" >
   <v type="int" >        1 </v>
  </varray>
 </primitive_cell>
 <kpoints>
  <generation param="Monkhorst-Pack">
   <v type="int" name="divisions">       9        9        9 </v>
   <v name="usershift">      0.00000000       0.00000000       0.00000000 </v>
   <v name="genvec1">      0.11111111       0.00000000       0.00000000 </v>
   <v name="genvec2">      0.00000000       0.11111111       0.00000000 </v>
   <v name="genvec3">      0.00000000       0.00000000       0.11111111 </v>
   <v name="shift">      0.00000000       0.00000000       0.00000000 </v>
  </generation>
  <varray name="kpointlist" >
   <v>       0.00000000       0.00000000       0.00000000 </v>
   <v>       0.11111111       0.00000000       0.00000000 </v>
   <v>       0.22222222       0.00000000       0.00000000 </v>
   <v>       0.33333333       0.00000000       0.00000000 </v>
   <v>       0.44444444       0.00000000       0.00000000 </v>
   <v>       0.11111111       0.11111111       0.00000000 </v>
   <v>       0.22222222       0.11111111       0.00000000 </v>
   <v>       0.33333333       0.11111111       0.00000000 </v>
   <v>       0.44444444       0.11111111       0.00000000 </v>
   <v>       0.22222222       0.22222222       0.00000000 </v>
   <v>       0.33333333       0.22222222       0.00000000 </v>
   <v>       0.44444444       0.22222222       0.00000000 </v>
   <v>       0.33333333       0.33333333       0.00000000 </v>
   <v>       0.44444444       0.33333333       0.00000000 </v>
   <v>       0.44444444       0.44444444       0.00000000 </v>
   <v>       0.11111111       0.11111111       0.11111111 </v>
   <v>       0.22222222       0.11111111       0.11111111 </v>
   <v>       0.33333333       0.11111111       0.11111111 </v>
   <v>       0.44444444       0.11111111       0.11111111 </v>
   <v>       0.22222222       0.22222222       0.11111111 </v>
   <v>       0.33333333       0.22222222       0.11111111 </v>
   <v>       0.44444444       0.22222222       0.11111111 </v>
   <v>       0.33333333       0.33333333       0.11111111 </v>
   <v>       0.44444444       0.33333333       0.11111111 </v>
   <v>       0.44444444       0.44444444       0.11111111 </v>
   <v>       0.22222222       0.22222222       0.22222222 </v>
   <v>       0.33333333       0.22222222       0.22222222 </v>
   <v>       0.44444444       0.22222222       0.22222222 </v>
   <v>       0.33333333       0.33333333       0.22222222 </v>
   <v>       0.44444444       0.33333333       0.22222222 </v>
   <v>       0.44444444       0.44444444       0.22222222 </v>
   <v>       0.33333333       0.33333333       0.33333333 </v>
   <v>       0.44444444       0.33333333       0.33333333 </v>
   <v>       0.44444444       0.44444444       0.33333333 </v>
   <v>       0.44444444       0.44444444       0.44444444 </v>
  </varray>
  <varray name="weights" >
   <v>       0.00137174 </v>
   <v>       0.00823045 </v>
   <v>       0.00823045 </v>
   <v>       0.00823045 </v>
   <v>       0.00823045 </v>
   <v>       0.01646091 </v>
   <v>       0.03292181 </v>
   <v>       0.03292181 </v>
   <v>       0.03292181 </v>
   <v>       0.01646091 </v>
   <v>       0.03292181 </v>
   <v>       0.03292181 </v>
   <v>       0.01646091 </v>
   <v>       0.03292181 </v>
   <v>       0.01646091 </v>
   <v>       0.01097394 </v>
   <v>       0.03292181 </v>
   <v>       0.03292181 </v>
   <v>       0.03292181 </v>
   <v>       0.03292181 </v>
   <v>       0.06584362 </v>
   <v>       0.06584362 </v>
   <v>       0.03292181 </v>
   <v>       0.06584362 </v>
   <v>       0.03292181 </v>
   <v>       0.01097394 </v>
   <v>       0.03292181 </v>
   <v>       0.03292181 </v>
   <v>       0.03292181 </v>
   <v>       0.06584362 </v>
   <v>       0.03292181 </v>
   <v>       0.01097394 </v>
   <v>       0.03292181 </v>
   <v>       0.03292181 </v>
   <v>       0.01097394 </v>
  </varray>
 </kpoints>
 <parameters>
  <separator name="general" >
   <i type="string" name="SYSTEM">unknown system</i>
   <i type="logical" name="LCOMPAT"> F  </i>
  </separator>
  <separator name="electronic" >
   <i type="string" name="PREC">normal</i>
   <i name="ENMAX">    320.00000000</i>
   <i name="ENAUG">    586.98000000</i>
   <i name="EDIFF">      0.00000100</i>
   <i type="int" name="IALGO">    38</i>
   <i type="int" name="IWAVPR">     0</i>
   <i type="int" name="NBANDS">    30</i>
   <i type="int" name="NBANDSLOW">    -1</i>
   <i type="int" name="NBANDSHIGH">    -1</i>
   <i name="NELECT">     44.00000000</i>
   <i type="int" name="TURBO">     0</i>
   <i type="int" name="IRESTART">     0</i>
   <i type="int" name="NREBOOT">     0</i>
   <i type="int" name="NMIN">     0</i>
   <i name="EREF">      0.00000000</i>
   <separator name="electronic smearing" >
    <i type="int" name="ISMEAR">     1</i>
    <i name="SIGMA">      0.20000000</i>
    <i name="KSPACING">      0.50000000</i>
    <i type="logical" name="KGAMMA"> T  </i>
    <i type="logical" name="KBLOWUP"> T  </i>
   </separator>
   <separator name="electronic projectors" >
    <i type="logical" name="LREAL"> F  </i>
    <v name="ROPT">      0.00000000</v>
    <i type="int" name="LMAXPAW">  -100</i>
    <i type="int" name="LMAXMIX">     2</i>
    <i type="logical" name="NLSPLINE"> F  </i>
   </separator>
   <separator name="electronic startup" >
    <i type="int" name="ISTART">     1</i>
    <i type="int" name="ICHARG">     1</i>
    <i type="int" name="INIWAV">     1</i>
   </separator>
   <separator name="electronic spin" >
    <i type="int" name="ISPIN">     1</i>
    <i type="logical" name="LNONCOLLINEAR"> F  </i>
    <v name="MAGMOM">      1.00000000      1.00000000      1.00000000      1.00000000</v>
    <i name="NUPDOWN">     -1.00000000</i>
    <i type="logical" name="LSORBIT"> F  </i>
    <v name="SAXIS">      0.00000000      0.00000000      1.00000000</v>
    <i type="logical" name="LSPIRAL"> F  </i>
    <v name="QSPIRAL">      0.00000000      0.00000000      0.00000000</v>
    <i type="logical" name="LZEROZ"> F  </i>
   </separator>
   <separator name="electronic exchange-correlation" >
    <i type="logical" name="LASPH"> F  </i>
    <i type="logical" name="LMETAGGA"> F  </i>
   </separator>
   <separator name="electronic convergence" >
    <i type="int" name="NELM">    60</i>
    <i type="int" name="NELMDL">     0</i>
    <i type="int" name="NELMIN">     2</i>
    <i name="ENINI">    320.00000000</i>
    <separator name="electronic convergence detail" >
     <i type="logical" name="LDIAG"> T  </i>
     <i type="logical" name="LSUBROT"> F  </i>
     <i name="WEIMIN">      0.00000000</i>
     <i name="EBREAK">      0.00000001</i>
     <i name="DEPER">      0.30000000</i>
     <i type="int" name="NRMM">     4</i>
     <i name="TIME">      0.40000000</i>
    </separator>
   </separator>
   <separator name="electronic mixer" >
    <i name="AMIX">      0.40000000</i>
    <i name="BMIX">      1.00000000</i>
    <i name="AMIN">      0.10000000</i>
    <i name="AMIX_MAG">      1.60000000</i>
    <i name="BMIX_MAG">      1.00000000</i>
    <separator name="electronic mixer details" >
     <i type="int" name="IMIX">     4</i>
     <i type="logical" name="MIXFIRST"> F  </i>
     <i type="int" name="MAXMIX">   -45</i>
     <i name="WC">    100.00000000</i>
     <i type="int" name="INIMIX">     1</i>
     <i type="int" name="MIXPRE">     1</i>
     <i type="int" name="MREMOVE">     5</i>
    </separator>
   </separator>
   <separator name="electronic dipolcorrection" >
    <i type="logical" name="LDIPOL"> F  </i>
    <i type="logical" name="LMONO"> F  </i>
    <i type="int" name="IDIPOL">     0</i>
    <i name="EPSILON">      1.00000000</i>
    <v name="DIPOL">   -100.00000000   -100.00000000   -100.00000000</v>
    <i name="EFIELD">      0.00000000</i>
   </separator>
  </separator>
  <separator name="grids" >
   <i type="int" name="NGX">    16</i>
   <i type="int" name="NGY">    16</i>
   <i type="int" name="NGZ">    16</i>
   <i type="int" name="NGXF">    32</i>
   <i type="int" name="NGYF">    32</i>
   <i type="int" name="NGZF">    32</i>
   <i type="logical" name="ADDGRID"> F  </i>
  </separator>
  <separator name="ionic" >
   <i type="int" name="NSW">     0</i>
   <i type="int" name="IBRION">    -1</i>
   <i type="int" name="MDALGO">     0</i>
   <i type="int" name="ISIF">     4</i>
   <i name="PSTRESS">      0.00000000</i>
   <i name="EDIFFG">      0.00001000</i>
   <i type="int" name="NFREE">     0</i>
   <i name="POTIM">      0.50000000</i>
   <i name="SMASS">     -3.00000000</i>
   <i name="SCALEE">      1.00000000</i>
  </separator>
  <separator name="ionic md" >
   <i name="TEBEG">      0.00010000</i>
   <i name="TEEND">      0.00010000</i>
   <i type="int" name="NBLOCK">     1</i>
   <i type="int" name="KBLOCK">     1</i>
   <i type="int" name="NPACO">   256</i>
   <i name="APACO">     16.00000000</i>
  </separator>
  <separator name="symmetry" >
   <i type="int" name="ISYM">     2</i>
   <i name="SYMPREC">      0.00001000</i>
  </separator>
  <separator name="dos" >
   <i type="int" name="LORBIT">     0</i>
   <v name="RWIGS">     -1.00000000</v>
   <i type="int" name="NEDOS">   301</i>
   <i name="EMIN">     10.00000000</i>
   <i name="EMAX">    -10.00000000</i>
   <i name="EFERMI">      0.00000000</i>
  </separator>
  <separator name="writing" >
   <i type="int" name="NWRITE">     2</i>
   <i type="logical" name="LWAVE"> T  </i>
   <i type="logical" name="LDOWNSAMPLE"> F  </i>
   <i type="logical" name="LCHARG"> T  </i>
   <i type="logical" name="LPARD"> F  </i>
   <i type="logical" name="LVTOT"> F  </i>
   <i type="logical" name="LVHAR"> F  </i>
   <i type="logical" name="LELF"> F  </i>
   <i type="logical" name="LOPTICS"> F  </i>
   <v name="STM">      0.00000000      0.00000000      0.00000000      0.00000000      0.00000000      0.00000000      0.00000000</v>
  </separator>
  <separator name="performance" >
   <i type="int" name="NPAR">     1</i>
   <i type="int" name="NSIM">     4</i>
   <i type="int" name="NBLK">    -1</i>
   <i type="logical" name="LPLANE"> T  </i>
   <i type="logical" name="LSCALAPACK"> F  </i>
   <i type="logical" name="LSCAAWARE"> F  </i>
   <i type="logical" name="LSCALU"> F  </i>
   <i type="logical" name="LASYNC"> F  </i>
   <i type="logical" name="LORBITALREAL"> F  </i>
  </separator>
  <separator name="miscellaneous" >
   <i type="int" name="IDIOT">     3</i>
   <i type="int" name="PHON_NSTRUCT">    -1</i>
   <i type="logical" name="LMUSIC"> F  </i>
   <v name="POMASS">     63.54600000</v>
   <v name="DARWINR">      0.00000000</v>
   <v name="DARWINV">      1.00000000</v>
   <i type="logical" name="LCORR"> T  </i>
  </separator>
  <i type="logical" name="GGA_COMPAT"> T  </i>
  <i type="logical" name="LBERRY"> F  </i>
  <i type="int" name="ICORELEVEL">     0</i>
  <i type="logical" name="LDAU"> F  </i>
  <i type="int" name="I_CONSTRAINED_M">     0</i>
  <separator name="electronic exchange-correlation" >
   <i type="string" name="GGA">PE</i>
   <i type="int" name="VOSKOWN">     0</i>
   <i type="logical" name="LHFCALC"> F  </i>
   <i type="string" name="PRECFOCK"></i>
   <i type="logical" name="LSYMGRAD"> F  </i>
   <i type="logical" name="LHFONE"> F  </i>
   <i type="logical" name="LRHFCALC"> F  </i>
   <i type="logical" name="LTHOMAS"> F  </i>
   <i type="logical" name="LMODELHF"> F  </i>
   <i type="logical" name="LFOCKACE"> F  </i>
   <i name="ENCUT4O">     -1.00000000</i>
   <i type="int" name="EXXOEP">     0</i>
   <i type="int" name="FOURORBIT">     0</i>
   <i name="AEXX">      0.00000000</i>
   <i name="HFALPHA">      0.00000000</i>
   <i name="MCALPHA">      0.00000000</i>
   <i name="ALDAX">      1.00000000</i>
   <i name="AGGAX">      1.00000000</i>
   <i name="ALDAC">      1.00000000</i>
   <i name="AGGAC">      1.00000000</i>
   <i type="int" name="NKREDX">     1</i>
   <i type="int" name="NKREDY">     1</i>
   <i type="int" name="NKREDZ">     1</i>
   <i type="logical" name="SHIFTRED"> F  </i>
   <i type="logical" name="ODDONLY"> F  </i>
   <i type="logical" name="EVENONLY"> F  </i>
   <i type="int" name="LMAXFOCK">     0</i>
   <i type="int" name="NMAXFOCKAE">     0</i>
   <i type="logical" name="LFOCKAEDFT"> F  </i>
   <i name="HFSCREEN">      0.00000000</i>
   <i name="HFSCREENC">      0.00000000</i>
   <i type="int" name="NBANDSGWLOW">     0</i>
  </separator>
  <separator name="vdW DFT" >
   <i type="logical" name="LUSE_VDW"> F  </i>
   <i name="Zab_VDW">     -0.84910000</i>
   <i name="PARAM1">      0.12340000</i>
   <i name="PARAM2">      1.00000000</i>
   <i name="PARAM3">      0.00000000</i>
  </separator>
  <separator name="model GW" >
   <i type="int" name="MODEL_GW">     0</i>
   <i name="MODEL_EPS0">      6.84428538</i>
   <i name="MODEL_ALPHA">      1.00000000</i>
  </separator>
  <separator name="linear response parameters" >
   <i type="logical" name="LEPSILON"> F  </i>
   <i type="logical" name="LRPA"> F  </i>
   <i type="logical" name="LNABLA"> F  </i>
   <i type="logical" name="LVEL"> F  </i>
   <i type="int" name="KINTER">     0</i>
   <i name="CSHIFT">      0.10000000</i>
   <i name="OMEGAMAX">     -1.00000000</i>
   <i name="DEG_THRESHOLD">      0.00200000</i>
   <i name="RTIME">     -0.10000000</i>
   <i name="WPLASMAI">      0.00000000</i>
   <v name="DFIELD">      0.00000000      0.00000000      0.00000000</v>
   <v name="WPLASMA">      0.00000000      0.00000000      0.00000000      0.00000000      0.00000000      0.00000000      0.00000000      0.00000000      0.00000000</v>
  </separator>
  <separator name="orbital magnetization" >
   <i type="logical" name="NUCIND"> F  </i>
   <v name="MAGPOS">      0.00000000      0.00000000      0.00000000</v>
   <i type="logical" name="LNICSALL"> T  </i>
   <i type="logical" name="ORBITALMAG"> F  </i>
   <i type="logical" name="LMAGBLOCH"> F  </i>
   <i type="logical" name="LCHIMAG"> F  </i>
   <i type="logical" name="LGAUGE"> T  </i>
   <i type="int" name="MAGATOM">     0</i>
   <v name="MAGDIPOL">      0.00000000      0.00000000      0.00000000</v>
   <v name="AVECCONST">      0.00000000      0.00000000      0.00000000</v>
  </separator>
  <separator name="response functions" >
   <i type="logical" name="LFINITE_TEMPERATURE"> F  </i>
   <i type="logical" name="LADDER"> F  </i>
   <i type="logical" name="LRPAFORCE"> F  </i>
   <i type="logical" name="LFXC"> F  </i>
   <i type="logical" name="LHARTREE"> T  </i>
   <i type="int" name="IBSE">     0</i>
   <v type="int" name="KPOINT">    -1     0     0     0</v>
   <i type="logical" name="LTCTC"> F  </i>
   <i type="logical" name="LTCTE"> F  </i>
   <i type="logical" name="LTETE"> F  </i>
   <i type="logical" name="LTRIPLET"> F  </i>
   <i type="logical" name="LFXCEPS"> F  </i>
   <i type="logical" name="LFXHEG"> F  </i>
   <i type="int" name="NATURALO">     2</i>
   <i type="logical" name="LHOLEGF"> F  </i>
   <i type="logical" name="L2ORDER"> F  </i>
   <i type="logical" name="LDMP1"> F  </i>
   <i type="logical" name="LMP2LT"> F  </i>
   <i type="logical" name="LSMP2LT"> F  </i>
   <i type="logical" name="LGWLF"> F  </i>
   <i name="ENCUTGW">     -2.00000000</i>
   <i name="ENCUTGWSOFT">     -2.00000000</i>
   <i name="ENCUTLF">     -1.00000000</i>
   <i type="logical" name="LESF_SPLINES"> F  </i>
   <i type="int" name="LMAXMP2">    -1</i>
   <i name="SCISSOR">      0.00000000</i>
   <i type="int" name="NOMEGA">     0</i>
   <i type="int" name="NOMEGAR">     0</i>
   <i type="int" name="NBANDSGW">    -1</i>
   <i type="int" name="NBANDSO">    -1</i>
   <i type="int" name="NBANDSV">    -1</i>
   <i type="int" name="NELM">     1</i>
   <i type="int" name="NELMHF">     1</i>
   <i type="int" name="DIM">     3</i>
   <i type="int" name="IESPILON">     4</i>
   <i type="int" name="ANTIRES">     0</i>
   <i name="OMEGAMAX">    -30.00000000</i>
   <i name="OMEGAMIN">    -30.00000000</i>
   <i name="OMEGATL">   -200.00000000</i>
   <i type="int" name="OMEGAGRID">     0</i>
   <i name="CSHIFT">     -0.10000000</i>
   <i type="logical" name="LSELFENERGY"> F  </i>
   <i type="logical" name="LSPECTRAL"> F  </i>
   <i type="logical" name="LSPECTRALGW"> F  </i>
   <i type="logical" name="LSINGLES"> F  </i>
   <i type="logical" name="LFERMIGW"> F  </i>
   <i type="logical" name="ODDONLYGW"> F  </i>
   <i type="logical" name="EVENONLYGW"> F  </i>
   <i type="int" name="NKREDLFX">     1</i>
   <i type="int" name="NKREDLFY">     1</i>
   <i type="int" name="NKREDLFZ">     1</i>
   <i type="int" name="MAXMEM">  2800</i>
   <i type="int" name="TELESCOPE">     0</i>
   <i type="int" name="NTAUPAR">    -1</i>
   <i type="int" name="NOMEGAPAR">    -1</i>
   <i name="DAMP_NEWTON">      0.80000001</i>
   <i name="LAMBDA">      1.00000000</i>
  </separator>
  <separator name="External order field" >
   <i name="OFIELD_KAPPA">      0.00000000</i>
   <v name="OFIELD_K">      0.00000000      0.00000000      0.00000000</v>
   <i name="OFIELD_Q6_NEAR">      0.00000000</i>
   <i name="OFIELD_Q6_FAR">      0.00000000</i>
   <i name="OFIELD_A">      0.00000000</i>
  </separator>
 </parameters>
 <atominfo>
  <atoms>       4 </atoms>
  <types>       1 </types>
  <array name="atoms" >
   <dimension dim="1">ion</dimension>
   <field type="string">element</field>
   <field type="int">atomtype</field>
   <set>
    <rc><c>Cu</c><c>   1</c></rc>
    <rc><c>Cu</c><c>   1</c></rc>
    <rc><c>Cu</c><c>   1</c></rc>
    <rc><c>Cu</c><c>   1</c></rc>
   </set>
  </array>
  <array name="atomtypes" >
   <dimension dim="1">type</dimension>
   <field type="int">atomspertype</field>
   <field type="string">element</field>
   <field>mass</field>
   <field>valence</field>
   <field type="string">pseudopotential</field>
   <set>
    <rc><c>   4</c><c>Cu</c><c>     63.54600000</c><c>     11.00000000</c><c>  PAW_PBE Cu 22Jun2005                  </c></rc>
   </set>
  </array>
 </atominfo>
 <structure name="initialpos" >
  <crystal>
   <varray name="basis" >
    <v>       3.57337793       0.00000000       0.00000000 </v>
    <v>       0.00000000       3.57337793       0.00000000 </v>
    <v>       0.00000000       0.00000000       3.57337793 </v>
   </varray>
   <i name="volume">     45.62856923 </i>
   <varray name="rec_basis" >
    <v>       0.27984725       0.00000000       0.00000000 </v>
    <v>       0.00000000       0.27984725       0.00000000 </v>
    <v>       0.00000000       0.00000000       0.27984725 </v>
   </varray>
  </crystal>
  <varray name="positions" >
   <v>       0.00000000       0.00000000       0.00000000 </v>
   <v>       0.50000000       0.50000000       0.00000000 </v>
   <v>       0.50000000       0.00000000       0.50000000 </v>
   <v>       0.00000000       0.50000000       0.50000000 </v>
  </varray>
 </structure>
 <calculation>
  <scstep>
   <time name="dav">    0.45    0.45</time>
   <time name="total">    0.50    0.50</time>
   <energy>
    <i name="alphaZ">    256.44566089 </i>
    <i name="ewald">  -4471.14514895 </i>
    <i name="hartreedc">  -1325.56955647 </i>
    <i name="XCdc">    179.01612806 </i>
    <i name="pawpsdc">   5317.24838456 </i>
    <i name="pawaedc">  -5749.68554048 </i>
    <i name="eentropy">      0.00096597 </i>
    <i name="bandstr">    215.02099937 </i>
    <i name="atom">   5563.77610493 </i>
    <i name="e_fr_energy">    -14.89200213 </i>
    <i name="e_wo_entrp">    -14.89296810 </i>
    <i name="e_0_energy">    -14.89232412 </i>
   </energy>
  </scstep>
  <scstep>
   <time name="dav">    0.42    0.42</time>
   <time name="total">    0.46    0.46</time>
   <energy>
    <i name="e_fr_energy">    -14.89008622 </i>
    <i name="e_wo_entrp">    -14.89105948 </i>
    <i name="e_0_energy">    -14.89041064 </i>
   </energy>
  </scstep>
  <scstep>
   <time name="dav">    0.36    0.36</time>
   <time name="total">    0.41    0.41</time>
   <energy>
    <i name="e_fr_energy">    -14.89008445 </i>
    <i name="e_wo_entrp">    -14.89105857 </i>
    <i name="e_0_energy">    -14.89040916 </i>
   </energy>
  </scstep>
  <scstep>
   <time name="dav">    0.27    0.27</time>
   <time name="total">    0.28    0.28</time>
   <energy>
    <i name="alphaZ">    256.44566089 </i>
    <i name="ewald">  -4471.14514895 </i>
    <i name="hartreedc">  -1325.56558691 </i>
    <i name="XCdc">    179.01589311 </i>
    <i name="pawpsdc">   5317.24021833 </i>
    <i name="pawaedc">  -5749.67999084 </i>
    <i name="eentropy">      0.00097439 </i>
    <i name="bandstr">    215.02179071 </i>
    <i name="atom">   5563.77610493 </i>
    <i name="e_fr_energy">    -14.89008434 </i>
    <i name="e_wo_entrp">    -14.89105873 </i>
    <i name="e_0_energy">    -14.89040913 </i>
   </energy>
  </scstep>
  <structure>
   <crystal>
    <varray name="basis" >
     <v>       3.57337793       0.00000000       0.00000000 </v>
     <v>       0.00000000       3.57337793       0.00000000 </v>
     <v>       0.00000000       0.00000000       3.57337793 </v>
    </varray>
    <i name="volume">     45.62856923 </i>
    <varray name="rec_basis" >
     <v>       0.27984725       0.00000000       0.00000000 </v>
     <v>       0.00000000       0.27984725       0.00000000 </v>
     <v>       0.00000000       0.00000000       0.27984725 </v>
    </varray>
   </crystal>
   <varray name="positions" >
    <v>       0.00000000       0.00000000       0.00000000 </v>
    <v>       0.50000000       0.50000000       0.00000000 </v>
    <v>       0.50000000       0.00000000       0.50000000 </v>
    <v>       0.00000000       0.50000000       0.50000000 </v>
   </varray>
  </structure>
  <varray name="forces" >
   <v>      -0.00000000      -0.00000000       0.00000000 </v>
   <v>      -0.00000000       0.00000000       0.00000000 </v>
   <v>      -0.00000000      -0.00000000      -0.00000000 </v>
   <v>       0.00000000      -0.00000000      -0.00000000 </v>
  </varray>
  <varray name="stress" >
   <v>      77.72420444      -0.00000000       0.00000000 </v>
   <v>       0.00000000      77.72420444      -0.00000000 </v>
   <v>       0.00000000       0.00000000      77.72420444 </v>
  </varray>
  <energy>
   <i name="e_fr_energy">    -14.89008434 </i>
   <i name="e_wo_entrp">    -14.89105873 </i>
   <i name="e_0_energy">    -14.89040913 </i>
  </energy>
  <time name="totalsc">    2.06    2.06</time>
  <eigenvalues>
   <array>
    <dimension dim="1">band</dimension>
    <dimension dim="2">kpoint</dimension>
    <dimension dim="3">spin</dimension>
    <field>eigene</field>
    <field>occ</field>
    <set>
     <set comment="spin 1">
      <set comment="kpoint 1">
       <r>   -1.5977    1.0000 </r>
       <r>    2.9415    1.0000 </r>
       <r>    2.9415    1.0000 </r>
       <r>    2.9415    1.0000 </r>
       <r>    3.4220    1.0000 </r>
       <r>    3.4220    1.0000 </r>
       <r>    3.4220    1.0000 </r>
       <r>    4.8935    1.0000 </r>
       <r>    4.8935    1.0000 </r>
       <r>    4.8935    1.0000 </r>
       <r>    5.7659    1.0000 </r>
       <r>    5.7659    1.0000 </r>
       <r>    6.3452    1.0000 </r>
       <r>    6.3452    1.0000 </r>
       <r>    6.3452    1.0000 </r>
       <r>    6.5099    1.0000 </r>
       <r>    6.5099    1.0000 </r>
       <r>    6.5099    1.0000 </r>
       <r>    6.5099    1.0000 </r>
       <r>    6.5099    1.0000 </r>
       <r>    6.5099    1.0000 </r>
       <r>    9.4942   -0.0000 </r>
       <r>    9.4942   -0.0000 </r>
       <r>    9.4942   -0.0000 </r>
       <r>   15.3860    0.0000 </r>
       <r>   15.3860    0.0000 </r>
       <r>   15.3860    0.0000 </r>
       <r>   21.3746    0.0000 </r>
       <r>   21.3746    0.0000 </r>
       <r>   21.3746    0.0000 </r>
      </set>
      <set comment="kpoint 2">
       <r>   -1.4439    1.0000 </r>
       <r>    2.9393    1.0000 </r>
       <r>    3.0140    1.0000 </r>
       <r>    3.0140    1.0000 </r>
       <r>    3.4638    1.0000 </r>
       <r>    3.4664    1.0000 </r>
       <r>    3.4664    1.0000 </r>
       <r>    4.8466    1.0000 </r>
       <r>    4.9310    1.0000 </r>
       <r>    4.9310    1.0000 </r>
       <r>    5.7235    1.0000 </r>
       <r>    5.7835    1.0000 </r>
       <r>    6.2393    1.0000 </r>
       <r>    6.2393    1.0000 </r>
       <r>    6.2901    1.0000 </r>
       <r>    6.2901    1.0000 </r>
       <r>    6.3273    1.0000 </r>
       <r>    6.4452    1.0000 </r>
       <r>    6.4452    1.0000 </r>
       <r>    6.5100    1.0000 </r>
       <r>    6.5100    1.0000 </r>
       <r>    8.6438   -0.0000 </r>
       <r>    9.9014   -0.0000 </r>
       <r>    9.9014   -0.0000 </r>
       <r>   15.4391    0.0000 </r>
       <r>   15.4391    0.0000 </r>
       <r>   16.5355    0.0000 </r>
       <r>   20.4422    0.0000 </r>
       <r>   20.4422    0.0000 </r>
       <r>   20.7712    0.0000 </r>
      </set>
      <set comment="kpoint 3">
       <r>   -0.9888    1.0000 </r>
       <r>    2.8750    1.0000 </r>
       <r>    3.2131    1.0000 </r>
       <r>    3.2131    1.0000 </r>
       <r>    3.5852    1.0000 </r>
       <r>    3.6010    1.0000 </r>
       <r>    3.6010    1.0000 </r>
       <r>    4.7118    1.0000 </r>
       <r>    5.0411    1.0000 </r>
       <r>    5.0411    1.0000 </r>
       <r>    5.6045    1.0000 </r>
       <r>    5.6803    1.0000 </r>
       <r>    5.6803    1.0000 </r>
       <r>    5.8325    1.0000 </r>
       <r>    6.1348    1.0000 </r>
       <r>    6.1348    1.0000 </r>
       <r>    6.2664    1.0000 </r>
       <r>    6.2664    1.0000 </r>
       <r>    6.2759    1.0000 </r>
       <r>    6.5104    1.0000 </r>
       <r>    6.5104    1.0000 </r>
       <r>    7.1097    1.0000 </r>
       <r>   10.8688   -0.0000 </r>
       <r>   10.8688   -0.0000 </r>
       <r>   15.6076    0.0000 </r>
       <r>   15.6076    0.0000 </r>
       <r>   18.7102    0.0000 </r>
       <r>   18.7102    0.0000 </r>
       <r>   19.0107    0.0000 </r>
       <r>   19.5359    0.0000 </r>
      </set>
      <set comment="kpoint 4">
       <r>   -0.2551    1.0000 </r>
       <r>    2.5422    1.0000 </r>
       <r>    3.4761    1.0000 </r>
       <r>    3.4761    1.0000 </r>
       <r>    3.7731    1.0000 </r>
       <r>    3.8286    1.0000 </r>
       <r>    3.8286    1.0000 </r>
       <r>    4.5083    1.0000 </r>
       <r>    5.0957    1.0000 </r>
       <r>    5.0957    1.0000 </r>
       <r>    5.2192    1.0000 </r>
       <r>    5.2192    1.0000 </r>
       <r>    5.4403    1.0000 </r>
       <r>    5.8758    1.0000 </r>
       <r>    5.9081    1.0000 </r>
       <r>    5.9204    1.0000 </r>
       <r>    5.9204    1.0000 </r>
       <r>    6.0122    1.0000 </r>
       <r>    6.0122    1.0000 </r>
       <r>    6.1976    1.0000 </r>
       <r>    6.5107    1.0000 </r>
       <r>    6.5107    1.0000 </r>
       <r>   12.1273   -0.0000 </r>
       <r>   12.1273   -0.0000 </r>
       <r>   15.9145    0.0000 </r>
       <r>   15.9145    0.0000 </r>
       <r>   16.9041    0.0000 </r>
       <r>   16.9041    0.0000 </r>
       <r>   18.3068    0.0000 </r>
       <r>   18.3068    0.0000 </r>
      </set>
      <set comment="kpoint 5">
       <r>    0.7018    1.0000 </r>
       <r>    1.7400    1.0000 </r>
       <r>    3.6816    1.0000 </r>
       <r>    3.6816    1.0000 </r>
       <r>    4.0081    1.0000 </r>
       <r>    4.1538    1.0000 </r>
       <r>    4.1538    1.0000 </r>
       <r>    4.2634    1.0000 </r>
       <r>    4.5781    1.0000 </r>
       <r>    4.5781    1.0000 </r>
       <r>    5.2993    1.0000 </r>
       <r>    5.3375    1.0000 </r>
       <r>    5.4545    1.0000 </r>
       <r>    5.4545    1.0000 </r>
       <r>    5.7284    1.0000 </r>
       <r>    5.7284    1.0000 </r>
       <r>    5.7462    1.0000 </r>
       <r>    5.7462    1.0000 </r>
       <r>    6.0017    1.0000 </r>
       <r>    6.1023    1.0000 </r>
       <r>    6.5109    1.0000 </r>
       <r>    6.5109    1.0000 </r>
       <r>   13.5769    0.0000 </r>
       <r>   13.5769    0.0000 </r>
       <r>   15.1781    0.0000 </r>
       <r>   15.1781    0.0000 </r>
       <r>   16.3576    0.0000 </r>
       <r>   16.3576    0.0000 </r>
       <r>   17.3568    0.0000 </r>
       <r>   17.3568    0.0000 </r>
      </set>
      <set comment="kpoint 6">
       <r>   -1.2913    1.0000 </r>
       <r>    3.0149    1.0000 </r>
       <r>    3.0149    1.0000 </r>
       <r>    3.0837    1.0000 </r>
       <r>    3.5068    1.0000 </r>
       <r>    3.5068    1.0000 </r>
       <r>    3.5081    1.0000 </r>
       <r>    4.8208    1.0000 </r>
       <r>    4.9483    1.0000 </r>
       <r>    4.9612    1.0000 </r>
       <r>    5.7124    1.0000 </r>
       <r>    5.7754    1.0000 </r>
       <r>    6.0590    1.0000 </r>
       <r>    6.1207    1.0000 </r>
       <r>    6.1207    1.0000 </r>
       <r>    6.2391    1.0000 </r>
       <r>    6.3037    1.0000 </r>
       <r>    6.3037    1.0000 </r>
       <r>    6.4450    1.0000 </r>
       <r>    6.4450    1.0000 </r>
       <r>    6.4683    1.0000 </r>
       <r>    9.0449   -0.0000 </r>
       <r>    9.0449   -0.0000 </r>
       <r>   10.2607   -0.0000 </r>
       <r>   15.4913    0.0000 </r>
       <r>   16.6174    0.0000 </r>
       <r>   16.6174    0.0000 </r>
       <r>   18.7399    0.0000 </r>
       <r>   20.6478    0.0000 </r>
       <r>   20.6478    0.0000 </r>
      </set>
      <set comment="kpoint 7">
       <r>   -0.8400    1.0000 </r>
       <r>    2.9604    1.0000 </r>
       <r>    3.2229    1.0000 </r>
       <r>    3.2750    1.0000 </r>
       <r>    3.6238    1.0000 </r>
       <r>    3.6332    1.0000 </r>
       <r>    3.6367    1.0000 </r>
       <r>    4.7023    1.0000 </r>
       <r>    5.0477    1.0000 </r>
       <r>    5.0480    1.0000 </r>
       <r>    5.5601    1.0000 </r>
       <r>    5.5915    1.0000 </r>
       <r>    5.6152    1.0000 </r>
       <r>    5.8267    1.0000 </r>
       <r>    5.8425    1.0000 </r>
       <r>    6.0948    1.0000 </r>
       <r>    6.1449    1.0000 </r>
       <r>    6.2562    1.0000 </r>
       <r>    6.2657    1.0000 </r>
       <r>    6.4445    1.0000 </r>
       <r>    6.4463    1.0000 </r>
       <r>    7.5838    1.0047 </r>
       <r>    9.9302   -0.0000 </r>
       <r>   11.1599   -0.0000 </r>
       <r>   15.6363    0.0000 </r>
       <r>   16.8729    0.0000 </r>
       <r>   16.9128    0.0000 </r>
       <r>   18.9018    0.0000 </r>
       <r>   19.1126    0.0000 </r>
       <r>   19.7175    0.0000 </r>
      </set>
      <set comment="kpoint 8">
       <r>   -0.1132    1.0000 </r>
       <r>    2.6422    1.0000 </r>
       <r>    3.5016    1.0000 </r>
       <r>    3.5327    1.0000 </r>
       <r>    3.8050    1.0000 </r>
       <r>    3.8372    1.0000 </r>
       <r>    3.8563    1.0000 </r>
       <r>    4.5101    1.0000 </r>
       <r>    4.9924    1.0000 </r>
       <r>    5.0595    1.0000 </r>
       <r>    5.1561    1.0000 </r>
       <r>    5.2220    1.0000 </r>
       <r>    5.4182    1.0000 </r>
       <r>    5.5027    1.0000 </r>
       <r>    5.8946    1.0000 </r>
       <r>    5.9213    1.0000 </r>
       <r>    5.9320    1.0000 </r>
       <r>    6.0112    1.0000 </r>
       <r>    6.1203    1.0000 </r>
       <r>    6.4415    1.0000 </r>
       <r>    6.4435    1.0000 </r>
       <r>    6.5683    1.0000 </r>
       <r>   11.0222   -0.0000 </r>
       <r>   12.3728   -0.0000 </r>
       <r>   15.0650    0.0000 </r>
       <r>   16.1134    0.0000 </r>
       <r>   17.0956    0.0000 </r>
       <r>   17.3138    0.0000 </r>
       <r>   18.4775    0.0000 </r>
       <r>   20.2579    0.0000 </r>
      </set>
      <set comment="kpoint 9">
       <r>    0.8330    1.0000 </r>
       <r>    1.8562    1.0000 </r>
       <r>    3.7283    1.0000 </r>
       <r>    3.7418    1.0000 </r>
       <r>    4.0310    1.0000 </r>
       <r>    4.1164    1.0000 </r>
       <r>    4.1686    1.0000 </r>
       <r>    4.2759    1.0000 </r>
       <r>    4.5013    1.0000 </r>
       <r>    4.5731    1.0000 </r>
       <r>    5.1450    1.0000 </r>
       <r>    5.1503    1.0000 </r>
       <r>    5.4553    1.0000 </r>
       <r>    5.5751    1.0000 </r>
       <r>    5.7279    1.0000 </r>
       <r>    5.7364    1.0000 </r>
       <r>    5.7518    1.0000 </r>
       <r>    5.8377    1.0000 </r>
       <r>    6.0439    1.0000 </r>
       <r>    6.2023    1.0000 </r>
       <r>    6.4413    1.0000 </r>
       <r>    6.4423    1.0000 </r>
       <r>   12.2462   -0.0000 </r>
       <r>   13.5964    0.0000 </r>
       <r>   13.7942    0.0000 </r>
       <r>   15.3783    0.0000 </r>
       <r>   16.5885    0.0000 </r>
       <r>   17.3088    0.0000 </r>
       <r>   18.1542    0.0000 </r>
       <r>   19.0799    0.0000 </r>
      </set>
      <set comment="kpoint 10">
       <r>   -0.4007    1.0000 </r>
       <r>    3.1966    1.0000 </r>
       <r>    3.1966    1.0000 </r>
       <r>    3.4434    1.0000 </r>
       <r>    3.7301    1.0000 </r>
       <r>    3.7401    1.0000 </r>
       <r>    3.7401    1.0000 </r>
       <r>    4.6403    1.0000 </r>
       <r>    5.0695    1.0000 </r>
       <r>    5.1044    1.0000 </r>
       <r>    5.2696    1.0000 </r>
       <r>    5.2696    1.0000 </r>
       <r>    5.3241    1.0000 </r>
       <r>    5.5825    1.0000 </r>
       <r>    5.8792    1.0000 </r>
       <r>    5.9788    1.0000 </r>
       <r>    6.1169    1.0000 </r>
       <r>    6.1169    1.0000 </r>
       <r>    6.2637    1.0000 </r>
       <r>    6.2637    1.0000 </r>
       <r>    6.3457    1.0000 </r>
       <r>    8.3976   -0.0105 </r>
       <r>    8.3976   -0.0105 </r>
       <r>   11.9404   -0.0000 </r>
       <r>   14.7725    0.0000 </r>
       <r>   16.0015    0.0000 </r>
       <r>   19.3966    0.0000 </r>
       <r>   19.3966    0.0000 </r>
       <r>   19.4568    0.0000 </r>
       <r>   19.4568    0.0000 </r>
      </set>
      <set comment="kpoint 11">
       <r>    0.3040    1.0000 </r>
       <r>    2.9218    1.0000 </r>
       <r>    3.5231    1.0000 </r>
       <r>    3.6777    1.0000 </r>
       <r>    3.8745    1.0000 </r>
       <r>    3.8998    1.0000 </r>
       <r>    3.9357    1.0000 </r>
       <r>    4.4997    1.0000 </r>
       <r>    4.7571    1.0000 </r>
       <r>    4.9449    1.0000 </r>
       <r>    4.9665    1.0000 </r>
       <r>    5.0759    1.0000 </r>
       <r>    5.2486    1.0000 </r>
       <r>    5.5179    1.0000 </r>
       <r>    5.8143    1.0000 </r>
       <r>    5.9164    1.0000 </r>
       <r>    5.9954    1.0000 </r>
       <r>    6.0095    1.0000 </r>
       <r>    6.0298    1.0000 </r>
       <r>    6.2615    1.0000 </r>
       <r>    6.2897    1.0000 </r>
       <r>    7.2226    1.0000 </r>
       <r>    9.3306   -0.0000 </r>
       <r>   13.0578   -0.0000 </r>
       <r>   13.0857   -0.0000 </r>
       <r>   16.3325    0.0000 </r>
       <r>   17.6501    0.0000 </r>
       <r>   18.8325    0.0000 </r>
       <r>   20.0693    0.0000 </r>
       <r>   20.3260    0.0000 </r>
      </set>
      <set comment="kpoint 12">
       <r>    1.2142    1.0000 </r>
       <r>    2.1869    1.0000 </r>
       <r>    3.8206    1.0000 </r>
       <r>    3.9093    1.0000 </r>
       <r>    4.0133    1.0000 </r>
       <r>    4.0970    1.0000 </r>
       <r>    4.2093    1.0000 </r>
       <r>    4.3069    1.0000 </r>
       <r>    4.3305    1.0000 </r>
       <r>    4.5537    1.0000 </r>
       <r>    4.8854    1.0000 </r>
       <r>    4.9881    1.0000 </r>
       <r>    5.4657    1.0000 </r>
       <r>    5.5830    1.0000 </r>
       <r>    5.6913    1.0000 </r>
       <r>    5.7299    1.0000 </r>
       <r>    5.7332    1.0000 </r>
       <r>    5.7835    1.0000 </r>
       <r>    6.2476    1.0000 </r>
       <r>    6.2613    1.0000 </r>
       <r>    6.2675    1.0000 </r>
       <r>    6.5792    1.0000 </r>
       <r>   10.3900   -0.0000 </r>
       <r>   11.6244   -0.0000 </r>
       <r>   14.4135    0.0000 </r>
       <r>   15.9552    0.0000 </r>
       <r>   16.9114    0.0000 </r>
       <r>   17.7451    0.0000 </r>
       <r>   20.8464    0.0000 </r>
       <r>   21.4528    0.0000 </r>
      </set>
      <set comment="kpoint 13">
       <r>    0.9659    1.0000 </r>
       <r>    3.3133    1.0000 </r>
       <r>    3.3133    1.0000 </r>
       <r>    3.8148    1.0000 </r>
       <r>    3.9852    1.0000 </r>
       <r>    4.0555    1.0000 </r>
       <r>    4.0555    1.0000 </r>
       <r>    4.4453    1.0000 </r>
       <r>    4.6001    1.0000 </r>
       <r>    4.6001    1.0000 </r>
       <r>    4.7510    1.0000 </r>
       <r>    5.0077    1.0000 </r>
       <r>    5.3388    1.0000 </r>
       <r>    5.4513    1.0000 </r>
       <r>    5.6881    1.0000 </r>
       <r>    5.8113    1.0000 </r>
       <r>    5.8113    1.0000 </r>
       <r>    6.0114    1.0000 </r>
       <r>    6.0114    1.0000 </r>
       <r>    6.1502    1.0000 </r>
       <r>    6.2639    1.0000 </r>
       <r>    7.9656    0.7015 </r>
       <r>    7.9656    0.7015 </r>
       <r>   11.3606   -0.0000 </r>
       <r>   14.0822    0.0000 </r>
       <r>   16.7727    0.0000 </r>
       <r>   18.5195    0.0000 </r>
       <r>   18.5195    0.0000 </r>
       <r>   19.5794    0.0000 </r>
       <r>   19.5794    0.0000 </r>
      </set>
      <set comment="kpoint 14">
       <r>    1.8032    1.0000 </r>
       <r>    2.6711    1.0000 </r>
       <r>    3.6817    1.0000 </r>
       <r>    3.8496    1.0000 </r>
       <r>    4.1458    1.0000 </r>
       <r>    4.1978    1.0000 </r>
       <r>    4.2647    1.0000 </r>
       <r>    4.3290    1.0000 </r>
       <r>    4.3376    1.0000 </r>
       <r>    4.5083    1.0000 </r>
       <r>    4.6875    1.0000 </r>
       <r>    4.8749    1.0000 </r>
       <r>    5.4701    1.0000 </r>
       <r>    5.5096    1.0000 </r>
       <r>    5.5896    1.0000 </r>
       <r>    5.6267    1.0000 </r>
       <r>    5.6383    1.0000 </r>
       <r>    5.7457    1.0000 </r>
       <r>    6.0250    1.0000 </r>
       <r>    6.0647    1.0000 </r>
       <r>    6.5944    1.0000 </r>
       <r>    7.0965    1.0000 </r>
       <r>    8.8485   -0.0000 </r>
       <r>    9.9554   -0.0000 </r>
       <r>   15.3646    0.0000 </r>
       <r>   16.8545    0.0000 </r>
       <r>   17.4436    0.0000 </r>
       <r>   18.3759    0.0000 </r>
       <r>   19.6519    0.0000 </r>
       <r>   20.5705    0.0000 </r>
      </set>
      <set comment="kpoint 15">
       <r>    2.5104    1.0000 </r>
       <r>    3.1887    1.0000 </r>
       <r>    3.1887    1.0000 </r>
       <r>    3.5950    1.0000 </r>
       <r>    4.3163    1.0000 </r>
       <r>    4.3163    1.0000 </r>
       <r>    4.3442    1.0000 </r>
       <r>    4.3791    1.0000 </r>
       <r>    4.4273    1.0000 </r>
       <r>    4.5453    1.0000 </r>
       <r>    4.5453    1.0000 </r>
       <r>    4.7526    1.0000 </r>
       <r>    5.3986    1.0000 </r>
       <r>    5.4764    1.0000 </r>
       <r>    5.4842    1.0000 </r>
       <r>    5.4842    1.0000 </r>
       <r>    5.6157    1.0000 </r>
       <r>    5.7943    1.0000 </r>
       <r>    5.7943    1.0000 </r>
       <r>    5.8979    1.0000 </r>
       <r>    7.0632    1.0000 </r>
       <r>    7.7587    1.0350 </r>
       <r>    7.7587    1.0350 </r>
       <r>    8.6740   -0.0000 </r>
       <r>   16.5820    0.0000 </r>
       <r>   18.0206    0.0000 </r>
       <r>   18.0206    0.0000 </r>
       <r>   18.2187    0.0000 </r>
       <r>   19.2592    0.0000 </r>
       <r>   19.2592    0.0000 </r>
      </set>
      <set comment="kpoint 16">
       <r>   -1.1401    1.0000 </r>
       <r>    3.0868    1.0000 </r>
       <r>    3.0868    1.0000 </r>
       <r>    3.0868    1.0000 </r>
       <r>    3.5472    1.0000 </r>
       <r>    3.5472    1.0000 </r>
       <r>    3.5472    1.0000 </r>
       <r>    4.7986    1.0000 </r>
       <r>    4.9746    1.0000 </r>
       <r>    4.9746    1.0000 </r>
       <r>    5.7381    1.0000 </r>
       <r>    5.7381    1.0000 </r>
       <r>    5.9592    1.0000 </r>
       <r>    5.9592    1.0000 </r>
       <r>    5.9592    1.0000 </r>
       <r>    6.1791    1.0000 </r>
       <r>    6.1791    1.0000 </r>
       <r>    6.1791    1.0000 </r>
       <r>    6.4535    1.0000 </r>
       <r>    6.4535    1.0000 </r>
       <r>    6.4535    1.0000 </r>
       <r>    9.3793   -0.0000 </r>
       <r>    9.3793   -0.0000 </r>
       <r>    9.3793   -0.0000 </r>
       <r>   16.6983    0.0000 </r>
       <r>   16.6983    0.0000 </r>
       <r>   16.6983    0.0000 </r>
       <r>   18.9340    0.0000 </r>
       <r>   18.9340    0.0000 </r>
       <r>   18.9340    0.0000 </r>
      </set>
      <set comment="kpoint 17">
       <r>   -0.6931    1.0000 </r>
       <r>    3.0387    1.0000 </r>
       <r>    3.2839    1.0000 </r>
       <r>    3.2839    1.0000 </r>
       <r>    3.6612    1.0000 </r>
       <r>    3.6685    1.0000 </r>
       <r>    3.6685    1.0000 </r>
       <r>    4.6948    1.0000 </r>
       <r>    5.0482    1.0000 </r>
       <r>    5.0534    1.0000 </r>
       <r>    5.4852    1.0000 </r>
       <r>    5.4852    1.0000 </r>
       <r>    5.6431    1.0000 </r>
       <r>    5.6645    1.0000 </r>
       <r>    5.8112    1.0000 </r>
       <r>    6.0224    1.0000 </r>
       <r>    6.0522    1.0000 </r>
       <r>    6.0522    1.0000 </r>
       <r>    6.4009    1.0000 </r>
       <r>    6.4293    1.0000 </r>
       <r>    6.4293    1.0000 </r>
       <r>    7.8954    0.9188 </r>
       <r>   10.1797   -0.0000 </r>
       <r>   10.1797   -0.0000 </r>
       <r>   16.8272    0.0000 </r>
       <r>   16.8272    0.0000 </r>
       <r>   17.2073    0.0000 </r>
       <r>   17.2073    0.0000 </r>
       <r>   19.1618    0.0000 </r>
       <r>   19.5514    0.0000 </r>
      </set>
      <set comment="kpoint 18">
       <r>    0.0258    1.0000 </r>
       <r>    2.7324    1.0000 </r>
       <r>    3.5526    1.0000 </r>
       <r>    3.5526    1.0000 </r>
       <r>    3.8380    1.0000 </r>
       <r>    3.8623    1.0000 </r>
       <r>    3.8623    1.0000 </r>
       <r>    4.5155    1.0000 </r>
       <r>    4.9735    1.0000 </r>
       <r>    4.9735    1.0000 </r>
       <r>    5.1333    1.0000 </r>
       <r>    5.1847    1.0000 </r>
       <r>    5.2620    1.0000 </r>
       <r>    5.5771    1.0000 </r>
       <r>    5.8096    1.0000 </r>
       <r>    5.8758    1.0000 </r>
       <r>    5.8758    1.0000 </r>
       <r>    5.9208    1.0000 </r>
       <r>    6.3083    1.0000 </r>
       <r>    6.4075    1.0000 </r>
       <r>    6.4075    1.0000 </r>
       <r>    6.7646    1.0000 </r>
       <r>   11.2109   -0.0000 </r>
       <r>   11.2109   -0.0000 </r>
       <r>   15.3398    0.0000 </r>
       <r>   15.3398    0.0000 </r>
       <r>   17.4808    0.0000 </r>
       <r>   17.4808    0.0000 </r>
       <r>   20.3349    0.0000 </r>
       <r>   20.4225    0.0000 </r>
      </set>
      <set comment="kpoint 19">
       <r>    0.9591    1.0000 </r>
       <r>    1.9642    1.0000 </r>
       <r>    3.7878    1.0000 </r>
       <r>    3.7878    1.0000 </r>
       <r>    4.0574    1.0000 </r>
       <r>    4.0900    1.0000 </r>
       <r>    4.0900    1.0000 </r>
       <r>    4.2931    1.0000 </r>
       <r>    4.5476    1.0000 </r>
       <r>    4.5476    1.0000 </r>
       <r>    5.0545    1.0000 </r>
       <r>    5.0919    1.0000 </r>
       <r>    5.3643    1.0000 </r>
       <r>    5.5797    1.0000 </r>
       <r>    5.7206    1.0000 </r>
       <r>    5.7206    1.0000 </r>
       <r>    5.7306    1.0000 </r>
       <r>    6.0519    1.0000 </r>
       <r>    6.1110    1.0000 </r>
       <r>    6.1866    1.0000 </r>
       <r>    6.3981    1.0000 </r>
       <r>    6.3981    1.0000 </r>
       <r>   12.3444   -0.0000 </r>
       <r>   12.3444   -0.0000 </r>
       <r>   13.8975    0.0000 </r>
       <r>   13.8975    0.0000 </r>
       <r>   18.1841    0.0000 </r>
       <r>   18.1841    0.0000 </r>
       <r>   19.2370    0.0000 </r>
       <r>   19.2370    0.0000 </r>
      </set>
      <set comment="kpoint 20">
       <r>   -0.2598    1.0000 </r>
       <r>    3.2532    1.0000 </r>
       <r>    3.2532    1.0000 </r>
       <r>    3.4470    1.0000 </r>
       <r>    3.7650    1.0000 </r>
       <r>    3.7739    1.0000 </r>
       <r>    3.7739    1.0000 </r>
       <r>    4.6435    1.0000 </r>
       <r>    5.0669    1.0000 </r>
       <r>    5.0860    1.0000 </r>
       <r>    5.2161    1.0000 </r>
       <r>    5.2161    1.0000 </r>
       <r>    5.2445    1.0000 </r>
       <r>    5.6455    1.0000 </r>
       <r>    5.8518    1.0000 </r>
       <r>    5.8889    1.0000 </r>
       <r>    5.9130    1.0000 </r>
       <r>    5.9130    1.0000 </r>
       <r>    6.3791    1.0000 </r>
       <r>    6.3791    1.0000 </r>
       <r>    6.3804    1.0000 </r>
       <r>    8.5915   -0.0002 </r>
       <r>    8.5915   -0.0002 </r>
       <r>   10.8275   -0.0000 </r>
       <r>   15.0673    0.0000 </r>
       <r>   17.3011    0.0000 </r>
       <r>   17.5805    0.0000 </r>
       <r>   17.5805    0.0000 </r>
       <r>   19.5727    0.0000 </r>
       <r>   19.5727    0.0000 </r>
      </set>
      <set comment="kpoint 21">
       <r>    0.4332    1.0000 </r>
       <r>    2.9778    1.0000 </r>
       <r>    3.5427    1.0000 </r>
       <r>    3.6659    1.0000 </r>
       <r>    3.9066    1.0000 </r>
       <r>    3.9398    1.0000 </r>
       <r>    3.9513    1.0000 </r>
       <r>    4.5192    1.0000 </r>
       <r>    4.7803    1.0000 </r>
       <r>    4.9073    1.0000 </r>
       <r>    4.9386    1.0000 </r>
       <r>    5.0699    1.0000 </r>
       <r>    5.1735    1.0000 </r>
       <r>    5.6334    1.0000 </r>
       <r>    5.7062    1.0000 </r>
       <r>    5.7373    1.0000 </r>
       <r>    5.7856    1.0000 </r>
       <r>    6.0043    1.0000 </r>
       <r>    6.2756    1.0000 </r>
       <r>    6.3216    1.0000 </r>
       <r>    6.3225    1.0000 </r>
       <r>    7.3201    1.0000 </r>
       <r>    9.4632   -0.0000 </r>
       <r>   11.6511   -0.0000 </r>
       <r>   13.4626   -0.0000 </r>
       <r>   15.8836    0.0000 </r>
       <r>   17.8124    0.0000 </r>
       <r>   18.4247    0.0000 </r>
       <r>   20.1026    0.0000 </r>
       <r>   20.9377    0.0000 </r>
      </set>
      <set comment="kpoint 22">
       <r>    1.3234    1.0000 </r>
       <r>    2.2668    1.0000 </r>
       <r>    3.8196    1.0000 </r>
       <r>    3.8984    1.0000 </r>
       <r>    3.9805    1.0000 </r>
       <r>    4.0756    1.0000 </r>
       <r>    4.1389    1.0000 </r>
       <r>    4.3410    1.0000 </r>
       <r>    4.5143    1.0000 </r>
       <r>    4.6149    1.0000 </r>
       <r>    4.8726    1.0000 </r>
       <r>    4.9780    1.0000 </r>
       <r>    5.3064    1.0000 </r>
       <r>    5.4898    1.0000 </r>
       <r>    5.6256    1.0000 </r>
       <r>    5.6502    1.0000 </r>
       <r>    5.7958    1.0000 </r>
       <r>    6.0763    1.0000 </r>
       <r>    6.2147    1.0000 </r>
       <r>    6.2873    1.0000 </r>
       <r>    6.2878    1.0000 </r>
       <r>    6.5655    1.0000 </r>
       <r>   10.4695   -0.0000 </r>
       <r>   11.5564   -0.0000 </r>
       <r>   13.2316   -0.0000 </r>
       <r>   14.4075    0.0000 </r>
       <r>   18.5814    0.0000 </r>
       <r>   19.5238    0.0000 </r>
       <r>   19.6039    0.0000 </r>
       <r>   20.8508    0.0000 </r>
      </set>
      <set comment="kpoint 23">
       <r>    1.0754    1.0000 </r>
       <r>    3.2986    1.0000 </r>
       <r>    3.2986    1.0000 </r>
       <r>    3.7309    1.0000 </r>
       <r>    4.0449    1.0000 </r>
       <r>    4.1109    1.0000 </r>
       <r>    4.1109    1.0000 </r>
       <r>    4.4895    1.0000 </r>
       <r>    4.6492    1.0000 </r>
       <r>    4.6492    1.0000 </r>
       <r>    4.7884    1.0000 </r>
       <r>    5.0090    1.0000 </r>
       <r>    5.1920    1.0000 </r>
       <r>    5.5850    1.0000 </r>
       <r>    5.6123    1.0000 </r>
       <r>    5.6123    1.0000 </r>
       <r>    5.6298    1.0000 </r>
       <r>    6.1867    1.0000 </r>
       <r>    6.1867    1.0000 </r>
       <r>    6.2227    1.0000 </r>
       <r>    6.2298    1.0000 </r>
       <r>    8.0248    0.4580 </r>
       <r>    8.0248    0.4580 </r>
       <r>   11.2282   -0.0000 </r>
       <r>   13.0115   -0.0000 </r>
       <r>   16.7051    0.0000 </r>
       <r>   16.7051    0.0000 </r>
       <r>   18.3842    0.0000 </r>
       <r>   20.6300    0.0000 </r>
       <r>   21.6235    0.0000 </r>
      </set>
      <set comment="kpoint 24">
       <r>    1.8778    1.0000 </r>
       <r>    2.6933    1.0000 </r>
       <r>    3.5724    1.0000 </r>
       <r>    3.7120    1.0000 </r>
       <r>    4.1974    1.0000 </r>
       <r>    4.2640    1.0000 </r>
       <r>    4.2791    1.0000 </r>
       <r>    4.4080    1.0000 </r>
       <r>    4.5192    1.0000 </r>
       <r>    4.6446    1.0000 </r>
       <r>    4.7131    1.0000 </r>
       <r>    4.8839    1.0000 </r>
       <r>    5.2628    1.0000 </r>
       <r>    5.4151    1.0000 </r>
       <r>    5.4846    1.0000 </r>
       <r>    5.5085    1.0000 </r>
       <r>    5.7477    1.0000 </r>
       <r>    5.9785    1.0000 </r>
       <r>    6.1318    1.0000 </r>
       <r>    6.1464    1.0000 </r>
       <r>    6.5559    1.0000 </r>
       <r>    7.0819    1.0000 </r>
       <r>    8.8837   -0.0000 </r>
       <r>    9.9595   -0.0000 </r>
       <r>   13.9524    0.0000 </r>
       <r>   15.2118    0.0000 </r>
       <r>   17.7818    0.0000 </r>
       <r>   19.0929    0.0000 </r>
       <r>   19.2177    0.0000 </r>
       <r>   20.3145    0.0000 </r>
      </set>
      <set comment="kpoint 25">
       <r>    2.5246    1.0000 </r>
       <r>    3.1246    1.0000 </r>
       <r>    3.1246    1.0000 </r>
       <r>    3.4633    1.0000 </r>
       <r>    4.4205    1.0000 </r>
       <r>    4.4543    1.0000 </r>
       <r>    4.4543    1.0000 </r>
       <r>    4.4642    1.0000 </r>
       <r>    4.5959    1.0000 </r>
       <r>    4.5959    1.0000 </r>
       <r>    4.6101    1.0000 </r>
       <r>    4.7749    1.0000 </r>
       <r>    5.2467    1.0000 </r>
       <r>    5.3428    1.0000 </r>
       <r>    5.3428    1.0000 </r>
       <r>    5.3591    1.0000 </r>
       <r>    5.7826    1.0000 </r>
       <r>    5.9410    1.0000 </r>
       <r>    5.9410    1.0000 </r>
       <r>    6.0090    1.0000 </r>
       <r>    7.0244    1.0000 </r>
       <r>    7.7434    1.0332 </r>
       <r>    7.7434    1.0332 </r>
       <r>    8.6694   -0.0000 </r>
       <r>   14.9921    0.0000 </r>
       <r>   16.2709    0.0000 </r>
       <r>   16.2709    0.0000 </r>
       <r>   17.5659    0.0000 </r>
       <r>   20.1191    0.0000 </r>
       <r>   21.2825    0.0000 </r>
      </set>
      <set comment="kpoint 26">
       <r>    0.1537    1.0000 </r>
       <r>    3.3935    1.0000 </r>
       <r>    3.3935    1.0000 </r>
       <r>    3.3935    1.0000 </r>
       <r>    3.8812    1.0000 </r>
       <r>    3.8812    1.0000 </r>
       <r>    3.8812    1.0000 </r>
       <r>    4.6332    1.0000 </r>
       <r>    5.0447    1.0000 </r>
       <r>    5.0447    1.0000 </r>
       <r>    5.0447    1.0000 </r>
       <r>    5.0664    1.0000 </r>
       <r>    5.0664    1.0000 </r>
       <r>    5.7006    1.0000 </r>
       <r>    5.7006    1.0000 </r>
       <r>    5.7006    1.0000 </r>
       <r>    5.7946    1.0000 </r>
       <r>    5.7946    1.0000 </r>
       <r>    6.4121    1.0000 </r>
       <r>    6.4121    1.0000 </r>
       <r>    6.4121    1.0000 </r>
       <r>    9.1031   -0.0000 </r>
       <r>    9.1031   -0.0000 </r>
       <r>    9.1031   -0.0000 </r>
       <r>   15.6250    0.0000 </r>
       <r>   15.6250    0.0000 </r>
       <r>   15.6250    0.0000 </r>
       <r>   19.9129    0.0000 </r>
       <r>   19.9129    0.0000 </r>
       <r>   19.9129    0.0000 </r>
      </set>
      <set comment="kpoint 27">
       <r>    0.8080    1.0000 </r>
       <r>    3.1116    1.0000 </r>
       <r>    3.5507    1.0000 </r>
       <r>    3.5507    1.0000 </r>
       <r>    4.0449    1.0000 </r>
       <r>    4.0449    1.0000 </r>
       <r>    4.0703    1.0000 </r>
       <r>    4.5722    1.0000 </r>
       <r>    4.8295    1.0000 </r>
       <r>    4.8295    1.0000 </r>
       <r>    4.8573    1.0000 </r>
       <r>    5.0467    1.0000 </r>
       <r>    5.0888    1.0000 </r>
       <r>    5.4939    1.0000 </r>
       <r>    5.5658    1.0000 </r>
       <r>    5.5658    1.0000 </r>
       <r>    5.8116    1.0000 </r>
       <r>    5.9751    1.0000 </r>
       <r>    6.3631    1.0000 </r>
       <r>    6.3631    1.0000 </r>
       <r>    6.3855    1.0000 </r>
       <r>    7.6543    1.0143 </r>
       <r>    9.8025   -0.0000 </r>
       <r>    9.8025   -0.0000 </r>
       <r>   13.9731    0.0000 </r>
       <r>   13.9731    0.0000 </r>
       <r>   16.4523    0.0000 </r>
       <r>   20.3880    0.0000 </r>
       <r>   20.4928    0.0000 </r>
       <r>   20.4928    0.0000 </r>
      </set>
      <set comment="kpoint 28">
       <r>    1.6315    1.0000 </r>
       <r>    2.4772    1.0000 </r>
       <r>    3.6640    1.0000 </r>
       <r>    3.6640    1.0000 </r>
       <r>    4.1485    1.0000 </r>
       <r>    4.1485    1.0000 </r>
       <r>    4.2779    1.0000 </r>
       <r>    4.4511    1.0000 </r>
       <r>    4.7265    1.0000 </r>
       <r>    4.7265    1.0000 </r>
       <r>    4.8343    1.0000 </r>
       <r>    4.9459    1.0000 </r>
       <r>    5.1698    1.0000 </r>
       <r>    5.3089    1.0000 </r>
       <r>    5.4718    1.0000 </r>
       <r>    5.4718    1.0000 </r>
       <r>    6.0674    1.0000 </r>
       <r>    6.1505    1.0000 </r>
       <r>    6.2943    1.0000 </r>
       <r>    6.3092    1.0000 </r>
       <r>    6.3092    1.0000 </r>
       <r>    6.6537    1.0000 </r>
       <r>   10.4973   -0.0000 </r>
       <r>   10.4973   -0.0000 </r>
       <r>   12.8014   -0.0000 </r>
       <r>   12.8014   -0.0000 </r>
       <r>   17.5331    0.0000 </r>
       <r>   18.8476    0.0000 </r>
       <r>   21.3006    0.0000 </r>
       <r>   21.3006    0.0000 </r>
      </set>
      <set comment="kpoint 29">
       <r>    1.3852    1.0000 </r>
       <r>    3.2514    1.0000 </r>
       <r>    3.2514    1.0000 </r>
       <r>    3.5074    1.0000 </r>
       <r>    4.2176    1.0000 </r>
       <r>    4.2742    1.0000 </r>
       <r>    4.2742    1.0000 </r>
       <r>    4.6333    1.0000 </r>
       <r>    4.7786    1.0000 </r>
       <r>    4.7786    1.0000 </r>
       <r>    4.8736    1.0000 </r>
       <r>    5.0061    1.0000 </r>
       <r>    5.0528    1.0000 </r>
       <r>    5.3727    1.0000 </r>
       <r>    5.3727    1.0000 </r>
       <r>    5.3894    1.0000 </r>
       <r>    5.8617    1.0000 </r>
       <r>    6.1423    1.0000 </r>
       <r>    6.3296    1.0000 </r>
       <r>    6.3455    1.0000 </r>
       <r>    6.3455    1.0000 </r>
       <r>    8.2092   -0.0220 </r>
       <r>    8.2092   -0.0220 </r>
       <r>   10.0962   -0.0000 </r>
       <r>   12.6395   -0.0000 </r>
       <r>   14.7612    0.0000 </r>
       <r>   14.7612    0.0000 </r>
       <r>   18.6195    0.0000 </r>
       <r>   21.1043    0.0000 </r>
       <r>   23.4736    0.0000 </r>
      </set>
      <set comment="kpoint 30">
       <r>    2.0761    1.0000 </r>
       <r>    2.7426    1.0000 </r>
       <r>    3.3585    1.0000 </r>
       <r>    3.4402    1.0000 </r>
       <r>    4.3562    1.0000 </r>
       <r>    4.3937    1.0000 </r>
       <r>    4.5173    1.0000 </r>
       <r>    4.6433    1.0000 </r>
       <r>    4.7932    1.0000 </r>
       <r>    4.8259    1.0000 </r>
       <r>    4.8966    1.0000 </r>
       <r>    4.9004    1.0000 </r>
       <r>    5.0895    1.0000 </r>
       <r>    5.2036    1.0000 </r>
       <r>    5.2913    1.0000 </r>
       <r>    5.2970    1.0000 </r>
       <r>    6.0124    1.0000 </r>
       <r>    6.2330    1.0000 </r>
       <r>    6.2709    1.0000 </r>
       <r>    6.2740    1.0000 </r>
       <r>    6.4445    1.0000 </r>
       <r>    7.0643    1.0000 </r>
       <r>    8.9347   -0.0000 </r>
       <r>    9.7348   -0.0000 </r>
       <r>   12.5189   -0.0000 </r>
       <r>   13.4054   -0.0000 </r>
       <r>   15.8058    0.0000 </r>
       <r>   17.0926    0.0000 </r>
       <r>   21.9662    0.0000 </r>
       <r>   23.0382    0.0000 </r>
      </set>
      <set comment="kpoint 31">
       <r>    2.5586    1.0000 </r>
       <r>    2.9937    1.0000 </r>
       <r>    2.9937    1.0000 </r>
       <r>    3.2191    1.0000 </r>
       <r>    4.5501    1.0000 </r>
       <r>    4.6477    1.0000 </r>
       <r>    4.6477    1.0000 </r>
       <r>    4.8252    1.0000 </r>
       <r>    4.8427    1.0000 </r>
       <r>    4.8858    1.0000 </r>
       <r>    4.8858    1.0000 </r>
       <r>    4.9853    1.0000 </r>
       <r>    5.0612    1.0000 </r>
       <r>    5.1465    1.0000 </r>
       <r>    5.1465    1.0000 </r>
       <r>    5.1653    1.0000 </r>
       <r>    6.0104    1.0000 </r>
       <r>    6.1518    1.0000 </r>
       <r>    6.1518    1.0000 </r>
       <r>    6.1834    1.0000 </r>
       <r>    6.9022    1.0000 </r>
       <r>    7.6865    1.0212 </r>
       <r>    7.6865    1.0212 </r>
       <r>    8.5903   -0.0002 </r>
       <r>   13.2350   -0.0000 </r>
       <r>   14.3658    0.0000 </r>
       <r>   14.3658    0.0000 </r>
       <r>   15.5983    0.0000 </r>
       <r>   22.8717    0.0000 </r>
       <r>   24.0162    0.0000 </r>
      </set>
      <set comment="kpoint 32">
       <r>    1.8366    1.0000 </r>
       <r>    3.1914    1.0000 </r>
       <r>    3.1914    1.0000 </r>
       <r>    3.1914    1.0000 </r>
       <r>    4.4646    1.0000 </r>
       <r>    4.4646    1.0000 </r>
       <r>    4.4646    1.0000 </r>
       <r>    4.8801    1.0000 </r>
       <r>    4.9713    1.0000 </r>
       <r>    4.9713    1.0000 </r>
       <r>    4.9713    1.0000 </r>
       <r>    4.9789    1.0000 </r>
       <r>    4.9789    1.0000 </r>
       <r>    5.2002    1.0000 </r>
       <r>    5.2002    1.0000 </r>
       <r>    5.2002    1.0000 </r>
       <r>    6.0772    1.0000 </r>
       <r>    6.0772    1.0000 </r>
       <r>    6.3820    1.0000 </r>
       <r>    6.3820    1.0000 </r>
       <r>    6.3820    1.0000 </r>
       <r>    8.5033   -0.0015 </r>
       <r>    8.5033   -0.0015 </r>
       <r>    8.5033   -0.0015 </r>
       <r>   13.2143   -0.0000 </r>
       <r>   13.2143   -0.0000 </r>
       <r>   13.2143   -0.0000 </r>
       <r>   16.8637    0.0000 </r>
       <r>   24.1165    0.0000 </r>
       <r>   24.1165    0.0000 </r>
      </set>
      <set comment="kpoint 33">
       <r>    2.3367    1.0000 </r>
       <r>    2.7998    1.0000 </r>
       <r>    3.1515    1.0000 </r>
       <r>    3.1515    1.0000 </r>
       <r>    4.5663    1.0000 </r>
       <r>    4.5663    1.0000 </r>
       <r>    4.7177    1.0000 </r>
       <r>    4.8959    1.0000 </r>
       <r>    4.9802    1.0000 </r>
       <r>    5.0570    1.0000 </r>
       <r>    5.0613    1.0000 </r>
       <r>    5.0792    1.0000 </r>
       <r>    5.1078    1.0000 </r>
       <r>    5.1078    1.0000 </r>
       <r>    5.1696    1.0000 </r>
       <r>    5.1696    1.0000 </r>
       <r>    6.2491    1.0000 </r>
       <r>    6.3171    1.0000 </r>
       <r>    6.3388    1.0000 </r>
       <r>    6.3388    1.0000 </r>
       <r>    6.3551    1.0000 </r>
       <r>    7.1685    1.0000 </r>
       <r>    8.7820   -0.0000 </r>
       <r>    8.7820   -0.0000 </r>
       <r>   12.2799   -0.0000 </r>
       <r>   12.2799   -0.0000 </r>
       <r>   14.1543    0.0000 </r>
       <r>   15.3747    0.0000 </r>
       <r>   24.9059    0.0000 </r>
       <r>   24.9059    0.0000 </r>
      </set>
      <set comment="kpoint 34">
       <r>    2.6067    1.0000 </r>
       <r>    2.8748    1.0000 </r>
       <r>    2.8748    1.0000 </r>
       <r>    2.9883    1.0000 </r>
       <r>    4.7012    1.0000 </r>
       <r>    4.7538    1.0000 </r>
       <r>    4.7538    1.0000 </r>
       <r>    4.8709    1.0000 </r>
       <r>    4.9311    1.0000 </r>
       <r>    4.9835    1.0000 </r>
       <r>    4.9835    1.0000 </r>
       <r>    5.0009    1.0000 </r>
       <r>    5.4228    1.0000 </r>
       <r>    5.4228    1.0000 </r>
       <r>    5.4414    1.0000 </r>
       <r>    5.4918    1.0000 </r>
       <r>    6.2016    1.0000 </r>
       <r>    6.3104    1.0000 </r>
       <r>    6.3104    1.0000 </r>
       <r>    6.3130    1.0000 </r>
       <r>    6.6814    1.0000 </r>
       <r>    7.5599    1.0030 </r>
       <r>    7.5599    1.0030 </r>
       <r>    8.2119   -0.0235 </r>
       <r>   12.1796   -0.0000 </r>
       <r>   12.9031   -0.0000 </r>
       <r>   12.9031   -0.0000 </r>
       <r>   13.9685    0.0000 </r>
       <r>   25.8055    0.0000 </r>
       <r>   26.8284    0.0000 </r>
      </set>
      <set comment="kpoint 35">
       <r>    2.6834    1.0000 </r>
       <r>    2.8072    1.0000 </r>
       <r>    2.8072    1.0000 </r>
       <r>    2.8072    1.0000 </r>
       <r>    4.8183    1.0000 </r>
       <r>    4.8183    1.0000 </r>
       <r>    4.8183    1.0000 </r>
       <r>    4.8750    1.0000 </r>
       <r>    4.8750    1.0000 </r>
       <r>    4.8994    1.0000 </r>
       <r>    4.8994    1.0000 </r>
       <r>    4.8994    1.0000 </r>
       <r>    5.9177    1.0000 </r>
       <r>    5.9177    1.0000 </r>
       <r>    5.9177    1.0000 </r>
       <r>    6.3253    1.0000 </r>
       <r>    6.3253    1.0000 </r>
       <r>    6.3639    1.0000 </r>
       <r>    6.3639    1.0000 </r>
       <r>    6.3639    1.0000 </r>
       <r>    6.4043    1.0000 </r>
       <r>    7.3838    1.0000 </r>
       <r>    7.3838    1.0000 </r>
       <r>    7.3838    1.0000 </r>
       <r>   12.0849   -0.0000 </r>
       <r>   12.0849   -0.0000 </r>
       <r>   12.0849   -0.0000 </r>
       <r>   12.7586   -0.0000 </r>
       <r>   28.5086    0.0000 </r>
       <r>   28.5086    0.0000 </r>
      </set>
     </set>
    </set>
   </array>
  </eigenvalues>
  <separator name="orbital magnetization" >
   <v name="MAGDIPOLOUT">      0.00000000      0.00000000      0.00000000</v>
  </separator>
  <dos>
   <i name="efermi">      8.01484408 </i>
   <total>
    <array>
     <dimension dim="1">gridpoints</dimension>
     <dimension dim="2">spin</dimension>
     <field>energy</field>
     <field>total</field>
     <field>integrated</field>
     <set>
      <set comment="spin 1">
       <r>    -3.5977     0.0000     0.0000 </r>
       <r>    -3.4840     0.0000     0.0000 </r>
       <r>    -3.3703     0.0000     0.0000 </r>
       <r>    -3.2566    -0.0000    -0.0000 </r>
       <r>    -3.1429    -0.0000    -0.0000 </r>
       <r>    -3.0293    -0.0000    -0.0000 </r>
       <r>    -2.9156    -0.0000    -0.0000 </r>
       <r>    -2.8019    -0.0000    -0.0000 </r>
       <r>    -2.6882    -0.0000    -0.0000 </r>
       <r>    -2.5745    -0.0000    -0.0000 </r>
       <r>    -2.4608    -0.0000    -0.0000 </r>
       <r>    -2.3471    -0.0000    -0.0000 </r>
       <r>    -2.2334    -0.0000    -0.0000 </r>
       <r>    -2.1198    -0.0000    -0.0000 </r>
       <r>    -2.0061    -0.0002    -0.0000 </r>
       <r>    -1.8924    -0.0010    -0.0001 </r>
       <r>    -1.7787    -0.0024    -0.0004 </r>
       <r>    -1.6650     0.0009    -0.0003 </r>
       <r>    -1.5513     0.0240     0.0024 </r>
       <r>    -1.4376     0.0814     0.0117 </r>
       <r>    -1.3239     0.1542     0.0292 </r>
       <r>    -1.2103     0.1834     0.0501 </r>
       <r>    -1.0966     0.1495     0.0670 </r>
       <r>    -0.9829     0.1461     0.0837 </r>
       <r>    -0.8692     0.2705     0.1144 </r>
       <r>    -0.7555     0.4139     0.1615 </r>
       <r>    -0.6418     0.3645     0.2029 </r>
       <r>    -0.5281     0.1729     0.2226 </r>
       <r>    -0.4144     0.1399     0.2385 </r>
       <r>    -0.3008     0.3281     0.2758 </r>
       <r>    -0.1871     0.4944     0.3320 </r>
       <r>    -0.0734     0.5130     0.3903 </r>
       <r>     0.0403     0.4378     0.4401 </r>
       <r>     0.1540     0.3173     0.4762 </r>
       <r>     0.2677     0.3453     0.5154 </r>
       <r>     0.3814     0.5928     0.5828 </r>
       <r>     0.4951     0.6241     0.6538 </r>
       <r>     0.6087     0.3038     0.6883 </r>
       <r>     0.7224     0.2441     0.7161 </r>
       <r>     0.8361     0.5911     0.7832 </r>
       <r>     0.9498     0.7999     0.8742 </r>
       <r>     1.0635     0.6944     0.9531 </r>
       <r>     1.1772     0.6137     1.0229 </r>
       <r>     1.2909     0.8071     1.1147 </r>
       <r>     1.4046     0.8566     1.2120 </r>
       <r>     1.5182     0.4747     1.2660 </r>
       <r>     1.6319     0.2654     1.2962 </r>
       <r>     1.7456     0.6007     1.3645 </r>
       <r>     1.8593     1.1881     1.4995 </r>
       <r>     1.9730     1.3508     1.6531 </r>
       <r>     2.0867     1.0968     1.7778 </r>
       <r>     2.2004     1.0028     1.8918 </r>
       <r>     2.3141     0.9831     2.0036 </r>
       <r>     2.4277     0.9271     2.1090 </r>
       <r>     2.5414     1.3445     2.2618 </r>
       <r>     2.6551     2.1934     2.5112 </r>
       <r>     2.7688     2.6869     2.8167 </r>
       <r>     2.8825     2.8386     3.1394 </r>
       <r>     2.9962     3.4058     3.5266 </r>
       <r>     3.1099     4.2528     4.0101 </r>
       <r>     3.2236     5.0092     4.5795 </r>
       <r>     3.3372     5.1046     5.1599 </r>
       <r>     3.4509     5.2555     5.7574 </r>
       <r>     3.5646     6.7691     6.5269 </r>
       <r>     3.6783     8.2927     7.4697 </r>
       <r>     3.7920     8.8982     8.4813 </r>
       <r>     3.9057     8.7912     9.4808 </r>
       <r>     4.0194     8.1996    10.4130 </r>
       <r>     4.1331     7.9131    11.3126 </r>
       <r>     4.2467     7.9745    12.2192 </r>
       <r>     4.3604     8.3556    13.1691 </r>
       <r>     4.4741     9.7779    14.2807 </r>
       <r>     4.5878    11.6153    15.6013 </r>
       <r>     4.7015    12.0714    16.9736 </r>
       <r>     4.8152    12.8233    18.4315 </r>
       <r>     4.9289    15.1970    20.1592 </r>
       <r>     5.0426    16.5700    22.0430 </r>
       <r>     5.1562    15.0195    23.7505 </r>
       <r>     5.2699    11.8057    25.0927 </r>
       <r>     5.3836    10.0092    26.2306 </r>
       <r>     5.4973    10.9145    27.4715 </r>
       <r>     5.6110    12.6683    28.9117 </r>
       <r>     5.7247    13.6202    30.4601 </r>
       <r>     5.8384    13.2065    31.9615 </r>
       <r>     5.9521    12.1976    33.3483 </r>
       <r>     6.0658    12.3096    34.7477 </r>
       <r>     6.1794    14.3952    36.3843 </r>
       <r>     6.2931    17.8708    38.4160 </r>
       <r>     6.4068    17.5649    40.4129 </r>
       <r>     6.5205    11.3045    41.6981 </r>
       <r>     6.6342     4.6866    42.2309 </r>
       <r>     6.7479     1.3050    42.3792 </r>
       <r>     6.8616     0.3593    42.4201 </r>
       <r>     6.9753     0.8544    42.5172 </r>
       <r>     7.0889     1.8760    42.7305 </r>
       <r>     7.2026     1.9997    42.9578 </r>
       <r>     7.3163     1.3312    43.1092 </r>
       <r>     7.4300     0.8741    43.2085 </r>
       <r>     7.5437     1.0223    43.3248 </r>
       <r>     7.6574     1.6634    43.5139 </r>
       <r>     7.7711     1.8322    43.7222 </r>
       <r>     7.8848     1.3109    43.8712 </r>
       <r>     7.9984     0.9920    43.9840 </r>
       <r>     8.1121     0.9866    44.0962 </r>
       <r>     8.2258     0.9515    44.2043 </r>
       <r>     8.3395     0.7378    44.2882 </r>
       <r>     8.4532     0.6668    44.3640 </r>
       <r>     8.5669     1.1013    44.4892 </r>
       <r>     8.6806     1.5029    44.6601 </r>
       <r>     8.7943     1.6358    44.8460 </r>
       <r>     8.9079     1.7469    45.0446 </r>
       <r>     9.0216     1.4435    45.2088 </r>
       <r>     9.1353     0.7703    45.2963 </r>
       <r>     9.2490     0.4024    45.3421 </r>
       <r>     9.3627     0.6428    45.4151 </r>
       <r>     9.4764     0.8817    45.5154 </r>
       <r>     9.5901     0.6290    45.5869 </r>
       <r>     9.7038     0.6376    45.6594 </r>
       <r>     9.8174     1.2114    45.7971 </r>
       <r>     9.9311     1.6103    45.9802 </r>
       <r>    10.0448     1.4606    46.1462 </r>
       <r>    10.1585     1.0624    46.2670 </r>
       <r>    10.2722     0.7949    46.3574 </r>
       <r>    10.3859     0.8993    46.4596 </r>
       <r>    10.4996     1.2195    46.5983 </r>
       <r>    10.6133     0.8909    46.6995 </r>
       <r>    10.7269     0.3010    46.7338 </r>
       <r>    10.8406     0.2722    46.7647 </r>
       <r>    10.9543     0.4139    46.8118 </r>
       <r>    11.0680     0.5778    46.8775 </r>
       <r>    11.1817     0.9759    46.9884 </r>
       <r>    11.2954     1.0242    47.1048 </r>
       <r>    11.4091     0.5813    47.1709 </r>
       <r>    11.5228     0.6645    47.2465 </r>
       <r>    11.6364     1.1638    47.3788 </r>
       <r>    11.7501     0.9317    47.4847 </r>
       <r>    11.8638     0.2744    47.5159 </r>
       <r>    11.9775     0.1284    47.5305 </r>
       <r>    12.0912     0.4999    47.5873 </r>
       <r>    12.2049     1.1481    47.7179 </r>
       <r>    12.3186     1.6701    47.9077 </r>
       <r>    12.4323     1.5198    48.0805 </r>
       <r>    12.5459     0.9898    48.1931 </r>
       <r>    12.6596     0.6960    48.2722 </r>
       <r>    12.7733     0.7957    48.3626 </r>
       <r>    12.8870     1.0751    48.4849 </r>
       <r>    13.0007     1.1681    48.6177 </r>
       <r>    13.1144     1.2057    48.7547 </r>
       <r>    13.2281     1.3395    48.9070 </r>
       <r>    13.3418     1.3679    49.0625 </r>
       <r>    13.4554     1.3039    49.2108 </r>
       <r>    13.5691     1.0337    49.3283 </r>
       <r>    13.6828     0.5503    49.3909 </r>
       <r>    13.7965     0.6103    49.4602 </r>
       <r>    13.9102     1.4956    49.6303 </r>
       <r>    14.0239     1.9174    49.8483 </r>
       <r>    14.1376     1.1577    49.9799 </r>
       <r>    14.2513     0.5973    50.0478 </r>
       <r>    14.3649     1.0105    50.1626 </r>
       <r>    14.4786     1.1984    50.2989 </r>
       <r>    14.5923     0.5871    50.3656 </r>
       <r>    14.7060     0.3678    50.4075 </r>
       <r>    14.8197     0.5865    50.4741 </r>
       <r>    14.9334     0.5929    50.5415 </r>
       <r>    15.0471     0.7395    50.6256 </r>
       <r>    15.1608     1.0612    50.7463 </r>
       <r>    15.2744     1.4294    50.9088 </r>
       <r>    15.3881     1.7218    51.1045 </r>
       <r>    15.5018     1.4867    51.2735 </r>
       <r>    15.6155     1.1412    51.4033 </r>
       <r>    15.7292     1.0860    51.5267 </r>
       <r>    15.8429     1.2562    51.6696 </r>
       <r>    15.9566     1.3166    51.8192 </r>
       <r>    16.0703     0.9052    51.9221 </r>
       <r>    16.1839     0.6421    51.9951 </r>
       <r>    16.2976     0.8532    52.0921 </r>
       <r>    16.4113     0.9407    52.1991 </r>
       <r>    16.5250     0.8945    52.3008 </r>
       <r>    16.6387     1.2478    52.4426 </r>
       <r>    16.7524     1.8336    52.6511 </r>
       <r>    16.8661     2.1583    52.8965 </r>
       <r>    16.9798     1.8199    53.1034 </r>
       <r>    17.0934     1.3263    53.2542 </r>
       <r>    17.2071     1.3483    53.4074 </r>
       <r>    17.3208     1.5161    53.5798 </r>
       <r>    17.4345     1.6479    53.7671 </r>
       <r>    17.5482     1.8614    53.9788 </r>
       <r>    17.6619     1.8584    54.1900 </r>
       <r>    17.7756     1.6602    54.3788 </r>
       <r>    17.8893     1.2166    54.5171 </r>
       <r>    18.0029     0.6342    54.5892 </r>
       <r>    18.1166     0.6652    54.6648 </r>
       <r>    18.2303     1.0532    54.7845 </r>
       <r>    18.3440     1.3439    54.9373 </r>
       <r>    18.4577     1.6934    55.1298 </r>
       <r>    18.5714     1.7305    55.3266 </r>
       <r>    18.6851     1.2828    55.4724 </r>
       <r>    18.7988     0.9726    55.5830 </r>
       <r>    18.9124     1.0631    55.7039 </r>
       <r>    19.0261     1.3567    55.8581 </r>
       <r>    19.1398     1.9400    56.0787 </r>
       <r>    19.2535     2.1206    56.3197 </r>
       <r>    19.3672     1.5515    56.4961 </r>
       <r>    19.4809     1.6790    56.6870 </r>
       <r>    19.5946     2.5036    56.9716 </r>
       <r>    19.7083     2.0864    57.2088 </r>
       <r>    19.8219     0.7951    57.2992 </r>
       <r>    19.9356     0.3200    57.3356 </r>
       <r>    20.0493     0.7282    57.4184 </r>
       <r>    20.1630     1.2239    57.5575 </r>
       <r>    20.2767     1.6031    57.7398 </r>
       <r>    20.3904     1.9884    57.9659 </r>
       <r>    20.5041     1.8891    58.1806 </r>
       <r>    20.6178     1.3597    58.3352 </r>
       <r>    20.7315     0.9796    58.4466 </r>
       <r>    20.8451     1.1121    58.5730 </r>
       <r>    20.9588     1.2238    58.7121 </r>
       <r>    21.0725     0.7959    58.8026 </r>
       <r>    21.1862     0.5561    58.8658 </r>
       <r>    21.2999     0.8212    58.9592 </r>
       <r>    21.4136     0.8802    59.0593 </r>
       <r>    21.5273     0.5707    59.1241 </r>
       <r>    21.6410     0.3318    59.1619 </r>
       <r>    21.7546     0.1830    59.1827 </r>
       <r>    21.8683     0.2283    59.2086 </r>
       <r>    21.9820     0.4835    59.2636 </r>
       <r>    22.0957     0.4249    59.3119 </r>
       <r>    22.2094     0.1091    59.3243 </r>
       <r>    22.3231    -0.0239    59.3216 </r>
       <r>    22.4368    -0.0173    59.3196 </r>
       <r>    22.5505    -0.0147    59.3179 </r>
       <r>    22.6641    -0.0155    59.3162 </r>
       <r>    22.7778     0.0755    59.3248 </r>
       <r>    22.8915     0.3262    59.3618 </r>
       <r>    23.0052     0.5961    59.4296 </r>
       <r>    23.1189     0.5644    59.4938 </r>
       <r>    23.2326     0.2188    59.5186 </r>
       <r>    23.3463     0.0551    59.5249 </r>
       <r>    23.4600     0.1943    59.5470 </r>
       <r>    23.5736     0.2397    59.5742 </r>
       <r>    23.6873     0.0808    59.5834 </r>
       <r>    23.8010    -0.0189    59.5813 </r>
       <r>    23.9147     0.0802    59.5904 </r>
       <r>    24.0284     0.3179    59.6265 </r>
       <r>    24.1421     0.3917    59.6711 </r>
       <r>    24.2558     0.1950    59.6932 </r>
       <r>    24.3695     0.0177    59.6952 </r>
       <r>    24.4831    -0.0220    59.6927 </r>
       <r>    24.5968    -0.0290    59.6894 </r>
       <r>    24.7105     0.0027    59.6898 </r>
       <r>    24.8242     0.2393    59.7170 </r>
       <r>    24.9379     0.5203    59.7761 </r>
       <r>    25.0516     0.3893    59.8204 </r>
       <r>    25.1653     0.0758    59.8290 </r>
       <r>    25.2790    -0.0266    59.8260 </r>
       <r>    25.3926    -0.0156    59.8242 </r>
       <r>    25.5063    -0.0141    59.8226 </r>
       <r>    25.6200     0.0069    59.8234 </r>
       <r>    25.7337     0.1348    59.8387 </r>
       <r>    25.8474     0.2642    59.8687 </r>
       <r>    25.9611     0.1801    59.8892 </r>
       <r>    26.0748     0.0286    59.8925 </r>
       <r>    26.1885    -0.0134    59.8909 </r>
       <r>    26.3021    -0.0057    59.8903 </r>
       <r>    26.4158    -0.0041    59.8898 </r>
       <r>    26.5295    -0.0124    59.8884 </r>
       <r>    26.6432     0.0071    59.8892 </r>
       <r>    26.7569     0.1352    59.9046 </r>
       <r>    26.8706     0.2643    59.9346 </r>
       <r>    26.9843     0.1798    59.9551 </r>
       <r>    27.0980     0.0284    59.9583 </r>
       <r>    27.2116    -0.0134    59.9568 </r>
       <r>    27.3253    -0.0053    59.9562 </r>
       <r>    27.4390    -0.0007    59.9561 </r>
       <r>    27.5527    -0.0000    59.9561 </r>
       <r>    27.6664    -0.0000    59.9561 </r>
       <r>    27.7801    -0.0000    59.9561 </r>
       <r>    27.8938    -0.0000    59.9561 </r>
       <r>    28.0075    -0.0004    59.9561 </r>
       <r>    28.1211    -0.0033    59.9557 </r>
       <r>    28.2348    -0.0089    59.9547 </r>
       <r>    28.3485     0.0165    59.9565 </r>
       <r>    28.4622     0.1157    59.9697 </r>
       <r>    28.5759     0.1769    59.9898 </r>
       <r>    28.6896     0.0944    60.0005 </r>
       <r>    28.8033     0.0064    60.0013 </r>
       <r>    28.9170    -0.0084    60.0003 </r>
       <r>    29.0306    -0.0024    60.0000 </r>
       <r>    29.1443    -0.0003    60.0000 </r>
       <r>    29.2580    -0.0000    60.0000 </r>
       <r>    29.3717    -0.0000    60.0000 </r>
       <r>    29.4854    -0.0000    60.0000 </r>
       <r>    29.5991    -0.0000    60.0000 </r>
       <r>    29.7128    -0.0000    60.0000 </r>
       <r>    29.8265    -0.0000    60.0000 </r>
       <r>    29.9401     0.0000    60.0000 </r>
       <r>    30.0538     0.0000    60.0000 </r>
       <r>    30.1675     0.0000    60.0000 </r>
       <r>    30.2812     0.0000    60.0000 </r>
       <r>    30.3949     0.0000    60.0000 </r>
       <r>    30.5086     0.0000    60.0000 </r>
      </set>
     </set>
    </array>
   </total>
  </dos>
 </calculation>
 <structure name="finalpos" >
  <crystal>
   <varray name="basis" >
    <v>       3.57337793       0.00000000       0.00000000 </v>
    <v>       0.00000000       3.57337793       0.00000000 </v>
    <v>       0.00000000       0.00000000       3.57337793 </v>
   </varray>
   <i name="volume">     45.62856923 </i>
   <varray name="rec_basis" >
    <v>       0.27984725       0.00000000       0.00000000 </v>
    <v>       0.00000000       0.27984725       0.00000000 </v>
    <v>       0.00000000       0.00000000       0.27984725 </v>
   </varray>
  </crystal>
  <varray name="positions" >
   <v>       0.00000000       0.00000000       0.00000000 </v>
   <v>       0.50000000       0.50000000       0.00000000 </v>
   <v>       0.50000000       0.00000000       0.50000000 </v>
   <v>       0.00000000       0.50000000       0.50000000 </v>
  </varray>
 </structure>
</modeling>
