unknown system                          
   1.00000000000000     
     3.808352    0.000000    0.000000
     0.000000    3.808352    0.000000
     0.000000    0.000000    3.808352
   Cu
     4
Direct
  0.000000  0.000000  0.000000
  0.500000  0.500000  0.000000
  0.500000  0.000000  0.500000
  0.000000  0.500000  0.500000
 
   36   36   36
  975.91      926.93      793.64      610.66      419.00      252.69      131.74      60.643      29.804      20.123    
  14.778      11.258      9.1609      7.9627      7.2229      6.6967      6.3512      6.1971      6.1644      6.1971    
  6.3512      6.6967      7.2229      7.9627      9.1609      11.258      14.778      20.123      29.804      60.643    
  131.74      252.69      419.00      610.66      793.64      926.93      926.93      880.23      753.16      578.75    
  396.22      238.21      123.88      57.285      28.829      19.808      14.597      11.180      9.1421      7.9725    
  7.2454      6.7266      6.3850      6.2307      6.1971      6.2307      6.3850      6.7266      7.2454      7.9725    
  9.1421      11.180      14.597      19.808      28.829      57.285      123.88      238.21      396.22      578.75    
  753.16      880.23      793.64      753.16      643.03      492.01      334.51      199.28      103.03      48.612    
  26.390      18.912      14.096      10.972      9.1078      8.0251      7.3428      6.8548      6.5331      6.3850    
  6.3512      6.3850      6.5331      6.8548      7.3428      8.0251      9.1078      10.972      14.096      18.912    
  26.390      48.612      103.03      199.28      334.51      492.01      643.03      753.16      610.66      578.75    
  492.01      373.47      250.87      147.42      76.139      38.043      23.539      17.577      13.383      10.704    
  9.1033      8.1602      7.5589      7.1324      6.8548      6.7266      6.6967      6.7266      6.8548      7.1324    
  7.5589      8.1602      9.1033      10.704      13.383      17.577      23.539      38.043      76.139      147.42    
  250.87      373.47      492.01      578.75      419.00      396.22      334.51      250.87      165.84      96.380    
  51.161      29.101      20.917      16.016      12.603      10.457      9.1693      8.3981      7.9026      7.5589    
  7.3428      7.2454      7.2229      7.2454      7.3428      7.5589      7.9026      8.3981      9.1693      10.457    
  12.603      16.016      20.917      29.101      51.161      96.380      165.84      250.87      334.51      396.22    
  252.69      238.21      199.28      147.42      96.380      56.983      33.629      23.395      18.299      14.467    
  11.896      10.302      9.3433      8.7642      8.3981      8.1602      8.0251      7.9725      7.9627      7.9725    
  8.0251      8.1602      8.3981      8.7642      9.3433      10.302      11.896      14.467      18.299      23.395    
  33.629      56.983      96.380      147.42      199.28      238.21      131.74      123.88      103.03      76.139    
  51.161      33.629      24.413      19.628      15.857      13.134      11.372      10.306      9.6866      9.3433    
  9.1693      9.1033      9.1078      9.1421      9.1609      9.1421      9.1078      9.1033      9.1693      9.3433    
  9.6866      10.306      11.372      13.134      15.857      19.628      24.413      33.629      51.161      76.139    
  103.03      123.88      60.643      57.285      48.612      38.043      29.101      23.395      19.628      16.375    
  13.861      12.146      11.101      10.538      10.306      10.302      10.457      10.704      10.972      11.180    
  11.258      11.180      10.972      10.704      10.457      10.302      10.306      10.538      11.101      12.146    
  13.861      16.375      19.628      23.395      29.101      38.043      48.612      57.285      29.804      28.829    
  26.390      23.539      20.917      18.299      15.857      13.861      12.431      11.552      11.139      11.101    
  11.372      11.896      12.603      13.383      14.096      14.597      14.778      14.597      14.096      13.383    
  12.603      11.896      11.372      11.101      11.139      11.552      12.431      13.861      15.857      18.299    
  20.917      23.539      26.390      28.829      20.123      19.808      18.912      17.577      16.016      14.467    
  13.134      12.146      11.552      11.356      11.552      12.146      13.134      14.467      16.016      17.577    
  18.912      19.808      20.123      19.808      18.912      17.577      16.016      14.467      13.134      12.146    
  11.552      11.356      11.552      12.146      13.134      14.467      16.016      17.577      18.912      19.808    
  14.778      14.597      14.096      13.383      12.603      11.896      11.372      11.101      11.139      11.552    
  12.431      13.861      15.857      18.299      20.917      23.539      26.390      28.829      29.804      28.829    
  26.390      23.539      20.917      18.299      15.857      13.861      12.431      11.552      11.139      11.101    
  11.372      11.896      12.603      13.383      14.096      14.597      11.258      11.180      10.972      10.704    
  10.457      10.302      10.306      10.538      11.101      12.146      13.861      16.375      19.628      23.395    
  29.101      38.043      48.612      57.285      60.643      57.285      48.612      38.043      29.101      23.395    
  19.628      16.375      13.861      12.146      11.101      10.538      10.306      10.302      10.457      10.704    
  10.972      11.180      9.1609      9.1421      9.1078      9.1033      9.1693      9.3433      9.6866      10.306    
  11.372      13.134      15.857      19.628      24.413      33.629      51.161      76.139      103.03      123.88    
  131.74      123.88      103.03      76.139      51.161      33.629      24.413      19.628      15.857      13.134    
  11.372      10.306      9.6866      9.3433      9.1693      9.1033      9.1078      9.1421      7.9627      7.9725    
  8.0251      8.1602      8.3981      8.7642      9.3433      10.302      11.896      14.467      18.299      23.395    
  33.629      56.983      96.380      147.42      199.28      238.21      252.69      238.21      199.28      147.42    
  96.380      56.983      33.629      23.395      18.299      14.467      11.896      10.302      9.3433      8.7642    
  8.3981      8.1602      8.0251      7.9725      7.2229      7.2454      7.3428      7.5589      7.9026      8.3981    
  9.1693      10.457      12.603      16.016      20.917      29.101      51.161      96.380      165.84      250.87    
  334.51      396.22      419.00      396.22      334.51      250.87      165.84      96.380      51.161      29.101    
  20.917      16.016      12.603      10.457      9.1693      8.3981      7.9026      7.5589      7.3428      7.2454    
  6.6967      6.7266      6.8548      7.1324      7.5589      8.1602      9.1033      10.704      13.383      17.577    
  23.539      38.043      76.139      147.42      250.87      373.47      492.01      578.75      610.66      578.75    
  492.01      373.47      250.87      147.42      76.139      38.043      23.539      17.577      13.383      10.704    
  9.1033      8.1602      7.5589      7.1324      6.8548      6.7266      6.3512      6.3850      6.5331      6.8548    
  7.3428      8.0251      9.1078      10.972      14.096      18.912      26.390      48.612      103.03      199.28    
  334.51      492.01      643.03      753.16      793.64      753.16      643.03      492.01      334.51      199.28    
  103.03      48.612      26.390      18.912      14.096      10.972      9.1078      8.0251      7.3428      6.8548    
  6.5331      6.3850      6.1971      6.2307      6.3850      6.7266      7.2454      7.9725      9.1421      11.180    
  14.597      19.808      28.829      57.285      123.88      238.21      396.22      578.75      753.16      880.23    
  926.93      880.23      753.16      578.75      396.22      238.21      123.88      57.285      28.829      19.808    
  14.597      11.180      9.1421      7.9725      7.2454      6.7266      6.3850      6.2307      6.1644      6.1971    
  6.3512      6.6967      7.2229      7.9627      9.1609      11.258      14.778      20.123      29.804      60.643    
  131.74      252.69      419.00      610.66      793.64      926.93      975.91      926.93      793.64      610.66    
  419.00      252.69      131.74      60.643      29.804      20.123      14.778      11.258      9.1609      7.9627    
  7.2229      6.6967      6.3512      6.1971      6.1971      6.2307      6.3850      6.7266      7.2454      7.9725    
  9.1421      11.180      14.597      19.808      28.829      57.285      123.88      238.21      396.22      578.75    
  753.16      880.23      926.93      880.23      753.16      578.75      396.22      238.21      123.88      57.285    
  28.829      19.808      14.597      11.180      9.1421      7.9725      7.2454      6.7266      6.3850      6.2307    
  6.3512      6.3850      6.5331      6.8548      7.3428      8.0251      9.1078      10.972      14.096      18.912    
  26.390      48.612      103.03      199.28      334.51      492.01      643.03      753.16      793.64      753.16    
  643.03      492.01      334.51      199.28      103.03      48.612      26.390      18.912      14.096      10.972    
  9.1078      8.0251      7.3428      6.8548      6.5331      6.3850      6.6967      6.7266      6.8548      7.1324    
  7.5589      8.1602      9.1033      10.704      13.383      17.577      23.539      38.043      76.139      147.42    
  250.87      373.47      492.01      578.75      610.66      578.75      492.01      373.47      250.87      147.42    
  76.139      38.043      23.539      17.577      13.383      10.704      9.1033      8.1602      7.5589      7.1324    
  6.8548      6.7266      7.2229      7.2454      7.3428      7.5589      7.9026      8.3981      9.1693      10.457    
  12.603      16.016      20.917      29.101      51.161      96.380      165.84      250.87      334.51      396.22    
  419.00      396.22      334.51      250.87      165.84      96.380      51.161      29.101      20.917      16.016    
  12.603      10.457      9.1693      8.3981      7.9026      7.5589      7.3428      7.2454      7.9627      7.9725    
  8.0251      8.1602      8.3981      8.7642      9.3433      10.302      11.896      14.467      18.299      23.395    
  33.629      56.983      96.380      147.42      199.28      238.21      252.69      238.21      199.28      147.42    
  96.380      56.983      33.629      23.395      18.299      14.467      11.896      10.302      9.3433      8.7642    
  8.3981      8.1602      8.0251      7.9725      9.1609      9.1421      9.1078      9.1033      9.1693      9.3433    
  9.6866      10.306      11.372      13.134      15.857      19.628      24.413      33.629      51.161      76.139    
  103.03      123.88      131.74      123.88      103.03      76.139      51.161      33.629      24.413      19.628    
  15.857      13.134      11.372      10.306      9.6866      9.3433      9.1693      9.1033      9.1078      9.1421    
  11.258      11.180      10.972      10.704      10.457      10.302      10.306      10.538      11.101      12.146    
  13.861      16.375      19.628      23.395      29.101      38.043      48.612      57.285      60.643      57.285    
  48.612      38.043      29.101      23.395      19.628      16.375      13.861      12.146      11.101      10.538    
  10.306      10.302      10.457      10.704      10.972      11.180      14.778      14.597      14.096      13.383    
  12.603      11.896      11.372      11.101      11.139      11.552      12.431      13.861      15.857      18.299    
  20.917      23.539      26.390      28.829      29.804      28.829      26.390      23.539      20.917      18.299    
  15.857      13.861      12.431      11.552      11.139      11.101      11.372      11.896      12.603      13.383    
  14.096      14.597      20.123      19.808      18.912      17.577      16.016      14.467      13.134      12.146    
  11.552      11.356      11.552      12.146      13.134      14.467      16.016      17.577      18.912      19.808    
  20.123      19.808      18.912      17.577      16.016      14.467      13.134      12.146      11.552      11.356    
  11.552      12.146      13.134      14.467      16.016      17.577      18.912      19.808      29.804      28.829    
  26.390      23.539      20.917      18.299      15.857      13.861      12.431      11.552      11.139      11.101    
  11.372      11.896      12.603      13.383      14.096      14.597      14.778      14.597      14.096      13.383    
  12.603      11.896      11.372      11.101      11.139      11.552      12.431      13.861      15.857      18.299    
  20.917      23.539      26.390      28.829      60.643      57.285      48.612      38.043      29.101      23.395    
  19.628      16.375      13.861      12.146      11.101      10.538      10.306      10.302      10.457      10.704    
  10.972      11.180      11.258      11.180      10.972      10.704      10.457      10.302      10.306      10.538    
  11.101      12.146      13.861      16.375      19.628      23.395      29.101      38.043      48.612      57.285    
  131.74      123.88      103.03      76.139      51.161      33.629      24.413      19.628      15.857      13.134    
  11.372      10.306      9.6866      9.3433      9.1693      9.1033      9.1078      9.1421      9.1609      9.1421    
  9.1078      9.1033      9.1693      9.3433      9.6866      10.306      11.372      13.134      15.857      19.628    
  24.413      33.629      51.161      76.139      103.03      123.88      252.69      238.21      199.28      147.42    
  96.380      56.983      33.629      23.395      18.299      14.467      11.896      10.302      9.3433      8.7642    
  8.3981      8.1602      8.0251      7.9725      7.9627      7.9725      8.0251      8.1602      8.3981      8.7642    
  9.3433      10.302      11.896      14.467      18.299      23.395      33.629      56.983      96.380      147.42    
  199.28      238.21      419.00      396.22      334.51      250.87      165.84      96.380      51.161      29.101    
  20.917      16.016      12.603      10.457      9.1693      8.3981      7.9026      7.5589      7.3428      7.2454    
  7.2229      7.2454      7.3428      7.5589      7.9026      8.3981      9.1693      10.457      12.603      16.016    
  20.917      29.101      51.161      96.380      165.84      250.87      334.51      396.22      610.66      578.75    
  492.01      373.47      250.87      147.42      76.139      38.043      23.539      17.577      13.383      10.704    
  9.1033      8.1602      7.5589      7.1324      6.8548      6.7266      6.6967      6.7266      6.8548      7.1324    
  7.5589      8.1602      9.1033      10.704      13.383      17.577      23.539      38.043      76.139      147.42    
  250.87      373.47      492.01      578.75      793.64      753.16      643.03      492.01      334.51      199.28    
  103.03      48.612      26.390      18.912      14.096      10.972      9.1078      8.0251      7.3428      6.8548    
  6.5331      6.3850      6.3512      6.3850      6.5331      6.8548      7.3428      8.0251      9.1078      10.972    
  14.096      18.912      26.390      48.612      103.03      199.28      334.51      492.01      643.03      753.16    
  926.93      880.23      753.16      578.75      396.22      238.21      123.88      57.285      28.829      19.808    
  14.597      11.180      9.1421      7.9725      7.2454      6.7266      6.3850      6.2307      6.1971      6.2307    
  6.3850      6.7266      7.2454      7.9725      9.1421      11.180      14.597      19.808      28.829      57.285    
  123.88      238.21      396.22      578.75      753.16      880.23      926.93      880.23      753.16      578.75    
  396.22      238.21      123.88      57.285      28.829      19.808      14.597      11.180      9.1421      7.9725    
  7.2454      6.7266      6.3850      6.2307      6.1971      6.2307      6.3850      6.7266      7.2454      7.9725    
  9.1421      11.180      14.597      19.808      28.829      57.285      123.88      238.21      396.22      578.75    
  753.16      880.23      880.23      835.71      714.58      548.35      374.56      224.50      116.49      54.169    
  27.938      19.499      14.421      11.103      9.1236      7.9818      7.2675      6.7565      6.4191      6.2651    
  6.2307      6.2651      6.4191      6.7565      7.2675      7.9818      9.1236      11.103      14.421      19.499    
  27.938      54.169      116.49      224.50      374.56      548.35      714.58      835.71      753.16      714.58    
  609.62      465.75      315.91      187.66      96.911      46.137      25.710      18.622      13.933      10.900    
  9.0890      8.0323      7.3627      6.8829      6.5662      6.4191      6.3850      6.4191      6.5662      6.8829    
  7.3627      8.0323      9.0890      10.900      13.933      18.622      25.710      46.137      96.911      187.66    
  315.91      465.75      609.62      714.58      578.75      548.35      465.75      352.97      236.54      138.69    
  71.745      36.396      23.083      17.317      13.239      10.639      9.0833      8.1630      7.5735      7.1552    
  6.8829      6.7565      6.7266      6.7565      6.8829      7.1552      7.5735      8.1630      9.0833      10.639    
  13.239      17.317      23.083      36.396      71.745      138.69      236.54      352.97      465.75      548.35    
  396.22      374.56      315.91      236.54      156.09      90.699      48.513      28.205      20.577      15.795    
  12.480      10.398      9.1468      8.3944      7.9095      7.5735      7.3627      7.2675      7.2454      7.2675    
  7.3627      7.5735      7.9095      8.3944      9.1468      10.398      12.480      15.795      20.577      28.205    
  48.513      90.699      156.09      236.54      315.91      374.56      238.21      224.50      187.66      138.69    
  90.699      53.918      32.357      22.958      18.017      14.289      11.795      10.248      9.3165      8.7518    
  8.3944      8.1630      8.0323      7.9818      7.9725      7.9818      8.0323      8.1630      8.3944      8.7518    
  9.3165      10.248      11.795      14.289      18.017      22.958      32.357      53.918      90.699      138.69    
  187.66      224.50      123.88      116.49      96.911      71.745      48.513      32.357      23.910      19.313    
  15.640      12.996      11.288      10.253      9.6514      9.3165      9.1468      9.0833      9.0890      9.1236    
  9.1421      9.1236      9.0890      9.0833      9.1468      9.3165      9.6514      10.253      11.288      12.996    
  15.640      19.313      23.910      32.357      48.513      71.745      96.911      116.49      57.285      54.169    
  46.137      36.396      28.205      22.958      19.313      16.143      13.702      12.041      11.028      10.481    
  10.253      10.248      10.398      10.639      10.900      11.103      11.180      11.103      10.900      10.639    
  10.398      10.248      10.253      10.481      11.028      12.041      13.702      16.143      19.313      22.958    
  28.205      36.396      46.137      54.169      28.829      27.938      25.710      23.083      20.577      18.017    
  15.640      13.702      12.318      11.468      11.066      11.028      11.288      11.795      12.480      13.239    
  13.933      14.421      14.597      14.421      13.933      13.239      12.480      11.795      11.288      11.028    
  11.066      11.468      12.318      13.702      15.640      18.017      20.577      23.083      25.710      27.938    
  19.808      19.499      18.622      17.317      15.795      14.289      12.996      12.041      11.468      11.278    
  11.468      12.041      12.996      14.289      15.795      17.317      18.622      19.499      19.808      19.499    
  18.622      17.317      15.795      14.289      12.996      12.041      11.468      11.278      11.468      12.041    
  12.996      14.289      15.795      17.317      18.622      19.499      14.597      14.421      13.933      13.239    
  12.480      11.795      11.288      11.028      11.066      11.468      12.318      13.702      15.640      18.017    
  20.577      23.083      25.710      27.938      28.829      27.938      25.710      23.083      20.577      18.017    
  15.640      13.702      12.318      11.468      11.066      11.028      11.288      11.795      12.480      13.239    
  13.933      14.421      11.180      11.103      10.900      10.639      10.398      10.248      10.253      10.481    
  11.028      12.041      13.702      16.143      19.313      22.958      28.205      36.396      46.137      54.169    
  57.285      54.169      46.137      36.396      28.205      22.958      19.313      16.143      13.702      12.041    
  11.028      10.481      10.253      10.248      10.398      10.639      10.900      11.103      9.1421      9.1236    
  9.0890      9.0833      9.1468      9.3165      9.6514      10.253      11.288      12.996      15.640      19.313    
  23.910      32.357      48.513      71.745      96.911      116.49      123.88      116.49      96.911      71.745    
  48.513      32.357      23.910      19.313      15.640      12.996      11.288      10.253      9.6514      9.3165    
  9.1468      9.0833      9.0890      9.1236      7.9725      7.9818      8.0323      8.1630      8.3944      8.7518    
  9.3165      10.248      11.795      14.289      18.017      22.958      32.357      53.918      90.699      138.69    
  187.66      224.50      238.21      224.50      187.66      138.69      90.699      53.918      32.357      22.958    
  18.017      14.289      11.795      10.248      9.3165      8.7518      8.3944      8.1630      8.0323      7.9818    
  7.2454      7.2675      7.3627      7.5735      7.9095      8.3944      9.1468      10.398      12.480      15.795    
  20.577      28.205      48.513      90.699      156.09      236.54      315.91      374.56      396.22      374.56    
  315.91      236.54      156.09      90.699      48.513      28.205      20.577      15.795      12.480      10.398    
  9.1468      8.3944      7.9095      7.5735      7.3627      7.2675      6.7266      6.7565      6.8829      7.1552    
  7.5735      8.1630      9.0833      10.639      13.239      17.317      23.083      36.396      71.745      138.69    
  236.54      352.97      465.75      548.35      578.75      548.35      465.75      352.97      236.54      138.69    
  71.745      36.396      23.083      17.317      13.239      10.639      9.0833      8.1630      7.5735      7.1552    
  6.8829      6.7565      6.3850      6.4191      6.5662      6.8829      7.3627      8.0323      9.0890      10.900    
  13.933      18.622      25.710      46.137      96.911      187.66      315.91      465.75      609.62      714.58    
  753.16      714.58      609.62      465.75      315.91      187.66      96.911      46.137      25.710      18.622    
  13.933      10.900      9.0890      8.0323      7.3627      6.8829      6.5662      6.4191      6.2307      6.2651    
  6.4191      6.7565      7.2675      7.9818      9.1236      11.103      14.421      19.499      27.938      54.169    
  116.49      224.50      374.56      548.35      714.58      835.71      880.23      835.71      714.58      548.35    
  374.56      224.50      116.49      54.169      27.938      19.499      14.421      11.103      9.1236      7.9818    
  7.2675      6.7565      6.4191      6.2651      6.1971      6.2307      6.3850      6.7266      7.2454      7.9725    
  9.1421      11.180      14.597      19.808      28.829      57.285      123.88      238.21      396.22      578.75    
  753.16      880.23      926.93      880.23      753.16      578.75      396.22      238.21      123.88      57.285    
  28.829      19.808      14.597      11.180      9.1421      7.9725      7.2454      6.7266      6.3850      6.2307    
  6.2307      6.2651      6.4191      6.7565      7.2675      7.9818      9.1236      11.103      14.421      19.499    
  27.938      54.169      116.49      224.50      374.56      548.35      714.58      835.71      880.23      835.71    
  714.58      548.35      374.56      224.50      116.49      54.169      27.938      19.499      14.421      11.103    
  9.1236      7.9818      7.2675      6.7565      6.4191      6.2651      6.3850      6.4191      6.5662      6.8829    
  7.3627      8.0323      9.0890      10.900      13.933      18.622      25.710      46.137      96.911      187.66    
  315.91      465.75      609.62      714.58      753.16      714.58      609.62      465.75      315.91      187.66    
  96.911      46.137      25.710      18.622      13.933      10.900      9.0890      8.0323      7.3627      6.8829    
  6.5662      6.4191      6.7266      6.7565      6.8829      7.1552      7.5735      8.1630      9.0833      10.639    
  13.239      17.317      23.083      36.396      71.745      138.69      236.54      352.97      465.75      548.35    
  578.75      548.35      465.75      352.97      236.54      138.69      71.745      36.396      23.083      17.317    
  13.239      10.639      9.0833      8.1630      7.5735      7.1552      6.8829      6.7565      7.2454      7.2675    
  7.3627      7.5735      7.9095      8.3944      9.1468      10.398      12.480      15.795      20.577      28.205    
  48.513      90.699      156.09      236.54      315.91      374.56      396.22      374.56      315.91      236.54    
  156.09      90.699      48.513      28.205      20.577      15.795      12.480      10.398      9.1468      8.3944    
  7.9095      7.5735      7.3627      7.2675      7.9725      7.9818      8.0323      8.1630      8.3944      8.7518    
  9.3165      10.248      11.795      14.289      18.017      22.958      32.357      53.918      90.699      138.69    
  187.66      224.50      238.21      224.50      187.66      138.69      90.699      53.918      32.357      22.958    
  18.017      14.289      11.795      10.248      9.3165      8.7518      8.3944      8.1630      8.0323      7.9818    
  9.1421      9.1236      9.0890      9.0833      9.1468      9.3165      9.6514      10.253      11.288      12.996    
  15.640      19.313      23.910      32.357      48.513      71.745      96.911      116.49      123.88      116.49    
  96.911      71.745      48.513      32.357      23.910      19.313      15.640      12.996      11.288      10.253    
  9.6514      9.3165      9.1468      9.0833      9.0890      9.1236      11.180      11.103      10.900      10.639    
  10.398      10.248      10.253      10.481      11.028      12.041      13.702      16.143      19.313      22.958    
  28.205      36.396      46.137      54.169      57.285      54.169      46.137      36.396      28.205      22.958    
  19.313      16.143      13.702      12.041      11.028      10.481      10.253      10.248      10.398      10.639    
  10.900      11.103      14.597      14.421      13.933      13.239      12.480      11.795      11.288      11.028    
  11.066      11.468      12.318      13.702      15.640      18.017      20.577      23.083      25.710      27.938    
  28.829      27.938      25.710      23.083      20.577      18.017      15.640      13.702      12.318      11.468    
  11.066      11.028      11.288      11.795      12.480      13.239      13.933      14.421      19.808      19.499    
  18.622      17.317      15.795      14.289      12.996      12.041      11.468      11.278      11.468      12.041    
  12.996      14.289      15.795      17.317      18.622      19.499      19.808      19.499      18.622      17.317    
  15.795      14.289      12.996      12.041      11.468      11.278      11.468      12.041      12.996      14.289    
  15.795      17.317      18.622      19.499      28.829      27.938      25.710      23.083      20.577      18.017    
  15.640      13.702      12.318      11.468      11.066      11.028      11.288      11.795      12.480      13.239    
  13.933      14.421      14.597      14.421      13.933      13.239      12.480      11.795      11.288      11.028    
  11.066      11.468      12.318      13.702      15.640      18.017      20.577      23.083      25.710      27.938    
  57.285      54.169      46.137      36.396      28.205      22.958      19.313      16.143      13.702      12.041    
  11.028      10.481      10.253      10.248      10.398      10.639      10.900      11.103      11.180      11.103    
  10.900      10.639      10.398      10.248      10.253      10.481      11.028      12.041      13.702      16.143    
  19.313      22.958      28.205      36.396      46.137      54.169      123.88      116.49      96.911      71.745    
  48.513      32.357      23.910      19.313      15.640      12.996      11.288      10.253      9.6514      9.3165    
  9.1468      9.0833      9.0890      9.1236      9.1421      9.1236      9.0890      9.0833      9.1468      9.3165    
  9.6514      10.253      11.288      12.996      15.640      19.313      23.910      32.357      48.513      71.745    
  96.911      116.49      238.21      224.50      187.66      138.69      90.699      53.918      32.357      22.958    
  18.017      14.289      11.795      10.248      9.3165      8.7518      8.3944      8.1630      8.0323      7.9818    
  7.9725      7.9818      8.0323      8.1630      8.3944      8.7518      9.3165      10.248      11.795      14.289    
  18.017      22.958      32.357      53.918      90.699      138.69      187.66      224.50      396.22      374.56    