unknown system                          
   1.00000000000000     
     3.808352    0.000000    0.000000
     0.000000    3.808352    0.000000
     0.000000    0.000000    3.808352
   Cu
     4
Direct
  0.000000  0.000000  0.000000
  0.500000  0.500000  0.000000
  0.500000  0.000000  0.500000
  0.000000  0.500000  0.500000
 
   36   36   36
 0.97591202958E+03 0.92692690714E+03 0.79364048753E+03 0.61065765532E+03 0.41899820456E+03
 0.25268660142E+03 0.13174427174E+03 0.60643424723E+02 0.29804279110E+02 0.20122719966E+02
 0.14778121272E+02 0.11258025259E+02 0.91608567596E+01 0.79627347314E+01 0.72228643145E+01
 0.66966549146E+01 0.63511740267E+01 0.61970707950E+01 0.61643505112E+01 0.61970707950E+01
 0.63511740267E+01 0.66966549146E+01 0.72228643145E+01 0.79627347314E+01 0.91608567596E+01
 0.11258025259E+02 0.14778121272E+02 0.20122719966E+02 0.29804279110E+02 0.60643424723E+02
 0.13174427174E+03 0.25268660142E+03 0.41899820456E+03 0.61065765532E+03 0.79364048753E+03
 0.92692690714E+03 0.92692690714E+03 0.88022947052E+03 0.75316222693E+03 0.57874550089E+03
 0.39621910397E+03 0.23821099593E+03 0.12388064416E+03 0.57285406143E+02 0.28828993283E+02
 0.19807965405E+02 0.14597443569E+02 0.11179505083E+02 0.91421411886E+01 0.79724760611E+01
 0.72453634922E+01 0.67266089754E+01 0.63849768726E+01 0.62307139077E+01 0.61970707950E+01
 0.62307139077E+01 0.63849768726E+01 0.67266089754E+01 0.72453634922E+01 0.79724760611E+01
 0.91421411886E+01 0.11179505083E+02 0.14597443569E+02 0.19807965405E+02 0.28828993283E+02
 0.57285406143E+02 0.12388064416E+03 0.23821099593E+03 0.39621910397E+03 0.57874550089E+03
 0.75316222693E+03 0.88022947052E+03 0.79364048753E+03 0.75316222693E+03 0.64303086955E+03
 0.49201072247E+03 0.33450831771E+03 0.19928184106E+03 0.10303288739E+03 0.48612324297E+02
 0.26390260308E+02 0.18912346672E+02 0.14096110198E+02 0.10971887565E+02 0.91077532047E+01
 0.80250500693E+01 0.73427674787E+01 0.68548002988E+01 0.65330948845E+01 0.63849768726E+01
 0.63511740267E+01 0.63849768726E+01 0.65330948845E+01 0.68548002988E+01 0.73427674787E+01
 0.80250500693E+01 0.91077532047E+01 0.10971887565E+02 0.14096110198E+02 0.18912346672E+02
 0.26390260308E+02 0.48612324297E+02 0.10303288739E+03 0.19928184106E+03 0.33450831771E+03
 0.49201072247E+03 0.64303086955E+03 0.75316222693E+03 0.61065765532E+03 0.57874550089E+03
 0.49201072247E+03 0.37347310452E+03 0.25087108760E+03 0.14742030734E+03 0.76139104463E+02
 0.38043210759E+02 0.23538583587E+02 0.17577271464E+02 0.13383258453E+02 0.10704162906E+02
 0.91033371435E+01 0.81602336946E+01 0.75589062211E+01 0.71323581593E+01 0.68548002988E+01
 0.67266089754E+01 0.66966549146E+01 0.67266089754E+01 0.68548002988E+01 0.71323581593E+01
 0.75589062211E+01 0.81602336946E+01 0.91033371435E+01 0.10704162906E+02 0.13383258453E+02
 0.17577271464E+02 0.23538583587E+02 0.38043210759E+02 0.76139104463E+02 0.14742030734E+03
 0.25087108760E+03 0.37347310452E+03 0.49201072247E+03 0.57874550089E+03 0.41899820456E+03
 0.39621910397E+03 0.33450831771E+03 0.25087108760E+03 0.16584494699E+03 0.96380339365E+02
 0.51160728038E+02 0.29100680765E+02 0.20917206336E+02 0.16015829850E+02 0.12603219455E+02
 0.10456688118E+02 0.91693078040E+01 0.83980878531E+01 0.79025586366E+01 0.75589062211E+01
 0.73427674787E+01 0.72453634922E+01 0.72228643145E+01 0.72453634922E+01 0.73427674787E+01
 0.75589062211E+01 0.79025586366E+01 0.83980878531E+01 0.91693078040E+01 0.10456688118E+02
 0.12603219455E+02 0.16015829850E+02 0.20917206336E+02 0.29100680765E+02 0.51160728038E+02
 0.96380339365E+02 0.16584494699E+03 0.25087108760E+03 0.33450831771E+03 0.39621910397E+03
 0.25268660142E+03 0.23821099593E+03 0.19928184106E+03 0.14742030734E+03 0.96380339365E+02
 0.56983204381E+02 0.33628774517E+02 0.23394787287E+02 0.18299316647E+02 0.14466535651E+02
 0.11896443381E+02 0.10302115532E+02 0.93433323931E+01 0.87641848922E+01 0.83980878531E+01
 0.81602336946E+01 0.80250500693E+01 0.79724760611E+01 0.79627347314E+01 0.79724760611E+01
 0.80250500693E+01 0.81602336946E+01 0.83980878531E+01 0.87641848922E+01 0.93433323931E+01
 0.10302115532E+02 0.11896443381E+02 0.14466535651E+02 0.18299316647E+02 0.23394787287E+02
 0.33628774517E+02 0.56983204381E+02 0.96380339365E+02 0.14742030734E+03 0.19928184106E+03
 0.23821099593E+03 0.13174427174E+03 0.12388064416E+03 0.10303288739E+03 0.76139104463E+02
 0.51160728038E+02 0.33628774517E+02 0.24412510298E+02 0.19628392553E+02 0.15857045606E+02
 0.13133859671E+02 0.11371586875E+02 0.10305514676E+02 0.96865711990E+01 0.93433323931E+01
 0.91693078040E+01 0.91033371435E+01 0.91077532047E+01 0.91421411886E+01 0.91608567596E+01
 0.91421411886E+01 0.91077532047E+01 0.91033371435E+01 0.91693078040E+01 0.93433323931E+01
 0.96865711990E+01 0.10305514676E+02 0.11371586875E+02 0.13133859671E+02 0.15857045606E+02
 0.19628392553E+02 0.24412510298E+02 0.33628774517E+02 0.51160728038E+02 0.76139104463E+02
 0.10303288739E+03 0.12388064416E+03 0.60643424723E+02 0.57285406143E+02 0.48612324297E+02
 0.38043210759E+02 0.29100680765E+02 0.23394787287E+02 0.19628392553E+02 0.16375292860E+02
 0.13860547172E+02 0.12145964442E+02 0.11100815038E+02 0.10538115370E+02 0.10305514676E+02
 0.10302115532E+02 0.10456688118E+02 0.10704162906E+02 0.10971887565E+02 0.11179505083E+02
 0.11258025259E+02 0.11179505083E+02 0.10971887565E+02 0.10704162906E+02 0.10456688118E+02
 0.10302115532E+02 0.10305514676E+02 0.10538115370E+02 0.11100815038E+02 0.12145964442E+02
 0.13860547172E+02 0.16375292860E+02 0.19628392553E+02 0.23394787287E+02 0.29100680765E+02
 0.38043210759E+02 0.48612324297E+02 0.57285406143E+02 0.29804279110E+02 0.28828993283E+02
 0.26390260308E+02 0.23538583587E+02 0.20917206336E+02 0.18299316647E+02 0.15857045606E+02
 0.13860547172E+02 0.12430886828E+02 0.11552341355E+02 0.11138972923E+02 0.11100815038E+02
 0.11371586875E+02 0.11896443381E+02 0.12603219455E+02 0.13383258453E+02 0.14096110198E+02
 0.14597443569E+02 0.14778121272E+02 0.14597443569E+02 0.14096110198E+02 0.13383258453E+02
 0.12603219455E+02 0.11896443381E+02 0.11371586875E+02 0.11100815038E+02 0.11138972923E+02
 0.11552341355E+02 0.12430886828E+02 0.13860547172E+02 0.15857045606E+02 0.18299316647E+02
 0.20917206336E+02 0.23538583587E+02 0.26390260308E+02 0.28828993283E+02 0.20122719966E+02
 0.19807965405E+02 0.18912346672E+02 0.17577271464E+02 0.16015829850E+02 0.14466535651E+02
 0.13133859671E+02 0.12145964442E+02 0.11552341355E+02 0.11356001138E+02 0.11552341355E+02
 0.12145964442E+02 0.13133859671E+02 0.14466535651E+02 0.16015829850E+02 0.17577271464E+02
 0.18912346672E+02 0.19807965405E+02 0.20122719966E+02 0.19807965405E+02 0.18912346672E+02
 0.17577271464E+02 0.16015829850E+02 0.14466535651E+02 0.13133859671E+02 0.12145964442E+02
 0.11552341355E+02 0.11356001138E+02 0.11552341355E+02 0.12145964442E+02 0.13133859671E+02
 0.14466535651E+02 0.16015829850E+02 0.17577271464E+02 0.18912346672E+02 0.19807965405E+02
 0.14778121272E+02 0.14597443569E+02 0.14096110198E+02 0.13383258453E+02 0.12603219455E+02
 0.11896443381E+02 0.11371586875E+02 0.11100815038E+02 0.11138972923E+02 0.11552341355E+02
 0.12430886828E+02 0.13860547172E+02 0.15857045606E+02 0.18299316647E+02 0.20917206336E+02
 0.23538583587E+02 0.26390260308E+02 0.28828993283E+02 0.29804279110E+02 0.28828993283E+02
 0.26390260308E+02 0.23538583587E+02 0.20917206336E+02 0.18299316647E+02 0.15857045606E+02
 0.13860547172E+02 0.12430886828E+02 0.11552341355E+02 0.11138972923E+02 0.11100815038E+02
 0.11371586875E+02 0.11896443381E+02 0.12603219455E+02 0.13383258453E+02 0.14096110198E+02
 0.14597443569E+02 0.11258025259E+02 0.11179505083E+02 0.10971887565E+02 0.10704162906E+02
 0.10456688118E+02 0.10302115532E+02 0.10305514676E+02 0.10538115370E+02 0.11100815038E+02
 0.12145964442E+02 0.13860547172E+02 0.16375292860E+02 0.19628392553E+02 0.23394787287E+02
 0.29100680765E+02 0.38043210759E+02 0.48612324297E+02 0.57285406143E+02 0.60643424723E+02
 0.57285406143E+02 0.48612324297E+02 0.38043210759E+02 0.29100680765E+02 0.23394787287E+02
 0.19628392553E+02 0.16375292860E+02 0.13860547172E+02 0.12145964442E+02 0.11100815038E+02
 0.10538115370E+02 0.10305514676E+02 0.10302115532E+02 0.10456688118E+02 0.10704162906E+02
 0.10971887565E+02 0.11179505083E+02 0.91608567596E+01 0.91421411886E+01 0.91077532047E+01
 0.91033371435E+01 0.91693078040E+01 0.93433323931E+01 0.96865711990E+01 0.10305514676E+02
 0.11371586875E+02 0.13133859671E+02 0.15857045606E+02 0.19628392553E+02 0.24412510298E+02
 0.33628774517E+02 0.51160728038E+02 0.76139104463E+02 0.10303288739E+03 0.12388064416E+03
 0.13174427174E+03 0.12388064416E+03 0.10303288739E+03 0.76139104463E+02 0.51160728038E+02
 0.33628774517E+02 0.24412510298E+02 0.19628392553E+02 0.15857045606E+02 0.13133859671E+02
 0.11371586875E+02 0.10305514676E+02 0.96865711990E+01 0.93433323931E+01 0.91693078040E+01
 0.91033371435E+01 0.91077532047E+01 0.91421411886E+01 0.79627347314E+01 0.79724760611E+01
 0.80250500693E+01 0.81602336946E+01 0.83980878531E+01 0.87641848922E+01 0.93433323931E+01
 0.10302115532E+02 0.11896443381E+02 0.14466535651E+02 0.18299316647E+02 0.23394787287E+02
 0.33628774517E+02 0.56983204381E+02 0.96380339365E+02 0.14742030734E+03 0.19928184106E+03
 0.23821099593E+03 0.25268660142E+03 0.23821099593E+03 0.19928184106E+03 0.14742030734E+03
 0.96380339365E+02 0.56983204381E+02 0.33628774517E+02 0.23394787287E+02 0.18299316647E+02
 0.14466535651E+02 0.11896443381E+02 0.10302115532E+02 0.93433323931E+01 0.87641848922E+01
 0.83980878531E+01 0.81602336946E+01 0.80250500693E+01 0.79724760611E+01 0.72228643145E+01
 0.72453634922E+01 0.73427674787E+01 0.75589062211E+01 0.79025586366E+01 0.83980878531E+01
 0.91693078040E+01 0.10456688118E+02 0.12603219455E+02 0.16015829850E+02 0.20917206336E+02
 0.29100680765E+02 0.51160728038E+02 0.96380339365E+02 0.16584494699E+03 0.25087108760E+03
 0.33450831771E+03 0.39621910397E+03 0.41899820456E+03 0.39621910397E+03 0.33450831771E+03
 0.25087108760E+03 0.16584494699E+03 0.96380339365E+02 0.51160728038E+02 0.29100680765E+02
 0.20917206336E+02 0.16015829850E+02 0.12603219455E+02 0.10456688118E+02 0.91693078040E+01
 0.83980878531E+01 0.79025586366E+01 0.75589062211E+01 0.73427674787E+01 0.72453634922E+01
 0.66966549146E+01 0.67266089754E+01 0.68548002988E+01 0.71323581593E+01 0.75589062211E+01
 0.81602336946E+01 0.91033371435E+01 0.10704162906E+02 0.13383258453E+02 0.17577271464E+02
 0.23538583587E+02 0.38043210759E+02 0.76139104463E+02 0.14742030734E+03 0.25087108760E+03
 0.37347310452E+03 0.49201072247E+03 0.57874550089E+03 0.61065765532E+03 0.57874550089E+03
 0.49201072247E+03 0.37347310452E+03 0.25087108760E+03 0.14742030734E+03 0.76139104463E+02
 0.38043210759E+02 0.23538583587E+02 0.17577271464E+02 0.13383258453E+02 0.10704162906E+02
 0.91033371435E+01 0.81602336946E+01 0.75589062211E+01 0.71323581593E+01 0.68548002988E+01
 0.67266089754E+01 0.63511740267E+01 0.63849768726E+01 0.65330948845E+01 0.68548002988E+01
 0.73427674787E+01 0.80250500693E+01 0.91077532047E+01 0.10971887565E+02 0.14096110198E+02
 0.18912346672E+02 0.26390260308E+02 0.48612324297E+02 0.10303288739E+03 0.19928184106E+03
 0.33450831771E+03 0.49201072247E+03 0.64303086955E+03 0.75316222693E+03 0.79364048753E+03
 0.75316222693E+03 0.64303086955E+03 0.49201072247E+03 0.33450831771E+03 0.19928184106E+03
 0.10303288739E+03 0.48612324297E+02 0.26390260308E+02 0.18912346672E+02 0.14096110198E+02
 0.10971887565E+02 0.91077532047E+01 0.80250500693E+01 0.73427674787E+01 0.68548002988E+01
 0.65330948845E+01 0.63849768726E+01 0.61970707950E+01 0.62307139077E+01 0.63849768726E+01
 0.67266089754E+01 0.72453634922E+01 0.79724760611E+01 0.91421411886E+01 0.11179505083E+02
 0.14597443569E+02 0.19807965405E+02 0.28828993283E+02 0.57285406143E+02 0.12388064416E+03
 0.23821099593E+03 0.39621910397E+03 0.57874550089E+03 0.75316222693E+03 0.88022947052E+03
 0.92692690714E+03 0.88022947052E+03 0.75316222693E+03 0.57874550089E+03 0.39621910397E+03
 0.23821099593E+03 0.12388064416E+03 0.57285406143E+02 0.28828993283E+02 0.19807965405E+02
 0.14597443569E+02 0.11179505083E+02 0.91421411886E+01 0.79724760611E+01 0.72453634922E+01
 0.67266089754E+01 0.63849768726E+01 0.62307139077E+01 0.61643505112E+01 0.61970707950E+01
 0.63511740267E+01 0.66966549146E+01 0.72228643145E+01 0.79627347314E+01 0.91608567596E+01
 0.11258025259E+02 0.14778121272E+02 0.20122719966E+02 0.29804279110E+02 0.60643424723E+02
 0.13174427174E+03 0.25268660142E+03 0.41899820456E+03 0.61065765532E+03 0.79364048753E+03
 0.92692690714E+03 0.97591202958E+03 0.92692690714E+03 0.79364048753E+03 0.61065765532E+03
 0.41899820456E+03 0.25268660142E+03 0.13174427174E+03 0.60643424723E+02 0.29804279110E+02
 0.20122719966E+02 0.14778121272E+02 0.11258025259E+02 0.91608567596E+01 0.79627347314E+01
 0.72228643145E+01 0.66966549146E+01 0.63511740267E+01 0.61970707950E+01 0.61970707950E+01
 0.62307139077E+01 0.63849768726E+01 0.67266089754E+01 0.72453634922E+01 0.79724760611E+01
 0.91421411886E+01 0.11179505083E+02 0.14597443569E+02 0.19807965405E+02 0.28828993283E+02
 0.57285406143E+02 0.12388064416E+03 0.23821099593E+03 0.39621910397E+03 0.57874550089E+03
 0.75316222693E+03 0.88022947052E+03 0.92692690714E+03 0.88022947052E+03 0.75316222693E+03
 0.57874550089E+03 0.39621910397E+03 0.23821099593E+03 0.12388064416E+03 0.57285406143E+02
 0.28828993283E+02 0.19807965405E+02 0.14597443569E+02 0.11179505083E+02 0.91421411886E+01
 0.79724760611E+01 0.72453634922E+01 0.67266089754E+01 0.63849768726E+01 0.62307139077E+01
 0.63511740267E+01 0.63849768726E+01 0.65330948845E+01 0.68548002988E+01 0.73427674787E+01
 0.80250500693E+01 0.91077532047E+01 0.10971887565E+02 0.14096110198E+02 0.18912346672E+02
 0.26390260308E+02 0.48612324297E+02 0.10303288739E+03 0.19928184106E+03 0.33450831771E+03
 0.49201072247E+03 0.64303086955E+03 0.75316222693E+03 0.79364048753E+03 0.75316222693E+03
 0.64303086955E+03 0.49201072247E+03 0.33450831771E+03 0.19928184106E+03 0.10303288739E+03
 0.48612324297E+02 0.26390260308E+02 0.18912346672E+02 0.14096110198E+02 0.10971887565E+02
 0.91077532047E+01 0.80250500693E+01 0.73427674787E+01 0.68548002988E+01 0.65330948845E+01
 0.63849768726E+01 0.66966549146E+01 0.67266089754E+01 0.68548002988E+01 0.71323581593E+01
 0.75589062211E+01 0.81602336946E+01 0.91033371435E+01 0.10704162906E+02 0.13383258453E+02
 0.17577271464E+02 0.23538583587E+02 0.38043210759E+02 0.76139104463E+02 0.14742030734E+03
 0.25087108760E+03 0.37347310452E+03 0.49201072247E+03 0.57874550089E+03 0.61065765532E+03
 0.57874550089E+03 0.49201072247E+03 0.37347310452E+03 0.25087108760E+03 0.14742030734E+03
 0.76139104463E+02 0.38043210759E+02 0.23538583587E+02 0.17577271464E+02 0.13383258453E+02
 0.10704162906E+02 0.91033371435E+01 0.81602336946E+01 0.75589062211E+01 0.71323581593E+01
 0.68548002988E+01 0.67266089754E+01 0.72228643145E+01 0.72453634922E+01 0.73427674787E+01
 0.75589062211E+01 0.79025586366E+01 0.83980878531E+01 0.91693078040E+01 0.10456688118E+02
 0.12603219455E+02 0.16015829850E+02 0.20917206336E+02 0.29100680765E+02 0.51160728038E+02
 0.96380339365E+02 0.16584494699E+03 0.25087108760E+03 0.33450831771E+03 0.39621910397E+03
 0.41899820456E+03 0.39621910397E+03 0.33450831771E+03 0.25087108760E+03 0.16584494699E+03
 0.96380339365E+02 0.51160728038E+02 0.29100680765E+02 0.20917206336E+02 0.16015829850E+02
 0.12603219455E+02 0.10456688118E+02 0.91693078040E+01 0.83980878531E+01 0.79025586366E+01
 0.75589062211E+01 0.73427674787E+01 0.72453634922E+01 0.79627347314E+01 0.79724760611E+01
 0.80250500693E+01 0.81602336946E+01 0.83980878531E+01 0.87641848922E+01 0.93433323931E+01
 0.10302115532E+02 0.11896443381E+02 0.14466535651E+02 0.18299316647E+02 0.23394787287E+02
 0.33628774517E+02 0.56983204381E+02 0.96380339365E+02 0.14742030734E+03 0.19928184106E+03
 0.23821099593E+03 0.25268660142E+03 0.23821099593E+03 0.19928184106E+03 0.14742030734E+03
 0.96380339365E+02 0.56983204381E+02 0.33628774517E+02 0.23394787287E+02 0.18299316647E+02
 0.14466535651E+02 0.11896443381E+02 0.10302115532E+02 0.93433323931E+01 0.87641848922E+01
 0.83980878531E+01 0.81602336946E+01 0.80250500693E+01 0.79724760611E+01 0.91608567596E+01
 0.91421411886E+01 0.91077532047E+01 0.91033371435E+01 0.91693078040E+01 0.93433323931E+01
 0.96865711990E+01 0.10305514676E+02 0.11371586875E+02 0.13133859671E+02 0.15857045606E+02
 0.19628392553E+02 0.24412510298E+02 0.33628774517E+02 0.51160728038E+02 0.76139104463E+02
 0.10303288739E+03 0.12388064416E+03 0.13174427174E+03 0.12388064416E+03 0.10303288739E+03
 0.76139104463E+02 0.51160728038E+02 0.33628774517E+02 0.24412510298E+02 0.19628392553E+02
 0.15857045606E+02 0.13133859671E+02 0.11371586875E+02 0.10305514676E+02 0.96865711990E+01
 0.93433323931E+01 0.91693078040E+01 0.91033371435E+01 0.91077532047E+01 0.91421411886E+01
 0.11258025259E+02 0.11179505083E+02 0.10971887565E+02 0.10704162906E+02 0.10456688118E+02
 0.10302115532E+02 0.10305514676E+02 0.10538115370E+02 0.11100815038E+02 0.12145964442E+02
 0.13860547172E+02 0.16375292860E+02 0.19628392553E+02 0.23394787287E+02 0.29100680765E+02
 0.38043210759E+02 0.48612324297E+02 0.57285406143E+02 0.60643424723E+02 0.57285406143E+02
 0.48612324297E+02 0.38043210759E+02 0.29100680765E+02 0.23394787287E+02 0.19628392553E+02
 0.16375292860E+02 0.13860547172E+02 0.12145964442E+02 0.11100815038E+02 0.10538115370E+02
 0.10305514676E+02 0.10302115532E+02 0.10456688118E+02 0.10704162906E+02 0.10971887565E+02
 0.11179505083E+02 0.14778121272E+02 0.14597443569E+02 0.14096110198E+02 0.13383258453E+02
 0.12603219455E+02 0.11896443381E+02 0.11371586875E+02 0.11100815038E+02 0.11138972923E+02
 0.11552341355E+02 0.12430886828E+02 0.13860547172E+02 0.15857045606E+02 0.18299316647E+02
 0.20917206336E+02 0.23538583587E+02 0.26390260308E+02 0.28828993283E+02 0.29804279110E+02
 0.28828993283E+02 0.26390260308E+02 0.23538583587E+02 0.20917206336E+02 0.18299316647E+02
 0.15857045606E+02 0.13860547172E+02 0.12430886828E+02 0.11552341355E+02 0.11138972923E+02
 0.11100815038E+02 0.11371586875E+02 0.11896443381E+02 0.12603219455E+02 0.13383258453E+02
 0.14096110198E+02 0.14597443569E+02 0.20122719966E+02 0.19807965405E+02 0.18912346672E+02
 0.17577271464E+02 0.16015829850E+02 0.14466535651E+02 0.13133859671E+02 0.12145964442E+02
 0.11552341355E+02 0.11356001138E+02 0.11552341355E+02 0.12145964442E+02 0.13133859671E+02
 0.14466535651E+02 0.16015829850E+02 0.17577271464E+02 0.18912346672E+02 0.19807965405E+02
 0.20122719966E+02 0.19807965405E+02 0.18912346672E+02 0.17577271464E+02 0.16015829850E+02
 0.14466535651E+02 0.13133859671E+02 0.12145964442E+02 0.11552341355E+02 0.11356001138E+02
 0.11552341355E+02 0.12145964442E+02 0.13133859671E+02 0.14466535651E+02 0.16015829850E+02
 0.17577271464E+02 0.18912346672E+02 0.19807965405E+02 0.29804279110E+02 0.28828993283E+02
 0.26390260308E+02 0.23538583587E+02 0.20917206336E+02 0.18299316647E+02 0.15857045606E+02
 0.13860547172E+02 0.12430886828E+02 0.11552341355E+02 0.11138972923E+02 0.11100815038E+02
 0.11371586875E+02 0.11896443381E+02 0.12603219455E+02 0.13383258453E+02 0.14096110198E+02
 0.14597443569E+02 0.14778121272E+02 0.14597443569E+02 0.14096110198E+02 0.13383258453E+02
 0.12603219455E+02 0.11896443381E+02 0.11371586875E+02 0.11100815038E+02 0.11138972923E+02
 0.11552341355E+02 0.12430886828E+02 0.13860547172E+02 0.15857045606E+02 0.18299316647E+02
 0.20917206336E+02 0.23538583587E+02 0.26390260308E+02 0.28828993283E+02 0.60643424723E+02
 0.57285406143E+02 0.48612324297E+02 0.38043210759E+02 0.29100680765E+02 0.23394787287E+02
 0.19628392553E+02 0.16375292860E+02 0.13860547172E+02 0.12145964442E+02 0.11100815038E+02
 0.10538115370E+02 0.10305514676E+02 0.10302115532E+02 0.10456688118E+02 0.10704162906E+02
 0.10971887565E+02 0.11179505083E+02 0.11258025259E+02 0.11179505083E+02 0.10971887565E+02
 0.10704162906E+02 0.10456688118E+02 0.10302115532E+02 0.10305514676E+02 0.10538115370E+02
 0.11100815038E+02 0.12145964442E+02 0.13860547172E+02 0.16375292860E+02 0.19628392553E+02
 0.23394787287E+02 0.29100680765E+02 0.38043210759E+02 0.48612324297E+02 0.57285406143E+02
 0.13174427174E+03 0.12388064416E+03 0.10303288739E+03 0.76139104463E+02 0.51160728038E+02
 0.33628774517E+02 0.24412510298E+02 0.19628392553E+02 0.15857045606E+02 0.13133859671E+02
 0.11371586875E+02 0.10305514676E+02 0.96865711990E+01 0.93433323931E+01 0.91693078040E+01
 0.91033371435E+01 0.91077532047E+01 0.91421411886E+01 0.91608567596E+01 0.91421411886E+01
 0.91077532047E+01 0.91033371435E+01 0.91693078040E+01 0.93433323931E+01 0.96865711990E+01
 0.10305514676E+02 0.11371586875E+02 0.13133859671E+02 0.15857045606E+02 0.19628392553E+02
 0.24412510298E+02 0.33628774517E+02 0.51160728038E+02 0.76139104463E+02 0.10303288739E+03
 0.12388064416E+03 0.25268660142E+03 0.23821099593E+03 0.19928184106E+03 0.14742030734E+03
 0.96380339365E+02 0.56983204381E+02 0.33628774517E+02 0.23394787287E+02 0.18299316647E+02
 0.14466535651E+02 0.11896443381E+02 0.10302115532E+02 0.93433323931E+01 0.87641848922E+01
 0.83980878531E+01 0.81602336946E+01 0.80250500693E+01 0.79724760611E+01 0.79627347314E+01
 0.79724760611E+01 0.80250500693E+01 0.81602336946E+01 0.83980878531E+01 0.87641848922E+01
 0.93433323931E+01 0.10302115532E+02 0.11896443381E+02 0.14466535651E+02 0.18299316647E+02
 0.23394787287E+02 0.33628774517E+02 0.56983204381E+02 0.96380339365E+02 0.14742030734E+03
 0.19928184106E+03 0.23821099593E+03 0.41899820456E+03 0.39621910397E+03 0.33450831771E+03
 0.25087108760E+03 0.16584494699E+03 0.96380339365E+02 0.51160728038E+02 0.29100680765E+02
 0.20917206336E+02 0.16015829850E+02 0.12603219455E+02 0.10456688118E+02 0.91693078040E+01
 0.83980878531E+01 0.79025586366E+01 0.75589062211E+01 0.73427674787E+01 0.72453634922E+01
 0.72228643145E+01 0.72453634922E+01 0.73427674787E+01 0.75589062211E+01 0.79025586366E+01
 0.83980878531E+01 0.91693078040E+01 0.10456688118E+02 0.12603219455E+02 0.16015829850E+02
 0.20917206336E+02 0.29100680765E+02 0.51160728038E+02 0.96380339365E+02 0.16584494699E+03
 0.25087108760E+03 0.33450831771E+03 0.39621910397E+03 0.61065765532E+03 0.57874550089E+03
 0.49201072247E+03 0.37347310452E+03 0.25087108760E+03 0.14742030734E+03 0.76139104463E+02
 0.38043210759E+02 0.23538583587E+02 0.17577271464E+02 0.13383258453E+02 0.10704162906E+02
 0.91033371435E+01 0.81602336946E+01 0.75589062211E+01 0.71323581593E+01 0.68548002988E+01
 0.67266089754E+01 0.66966549146E+01 0.67266089754E+01 0.68548002988E+01 0.71323581593E+01
 0.75589062211E+01 0.81602336946E+01 0.91033371435E+01 0.10704162906E+02 0.13383258453E+02
 0.17577271464E+02 0.23538583587E+02 0.38043210759E+02 0.76139104463E+02 0.14742030734E+03
 0.25087108760E+03 0.37347310452E+03 0.49201072247E+03 0.57874550089E+03 0.79364048753E+03
 0.75316222693E+03 0.64303086955E+03 0.49201072247E+03 0.33450831771E+03 0.19928184106E+03
 0.10303288739E+03 0.48612324297E+02 0.26390260308E+02 0.18912346672E+02 0.14096110198E+02
 0.10971887565E+02 0.91077532047E+01 0.80250500693E+01 0.73427674787E+01 0.68548002988E+01
 0.65330948845E+01 0.63849768726E+01 0.63511740267E+01 0.63849768726E+01 0.65330948845E+01
 0.68548002988E+01 0.73427674787E+01 0.80250500693E+01 0.91077532047E+01 0.10971887565E+02
 0.14096110198E+02 0.18912346672E+02 0.26390260308E+02 0.48612324297E+02 0.10303288739E+03
 0.19928184106E+03 0.33450831771E+03 0.49201072247E+03 0.64303086955E+03 0.75316222693E+03
 0.92692690714E+03 0.88022947052E+03 0.75316222693E+03 0.57874550089E+03 0.39621910397E+03
 0.23821099593E+03 0.12388064416E+03 0.57285406143E+02 0.28828993283E+02 0.19807965405E+02
 0.14597443569E+02 0.11179505083E+02 0.91421411886E+01 0.79724760611E+01 0.72453634922E+01
 0.67266089754E+01 0.63849768726E+01 0.62307139077E+01 0.61970707950E+01 0.62307139077E+01
 0.63849768726E+01 0.67266089754E+01 0.72453634922E+01 0.79724760611E+01 0.91421411886E+01
 0.11179505083E+02 0.14597443569E+02 0.19807965405E+02 0.28828993283E+02 0.57285406143E+02
 0.12388064416E+03 0.23821099593E+03 0.39621910397E+03 0.57874550089E+03 0.75316222693E+03
 0.88022947052E+03 0.92692690714E+03 0.88022947052E+03 0.75316222693E+03 0.57874550089E+03
 0.39621910397E+03 0.23821099593E+03 0.12388064416E+03 0.57285406143E+02 0.28828993283E+02
 0.19807965405E+02 0.14597443569E+02 0.11179505083E+02 0.91421411886E+01 0.79724760611E+01
 0.72453634922E+01 0.67266089754E+01 0.63849768726E+01 0.62307139077E+01 0.61970707950E+01
 0.62307139077E+01 0.63849768726E+01 0.67266089754E+01 0.72453634922E+01 0.79724760611E+01
 0.91421411886E+01 0.11179505083E+02 0.14597443569E+02 0.19807965405E+02 0.28828993283E+02
 0.57285406143E+02 0.12388064416E+03 0.23821099593E+03 0.39621910397E+03 0.57874550089E+03
 0.75316222693E+03 0.88022947052E+03 0.88022947052E+03 0.83571283859E+03 0.71457909039E+03
 0.54834661466E+03 0.37455876463E+03 0.22449910464E+03 0.11648589519E+03 0.54168548462E+02
 0.27938259624E+02 0.19499343482E+02 0.14421243256E+02 0.11102825741E+02 0.91235670018E+01
 0.79817781780E+01 0.72675030924E+01 0.67565148247E+01 0.64191270037E+01 0.62651006291E+01
 0.62307139077E+01 0.62651006291E+01 0.64191270037E+01 0.67565148247E+01 0.72675030924E+01
 0.79817781780E+01 0.91235670018E+01 0.11102825741E+02 0.14421243256E+02 0.19499343482E+02
 0.27938259624E+02 0.54168548462E+02 0.11648589519E+03 0.22449910464E+03 0.37455876463E+03
 0.54834661466E+03 0.71457909039E+03 0.83571283859E+03 0.75316222693E+03 0.71457909039E+03
 0.60961553431E+03 0.46575013487E+03 0.31591319889E+03 0.18765950143E+03 0.96911076898E+02
 0.46136758718E+02 0.25709643426E+02 0.18622158603E+02 0.13932582111E+02 0.10900067462E+02
 0.90890320421E+01 0.80322886751E+01 0.73626908562E+01 0.68829385271E+01 0.65661865423E+01
 0.64191270037E+01 0.63849768726E+01 0.64191270037E+01 0.65661865423E+01 0.68829385271E+01
 0.73626908562E+01 0.80322886751E+01 0.90890320421E+01 0.10900067462E+02 0.13932582111E+02
 0.18622158603E+02 0.25709643426E+02 0.46136758718E+02 0.96911076898E+02 0.18765950143E+03
 0.31591319889E+03 0.46575013487E+03 0.60961553431E+03 0.71457909039E+03 0.57874550089E+03
 0.54834661466E+03 0.46575013487E+03 0.35296645545E+03 0.23654463927E+03 0.13869128361E+03
 0.71745475863E+02 0.36395591788E+02 0.23083147904E+02 0.17317196339E+02 0.13238507130E+02
 0.10638774152E+02 0.90833483701E+01 0.81629769317E+01 0.75735276193E+01 0.71551680752E+01
 0.68829385271E+01 0.67565148247E+01 0.67266089754E+01 0.67565148247E+01 0.68829385271E+01
 0.71551680752E+01 0.75735276193E+01 0.81629769317E+01 0.90833483701E+01 0.10638774152E+02
 0.13238507130E+02 0.17317196339E+02 0.23083147904E+02 0.36395591788E+02 0.71745475863E+02
 0.13869128361E+03 0.23654463927E+03 0.35296645545E+03 0.46575013487E+03 0.54834661466E+03
 0.39621910397E+03 0.37455876463E+03 0.31591319889E+03 0.23654463927E+03 0.15608816391E+03
 0.90698539753E+02 0.48513182629E+02 0.28205264643E+02 0.20576968048E+02 0.15794889914E+02
 0.12480349564E+02 0.10397860445E+02 0.91467757397E+01 0.83943674889E+01 0.79094550362E+01
 0.75735276193E+01 0.73626908562E+01 0.72675030924E+01 0.72453634922E+01 0.72675030924E+01
 0.73626908562E+01 0.75735276193E+01 0.79094550362E+01 0.83943674889E+01 0.91467757397E+01
 0.10397860445E+02 0.12480349564E+02 0.15794889914E+02 0.20576968048E+02 0.28205264643E+02
 0.48513182629E+02 0.90698539753E+02 0.15608816391E+03 0.23654463927E+03 0.31591319889E+03
 0.37455876463E+03 0.23821099593E+03 0.22449910464E+03 0.18765950143E+03 0.13869128361E+03
 0.90698539753E+02 0.53917901320E+02 0.32357208786E+02 0.22958261413E+02 0.18017212327E+02
 0.14288616745E+02 0.11795091442E+02 0.10248459340E+02 0.93165242976E+01 0.87517963072E+01
 0.83943674889E+01 0.81629769317E+01 0.80322886751E+01 0.79817781780E+01 0.79724760611E+01
 0.79817781780E+01 0.80322886751E+01 0.81629769317E+01 0.83943674889E+01 0.87517963072E+01
 0.93165242976E+01 0.10248459340E+02 0.11795091442E+02 0.14288616745E+02 0.18017212327E+02
 0.22958261413E+02 0.32357208786E+02 0.53917901320E+02 0.90698539753E+02 0.13869128361E+03
 0.18765950143E+03 0.22449910464E+03 0.12388064416E+03 0.11648589519E+03 0.96911076898E+02
 0.71745475863E+02 0.48513182629E+02 0.32357208786E+02 0.23910397425E+02 0.19313176641E+02
 0.15639541484E+02 0.12996427220E+02 0.11287884722E+02 0.10253447810E+02 0.96514053797E+01
 0.93165242976E+01 0.91467757397E+01 0.90833483701E+01 0.90890320421E+01 0.91235670018E+01
 0.91421411886E+01 0.91235670018E+01 0.90890320421E+01 0.90833483701E+01 0.91467757397E+01
 0.93165242976E+01 0.96514053797E+01 0.10253447810E+02 0.11287884722E+02 0.12996427220E+02
 0.15639541484E+02 0.19313176641E+02 0.23910397425E+02 0.32357208786E+02 0.48513182629E+02
 0.71745475863E+02 0.96911076898E+02 0.11648589519E+03 0.57285406143E+02 0.54168548462E+02
 0.46136758718E+02 0.36395591788E+02 0.28205264643E+02 0.22958261413E+02 0.19313176641E+02
 0.16143391909E+02 0.13702306392E+02 0.12040785287E+02 0.11027702702E+02 0.10480943109E+02
 0.10253447810E+02 0.10248459340E+02 0.10397860445E+02 0.10638774152E+02 0.10900067462E+02
 0.11102825741E+02 0.11179505083E+02 0.11102825741E+02 0.10900067462E+02 0.10638774152E+02
 0.10397860445E+02 0.10248459340E+02 0.10253447810E+02 0.10480943109E+02 0.11027702702E+02
 0.12040785287E+02 0.13702306392E+02 0.16143391909E+02 0.19313176641E+02 0.22958261413E+02
 0.28205264643E+02 0.36395591788E+02 0.46136758718E+02 0.54168548462E+02 0.28828993283E+02
 0.27938259624E+02 0.25709643426E+02 0.23083147904E+02 0.20576968048E+02 0.18017212327E+02
 0.15639541484E+02 0.13702306392E+02 0.12317917016E+02 0.11467548337E+02 0.11066490688E+02
 0.11027702702E+02 0.11287884722E+02 0.11795091442E+02 0.12480349564E+02 0.13238507130E+02
 0.13932582111E+02 0.14421243256E+02 0.14597443569E+02 0.14421243256E+02 0.13932582111E+02
 0.13238507130E+02 0.12480349564E+02 0.11795091442E+02 0.11287884722E+02 0.11027702702E+02
 0.11066490688E+02 0.11467548337E+02 0.12317917016E+02 0.13702306392E+02 0.15639541484E+02
 0.18017212327E+02 0.20576968048E+02 0.23083147904E+02 0.25709643426E+02 0.27938259624E+02
 0.19807965405E+02 0.19499343482E+02 0.18622158603E+02 0.17317196339E+02 0.15794889914E+02