   4   4   0   0
  0.1380865E+02  0.3808352E-09  0.3808352E-09  0.3808352E-09  0.5000000E-15
  1.000000000000000E-004
  CAR 
 unknown system                          
     26.31922320     -4.42787996  301      5.71999553      1.00000000
     -4.428  0.0000E+00  0.0000E+00
     -4.325  0.0000E+00  0.0000E+00
     -4.223  0.0000E+00  0.0000E+00
     -4.120 -0.5046E-32 -0.5171E-33
     -4.018 -0.2130E-28 -0.2184E-29
     -3.915 -0.5299E-25 -0.5433E-26
     -3.813 -0.7757E-22 -0.7956E-23
     -3.710 -0.6680E-19 -0.6854E-20
     -3.608 -0.3232E-16 -0.3319E-17
     -3.505 -0.9703E-14 -0.9978E-15
     -3.403 -0.1677E-11 -0.1729E-12
     -3.300 -0.1694E-09 -0.1754E-10
     -3.198 -0.9971E-08 -0.1040E-08
     -3.096 -0.3413E-06 -0.3602E-07
     -2.993 -0.6783E-05 -0.7312E-06
     -2.891 -0.7829E-04 -0.8756E-05
     -2.788 -0.5247E-03 -0.6253E-04
     -2.686 -0.1998E-02 -0.2673E-03
     -2.583 -0.3583E-02 -0.6345E-03
     -2.481  0.3024E-02 -0.3245E-03
     -2.378  0.3612E-01  0.3377E-02
     -2.276  0.1052E+00  0.1416E-01
     -2.173  0.1778E+00  0.3238E-01
     -2.071  0.1959E+00  0.5246E-01
     -1.968  0.1700E+00  0.6989E-01
     -1.866  0.2097E+00  0.9138E-01
     -1.763  0.3571E+00  0.1280E+00
     -1.661  0.4487E+00  0.1740E+00
     -1.558  0.3383E+00  0.2086E+00
     -1.456  0.1848E+00  0.2276E+00
     -1.353  0.2383E+00  0.2520E+00
     -1.251  0.4431E+00  0.2974E+00
     -1.148  0.5695E+00  0.3558E+00
     -1.046  0.5455E+00  0.4117E+00
     -0.943  0.4313E+00  0.4559E+00
     -0.841  0.3715E+00  0.4940E+00
     -0.738  0.5237E+00  0.5477E+00
     -0.636  0.6849E+00  0.6178E+00
     -0.533  0.5175E+00  0.6709E+00
     -0.431  0.2915E+00  0.7008E+00
     -0.328  0.4572E+00  0.7476E+00
     -0.226  0.7851E+00  0.8281E+00
     -0.123  0.8456E+00  0.9148E+00
     -0.021  0.7302E+00  0.9896E+00
      0.082  0.7834E+00  0.1070E+01
      0.184  0.9194E+00  0.1164E+01
      0.287  0.7294E+00  0.1239E+01
      0.389  0.3875E+00  0.1279E+01
      0.492  0.4449E+00  0.1324E+01
      0.594  0.9504E+00  0.1422E+01
      0.697  0.1378E+01  0.1563E+01
      0.799  0.1335E+01  0.1700E+01
      0.902  0.1143E+01  0.1817E+01
      1.004  0.1080E+01  0.1927E+01
      1.107  0.1024E+01  0.2032E+01
      1.209  0.1107E+01  0.2146E+01
      1.312  0.1632E+01  0.2313E+01
      1.414  0.2350E+01  0.2554E+01
      1.517  0.2653E+01  0.2826E+01
      1.619  0.2795E+01  0.3112E+01
      1.722  0.3560E+01  0.3477E+01
      1.824  0.4759E+01  0.3965E+01
      1.927  0.5624E+01  0.4541E+01
      2.029  0.5940E+01  0.5150E+01
      2.132  0.6656E+01  0.5832E+01
      2.234  0.8537E+01  0.6707E+01
      2.336  0.1038E+02  0.7771E+01
      2.439  0.1106E+02  0.8905E+01
      2.541  0.1083E+02  0.1001E+02
      2.644  0.1047E+02  0.1109E+02
      2.746  0.1066E+02  0.1218E+02
      2.849  0.1183E+02  0.1339E+02
      2.951  0.1398E+02  0.1483E+02
      3.054  0.1605E+02  0.1647E+02
      3.156  0.1802E+02  0.1832E+02
      3.259  0.2061E+02  0.2043E+02
      3.361  0.2130E+02  0.2261E+02
      3.464  0.1821E+02  0.2448E+02
      3.566  0.1471E+02  0.2599E+02
      3.669  0.1473E+02  0.2750E+02
      3.771  0.1718E+02  0.2926E+02
      3.874  0.1820E+02  0.3112E+02
      3.976  0.1728E+02  0.3289E+02
      4.079  0.1761E+02  0.3470E+02
      4.181  0.2080E+02  0.3683E+02
      4.284  0.2292E+02  0.3918E+02
      4.386  0.1838E+02  0.4106E+02
      4.489  0.9361E+01  0.4202E+02
      4.591  0.2868E+01  0.4232E+02
      4.694  0.8088E+00  0.4240E+02
      4.796  0.1074E+01  0.4251E+02
      4.899  0.1817E+01  0.4270E+02
      5.001  0.1978E+01  0.4290E+02
      5.104  0.1471E+01  0.4305E+02
      5.206  0.7610E+00  0.4313E+02
      5.309  0.6081E+00  0.4319E+02
      5.411  0.1664E+01  0.4336E+02
      5.514  0.2653E+01  0.4363E+02
      5.616  0.2217E+01  0.4386E+02
      5.719  0.1357E+01  0.4400E+02
      5.821  0.9043E+00  0.4409E+02
      5.924  0.6620E+00  0.4416E+02
      6.026  0.5871E+00  0.4422E+02
      6.129  0.8387E+00  0.4431E+02
      6.231  0.1417E+01  0.4445E+02
      6.334  0.1753E+01  0.4463E+02
      6.436  0.1614E+01  0.4480E+02
      6.539  0.1555E+01  0.4495E+02
      6.641  0.1550E+01  0.4511E+02
      6.744  0.1178E+01  0.4523E+02
      6.846  0.8162E+00  0.4532E+02
      6.949  0.8311E+00  0.4540E+02
      7.051  0.8522E+00  0.4549E+02
      7.154  0.6037E+00  0.4555E+02
      7.256  0.5954E+00  0.4561E+02
      7.359  0.1290E+01  0.4575E+02
      7.461  0.1823E+01  0.4593E+02
      7.563  0.1420E+01  0.4608E+02
      7.666  0.9881E+00  0.4618E+02
      7.768  0.1181E+01  0.4630E+02
      7.871  0.1376E+01  0.4644E+02
      7.973  0.1243E+01  0.4657E+02
      8.076  0.9281E+00  0.4666E+02
      8.178  0.5212E+00  0.4672E+02
      8.281  0.2910E+00  0.4675E+02
      8.383  0.3543E+00  0.4678E+02
      8.486  0.5982E+00  0.4684E+02
      8.588  0.9604E+00  0.4694E+02
      8.691  0.1140E+01  0.4706E+02
      8.793  0.9827E+00  0.4716E+02
      8.896  0.1095E+01  0.4727E+02
      8.998  0.1576E+01  0.4743E+02
      9.101  0.1626E+01  0.4760E+02
      9.203  0.1091E+01  0.4771E+02
      9.306  0.6144E+00  0.4778E+02
      9.408  0.7176E+00  0.4785E+02
      9.511  0.1230E+01  0.4798E+02
      9.613  0.1664E+01  0.4815E+02
      9.716  0.1840E+01  0.4833E+02
      9.818  0.1555E+01  0.4849E+02
      9.921  0.8542E+00  0.4858E+02
     10.023  0.5083E+00  0.4863E+02
     10.126  0.9276E+00  0.4873E+02
     10.228  0.1598E+01  0.4889E+02
     10.331  0.1796E+01  0.4908E+02
     10.433  0.1345E+01  0.4921E+02
     10.536  0.6728E+00  0.4928E+02
     10.638  0.3263E+00  0.4932E+02
     10.741  0.7473E+00  0.4939E+02
     10.843  0.1775E+01  0.4958E+02
     10.946  0.2268E+01  0.4981E+02
     11.048  0.1606E+01  0.4997E+02
     11.151  0.9067E+00  0.5007E+02
     11.253  0.8768E+00  0.5016E+02
     11.356  0.8978E+00  0.5025E+02
     11.458  0.7640E+00  0.5033E+02
     11.561  0.7321E+00  0.5040E+02
     11.663  0.6394E+00  0.5047E+02
     11.766  0.4880E+00  0.5052E+02
     11.868  0.6604E+00  0.5058E+02
     11.971  0.1226E+01  0.5071E+02
     12.073  0.1782E+01  0.5089E+02
     12.176  0.1950E+01  0.5109E+02
     12.278  0.1850E+01  0.5128E+02
     12.381  0.1726E+01  0.5146E+02
     12.483  0.1611E+01  0.5162E+02
     12.586  0.1397E+01  0.5177E+02
     12.688  0.1083E+01  0.5188E+02
     12.790  0.8682E+00  0.5197E+02
     12.893  0.9242E+00  0.5206E+02
     12.995  0.1191E+01  0.5218E+02
     13.098  0.1355E+01  0.5232E+02
     13.200  0.1288E+01  0.5245E+02
     13.303  0.1374E+01  0.5260E+02
     13.405  0.1664E+01  0.5277E+02
     13.508  0.1607E+01  0.5293E+02
     13.610  0.1560E+01  0.5309E+02
     13.713  0.2106E+01  0.5331E+02
     13.815  0.2515E+01  0.5356E+02
     13.918  0.2044E+01  0.5377E+02
     14.020  0.1292E+01  0.5391E+02
     14.123  0.1300E+01  0.5404E+02
     14.225  0.1856E+01  0.5423E+02
     14.328  0.1852E+01  0.5442E+02
     14.430  0.1187E+01  0.5454E+02
     14.533  0.8864E+00  0.5463E+02
     14.635  0.1230E+01  0.5476E+02
     14.738  0.1450E+01  0.5491E+02
     14.840  0.1403E+01  0.5505E+02
     14.943  0.1484E+01  0.5520E+02
     15.045  0.1459E+01  0.5535E+02
     15.148  0.1116E+01  0.5547E+02
     15.250  0.8889E+00  0.5556E+02
     15.353  0.1238E+01  0.5568E+02
     15.455  0.2234E+01  0.5591E+02
     15.558  0.2873E+01  0.5621E+02
     15.660  0.2150E+01  0.5643E+02
     15.763  0.1345E+01  0.5657E+02
     15.865  0.1858E+01  0.5676E+02
     15.968  0.2481E+01  0.5701E+02
     16.070  0.1932E+01  0.5721E+02
     16.173  0.1040E+01  0.5732E+02
     16.275  0.7683E+00  0.5739E+02
     16.378  0.9363E+00  0.5749E+02
     16.480  0.1123E+01  0.5760E+02
     16.583  0.1543E+01  0.5776E+02
     16.685  0.2157E+01  0.5798E+02
     16.788  0.2067E+01  0.5820E+02
     16.890  0.1311E+01  0.5833E+02
     16.993  0.1101E+01  0.5844E+02
     17.095  0.1514E+01  0.5860E+02
     17.198  0.1427E+01  0.5874E+02
     17.300  0.8151E+00  0.5883E+02
     17.403  0.6047E+00  0.5889E+02
     17.505  0.7712E+00  0.5897E+02
     17.608  0.7250E+00  0.5904E+02
     17.710  0.5585E+00  0.5910E+02
     17.813  0.4689E+00  0.5915E+02
     17.915  0.3463E+00  0.5918E+02
     18.018  0.3696E+00  0.5922E+02
     18.120  0.5114E+00  0.5927E+02
     18.222  0.3856E+00  0.5931E+02
     18.325  0.1015E+00  0.5932E+02
     18.427 -0.2334E-01  0.5932E+02
     18.530 -0.2486E-01  0.5932E+02
     18.632 -0.2103E-01  0.5932E+02
     18.735 -0.6238E-03  0.5932E+02
     18.837  0.1140E+00  0.5933E+02
     18.940  0.3326E+00  0.5936E+02
     19.042  0.5577E+00  0.5942E+02
     19.145  0.5892E+00  0.5948E+02
     19.247  0.3255E+00  0.5951E+02
     19.350  0.8434E-01  0.5952E+02
     19.452  0.1323E+00  0.5954E+02
     19.555  0.2475E+00  0.5956E+02
     19.657  0.1696E+00  0.5958E+02
     19.760  0.3748E-01  0.5958E+02
     19.862  0.9776E-01  0.5959E+02
     19.965  0.3103E+00  0.5962E+02
     20.067  0.3956E+00  0.5966E+02
     20.170  0.2429E+00  0.5969E+02
     20.272  0.5551E-01  0.5970E+02
     20.375 -0.1697E-01  0.5969E+02
     20.477 -0.2779E-01  0.5969E+02
     20.580 -0.2790E-01  0.5969E+02
     20.682  0.7941E-01  0.5970E+02
     20.785  0.3670E+00  0.5973E+02
     20.887  0.5368E+00  0.5979E+02
     20.990  0.3329E+00  0.5982E+02
     21.092  0.5778E-01  0.5983E+02
     21.195 -0.2994E-01  0.5983E+02
     21.297 -0.2584E-01  0.5982E+02
     21.400 -0.8244E-02  0.5982E+02
     21.502  0.8003E-01  0.5983E+02
     21.605  0.2293E+00  0.5985E+02
     21.707  0.2527E+00  0.5988E+02
     21.810  0.1142E+00  0.5989E+02
     21.912  0.4744E-02  0.5989E+02
     22.015 -0.1322E-01  0.5989E+02
     22.117 -0.5928E-02  0.5989E+02
     22.220 -0.7901E-02  0.5989E+02
     22.322 -0.1346E-01  0.5989E+02
     22.425  0.2896E-01  0.5989E+02
     22.527  0.1662E+00  0.5991E+02
     22.630  0.2684E+00  0.5994E+02
     22.732  0.1837E+00  0.5995E+02
     22.835  0.4002E-01  0.5996E+02
     22.937 -0.1254E-01  0.5996E+02
     23.040 -0.8264E-02  0.5996E+02
     23.142 -0.1712E-02  0.5996E+02
     23.245 -0.1751E-03  0.5996E+02
     23.347 -0.9719E-05  0.5996E+02
     23.449 -0.3066E-06  0.5996E+02
     23.552 -0.1783E-06  0.5996E+02
     23.654 -0.5666E-05  0.5996E+02
     23.757 -0.1046E-03  0.5996E+02
     23.859 -0.1051E-02  0.5996E+02
     23.962 -0.5246E-02  0.5996E+02
     24.064 -0.8630E-02  0.5995E+02
     24.167  0.2381E-01  0.5996E+02
     24.269  0.1181E+00  0.5997E+02
     24.372  0.1791E+00  0.5999E+02
     24.474  0.1152E+00  0.6000E+02
     24.577  0.2196E-01  0.6000E+02
     24.679 -0.8774E-02  0.6000E+02
     24.782 -0.5072E-02  0.6000E+02
     24.884 -0.9939E-03  0.6000E+02
     24.987 -0.9719E-04  0.6000E+02
     25.089 -0.5176E-05  0.6000E+02
     25.192 -0.1554E-06  0.6000E+02
     25.294 -0.2676E-08  0.6000E+02
     25.397 -0.2667E-10  0.6000E+02
     25.499 -0.1547E-12  0.6000E+02
     25.602 -0.5706E-15  0.6000E+02
     25.704  0.0000E+00  0.6000E+02
     25.807  0.0000E+00  0.6000E+02
     25.909  0.0000E+00  0.6000E+02
     26.012  0.0000E+00  0.6000E+02
     26.114  0.0000E+00  0.6000E+02
     26.217  0.0000E+00  0.6000E+02
     26.319  0.0000E+00  0.6000E+02
