    4    4    1    1
  0.1380865E+02  0.3808352E-09  0.3808352E-09  0.3808352E-09  0.5000000E-15
  1.000000000000000E-004
  CAR 
 unknown system                          
     44     35     30
 
  0.0000000E+00  0.0000000E+00  0.0000000E+00  0.1371742E-02
    1       -2.427880   1.000000
    2        1.753965   1.000000
    3        1.753965   1.000000
    4        1.753965   1.000000
    5        2.116400   1.000000
    6        2.116400   1.000000
    7        2.116400   1.000000
    8        3.206233   1.000000
    9        3.206233   1.000000
   10        3.206233   1.000000
   11        3.855246   1.000000
   12        3.855246   1.000000
   13        4.288025   1.000000
   14        4.288025   1.000000
   15        4.288025   1.000000
   16        4.409665   1.000000
   17        4.409665   1.000000
   18        4.409665   1.000000
   19        4.409665   1.000000
   20        4.409665   1.000000
   21        4.409665   1.000000
   22        7.412846  -0.000000
   23        7.412846  -0.000000
   24        7.412846  -0.000000
   25       11.881167   0.000000
   26       11.881167   0.000000
   27       11.881167   0.000000
   28       17.720796   0.000000
   29       17.720796   0.000000
   30       17.720796   0.000000
 
  0.1111111E+00  0.0000000E+00  0.0000000E+00  0.8230453E-02
    1       -2.293713   1.000000
    2        1.746295   1.000000
    3        1.811449   1.000000
    4        1.811449   1.000000
    5        2.147962   1.000000
    6        2.150128   1.000000
    7        2.150128   1.000000
    8        3.172032   1.000000
    9        3.234450   1.000000
   10        3.234450   1.000000
   11        3.824357   1.000000
   12        3.868066   1.000000
   13        4.227237   1.000000
   14        4.227237   1.000000
   15        4.248149   1.000000
   16        4.248149   1.000000
   17        4.274720   1.000000
   18        4.362376   1.000000
   19        4.362376   1.000000
   20        4.409741   1.000000
   21        4.409741   1.000000
   22        6.558203  -0.000000
   23        7.719215  -0.000000
   24        7.719215  -0.000000
   25       11.938955   0.000000
   26       11.938955   0.000000
   27       13.015287   0.000000
   28       16.874082   0.000000
   29       16.874083   0.000000
   30       17.110444   0.000000
 
  0.2222222E+00  0.0000000E+00  0.0000000E+00  0.8230453E-02
    1       -1.895616   1.000000
    2        1.670959   1.000000
    3        1.968781   1.000000
    4        1.968781   1.000000
    5        2.239379   1.000000
    6        2.252295   1.000000
    7        2.252295   1.000000
    8        3.074043   1.000000
    9        3.317641   1.000000
   10        3.317641   1.000000
   11        3.738175   1.000000
   12        3.826108   1.000000
   13        3.826108   1.000000
   14        3.904980   1.000000
   15        4.135072   1.000000
   16        4.135072   1.000000
   17        4.231468   1.000000
   18        4.231468   1.000000
   19        4.236696   1.000000
   20        4.409914   1.000000
   21        4.409914   1.000000
   22        5.116279   1.000084
   23        8.490548  -0.000000
   24        8.490548  -0.000000
   25       12.120978   0.000000
   26       12.120978   0.000000
   27       15.312781   0.000000
   28       15.312781   0.000000
   29       15.341020   0.000000
   30       15.902759   0.000000
 
  0.3333333E+00  0.0000000E+00  0.0000000E+00  0.8230453E-02
    1       -1.249567   1.000000
    2        1.331811   1.000000
    3        2.176537   1.000000
    4        2.176537   1.000000
    5        2.380754   1.000000
    6        2.425282   1.000000
    7        2.425282   1.000000
    8        2.925270   1.000000
    9        3.389623   1.000000
   10        3.389623   1.000000
   11        3.451887   1.000000
   12        3.451887   1.000000
   13        3.619090   1.000000
   14        3.961827   1.000000
   15        3.977784   1.000000
   16        3.977784   1.000000
   17        4.008485   1.000000
   18        4.044217   1.000000
   19        4.044217   1.000000
   20        4.178312   1.000000
   21        4.410133   1.000000
   22        4.410133   1.000000
   23        9.539540  -0.000000
   24        9.539540  -0.000000
   25       12.452017   0.000000
   26       12.452017   0.000000
   27       13.699470   0.000000
   28       13.699470   0.000000
   29       14.709318   0.000000
   30       14.709318   0.000000
 
  0.4444444E+00  0.0000000E+00  0.0000000E+00  0.8230453E-02
    1       -0.395696   1.000000
    2        0.557129   1.000000
    3        2.339254   1.000000
    4        2.339254   1.000000
    5        2.555854   1.000000
    6        2.673277   1.000000
    7        2.673277   1.000000
    8        2.744992   1.000000
    9        2.996786   1.000000
   10        2.996786   1.000000
   11        3.517425   1.000000
   12        3.553040   1.000000
   13        3.628549   1.000000
   14        3.628549   1.000000
   15        3.833279   1.000000
   16        3.833279   1.000000
   17        3.848556   1.000000
   18        3.848556   1.000000
   19        4.031962   1.000000
   20        4.107123   1.000000
   21        4.410463   1.000000
   22        4.410463   1.000000
   23       10.780093  -0.000000
   24       10.780093  -0.000000
   25       12.175050   0.000000
   26       12.175050   0.000000
   27       12.965297   0.000000
   28       12.965297   0.000000
   29       13.727005   0.000000
   30       13.727005   0.000000
 
  0.1111111E+00  0.1111111E+00  0.0000000E+00  0.1646091E-01
    1       -2.160425   1.000000
    2        1.806567   1.000000
    3        1.806567   1.000000
    4        1.866108   1.000000
    5        2.180561   1.000000
    6        2.180561   1.000000
    7        2.182047   1.000000
    8        3.154232   1.000000
    9        3.247522   1.000000
   10        3.257468   1.000000
   11        3.816627   1.000000
   12        3.862804   1.000000
   13        4.102572   1.000000
   14        4.137951   1.000000
   15        4.137951   1.000000
   16        4.211223   1.000000
   17        4.262031   1.000000
   18        4.262031   1.000000
   19        4.362242   1.000000
   20        4.362242   1.000000
   21        4.378928   1.000000
   22        6.852291  -0.000000
   23        6.852291  -0.000000
   24        7.998987  -0.000000
   25       11.998985   0.000000
   26       13.099503   0.000000
   27       13.099503   0.000000
   28       15.284783   0.000000
   29       17.047998   0.000000
   30       17.047998   0.000000
 
  0.2222222E+00  0.1111111E+00  0.0000000E+00  0.3292181E-01
    1       -1.765105   1.000000
    2        1.740360   1.000000
    3        1.972348   1.000000
    4        2.015713   1.000000
    5        2.268708   1.000000
    6        2.277724   1.000000
    7        2.279394   1.000000
    8        3.068189   1.000000
    9        3.322293   1.000000
   10        3.323368   1.000000
   11        3.734552   1.000000
   12        3.746336   1.000000
   13        3.762048   1.000000
   14        3.901329   1.000000
   15        3.938837   1.000000
   16        4.105868   1.000000
   17        4.144788   1.000000
   18        4.227234   1.000000
   19        4.230851   1.000000
   20        4.361862   1.000000
   21        4.362665   1.000000
   22        5.455355   1.034156
   23        7.549039  -0.000000
   24        8.727029  -0.000000
   25       12.187574   0.000000
   26       13.360740   0.000000
   27       13.592025   0.000000
   28       15.442040   0.000000
   29       15.476315   0.000000
   30       16.054185   0.000000
 
  0.3333333E+00  0.1111111E+00  0.0000000E+00  0.3292181E-01
    1       -1.124269   1.000000
    2        1.417012   1.000000
    3        2.193587   1.000000
    4        2.217764   1.000000
    5        2.404737   1.000000
    6        2.433623   1.000000
    7        2.446236   1.000000
    8        2.927505   1.000000
    9        3.308130   1.000000
   10        3.362729   1.000000
   11        3.406264   1.000000
   12        3.453737   1.000000
   13        3.620763   1.000000
   14        3.664914   1.000000
   15        3.958981   1.000000
   16        3.972169   1.000000
   17        3.988237   1.000000
   18        4.043226   1.000000
   19        4.130727   1.000000
   20        4.359413   1.000000
   21        4.361140   1.000000
   22        4.504952   1.000000
   23        8.452881  -0.000000
   24        9.743765  -0.000000
   25       12.051807   0.000000
   26       12.531178   0.000000
   27       13.817260   0.000000
   28       13.863101   0.000000
   29       14.846935   0.000000
   30       16.562123   0.000000
 
  0.4444444E+00  0.1111111E+00  0.0000000E+00  0.3292181E-01
    1       -0.279145   1.000000
    2        0.659942   1.000000
    3        2.373996   1.000000
    4        2.384491   1.000000
    5        2.573560   1.000000
    6        2.642995   1.000000
    7        2.684238   1.000000
    8        2.755081   1.000000
    9        2.934625   1.000000
   10        2.993026   1.000000
   11        3.404791   1.000000
   12        3.405619   1.000000
   13        3.628947   1.000000
   14        3.720493   1.000000
   15        3.832761   1.000000
   16        3.841909   1.000000
   17        3.854016   1.000000
   18        3.920432   1.000000
   19        4.064047   1.000000
   20        4.185293   1.000000
   21        4.359355   1.000000
   22        4.360127   1.000000
   23        9.501688  -0.000000
   24       10.694315  -0.000000
   25       10.963351  -0.000000
   26       12.345344   0.000000
   27       13.061680   0.000000
   28       13.810148   0.000000
   29       14.538191   0.000000
   30       15.449808   0.000000
 
  0.2222222E+00  0.2222222E+00  0.0000000E+00  0.1646091E-01
    1       -1.378701   1.000000
    2        1.932878   1.000000
    3        1.932878   1.000000
    4        2.142334   1.000000
    5        2.355348   1.000000
    6        2.357394   1.000000
    7        2.357394   1.000000
    8        3.024593   1.000000
    9        3.341073   1.000000
   10        3.364667   1.000000
   11        3.511933   1.000000
   12        3.511933   1.000000
   13        3.563836   1.000000
   14        3.722923   1.000000
   15        3.941509   1.000000
   16        4.020996   1.000000
   17        4.126807   1.000000
   18        4.126807   1.000000
   19        4.229319   1.000000
   20        4.229319   1.000000
   21        4.288146   1.000000
   22        6.104570  -0.010175
   23        6.104570  -0.010175
   24        9.373637  -0.000000
   25       11.796276   0.000000
   26       12.400293   0.000000
   27       15.744310   0.000000
   28       15.744310   0.000000
   29       15.953434   0.000000
   30       15.953434   0.000000
 
  0.3333333E+00  0.2222222E+00  0.0000000E+00  0.3292181E-01
    1       -0.754914   1.000000
    2        1.654759   1.000000
    3        2.197427   1.000000
    4        2.316724   1.000000
    5        2.471542   1.000000
    6        2.476997   1.000000
    7        2.506016   1.000000
    8        2.922164   1.000000
    9        3.121659   1.000000
   10        3.274648   1.000000
   11        3.276500   1.000000
   12        3.348722   1.000000
   13        3.473041   1.000000
   14        3.676710   1.000000
   15        3.900061   1.000000
   16        3.979610   1.000000
   17        4.038791   1.000000
   18        4.041639   1.000000
   19        4.054342   1.000000
   20        4.227404   1.000000
   21        4.247015   1.000000
   22        5.034379   1.000007
   23        6.887790  -0.000000
   24       10.233807  -0.000000
   25       10.320373  -0.000000
   26       12.774009   0.000000
   27       14.340140   0.000000
   28       15.211759   0.000000
   29       16.290908   0.000000
   30       16.710443   0.000000
 
  0.4444444E+00  0.2222222E+00  0.0000000E+00  0.3292181E-01
    1        0.060835   1.000000
    2        0.953255   1.000000
    3        2.438732   1.000000
    4        2.509685   1.000000
    5        2.559919   1.000000
    6        2.624318   1.000000
    7        2.714741   1.000000
    8        2.780232   1.000000
    9        2.796430   1.000000
   10        2.977975   1.000000
   11        3.210924   1.000000
   12        3.286580   1.000000
   13        3.636187   1.000000
   14        3.727509   1.000000
   15        3.809647   1.000000
   16        3.833743   1.000000
   17        3.842804   1.000000
   18        3.880230   1.000000
   19        4.219550   1.000000
   20        4.226951   1.000000
   21        4.231181   1.000000
   22        4.482116   1.000000
   23        7.809577  -0.000000
   24        8.911065  -0.000000
   25       11.490148   0.000000
   26       12.839665   0.000000
   27       13.349233   0.000000
   28       14.157866   0.000000
   29       17.032245   0.000000
   30       17.707884   0.000000
 
  0.3333333E+00  0.3333333E+00  0.0000000E+00  0.1646091E-01
    1       -0.165031   1.000000
    2        1.985410   1.000000
    3        1.985410   1.000000
    4        2.399458   1.000000
    5        2.572987   1.000000
    6        2.596122   1.000000
    7        2.596122   1.000000
    8        2.884655   1.000000
    9        2.999464   1.000000
   10        2.999464   1.000000
   11        3.128806   1.000000
   12        3.301217   1.000000
   13        3.539785   1.000000
   14        3.628356   1.000000
   15        3.807058   1.000000
   16        3.903310   1.000000
   17        3.903310   1.000000
   18        4.042486   1.000000
   19        4.042486   1.000000
   20        4.143330   1.000000
   21        4.231485   1.000000
   22        5.654259   0.762199
   23        5.654259   0.762199
   24        8.675646  -0.000000
   25       11.196483   0.000000
   26       13.202168   0.000000
   27       15.096973   0.000000
   28       15.096973   0.000000
   29       15.860469   0.000000
   30       15.860469   0.000000
 
  0.4444444E+00  0.3333333E+00  0.0000000E+00  0.3292181E-01
    1        0.589664   1.000000
    2        1.384212   1.000000
    3        2.291472   1.000000
    4        2.423406   1.000000
    5        2.686522   1.000000
    6        2.702262   1.000000
    7        2.755962   1.000000
    8        2.804200   1.000000
    9        2.805869   1.000000
   10        2.942967   1.000000
   11        3.067277   1.000000
   12        3.206234   1.000000
   13        3.644384   1.000000
   14        3.668121   1.000000
   15        3.734763   1.000000
   16        3.764342   1.000000
   17        3.773561   1.000000
   18        3.844613   1.000000
   19        4.051821   1.000000
   20        4.080510   1.000000
   21        4.487183   1.000000
   22        4.897086   1.000000
   23        6.420332  -0.000004
   24        7.408434  -0.000000
   25       12.309717   0.000000
   26       13.619149   0.000000
   27       13.844078   0.000000
   28       14.726696   0.000000
   29       16.096138   0.000000
   30       16.744858   0.000000
 
  0.4444444E+00  0.4444444E+00  0.0000000E+00  0.1646091E-01
    1        1.230134   1.000000
    2        1.845833   1.000000
    3        1.845833   1.000000
    4        2.204875   1.000000
    5        2.793922   1.000000
    6        2.793922   1.000000
    7        2.813439   1.000000
    8        2.856199   1.000000
    9        2.880271   1.000000
   10        2.969871   1.000000
   11        2.969871   1.000000
   12        3.121255   1.000000
   13        3.591419   1.000000
   14        3.650066   1.000000
   15        3.657054   1.000000
   16        3.657054   1.000000
   17        3.746613   1.000000
   18        3.879877   1.000000
   19        3.879877   1.000000
   20        3.956468   1.000000
   21        4.862637   1.000000
   22        5.453080   1.033864
   23        5.453080   1.033864
   24        6.257919  -0.000476
   25       13.372602   0.000000
   26       14.565563   0.000000
   27       14.642837   0.000000
   28       14.642837   0.000000
   29       15.530861   0.000000
   30       15.530861   0.000000
 
  0.1111111E+00  0.1111111E+00  0.1111111E+00  0.1097394E-01
    1       -2.028100   1.000000
    2        1.863251   1.000000
    3        1.863251   1.000000
    4        1.863251   1.000000
    5        2.211718   1.000000
    6        2.211718   1.000000
    7        2.211718   1.000000
    8        3.138946   1.000000
    9        3.267261   1.000000
   10        3.267261   1.000000
   11        3.835815   1.000000
   12        3.835815   1.000000
   13        4.030339   1.000000
   14        4.030339   1.000000
   15        4.030339   1.000000
   16        4.166977   1.000000
   17        4.166977   1.000000
   18        4.166977   1.000000
   19        4.367956   1.000000
   20        4.367956   1.000000
   21        4.367956   1.000000
   22        7.109459  -0.000000
   23        7.109459  -0.000000
   24        7.109459  -0.000000
   25       13.185874   0.000000
   26       13.185874   0.000000
   27       13.185874   0.000000
   28       15.447497   0.000000
   29       15.447497   0.000000
   30       15.447497   0.000000
 
  0.2222222E+00  0.1111111E+00  0.1111111E+00  0.3292181E-01
    1       -1.635948   1.000000
    2        1.803570   1.000000
    3        2.018424   1.000000
    4        2.018424   1.000000
    5        2.297520   1.000000
    6        2.304864   1.000000
    7        2.304864   1.000000
    8        3.064018   1.000000
    9        3.323338   1.000000
   10        3.326977   1.000000
   11        3.680782   1.000000
   12        3.680782   1.000000
   13        3.767105   1.000000
   14        3.812678   1.000000
   15        3.890425   1.000000
   16        4.051245   1.000000
   17        4.075678   1.000000
   18        4.075678   1.000000
   19        4.328950   1.000000
   20        4.350187   1.000000
   21        4.350187   1.000000
   22        5.700864   0.580543
   23        7.752455  -0.000000
   24        7.752455  -0.000000
   25       13.449134   0.000000
   26       13.449134   0.000000
   27       13.755217   0.000000
   28       13.755217   0.000000
   29       15.538454   0.000000
   30       15.926899   0.000000
 
  0.3333333E+00  0.1111111E+00  0.1111111E+00  0.3292181E-01
    1       -1.001126   1.000000
    2        1.493810   1.000000
    3        2.229209   1.000000
    4        2.229209   1.000000
    5        2.430423   1.000000
    6        2.453886   1.000000
    7        2.453886   1.000000
    8        2.932840   1.000000
    9        3.294433   1.000000
   10        3.294433   1.000000
   11        3.389598   1.000000
   12        3.426125   1.000000
   13        3.501210   1.000000
   14        3.720292   1.000000
   15        3.893790   1.000000
   16        3.946567   1.000000
   17        3.946567   1.000000
   18        3.972246   1.000000
   19        4.260414   1.000000
   20        4.334253   1.000000
   21        4.334253   1.000000
   22        4.674604   1.000000
   23        8.617228  -0.000000
   24        8.617228  -0.000000
   25       12.211568   0.000000
   26       12.211568   0.000000
   27       13.928408   0.000000
   28       13.928408   0.000000
   29       16.673216   0.000000
   30       16.703828   0.000000
 
  0.4444444E+00  0.1111111E+00  0.1111111E+00  0.3292181E-01
    1       -0.166320   1.000000
    2        0.756293   1.000000
    3        2.417594   1.000000
    4        2.417594   1.000000
    5        2.594163   1.000000
    6        2.622455   1.000000
    7        2.622455   1.000000
    8        2.768897   1.000000
    9        2.971398   1.000000
   10        2.971398   1.000000
   11        3.336553   1.000000
   12        3.362343   1.000000
   13        3.561136   1.000000
   14        3.722518   1.000000
   15        3.831246   1.000000
   16        3.831246   1.000000
   17        3.837583   1.000000
   18        4.069791   1.000000
   19        4.132372   1.000000
   20        4.170168   1.000000
   21        4.327320   1.000000
   22        4.327320   1.000000
   23        9.622470  -0.000000
   24        9.622470  -0.000000
   25       10.880101  -0.000000
   26       10.880101  -0.000000
   27       14.622229   0.000000
   28       14.622229   0.000000
   29       15.582610   0.000000
   30       15.582610   0.000000
 
  0.2222222E+00  0.2222222E+00  0.1111111E+00  0.3292181E-01
    1       -1.253996   1.000000
    2        1.975973   1.000000
    3        1.975973   1.000000
    4        2.140145   1.000000
    5        2.383845   1.000000
    6        2.385435   1.000000
    7        2.385435   1.000000
    8        3.028864   1.000000
    9        3.338450   1.000000
   10        3.351286   1.000000
   11        3.472577   1.000000
   12        3.472577   1.000000
   13        3.501789   1.000000
   14        3.769589   1.000000
   15        3.921550   1.000000
   16        3.954208   1.000000
   17        3.973245   1.000000
   18        3.973245   1.000000
   19        4.313739   1.000000
   20        4.313739   1.000000
   21        4.313884   1.000000
   22        6.269764  -0.000355
   23        6.269764  -0.000355
   24        8.295478  -0.000000
   25       11.964740   0.000000
   26       13.742981   0.000000
   27       14.201839   0.000000
   28       14.201839   0.000000
   29       15.860980   0.000000
   30       15.860980   0.000000
 
  0.3333333E+00  0.2222222E+00  0.1111111E+00  0.6584362E-01
    1       -0.638991   1.000000
    2        1.702243   1.000000
    3        2.205165   1.000000
    4        2.299686   1.000000
    5        2.501232   1.000000
    6        2.510471   1.000000
    7        2.525271   1.000000
    8        2.938931   1.000000
    9        3.140147   1.000000
   10        3.245648   1.000000
   11        3.253452   1.000000
   12        3.343427   1.000000
   13        3.417617   1.000000
   14        3.762085   1.000000
   15        3.818793   1.000000
   16        3.843164   1.000000
   17        3.881107   1.000000
   18        4.035569   1.000000
   19        4.239131   1.000000
   20        4.271211   1.000000
   21        4.271597   1.000000
   22        5.125480   1.000109
   23        7.011989  -0.000000
   24        9.037353  -0.000000
   25       10.456180  -0.000000
   26       12.658911   0.000000
   27       14.242972   0.000000
   28       14.931359   0.000000
   29       16.386493   0.000000
   30       17.125314   0.000000
 
  0.4444444E+00  0.2222222E+00  0.1111111E+00  0.6584362E-01
    1        0.160919   1.000000
    2        1.027215   1.000000
    3        2.419776   1.000000
    4        2.466122   1.000000
    5        2.566078   1.000000
    6        2.622898   1.000000
    7        2.658670   1.000000
    8        2.808093   1.000000
    9        2.942834   1.000000
   10        3.024743   1.000000
   11        3.200708   1.000000
   12        3.278368   1.000000
   13        3.518389   1.000000
   14        3.656518   1.000000
   15        3.760932   1.000000
   16        3.780535   1.000000
   17        3.886000   1.000000
   18        4.095515   1.000000
   19        4.195161   1.000000
   20        4.245818   1.000000
   21        4.245868   1.000000
   22        4.478233   1.000000
   23        7.904943  -0.000000
   24        8.935346  -0.000000
   25       10.221882  -0.000000
   26       11.319555   0.000000
   27       14.976485   0.000000
   28       15.901063   0.000000
   29       15.944772   0.000000
   30       17.089038   0.000000
 
  0.3333333E+00  0.3333333E+00  0.1111111E+00  0.3292181E-01
    1       -0.063970   1.000000
    2        1.971749   1.000000
    3        1.971749   1.000000
    4        2.332324   1.000000
    5        2.617627   1.000000
    6        2.647137   1.000000
    7        2.647137   1.000000
    8        2.920826   1.000000
    9        3.034976   1.000000
   10        3.034976   1.000000
   11        3.157160   1.000000
   12        3.301118   1.000000
   13        3.432448   1.000000
   14        3.729804   1.000000
   15        3.751578   1.000000
   16        3.751578   1.000000
   17        3.759323   1.000000
   18        4.174061   1.000000
   19        4.174061   1.000000
   20        4.197414   1.000000
   21        4.206432   1.000000
   22        5.718782   0.505134
   23        5.718782   0.505134
   24        8.656435  -0.000000
   25       10.010471  -0.000000
   26       13.371479   0.000000
   27       13.371479   0.000000
   28       14.783391   0.000000
   29       16.884657   0.000000
   30       17.802596   0.000000
 
  0.4444444E+00  0.3333333E+00  0.1111111E+00  0.6584362E-01
    1        0.662741   1.000000
    2        1.411171   1.000000
    3        2.197177   1.000000
    4        2.310744   1.000000
    5        2.727926   1.000000
    6        2.770430   1.000000
    7        2.773704   1.000000
    8        2.863366   1.000000
    9        2.943143   1.000000
   10        3.049781   1.000000
   11        3.083743   1.000000
   12        3.211356   1.000000
   13        3.487100   1.000000
   14        3.602743   1.000000
   15        3.655808   1.000000
   16        3.675239   1.000000
   17        3.848201   1.000000
   18        4.021426   1.000000
   19        4.131888   1.000000
   20        4.141345   1.000000
   21        4.459983   1.000000
   22        4.894645   1.000000
   23        6.474233  -0.000001
   24        7.453184  -0.000000
   25       10.887081  -0.000000
   26       12.021949   0.000000
   27       14.323020   0.000000
   28       15.496613   0.000000
   29       15.562798   0.000000
   30       16.580497   0.000000
 
  0.4444444E+00  0.4444444E+00  0.1111111E+00  0.3292181E-01
    1        1.253490   1.000000
    2        1.799766   1.000000
    3        1.799766   1.000000
    4        2.099249   1.000000
    5        2.889814   1.000000
    6        2.911062   1.000000
    7        2.914445   1.000000
    8        2.914445   1.000000
    9        2.999386   1.000000
   10        2.999386   1.000000
   11        3.024522   1.000000
   12        3.135852   1.000000
   13        3.476243   1.000000
   14        3.549928   1.000000
   15        3.549928   1.000000
   16        3.561579   1.000000
   17        3.872286   1.000000
   18        3.990492   1.000000
   19        3.990492   1.000000
   20        4.039486   1.000000
   21        4.838740   1.000000
   22        5.456777   1.034326
   23        5.456777   1.034326
   24        6.281385  -0.000264
   25       11.813261   0.000000
   26       12.959536   0.000000
   27       12.959536   0.000000
   28       14.118990   0.000000
   29       16.390939   0.000000
   30       17.456065   0.000000
 
  0.2222222E+00  0.2222222E+00  0.2222222E+00  0.1097394E-01
    1       -0.886647   1.000000
    2        2.080882   1.000000
    3        2.080882   1.000000
    4        2.080882   1.000000
    5        2.475278   1.000000
    6        2.475278   1.000000
    7        2.475278   1.000000
    8        3.026163   1.000000
    9        3.337390   1.000000
   10        3.337390   1.000000
   11        3.343411   1.000000
   12        3.343411   1.000000
   13        3.343411   1.000000
   14        3.814260   1.000000
   15        3.814260   1.000000
   16        3.814260   1.000000
   17        3.880239   1.000000
   18        3.880239   1.000000
   19        4.337328   1.000000
   20        4.337328   1.000000
   21        4.337328   1.000000
   22        6.713242  -0.000000
   23        6.713242  -0.000000
   24        6.713242  -0.000000
   25       12.416537   0.000000
   26       12.416537   0.000000
   27       12.416537   0.000000
   28       16.181835   0.000000
   29       16.181835   0.000000
   30       16.181835   0.000000
 
  0.3333333E+00  0.2222222E+00  0.2222222E+00  0.3292181E-01
    1       -0.301080   1.000000
    2        1.815286   1.000000
    3        2.195158   1.000000
    4        2.195158   1.000000
    5        2.610534   1.000000
    6        2.610534   1.000000
    7        2.618737   1.000000
    8        2.985228   1.000000
    9        3.180969   1.000000
   10        3.180969   1.000000
   11        3.191858   1.000000
   12        3.325216   1.000000
   13        3.355123   1.000000
   14        3.660068   1.000000
   15        3.715683   1.000000
   16        3.715683   1.000000
   17        3.894990   1.000000
   18        4.014001   1.000000
   19        4.301265   1.000000
   20        4.301265   1.000000
   21        4.317499   1.000000
   22        5.423365   1.028396
   23        7.346964  -0.000000
   24        7.346964  -0.000000
   25       10.888732  -0.000000
   26       10.888732  -0.000000
   27       13.133232   0.000000
   28       16.659548   0.000000
   29       16.726074   0.000000
   30       16.726074   0.000000
 
  0.4444444E+00  0.2222222E+00  0.2222222E+00  0.3292181E-01
    1        0.444899   1.000000
    2        1.223569   1.000000
    3        2.276064   1.000000
    4        2.276064   1.000000
    5        2.691437   1.000000
    6        2.691437   1.000000
    7        2.772349   1.000000
    8        2.898203   1.000000
    9        3.110997   1.000000
   10        3.110997   1.000000
   11        3.170611   1.000000
   12        3.252999   1.000000
   13        3.416570   1.000000
   14        3.521455   1.000000
   15        3.646473   1.000000
   16        3.646473   1.000000
   17        4.095469   1.000000
   18        4.143817   1.000000
   19        4.250144   1.000000
   20        4.261450   1.000000
   21        4.261450   1.000000
   22        4.570086   1.000000
   23        8.045772  -0.000000
   24        8.045772  -0.000000
   25        9.738650  -0.000000
   26        9.738650  -0.000000
   27       14.089025   0.000000
   28       15.266782   0.000000
   29       17.494862   0.000000
   30       17.494862   0.000000
 
  0.3333333E+00  0.3333333E+00  0.2222222E+00  0.3292181E-01
    1        0.223743   1.000000
    2        1.932492   1.000000
    3        1.932492   1.000000
    4        2.150746   1.000000
    5        2.744712   1.000000
    6        2.784390   1.000000
    7        2.784390   1.000000