unknown system                          
   1.00000000000000     
     3.445083    0.000000    0.000000
     0.000000    3.445083    0.000000
     0.000000    0.000000    3.445083
   Fe
     4
Direct
  0.000000  0.000000  0.000000
  0.500000  0.500000  0.000000
  0.500000  0.000000  0.500000
  0.000000  0.500000  0.500000
 
   24   24   24
  340.39      313.98      246.27      163.92      92.572      45.724      23.171      15.369      11.729      10.340    
  9.7127      8.7694      8.2173      8.7694      9.7127      10.340      11.729      15.369      23.171      45.724    
  92.572      163.92      246.27      313.98      313.98      289.57      226.99      150.93      85.254      42.492    
  22.260      15.260      11.820      10.551      10.032      9.2409      8.7694      9.2409      10.032      10.551    
  11.820      15.260      22.260      42.492      85.254      150.93      226.99      289.57      246.27      226.99    
  177.61      117.84      66.838      34.597      20.149      14.917      11.989      10.939      10.565      10.032    
  9.7127      10.032      10.565      10.939      11.989      14.917      20.149      34.597      66.838      117.84    
  177.61      226.99      163.92      150.93      117.84      78.278      45.519      26.057      18.043      14.379    
  12.146      11.294      10.939      10.551      10.340      10.551      10.939      11.294      12.146      14.379    
  18.043      26.057      45.519      78.278      117.84      150.93      92.572      85.254      66.838      45.519    
  28.957      20.133      16.392      13.902      12.584      12.146      11.989      11.820      11.729      11.820    
  11.989      12.146      12.584      13.902      16.392      20.133      28.957      45.519      66.838      85.254    
  45.724      42.492      34.597      26.057      20.133      17.087      15.042      13.975      13.902      14.379    
  14.917      15.260      15.369      15.260      14.917      14.379      13.902      13.975      15.042      17.087    
  20.133      26.057      34.597      42.492      23.171      22.260      20.149      18.043      16.392      15.042    
  14.504      15.042      16.392      18.043      20.149      22.260      23.171      22.260      20.149      18.043    
  16.392      15.042      14.504      15.042      16.392      18.043      20.149      22.260      15.369      15.260    
  14.917      14.379      13.902      13.975      15.042      17.087      20.133      26.057      34.597      42.492    
  45.724      42.492      34.597      26.057      20.133      17.087      15.042      13.975      13.902      14.379    
  14.917      15.260      11.729      11.820      11.989      12.146      12.584      13.902      16.392      20.133    
  28.957      45.519      66.838      85.254      92.572      85.254      66.838      45.519      28.957      20.133    
  16.392      13.902      12.584      12.146      11.989      11.820      10.340      10.551      10.939      11.294    
  12.146      14.379      18.043      26.057      45.519      78.278      117.84      150.93      163.92      150.93    
  117.84      78.278      45.519      26.057      18.043      14.379      12.146      11.294      10.939      10.551    
  9.7127      10.032      10.565      10.939      11.989      14.917      20.149      34.597      66.838      117.84    
  177.61      226.99      246.27      226.99      177.61      117.84      66.838      34.597      20.149      14.917    
  11.989      10.939      10.565      10.032      8.7694      9.2409      10.032      10.551      11.820      15.260    
  22.260      42.492      85.254      150.93      226.99      289.57      313.98      289.57      226.99      150.93    
  85.254      42.492      22.260      15.260      11.820      10.551      10.032      9.2409      8.2173      8.7694    
  9.7127      10.340      11.729      15.369      23.171      45.724      92.572      163.92      246.27      313.98    
  340.39      313.98      246.27      163.92      92.572      45.724      23.171      15.369      11.729      10.340    
  9.7127      8.7694      8.7694      9.2409      10.032      10.551      11.820      15.260      22.260      42.492    
  85.254      150.93      226.99      289.57      313.98      289.57      226.99      150.93      85.254      42.492    
  22.260      15.260      11.820      10.551      10.032      9.2409      9.7127      10.032      10.565      10.939    
  11.989      14.917      20.149      34.597      66.838      117.84      177.61      226.99      246.27      226.99    
  177.61      117.84      66.838      34.597      20.149      14.917      11.989      10.939      10.565      10.032    
  10.340      10.551      10.939      11.294      12.146      14.379      18.043      26.057      45.519      78.278    
  117.84      150.93      163.92      150.93      117.84      78.278      45.519      26.057      18.043      14.379    
  12.146      11.294      10.939      10.551      11.729      11.820      11.989      12.146      12.584      13.902    
  16.392      20.133      28.957      45.519      66.838      85.254      92.572      85.254      66.838      45.519    
  28.957      20.133      16.392      13.902      12.584      12.146      11.989      11.820      15.369      15.260    
  14.917      14.379      13.902      13.975      15.042      17.087      20.133      26.057      34.597      42.492    
  45.724      42.492      34.597      26.057      20.133      17.087      15.042      13.975      13.902      14.379    
  14.917      15.260      23.171      22.260      20.149      18.043      16.392      15.042      14.504      15.042    
  16.392      18.043      20.149      22.260      23.171      22.260      20.149      18.043      16.392      15.042    
  14.504      15.042      16.392      18.043      20.149      22.260      45.724      42.492      34.597      26.057    
  20.133      17.087      15.042      13.975      13.902      14.379      14.917      15.260      15.369      15.260    
  14.917      14.379      13.902      13.975      15.042      17.087      20.133      26.057      34.597      42.492    
  92.572      85.254      66.838      45.519      28.957      20.133      16.392      13.902      12.584      12.146    
  11.989      11.820      11.729      11.820      11.989      12.146      12.584      13.902      16.392      20.133    
  28.957      45.519      66.838      85.254      163.92      150.93      117.84      78.278      45.519      26.057    
  18.043      14.379      12.146      11.294      10.939      10.551      10.340      10.551      10.939      11.294    
  12.146      14.379      18.043      26.057      45.519      78.278      117.84      150.93      246.27      226.99    
  177.61      117.84      66.838      34.597      20.149      14.917      11.989      10.939      10.565      10.032    
  9.7127      10.032      10.565      10.939      11.989      14.917      20.149      34.597      66.838      117.84    
  177.61      226.99      313.98      289.57      226.99      150.93      85.254      42.492      22.260      15.260    
  11.820      10.551      10.032      9.2409      8.7694      9.2409      10.032      10.551      11.820      15.260    
  22.260      42.492      85.254      150.93      226.99      289.57      313.98      289.57      226.99      150.93    
  85.254      42.492      22.260      15.260      11.820      10.551      10.032      9.2409      8.7694      9.2409    
  10.032      10.551      11.820      15.260      22.260      42.492      85.254      150.93      226.99      289.57    
  289.57      267.01      209.16      138.94      78.532      39.565      21.458      15.150      11.900      10.733    
  10.305      9.6427      9.2409      9.6427      10.305      10.733      11.900      15.150      21.458      39.565    
  78.532      138.94      209.16      267.01      226.99      209.16      163.53      108.43      61.666      32.449    
  19.605      14.809      12.045      11.070      10.753      10.305      10.032      10.305      10.753      11.070    
  12.045      14.809      19.605      32.449      61.666      108.43      163.53      209.16      150.93      138.94    
  108.43      72.101      42.271      24.825      17.739      14.283      12.183      11.388      11.070      10.733    
  10.551      10.733      11.070      11.388      12.183      14.283      17.739      24.825      42.271      72.101    
  108.43      138.94      85.254      78.532      61.666      42.271      27.392      19.599      16.174      13.818    
  12.587      12.183      12.045      11.900      11.820      11.900      12.045      12.183      12.587      13.818    
  16.174      19.599      27.392      42.271      61.666      78.532      42.492      39.565      32.449      24.825    
  19.599      16.827      14.875      13.874      13.818      14.283      14.809      15.150      15.260      15.150    
  14.809      14.283      13.818      13.874      14.875      16.827      19.599      24.825      32.449      39.565    
  22.260      21.458      19.605      17.739      16.174      14.875      14.361      14.875      16.174      17.739    
  19.605      21.458      22.260      21.458      19.605      17.739      16.174      14.875      14.361      14.875    
  16.174      17.739      19.605      21.458      15.260      15.150      14.809      14.283      13.818      13.874    
  14.875      16.827      19.599      24.825      32.449      39.565      42.492      39.565      32.449      24.825    
  19.599      16.827      14.875      13.874      13.818      14.283      14.809      15.150      11.820      11.900    
  12.045      12.183      12.587      13.818      16.174      19.599      27.392      42.271      61.666      78.532    
  85.254      78.532      61.666      42.271      27.392      19.599      16.174      13.818      12.587      12.183    
  12.045      11.900      10.551      10.733      11.070      11.388      12.183      14.283      17.739      24.825    
  42.271      72.101      108.43      138.94      150.93      138.94      108.43      72.101      42.271      24.825    
  17.739      14.283      12.183      11.388      11.070      10.733      10.032      10.305      10.753      11.070    
  12.045      14.809      19.605      32.449      61.666      108.43      163.53      209.16      226.99      209.16    
  163.53      108.43      61.666      32.449      19.605      14.809      12.045      11.070      10.753      10.305    
  9.2409      9.6427      10.305      10.733      11.900      15.150      21.458      39.565      78.532      138.94    
  209.16      267.01      289.57      267.01      209.16      138.94      78.532      39.565      21.458      15.150    
  11.900      10.733      10.305      9.6427      8.7694      9.2409      10.032      10.551      11.820      15.260    
  22.260      42.492      85.254      150.93      226.99      289.57      313.98      289.57      226.99      150.93    
  85.254      42.492      22.260      15.260      11.820      10.551      10.032      9.2409      9.2409      9.6427    
  10.305      10.733      11.900      15.150      21.458      39.565      78.532      138.94      209.16      267.01    
  289.57      267.01      209.16      138.94      78.532      39.565      21.458      15.150      11.900      10.733    
  10.305      9.6427      10.032      10.305      10.753      11.070      12.045      14.809      19.605      32.449    
  61.666      108.43      163.53      209.16      226.99      209.16      163.53      108.43      61.666      32.449    
  19.605      14.809      12.045      11.070      10.753      10.305      10.551      10.733      11.070      11.388    
  12.183      14.283      17.739      24.825      42.271      72.101      108.43      138.94      150.93      138.94    
  108.43      72.101      42.271      24.825      17.739      14.283      12.183      11.388      11.070      10.733    
  11.820      11.900      12.045      12.183      12.587      13.818      16.174      19.599      27.392      42.271    
  61.666      78.532      85.254      78.532      61.666      42.271      27.392      19.599      16.174      13.818    
  12.587      12.183      12.045      11.900      15.260      15.150      14.809      14.283      13.818      13.874    
  14.875      16.827      19.599      24.825      32.449      39.565      42.492      39.565      32.449      24.825    
  19.599      16.827      14.875      13.874      13.818      14.283      14.809      15.150      22.260      21.458    
  19.605      17.739      16.174      14.875      14.361      14.875      16.174      17.739      19.605      21.458    
  22.260      21.458      19.605      17.739      16.174      14.875      14.361      14.875      16.174      17.739    
  19.605      21.458      42.492      39.565      32.449      24.825      19.599      16.827      14.875      13.874    
  13.818      14.283      14.809      15.150      15.260      15.150      14.809      14.283      13.818      13.874    
  14.875      16.827      19.599      24.825      32.449      39.565      85.254      78.532      61.666      42.271    
  27.392      19.599      16.174      13.818      12.587      12.183      12.045      11.900      11.820      11.900    
  12.045      12.183      12.587      13.818      16.174      19.599      27.392      42.271      61.666      78.532    
  150.93      138.94      108.43      72.101      42.271      24.825      17.739      14.283      12.183      11.388    
  11.070      10.733      10.551      10.733      11.070      11.388      12.183      14.283      17.739      24.825    
  42.271      72.101      108.43      138.94      226.99      209.16      163.53      108.43      61.666      32.449    
  19.605      14.809      12.045      11.070      10.753      10.305      10.032      10.305      10.753      11.070    
  12.045      14.809      19.605      32.449      61.666      108.43      163.53      209.16      289.57      267.01    
  209.16      138.94      78.532      39.565      21.458      15.150      11.900      10.733      10.305      9.6427    
  9.2409      9.6427      10.305      10.733      11.900      15.150      21.458      39.565      78.532      138.94    
  209.16      267.01      246.27      226.99      177.61      117.84      66.838      34.597      20.149      14.917    
  11.989      10.939      10.565      10.032      9.7127      10.032      10.565      10.939      11.989      14.917    
  20.149      34.597      66.838      117.84      177.61      226.99      226.99      209.16      163.53      108.43    
  61.666      32.449      19.605      14.809      12.045      11.070      10.753      10.305      10.032      10.305    
  10.753      11.070      12.045      14.809      19.605      32.449      61.666      108.43      163.53      209.16    
  177.61      163.53      127.62      84.614      48.812      27.301      18.343      14.487      12.149      11.322    
  11.066      10.753      10.565      10.753      11.066      11.322      12.149      14.487      18.343      27.301    
  48.812      84.614      127.62      163.53      117.84      108.43      84.614      56.668      34.358      21.945    
  16.973      14.007      12.254      11.585      11.322      11.070      10.939      11.070      11.322      11.585    
  12.254      14.007      16.973      21.945      34.358      56.668      84.614      108.43      66.838      61.666    
  48.812      34.358      23.707      18.360      15.582      13.587      12.579      12.254      12.149      12.045    
  11.989      12.045      12.149      12.254      12.579      13.587      15.582      18.360      23.707      34.358    
  48.812      61.666      34.597      32.449      27.301      21.945      18.360      16.133      14.443      13.611    
  13.587      14.007      14.487      14.809      14.917      14.809      14.487      14.007      13.587      13.611    
  14.443      16.133      18.360      21.945      27.301      32.449      20.149      19.605      18.343      16.973    
  15.582      14.443      14.000      14.443      15.582      16.973      18.343      19.605      20.149      19.605    
  18.343      16.973      15.582      14.443      14.000      14.443      15.582      16.973      18.343      19.605    
  14.917      14.809      14.487      14.007      13.587      13.611      14.443      16.133      18.360      21.945    
  27.301      32.449      34.597      32.449      27.301      21.945      18.360      16.133      14.443      13.611    
  13.587      14.007      14.487      14.809      11.989      12.045      12.149      12.254      12.579      13.587    
  15.582      18.360      23.707      34.358      48.812      61.666      66.838      61.666      48.812      34.358    
  23.707      18.360      15.582      13.587      12.579      12.254      12.149      12.045      10.939      11.070    
  11.322      11.585      12.254      14.007      16.973      21.945      34.358      56.668      84.614      108.43    
  117.84      108.43      84.614      56.668      34.358      21.945      16.973      14.007      12.254      11.585    
  11.322      11.070      10.565      10.753      11.066      11.322      12.149      14.487      18.343      27.301    
  48.812      84.614      127.62      163.53      177.61      163.53      127.62      84.614      48.812      27.301    
  18.343      14.487      12.149      11.322      11.066      10.753      10.032      10.305      10.753      11.070    
  12.045      14.809      19.605      32.449      61.666      108.43      163.53      209.16      226.99      209.16    
  163.53      108.43      61.666      32.449      19.605      14.809      12.045      11.070      10.753      10.305    
  9.7127      10.032      10.565      10.939      11.989      14.917      20.149      34.597      66.838      117.84    
  177.61      226.99      246.27      226.99      177.61      117.84      66.838      34.597      20.149      14.917    
  11.989      10.939      10.565      10.032      10.032      10.305      10.753      11.070      12.045      14.809    
  19.605      32.449      61.666      108.43      163.53      209.16      226.99      209.16      163.53      108.43    
  61.666      32.449      19.605      14.809      12.045      11.070      10.753      10.305      10.565      10.753    
  11.066      11.322      12.149      14.487      18.343      27.301      48.812      84.614      127.62      163.53    
  177.61      163.53      127.62      84.614      48.812      27.301      18.343      14.487      12.149      11.322    
  11.066      10.753      10.939      11.070      11.322      11.585      12.254      14.007      16.973      21.945    
  34.358      56.668      84.614      108.43      117.84      108.43      84.614      56.668      34.358      21.945    
  16.973      14.007      12.254      11.585      11.322      11.070      11.989      12.045      12.149      12.254    
  12.579      13.587      15.582      18.360      23.707      34.358      48.812      61.666      66.838      61.666    
  48.812      34.358      23.707      18.360      15.582      13.587      12.579      12.254      12.149      12.045    
  14.917      14.809      14.487      14.007      13.587      13.611      14.443      16.133      18.360      21.945    
  27.301      32.449      34.597      32.449      27.301      21.945      18.360      16.133      14.443      13.611    
  13.587      14.007      14.487      14.809      20.149      19.605      18.343      16.973      15.582      14.443    
  14.000      14.443      15.582      16.973      18.343      19.605      20.149      19.605      18.343      16.973    
  15.582      14.443      14.000      14.443      15.582      16.973      18.343      19.605      34.597      32.449    
  27.301      21.945      18.360      16.133      14.443      13.611      13.587      14.007      14.487      14.809    
  14.917      14.809      14.487      14.007      13.587      13.611      14.443      16.133      18.360      21.945    
  27.301      32.449      66.838      61.666      48.812      34.358      23.707      18.360      15.582      13.587    
  12.579      12.254      12.149      12.045      11.989      12.045      12.149      12.254      12.579      13.587    
  15.582      18.360      23.707      34.358      48.812      61.666      117.84      108.43      84.614      56.668    
  34.358      21.945      16.973      14.007      12.254      11.585      11.322      11.070      10.939      11.070    
  11.322      11.585      12.254      14.007      16.973      21.945      34.358      56.668      84.614      108.43    
  177.61      163.53      127.62      84.614      48.812      27.301      18.343      14.487      12.149      11.322    
  11.066      10.753      10.565      10.753      11.066      11.322      12.149      14.487      18.343      27.301    
  48.812      84.614      127.62      163.53      226.99      209.16      163.53      108.43      61.666      32.449    
  19.605      14.809      12.045      11.070      10.753      10.305      10.032      10.305      10.753      11.070    
  12.045      14.809      19.605      32.449      61.666      108.43      163.53      209.16      163.92      150.93    
  117.84      78.278      45.519      26.057      18.043      14.379      12.146      11.294      10.939      10.551    
  10.340      10.551      10.939      11.294      12.146      14.379      18.043      26.057      45.519      78.278    
  117.84      150.93      150.93      138.94      108.43      72.101      42.271      24.825      17.739      14.283    
  12.183      11.388      11.070      10.733      10.551      10.733      11.070      11.388      12.183      14.283    
  17.739      24.825      42.271      72.101      108.43      138.94      117.84      108.43      84.614      56.668    
  34.358      21.945      16.973      14.007      12.254      11.585      11.322      11.070      10.939      11.070    
  11.322      11.585      12.254      14.007      16.973      21.945      34.358      56.668      84.614      108.43    
  78.278      72.101      56.668      39.095      25.847      19.063      15.918      13.614      12.328      11.817    
  11.585      11.388      11.294      11.388      11.585      11.817      12.328      13.614      15.918      19.063    
  25.847      39.095      56.668      72.101      45.519      42.271      34.358      25.847      20.000      16.988    
  14.785      13.280      12.557      12.328      12.254      12.183      12.146      12.183      12.254      12.328    
  12.557      13.280      14.785      16.988      20.000      25.847      34.358      42.271      26.057      24.825    
  21.945      19.063      16.988      15.218      13.908      13.287      13.280      13.614      14.007      14.283    
  14.379      14.283      14.007      13.614      13.280      13.287      13.908      15.218      16.988      19.063    
  21.945      24.825      18.043      17.739      16.973      15.918      14.785      13.908      13.576      13.908    
  14.785      15.918      16.973      17.739      18.043      17.739      16.973      15.918      14.785      13.908    
  13.576      13.908      14.785      15.918      16.973      17.739      14.379      14.283      14.007      13.614    
  13.280      13.287      13.908      15.218      16.988      19.063      21.945      24.825      26.057      24.825    
  21.945      19.063      16.988      15.218      13.908      13.287      13.280      13.614      14.007      14.283    
  12.146      12.183      12.254      12.328      12.557      13.280      14.785      16.988      20.000      25.847    
  34.358      42.271      45.519      42.271      34.358      25.847      20.000      16.988      14.785      13.280    
  12.557      12.328      12.254      12.183      11.294      11.388      11.585      11.817      12.328      13.614    
  15.918      19.063      25.847      39.095      56.668      72.101      78.278      72.101      56.668      39.095    
  25.847      19.063      15.918      13.614      12.328      11.817      11.585      11.388      10.939      11.070    
  11.322      11.585      12.254      14.007      16.973      21.945      34.358      56.668      84.614      108.43    
  117.84      108.43      84.614      56.668      34.358      21.945      16.973      14.007      12.254      11.585    
  11.322      11.070      10.551      10.733      11.070      11.388      12.183      14.283      17.739      24.825    
  42.271      72.101      108.43      138.94      150.93      138.94      108.43      72.101      42.271      24.825    
  17.739      14.283      12.183      11.388      11.070      10.733      10.340      10.551      10.939      11.294    
  12.146      14.379      18.043      26.057      45.519      78.278      117.84      150.93      163.92      150.93    
  117.84      78.278      45.519      26.057      18.043      14.379      12.146      11.294      10.939      10.551    
  10.551      10.733      11.070      11.388      12.183      14.283      17.739      24.825      42.271      72.101    
  108.43      138.94      150.93      138.94      108.43      72.101      42.271      24.825      17.739      14.283    
  12.183      11.388      11.070      10.733      10.939      11.070      11.322      11.585      12.254      14.007    
  16.973      21.945      34.358      56.668      84.614      108.43      117.84      108.43      84.614      56.668    
  34.358      21.945      16.973      14.007      12.254      11.585      11.322      11.070      11.294      11.388    
  11.585      11.817      12.328      13.614      15.918      19.063      25.847      39.095      56.668      72.101    
  78.278      72.101      56.668      39.095      25.847      19.063      15.918      13.614      12.328      11.817    
  11.585      11.388      12.146      12.183      12.254      12.328      12.557      13.280      14.785      16.988    
  20.000      25.847      34.358      42.271      45.519      42.271      34.358      25.847      20.000      16.988    
  14.785      13.280      12.557      12.328      12.254      12.183      14.379      14.283      14.007      13.614    
  13.280      13.287      13.908      15.218      16.988      19.063      21.945      24.825      26.057      24.825    
  21.945      19.063      16.988      15.218      13.908      13.287      13.280      13.614      14.007      14.283    
  18.043      17.739      16.973      15.918      14.785      13.908      13.576      13.908      14.785      15.918    
  16.973      17.739      18.043      17.739      16.973      15.918      14.785      13.908      13.576      13.908    
  14.785      15.918      16.973      17.739      26.057      24.825      21.945      19.063      16.988      15.218    
  13.908      13.287      13.280      13.614      14.007      14.283      14.379      14.283      14.007      13.614    
  13.280      13.287      13.908      15.218      16.988      19.063      21.945      24.825      45.519      42.271    
  34.358      25.847      20.000      16.988      14.785      13.280      12.557      12.328      12.254      12.183    
  12.146      12.183      12.254      12.328      12.557      13.280      14.785      16.988      20.000      25.847    
  34.358      42.271      78.278      72.101      56.668      39.095      25.847      19.063      15.918      13.614    
  12.328      11.817      11.585      11.388      11.294      11.388      11.585      11.817      12.328      13.614    
  15.918      19.063      25.847      39.095      56.668      72.101      117.84      108.43      84.614      56.668    
  34.358      21.945      16.973      14.007      12.254      11.585      11.322      11.070      10.939      11.070    
  11.322      11.585      12.254      14.007      16.973      21.945      34.358      56.668      84.614      108.43    
  150.93      138.94      108.43      72.101      42.271      24.825      17.739      14.283      12.183      11.388    
  11.070      10.733      10.551      10.733      11.070      11.388      12.183      14.283      17.739      24.825    
  42.271      72.101      108.43      138.94      92.572      85.254      66.838      45.519      28.957      20.133    
  16.392      13.902      12.584      12.146      11.989      11.820      11.729      11.820      11.989      12.146    
  12.584      13.902      16.392      20.133      28.957      45.519      66.838      85.254      85.254      78.532    
  61.666      42.271      27.392      19.599      16.174      13.818      12.587      12.183      12.045      11.900    
  11.820      11.900      12.045      12.183      12.587      13.818      16.174      19.599      27.392      42.271    
  61.666      78.532      66.838      61.666      48.812      34.358      23.707      18.360      15.582      13.587    
  12.579      12.254      12.149      12.045      11.989      12.045      12.149      12.254      12.579      13.587    
  15.582      18.360      23.707      34.358      48.812      61.666      45.519      42.271      34.358      25.847    
  20.000      16.988      14.785      13.280      12.557      12.328      12.254      12.183      12.146      12.183    
  12.254      12.328      12.557      13.280      14.785      16.988      20.000      25.847      34.358      42.271    
  28.957      27.392      23.707      20.000      17.502      15.573      14.002      13.033      12.630      12.557    
  12.579      12.587      12.584      12.587      12.579      12.557      12.630      13.033      14.002      15.573    
  17.502      20.000      23.707      27.392      20.133      19.599      18.360      16.988      15.573      14.314    
  13.436      13.030      13.033      13.280      13.587      13.818      13.902      13.818      13.587      13.280    
  13.033      13.030      13.436      14.314      15.573      16.988      18.360      19.599      16.392      16.174    