unknown system                          
   1.00000000000000     
     3.445083    0.000000    0.000000
     0.000000    3.445083    0.000000
     0.000000    0.000000    3.445083
   Fe
     4
Direct
  0.000000  0.000000  0.000000
  0.500000  0.500000  0.000000
  0.500000  0.000000  0.500000
  0.000000  0.500000  0.500000
 
   24   24   24
 0.34039060449E+03 0.31398311078E+03 0.24627385835E+03 0.16391627799E+03 0.92571994967E+02
 0.45724064634E+02 0.23171379270E+02 0.15368543266E+02 0.11728516865E+02 0.10340180727E+02
 0.97126960149E+01 0.87694207729E+01 0.82172883446E+01 0.87694207729E+01 0.97126960149E+01
 0.10340180727E+02 0.11728516865E+02 0.15368543266E+02 0.23171379270E+02 0.45724064634E+02
 0.92571994967E+02 0.16391627799E+03 0.24627385835E+03 0.31398311078E+03 0.31398311078E+03
 0.28957371603E+03 0.22699284548E+03 0.15093448591E+03 0.85254078383E+02 0.42491662397E+02
 0.22259519561E+02 0.15259743652E+02 0.11820161661E+02 0.10550622072E+02 0.10032440243E+02
 0.92409247759E+01 0.87694207729E+01 0.92409247759E+01 0.10032440243E+02 0.10550622072E+02
 0.11820161661E+02 0.15259743652E+02 0.22259519561E+02 0.42491662397E+02 0.85254078383E+02
 0.15093448591E+03 0.22699284548E+03 0.28957371603E+03 0.24627385835E+03 0.22699284548E+03
 0.17761039432E+03 0.11783569669E+03 0.66838119734E+02 0.34597428389E+02 0.20148882247E+02
 0.14917231788E+02 0.11988820230E+02 0.10939075470E+02 0.10565466832E+02 0.10032440243E+02
 0.97126960149E+01 0.10032440243E+02 0.10565466832E+02 0.10939075470E+02 0.11988820230E+02
 0.14917231788E+02 0.20148882247E+02 0.34597428389E+02 0.66838119734E+02 0.11783569669E+03
 0.17761039432E+03 0.22699284548E+03 0.16391627799E+03 0.15093448591E+03 0.11783569669E+03
 0.78277837020E+02 0.45519008055E+02 0.26057289949E+02 0.18042938370E+02 0.14379147777E+02
 0.12145603415E+02 0.11293951804E+02 0.10939075470E+02 0.10550622072E+02 0.10340180727E+02
 0.10550622072E+02 0.10939075470E+02 0.11293951804E+02 0.12145603415E+02 0.14379147777E+02
 0.18042938370E+02 0.26057289949E+02 0.45519008055E+02 0.78277837020E+02 0.11783569669E+03
 0.15093448591E+03 0.92571994967E+02 0.85254078383E+02 0.66838119734E+02 0.45519008055E+02
 0.28957368803E+02 0.20132742898E+02 0.16392432397E+02 0.13902041769E+02 0.12583679007E+02
 0.12145603415E+02 0.11988820230E+02 0.11820161661E+02 0.11728516865E+02 0.11820161661E+02
 0.11988820230E+02 0.12145603415E+02 0.12583679007E+02 0.13902041769E+02 0.16392432397E+02
 0.20132742898E+02 0.28957368803E+02 0.45519008055E+02 0.66838119734E+02 0.85254078383E+02
 0.45724064634E+02 0.42491662397E+02 0.34597428389E+02 0.26057289949E+02 0.20132742898E+02
 0.17087432808E+02 0.15042144802E+02 0.13974823755E+02 0.13902041769E+02 0.14379147777E+02
 0.14917231788E+02 0.15259743652E+02 0.15368543266E+02 0.15259743652E+02 0.14917231788E+02
 0.14379147777E+02 0.13902041769E+02 0.13974823755E+02 0.15042144802E+02 0.17087432808E+02
 0.20132742898E+02 0.26057289949E+02 0.34597428389E+02 0.42491662397E+02 0.23171379270E+02
 0.22259519561E+02 0.20148882247E+02 0.18042938370E+02 0.16392432397E+02 0.15042144802E+02
 0.14503820645E+02 0.15042144802E+02 0.16392432397E+02 0.18042938370E+02 0.20148882247E+02
 0.22259519561E+02 0.23171379270E+02 0.22259519561E+02 0.20148882247E+02 0.18042938370E+02
 0.16392432397E+02 0.15042144802E+02 0.14503820645E+02 0.15042144802E+02 0.16392432397E+02
 0.18042938370E+02 0.20148882247E+02 0.22259519561E+02 0.15368543266E+02 0.15259743652E+02
 0.14917231788E+02 0.14379147777E+02 0.13902041769E+02 0.13974823755E+02 0.15042144802E+02
 0.17087432808E+02 0.20132742898E+02 0.26057289949E+02 0.34597428389E+02 0.42491662397E+02
 0.45724064634E+02 0.42491662397E+02 0.34597428389E+02 0.26057289949E+02 0.20132742898E+02
 0.17087432808E+02 0.15042144802E+02 0.13974823755E+02 0.13902041769E+02 0.14379147777E+02
 0.14917231788E+02 0.15259743652E+02 0.11728516865E+02 0.11820161661E+02 0.11988820230E+02
 0.12145603415E+02 0.12583679007E+02 0.13902041769E+02 0.16392432397E+02 0.20132742898E+02
 0.28957368803E+02 0.45519008055E+02 0.66838119734E+02 0.85254078383E+02 0.92571994967E+02
 0.85254078383E+02 0.66838119734E+02 0.45519008055E+02 0.28957368803E+02 0.20132742898E+02
 0.16392432397E+02 0.13902041769E+02 0.12583679007E+02 0.12145603415E+02 0.11988820230E+02
 0.11820161661E+02 0.10340180727E+02 0.10550622072E+02 0.10939075470E+02 0.11293951804E+02
 0.12145603415E+02 0.14379147777E+02 0.18042938370E+02 0.26057289949E+02 0.45519008055E+02
 0.78277837020E+02 0.11783569669E+03 0.15093448591E+03 0.16391627799E+03 0.15093448591E+03
 0.11783569669E+03 0.78277837020E+02 0.45519008055E+02 0.26057289949E+02 0.18042938370E+02
 0.14379147777E+02 0.12145603415E+02 0.11293951804E+02 0.10939075470E+02 0.10550622072E+02
 0.97126960149E+01 0.10032440243E+02 0.10565466832E+02 0.10939075470E+02 0.11988820230E+02
 0.14917231788E+02 0.20148882247E+02 0.34597428389E+02 0.66838119734E+02 0.11783569669E+03
 0.17761039432E+03 0.22699284548E+03 0.24627385835E+03 0.22699284548E+03 0.17761039432E+03
 0.11783569669E+03 0.66838119734E+02 0.34597428389E+02 0.20148882247E+02 0.14917231788E+02
 0.11988820230E+02 0.10939075470E+02 0.10565466832E+02 0.10032440243E+02 0.87694207729E+01
 0.92409247759E+01 0.10032440243E+02 0.10550622072E+02 0.11820161661E+02 0.15259743652E+02
 0.22259519561E+02 0.42491662397E+02 0.85254078383E+02 0.15093448591E+03 0.22699284548E+03
 0.28957371603E+03 0.31398311078E+03 0.28957371603E+03 0.22699284548E+03 0.15093448591E+03
 0.85254078383E+02 0.42491662397E+02 0.22259519561E+02 0.15259743652E+02 0.11820161661E+02
 0.10550622072E+02 0.10032440243E+02 0.92409247759E+01 0.82172883446E+01 0.87694207729E+01
 0.97126960149E+01 0.10340180727E+02 0.11728516865E+02 0.15368543266E+02 0.23171379270E+02
 0.45724064634E+02 0.92571994967E+02 0.16391627799E+03 0.24627385835E+03 0.31398311078E+03
 0.34039060449E+03 0.31398311078E+03 0.24627385835E+03 0.16391627799E+03 0.92571994967E+02
 0.45724064634E+02 0.23171379270E+02 0.15368543266E+02 0.11728516865E+02 0.10340180727E+02
 0.97126960149E+01 0.87694207729E+01 0.87694207729E+01 0.92409247759E+01 0.10032440243E+02
 0.10550622072E+02 0.11820161661E+02 0.15259743652E+02 0.22259519561E+02 0.42491662397E+02
 0.85254078383E+02 0.15093448591E+03 0.22699284548E+03 0.28957371603E+03 0.31398311078E+03
 0.28957371603E+03 0.22699284548E+03 0.15093448591E+03 0.85254078383E+02 0.42491662397E+02
 0.22259519561E+02 0.15259743652E+02 0.11820161661E+02 0.10550622072E+02 0.10032440243E+02
 0.92409247759E+01 0.97126960149E+01 0.10032440243E+02 0.10565466832E+02 0.10939075470E+02
 0.11988820230E+02 0.14917231788E+02 0.20148882247E+02 0.34597428389E+02 0.66838119734E+02
 0.11783569669E+03 0.17761039432E+03 0.22699284548E+03 0.24627385835E+03 0.22699284548E+03
 0.17761039432E+03 0.11783569669E+03 0.66838119734E+02 0.34597428389E+02 0.20148882247E+02
 0.14917231788E+02 0.11988820230E+02 0.10939075470E+02 0.10565466832E+02 0.10032440243E+02
 0.10340180727E+02 0.10550622072E+02 0.10939075470E+02 0.11293951804E+02 0.12145603415E+02
 0.14379147777E+02 0.18042938370E+02 0.26057289949E+02 0.45519008055E+02 0.78277837020E+02
 0.11783569669E+03 0.15093448591E+03 0.16391627799E+03 0.15093448591E+03 0.11783569669E+03
 0.78277837020E+02 0.45519008055E+02 0.26057289949E+02 0.18042938370E+02 0.14379147777E+02
 0.12145603415E+02 0.11293951804E+02 0.10939075470E+02 0.10550622072E+02 0.11728516865E+02
 0.11820161661E+02 0.11988820230E+02 0.12145603415E+02 0.12583679007E+02 0.13902041769E+02
 0.16392432397E+02 0.20132742898E+02 0.28957368803E+02 0.45519008055E+02 0.66838119734E+02
 0.85254078383E+02 0.92571994967E+02 0.85254078383E+02 0.66838119734E+02 0.45519008055E+02
 0.28957368803E+02 0.20132742898E+02 0.16392432397E+02 0.13902041769E+02 0.12583679007E+02
 0.12145603415E+02 0.11988820230E+02 0.11820161661E+02 0.15368543266E+02 0.15259743652E+02
 0.14917231788E+02 0.14379147777E+02 0.13902041769E+02 0.13974823755E+02 0.15042144802E+02
 0.17087432808E+02 0.20132742898E+02 0.26057289949E+02 0.34597428389E+02 0.42491662397E+02
 0.45724064634E+02 0.42491662397E+02 0.34597428389E+02 0.26057289949E+02 0.20132742898E+02
 0.17087432808E+02 0.15042144802E+02 0.13974823755E+02 0.13902041769E+02 0.14379147777E+02
 0.14917231788E+02 0.15259743652E+02 0.23171379270E+02 0.22259519561E+02 0.20148882247E+02
 0.18042938370E+02 0.16392432397E+02 0.15042144802E+02 0.14503820645E+02 0.15042144802E+02
 0.16392432397E+02 0.18042938370E+02 0.20148882247E+02 0.22259519561E+02 0.23171379270E+02
 0.22259519561E+02 0.20148882247E+02 0.18042938370E+02 0.16392432397E+02 0.15042144802E+02
 0.14503820645E+02 0.15042144802E+02 0.16392432397E+02 0.18042938370E+02 0.20148882247E+02
 0.22259519561E+02 0.45724064634E+02 0.42491662397E+02 0.34597428389E+02 0.26057289949E+02
 0.20132742898E+02 0.17087432808E+02 0.15042144802E+02 0.13974823755E+02 0.13902041769E+02
 0.14379147777E+02 0.14917231788E+02 0.15259743652E+02 0.15368543266E+02 0.15259743652E+02
 0.14917231788E+02 0.14379147777E+02 0.13902041769E+02 0.13974823755E+02 0.15042144802E+02
 0.17087432808E+02 0.20132742898E+02 0.26057289949E+02 0.34597428389E+02 0.42491662397E+02
 0.92571994967E+02 0.85254078383E+02 0.66838119734E+02 0.45519008055E+02 0.28957368803E+02
 0.20132742898E+02 0.16392432397E+02 0.13902041769E+02 0.12583679007E+02 0.12145603415E+02
 0.11988820230E+02 0.11820161661E+02 0.11728516865E+02 0.11820161661E+02 0.11988820230E+02
 0.12145603415E+02 0.12583679007E+02 0.13902041769E+02 0.16392432397E+02 0.20132742898E+02
 0.28957368803E+02 0.45519008055E+02 0.66838119734E+02 0.85254078383E+02 0.16391627799E+03
 0.15093448591E+03 0.11783569669E+03 0.78277837020E+02 0.45519008055E+02 0.26057289949E+02
 0.18042938370E+02 0.14379147777E+02 0.12145603415E+02 0.11293951804E+02 0.10939075470E+02
 0.10550622072E+02 0.10340180727E+02 0.10550622072E+02 0.10939075470E+02 0.11293951804E+02
 0.12145603415E+02 0.14379147777E+02 0.18042938370E+02 0.26057289949E+02 0.45519008055E+02
 0.78277837020E+02 0.11783569669E+03 0.15093448591E+03 0.24627385835E+03 0.22699284548E+03
 0.17761039432E+03 0.11783569669E+03 0.66838119734E+02 0.34597428389E+02 0.20148882247E+02
 0.14917231788E+02 0.11988820230E+02 0.10939075470E+02 0.10565466832E+02 0.10032440243E+02
 0.97126960149E+01 0.10032440243E+02 0.10565466832E+02 0.10939075470E+02 0.11988820230E+02
 0.14917231788E+02 0.20148882247E+02 0.34597428389E+02 0.66838119734E+02 0.11783569669E+03
 0.17761039432E+03 0.22699284548E+03 0.31398311078E+03 0.28957371603E+03 0.22699284548E+03
 0.15093448591E+03 0.85254078383E+02 0.42491662397E+02 0.22259519561E+02 0.15259743652E+02
 0.11820161661E+02 0.10550622072E+02 0.10032440243E+02 0.92409247759E+01 0.87694207729E+01
 0.92409247759E+01 0.10032440243E+02 0.10550622072E+02 0.11820161661E+02 0.15259743652E+02
 0.22259519561E+02 0.42491662397E+02 0.85254078383E+02 0.15093448591E+03 0.22699284548E+03
 0.28957371603E+03 0.31398311078E+03 0.28957371603E+03 0.22699284548E+03 0.15093448591E+03
 0.85254078383E+02 0.42491662397E+02 0.22259519561E+02 0.15259743652E+02 0.11820161661E+02
 0.10550622072E+02 0.10032440243E+02 0.92409247759E+01 0.87694207729E+01 0.92409247759E+01
 0.10032440243E+02 0.10550622072E+02 0.11820161661E+02 0.15259743652E+02 0.22259519561E+02
 0.42491662397E+02 0.85254078383E+02 0.15093448591E+03 0.22699284548E+03 0.28957371603E+03
 0.28957371603E+03 0.26700662170E+03 0.20916357456E+03 0.13894495589E+03 0.78532367448E+02
 0.39565004054E+02 0.21457531451E+02 0.15149865820E+02 0.11899551765E+02 0.10733224514E+02
 0.10304890651E+02 0.96426564112E+01 0.92409247759E+01 0.96426564112E+01 0.10304890651E+02
 0.10733224514E+02 0.11899551765E+02 0.15149865820E+02 0.21457531451E+02 0.39565004054E+02
 0.78532367448E+02 0.13894495589E+03 0.20916357456E+03 0.26700662170E+03 0.22699284548E+03
 0.20916357456E+03 0.16353428390E+03 0.10842631999E+03 0.61665632835E+02 0.32449249347E+02
 0.19605072320E+02 0.14809379333E+02 0.12044995120E+02 0.11070480799E+02 0.10752727974E+02
 0.10304890651E+02 0.10032440243E+02 0.10304890651E+02 0.10752727974E+02 0.11070480799E+02
 0.12044995120E+02 0.14809379333E+02 0.19605072320E+02 0.32449249347E+02 0.61665632835E+02
 0.10842631999E+03 0.16353428390E+03 0.20916357456E+03 0.15093448591E+03 0.13894495589E+03
 0.10842631999E+03 0.72100863446E+02 0.42270881933E+02 0.24824890356E+02 0.17739229765E+02
 0.14283400580E+02 0.12182887956E+02 0.11388318615E+02 0.11070480799E+02 0.10733224514E+02
 0.10550622072E+02 0.10733224514E+02 0.11070480799E+02 0.11388318615E+02 0.12182887956E+02
 0.14283400580E+02 0.17739229765E+02 0.24824890356E+02 0.42270881933E+02 0.72100863446E+02
 0.10842631999E+03 0.13894495589E+03 0.85254078383E+02 0.78532367448E+02 0.61665632835E+02
 0.42270881933E+02 0.27391727396E+02 0.19599399280E+02 0.16174052014E+02 0.13818202013E+02
 0.12587034056E+02 0.12182887956E+02 0.12044995120E+02 0.11899551765E+02 0.11820161661E+02
 0.11899551765E+02 0.12044995120E+02 0.12182887956E+02 0.12587034056E+02 0.13818202013E+02
 0.16174052014E+02 0.19599399280E+02 0.27391727396E+02 0.42270881933E+02 0.61665632835E+02
 0.78532367448E+02 0.42491662397E+02 0.39565004054E+02 0.32449249347E+02 0.24824890356E+02
 0.19599399280E+02 0.16827068166E+02 0.14875307589E+02 0.13874058729E+02 0.13818202013E+02
 0.14283400580E+02 0.14809379333E+02 0.15149865820E+02 0.15259743652E+02 0.15149865820E+02
 0.14809379333E+02 0.14283400580E+02 0.13818202013E+02 0.13874058729E+02 0.14875307589E+02
 0.16827068166E+02 0.19599399280E+02 0.24824890356E+02 0.32449249347E+02 0.39565004054E+02
 0.22259519561E+02 0.21457531451E+02 0.19605072320E+02 0.17739229765E+02 0.16174052014E+02
 0.14875307589E+02 0.14361122678E+02 0.14875307589E+02 0.16174052014E+02 0.17739229765E+02
 0.19605072320E+02 0.21457531451E+02 0.22259519561E+02 0.21457531451E+02 0.19605072320E+02
 0.17739229765E+02 0.16174052014E+02 0.14875307589E+02 0.14361122678E+02 0.14875307589E+02
 0.16174052014E+02 0.17739229765E+02 0.19605072320E+02 0.21457531451E+02 0.15259743652E+02
 0.15149865820E+02 0.14809379333E+02 0.14283400580E+02 0.13818202013E+02 0.13874058729E+02
 0.14875307589E+02 0.16827068166E+02 0.19599399280E+02 0.24824890356E+02 0.32449249347E+02
 0.39565004054E+02 0.42491662397E+02 0.39565004054E+02 0.32449249347E+02 0.24824890356E+02
 0.19599399280E+02 0.16827068166E+02 0.14875307589E+02 0.13874058729E+02 0.13818202013E+02
 0.14283400580E+02 0.14809379333E+02 0.15149865820E+02 0.11820161661E+02 0.11899551765E+02
 0.12044995120E+02 0.12182887956E+02 0.12587034056E+02 0.13818202013E+02 0.16174052014E+02
 0.19599399280E+02 0.27391727396E+02 0.42270881933E+02 0.61665632835E+02 0.78532367448E+02
 0.85254078383E+02 0.78532367448E+02 0.61665632835E+02 0.42270881933E+02 0.27391727396E+02
 0.19599399280E+02 0.16174052014E+02 0.13818202013E+02 0.12587034056E+02 0.12182887956E+02
 0.12044995120E+02 0.11899551765E+02 0.10550622072E+02 0.10733224514E+02 0.11070480799E+02
 0.11388318615E+02 0.12182887956E+02 0.14283400580E+02 0.17739229765E+02 0.24824890356E+02
 0.42270881933E+02 0.72100863446E+02 0.10842631999E+03 0.13894495589E+03 0.15093448591E+03
 0.13894495589E+03 0.10842631999E+03 0.72100863446E+02 0.42270881933E+02 0.24824890356E+02
 0.17739229765E+02 0.14283400580E+02 0.12182887956E+02 0.11388318615E+02 0.11070480799E+02
 0.10733224514E+02 0.10032440243E+02 0.10304890651E+02 0.10752727974E+02 0.11070480799E+02
 0.12044995120E+02 0.14809379333E+02 0.19605072320E+02 0.32449249347E+02 0.61665632835E+02
 0.10842631999E+03 0.16353428390E+03 0.20916357456E+03 0.22699284548E+03 0.20916357456E+03
 0.16353428390E+03 0.10842631999E+03 0.61665632835E+02 0.32449249347E+02 0.19605072320E+02
 0.14809379333E+02 0.12044995120E+02 0.11070480799E+02 0.10752727974E+02 0.10304890651E+02
 0.92409247759E+01 0.96426564112E+01 0.10304890651E+02 0.10733224514E+02 0.11899551765E+02
 0.15149865820E+02 0.21457531451E+02 0.39565004054E+02 0.78532367448E+02 0.13894495589E+03
 0.20916357456E+03 0.26700662170E+03 0.28957371603E+03 0.26700662170E+03 0.20916357456E+03
 0.13894495589E+03 0.78532367448E+02 0.39565004054E+02 0.21457531451E+02 0.15149865820E+02
 0.11899551765E+02 0.10733224514E+02 0.10304890651E+02 0.96426564112E+01 0.87694207729E+01
 0.92409247759E+01 0.10032440243E+02 0.10550622072E+02 0.11820161661E+02 0.15259743652E+02
 0.22259519561E+02 0.42491662397E+02 0.85254078383E+02 0.15093448591E+03 0.22699284548E+03
 0.28957371603E+03 0.31398311078E+03 0.28957371603E+03 0.22699284548E+03 0.15093448591E+03
 0.85254078383E+02 0.42491662397E+02 0.22259519561E+02 0.15259743652E+02 0.11820161661E+02
 0.10550622072E+02 0.10032440243E+02 0.92409247759E+01 0.92409247759E+01 0.96426564112E+01
 0.10304890651E+02 0.10733224514E+02 0.11899551765E+02 0.15149865820E+02 0.21457531451E+02
 0.39565004054E+02 0.78532367448E+02 0.13894495589E+03 0.20916357456E+03 0.26700662170E+03
 0.28957371603E+03 0.26700662170E+03 0.20916357456E+03 0.13894495589E+03 0.78532367448E+02
 0.39565004054E+02 0.21457531451E+02 0.15149865820E+02 0.11899551765E+02 0.10733224514E+02
 0.10304890651E+02 0.96426564112E+01 0.10032440243E+02 0.10304890651E+02 0.10752727974E+02
 0.11070480799E+02 0.12044995120E+02 0.14809379333E+02 0.19605072320E+02 0.32449249347E+02
 0.61665632835E+02 0.10842631999E+03 0.16353428390E+03 0.20916357456E+03 0.22699284548E+03
 0.20916357456E+03 0.16353428390E+03 0.10842631999E+03 0.61665632835E+02 0.32449249347E+02
 0.19605072320E+02 0.14809379333E+02 0.12044995120E+02 0.11070480799E+02 0.10752727974E+02
 0.10304890651E+02 0.10550622072E+02 0.10733224514E+02 0.11070480799E+02 0.11388318615E+02
 0.12182887956E+02 0.14283400580E+02 0.17739229765E+02 0.24824890356E+02 0.42270881933E+02
 0.72100863446E+02 0.10842631999E+03 0.13894495589E+03 0.15093448591E+03 0.13894495589E+03
 0.10842631999E+03 0.72100863446E+02 0.42270881933E+02 0.24824890356E+02 0.17739229765E+02
 0.14283400580E+02 0.12182887956E+02 0.11388318615E+02 0.11070480799E+02 0.10733224514E+02
 0.11820161661E+02 0.11899551765E+02 0.12044995120E+02 0.12182887956E+02 0.12587034056E+02
 0.13818202013E+02 0.16174052014E+02 0.19599399280E+02 0.27391727396E+02 0.42270881933E+02
 0.61665632835E+02 0.78532367448E+02 0.85254078383E+02 0.78532367448E+02 0.61665632835E+02
 0.42270881933E+02 0.27391727396E+02 0.19599399280E+02 0.16174052014E+02 0.13818202013E+02
 0.12587034056E+02 0.12182887956E+02 0.12044995120E+02 0.11899551765E+02 0.15259743652E+02
 0.15149865820E+02 0.14809379333E+02 0.14283400580E+02 0.13818202013E+02 0.13874058729E+02
 0.14875307589E+02 0.16827068166E+02 0.19599399280E+02 0.24824890356E+02 0.32449249347E+02
 0.39565004054E+02 0.42491662397E+02 0.39565004054E+02 0.32449249347E+02 0.24824890356E+02
 0.19599399280E+02 0.16827068166E+02 0.14875307589E+02 0.13874058729E+02 0.13818202013E+02
 0.14283400580E+02 0.14809379333E+02 0.15149865820E+02 0.22259519561E+02 0.21457531451E+02
 0.19605072320E+02 0.17739229765E+02 0.16174052014E+02 0.14875307589E+02 0.14361122678E+02
 0.14875307589E+02 0.16174052014E+02 0.17739229765E+02 0.19605072320E+02 0.21457531451E+02
 0.22259519561E+02 0.21457531451E+02 0.19605072320E+02 0.17739229765E+02 0.16174052014E+02
 0.14875307589E+02 0.14361122678E+02 0.14875307589E+02 0.16174052014E+02 0.17739229765E+02
 0.19605072320E+02 0.21457531451E+02 0.42491662397E+02 0.39565004054E+02 0.32449249347E+02
 0.24824890356E+02 0.19599399280E+02 0.16827068166E+02 0.14875307589E+02 0.13874058729E+02
 0.13818202013E+02 0.14283400580E+02 0.14809379333E+02 0.15149865820E+02 0.15259743652E+02
 0.15149865820E+02 0.14809379333E+02 0.14283400580E+02 0.13818202013E+02 0.13874058729E+02
 0.14875307589E+02 0.16827068166E+02 0.19599399280E+02 0.24824890356E+02 0.32449249347E+02
 0.39565004054E+02 0.85254078383E+02 0.78532367448E+02 0.61665632835E+02 0.42270881933E+02
 0.27391727396E+02 0.19599399280E+02 0.16174052014E+02 0.13818202013E+02 0.12587034056E+02
 0.12182887956E+02 0.12044995120E+02 0.11899551765E+02 0.11820161661E+02 0.11899551765E+02
 0.12044995120E+02 0.12182887956E+02 0.12587034056E+02 0.13818202013E+02 0.16174052014E+02
 0.19599399280E+02 0.27391727396E+02 0.42270881933E+02 0.61665632835E+02 0.78532367448E+02
 0.15093448591E+03 0.13894495589E+03 0.10842631999E+03 0.72100863446E+02 0.42270881933E+02
 0.24824890356E+02 0.17739229765E+02 0.14283400580E+02 0.12182887956E+02 0.11388318615E+02
 0.11070480799E+02 0.10733224514E+02 0.10550622072E+02 0.10733224514E+02 0.11070480799E+02
 0.11388318615E+02 0.12182887956E+02 0.14283400580E+02 0.17739229765E+02 0.24824890356E+02
 0.42270881933E+02 0.72100863446E+02 0.10842631999E+03 0.13894495589E+03 0.22699284548E+03
 0.20916357456E+03 0.16353428390E+03 0.10842631999E+03 0.61665632835E+02 0.32449249347E+02
 0.19605072320E+02 0.14809379333E+02 0.12044995120E+02 0.11070480799E+02 0.10752727974E+02
 0.10304890651E+02 0.10032440243E+02 0.10304890651E+02 0.10752727974E+02 0.11070480799E+02
 0.12044995120E+02 0.14809379333E+02 0.19605072320E+02 0.32449249347E+02 0.61665632835E+02
 0.10842631999E+03 0.16353428390E+03 0.20916357456E+03 0.28957371603E+03 0.26700662170E+03
 0.20916357456E+03 0.13894495589E+03 0.78532367448E+02 0.39565004054E+02 0.21457531451E+02
 0.15149865820E+02 0.11899551765E+02 0.10733224514E+02 0.10304890651E+02 0.96426564112E+01
 0.92409247759E+01 0.96426564112E+01 0.10304890651E+02 0.10733224514E+02 0.11899551765E+02
 0.15149865820E+02 0.21457531451E+02 0.39565004054E+02 0.78532367448E+02 0.13894495589E+03
 0.20916357456E+03 0.26700662170E+03 0.24627385835E+03 0.22699284548E+03 0.17761039432E+03
 0.11783569669E+03 0.66838119734E+02 0.34597428389E+02 0.20148882247E+02 0.14917231788E+02
 0.11988820230E+02 0.10939075470E+02 0.10565466832E+02 0.10032440243E+02 0.97126960149E+01
 0.10032440243E+02 0.10565466832E+02 0.10939075470E+02 0.11988820230E+02 0.14917231788E+02
 0.20148882247E+02 0.34597428389E+02 0.66838119734E+02 0.11783569669E+03 0.17761039432E+03
 0.22699284548E+03 0.22699284548E+03 0.20916357456E+03 0.16353428390E+03 0.10842631999E+03
 0.61665632835E+02 0.32449249347E+02 0.19605072320E+02 0.14809379333E+02 0.12044995120E+02
 0.11070480799E+02 0.10752727974E+02 0.10304890651E+02 0.10032440243E+02 0.10304890651E+02
 0.10752727974E+02 0.11070480799E+02 0.12044995120E+02 0.14809379333E+02 0.19605072320E+02
 0.32449249347E+02 0.61665632835E+02 0.10842631999E+03 0.16353428390E+03 0.20916357456E+03
 0.17761039432E+03 0.16353428390E+03 0.12762198737E+03 0.84613953306E+02 0.48811758775E+02
 0.27300955596E+02 0.18342878448E+02 0.14486800779E+02 0.12148690406E+02 0.11321588889E+02
 0.11065531398E+02 0.10752727974E+02 0.10565466832E+02 0.10752727974E+02 0.11065531398E+02
 0.11321588889E+02 0.12148690406E+02 0.14486800779E+02 0.18342878448E+02 0.27300955596E+02
 0.48811758775E+02 0.84613953306E+02 0.12762198737E+03 0.16353428390E+03 0.11783569669E+03
 0.10842631999E+03 0.84613953306E+02 0.56667868731E+02 0.34358000203E+02 0.21945032812E+02
 0.16973429518E+02 0.14007047096E+02 0.12253538458E+02 0.11585386946E+02 0.11321588889E+02
 0.11070480799E+02 0.10939075470E+02 0.11070480799E+02 0.11321588889E+02 0.11585386946E+02
 0.12253538458E+02 0.14007047096E+02 0.16973429518E+02 0.21945032812E+02 0.34358000203E+02
 0.56667868731E+02 0.84613953306E+02 0.10842631999E+03 0.66838119734E+02 0.61665632835E+02
 0.48811758775E+02 0.34358000203E+02 0.23706930467E+02 0.18359903813E+02 0.15582266265E+02
 0.13586945447E+02 0.12578900137E+02 0.12253538458E+02 0.12148690406E+02 0.12044995120E+02
 0.11988820230E+02 0.12044995120E+02 0.12148690406E+02 0.12253538458E+02 0.12578900137E+02
 0.13586945447E+02 0.15582266265E+02 0.18359903813E+02 0.23706930467E+02 0.34358000203E+02
 0.48811758775E+02 0.61665632835E+02 0.34597428389E+02 0.32449249347E+02 0.27300955596E+02
 0.21945032812E+02 0.18359903813E+02 0.16132900578E+02 0.14442906234E+02 0.13610646520E+02
 0.13586945447E+02 0.14007047096E+02 0.14486800779E+02 0.14809379333E+02 0.14917231788E+02
 0.14809379333E+02 0.14486800779E+02 0.14007047096E+02 0.13586945447E+02 0.13610646520E+02
 0.14442906234E+02 0.16132900578E+02 0.18359903813E+02 0.21945032812E+02 0.27300955596E+02
 0.32449249347E+02 0.20148882247E+02 0.19605072320E+02 0.18342878448E+02 0.16973429518E+02
 0.15582266265E+02 0.14442906234E+02 0.14000289129E+02 0.14442906234E+02 0.15582266265E+02
 0.16973429518E+02 0.18342878448E+02 0.19605072320E+02 0.20148882247E+02 0.19605072320E+02
 0.18342878448E+02 0.16973429518E+02 0.15582266265E+02 0.14442906234E+02 0.14000289129E+02
 0.14442906234E+02 0.15582266265E+02 0.16973429518E+02 0.18342878448E+02 0.19605072320E+02
 0.14917231788E+02 0.14809379333E+02 0.14486800779E+02 0.14007047096E+02 0.13586945447E+02
 0.13610646520E+02 0.14442906234E+02 0.16132900578E+02 0.18359903813E+02 0.21945032812E+02
 0.27300955596E+02 0.32449249347E+02 0.34597428389E+02 0.32449249347E+02 0.27300955596E+02
 0.21945032812E+02 0.18359903813E+02 0.16132900578E+02 0.14442906234E+02 0.13610646520E+02
 0.13586945447E+02 0.14007047096E+02 0.14486800779E+02 0.14809379333E+02 0.11988820230E+02
 0.12044995120E+02 0.12148690406E+02 0.12253538458E+02 0.12578900137E+02 0.13586945447E+02
 0.15582266265E+02 0.18359903813E+02 0.23706930467E+02 0.34358000203E+02 0.48811758775E+02
 0.61665632835E+02 0.66838119734E+02 0.61665632835E+02 0.48811758775E+02 0.34358000203E+02
 0.23706930467E+02 0.18359903813E+02 0.15582266265E+02 0.13586945447E+02 0.12578900137E+02
 0.12253538458E+02 0.12148690406E+02 0.12044995120E+02 0.10939075470E+02 0.11070480799E+02
 0.11321588889E+02 0.11585386946E+02 0.12253538458E+02 0.14007047096E+02 0.16973429518E+02
 0.21945032812E+02 0.34358000203E+02 0.56667868731E+02 0.84613953306E+02 0.10842631999E+03
 0.11783569669E+03 0.10842631999E+03 0.84613953306E+02 0.56667868731E+02 0.34358000203E+02
 0.21945032812E+02 0.16973429518E+02 0.14007047096E+02 0.12253538458E+02 0.11585386946E+02
 0.11321588889E+02 0.11070480799E+02 0.10565466832E+02 0.10752727974E+02 0.11065531398E+02
 0.11321588889E+02 0.12148690406E+02 0.14486800779E+02 0.18342878448E+02 0.27300955596E+02
 0.48811758775E+02 0.84613953306E+02 0.12762198737E+03 0.16353428390E+03 0.17761039432E+03
 0.16353428390E+03 0.12762198737E+03 0.84613953306E+02 0.48811758775E+02 0.27300955596E+02
 0.18342878448E+02 0.14486800779E+02 0.12148690406E+02 0.11321588889E+02 0.11065531398E+02
 0.10752727974E+02 0.10032440243E+02 0.10304890651E+02 0.10752727974E+02 0.11070480799E+02
 0.12044995120E+02 0.14809379333E+02 0.19605072320E+02 0.32449249347E+02 0.61665632835E+02
 0.10842631999E+03 0.16353428390E+03 0.20916357456E+03 0.22699284548E+03 0.20916357456E+03
 0.16353428390E+03 0.10842631999E+03 0.61665632835E+02 0.32449249347E+02 0.19605072320E+02
 0.14809379333E+02 0.12044995120E+02 0.11070480799E+02 0.10752727974E+02 0.10304890651E+02
 0.97126960149E+01 0.10032440243E+02 0.10565466832E+02 0.10939075470E+02 0.11988820230E+02
 0.14917231788E+02 0.20148882247E+02 0.34597428389E+02 0.66838119734E+02 0.11783569669E+03
 0.17761039432E+03 0.22699284548E+03 0.24627385835E+03 0.22699284548E+03 0.17761039432E+03
 0.11783569669E+03 0.66838119734E+02 0.34597428389E+02 0.20148882247E+02 0.14917231788E+02
 0.11988820230E+02 0.10939075470E+02 0.10565466832E+02 0.10032440243E+02 0.10032440243E+02
 0.10304890651E+02 0.10752727974E+02 0.11070480799E+02 0.12044995120E+02 0.14809379333E+02
 0.19605072320E+02 0.32449249347E+02 0.61665632835E+02 0.10842631999E+03 0.16353428390E+03
 0.20916357456E+03 0.22699284548E+03 0.20916357456E+03 0.16353428390E+03 0.10842631999E+03
 0.61665632835E+02 0.32449249347E+02 0.19605072320E+02 0.14809379333E+02 0.12044995120E+02
 0.11070480799E+02 0.10752727974E+02 0.10304890651E+02 0.10565466832E+02 0.10752727974E+02
 0.11065531398E+02 0.11321588889E+02 0.12148690406E+02 0.14486800779E+02 0.18342878448E+02
 0.27300955596E+02 0.48811758775E+02 0.84613953306E+02 0.12762198737E+03 0.16353428390E+03
 0.17761039432E+03 0.16353428390E+03 0.12762198737E+03 0.84613953306E+02 0.48811758775E+02
 0.27300955596E+02 0.18342878448E+02 0.14486800779E+02 0.12148690406E+02 0.11321588889E+02
 0.11065531398E+02 0.10752727974E+02 0.10939075470E+02 0.11070480799E+02 0.11321588889E+02
 0.11585386946E+02 0.12253538458E+02 0.14007047096E+02 0.16973429518E+02 0.21945032812E+02
 0.34358000203E+02 0.56667868731E+02 0.84613953306E+02 0.10842631999E+03 0.11783569669E+03
 0.10842631999E+03 0.84613953306E+02 0.56667868731E+02 0.34358000203E+02 0.21945032812E+02
 0.16973429518E+02 0.14007047096E+02 0.12253538458E+02 0.11585386946E+02 0.11321588889E+02
 0.11070480799E+02 0.11988820230E+02 0.12044995120E+02 0.12148690406E+02 0.12253538458E+02
 0.12578900137E+02 0.13586945447E+02 0.15582266265E+02 0.18359903813E+02 0.23706930467E+02
 0.34358000203E+02 0.48811758775E+02 0.61665632835E+02 0.66838119734E+02 0.61665632835E+02
 0.48811758775E+02 0.34358000203E+02 0.23706930467E+02 0.18359903813E+02 0.15582266265E+02
 0.13586945447E+02 0.12578900137E+02 0.12253538458E+02 0.12148690406E+02 0.12044995120E+02
 0.14917231788E+02 0.14809379333E+02 0.14486800779E+02 0.14007047096E+02 0.13586945447E+02
 0.13610646520E+02 0.14442906234E+02 0.16132900578E+02 0.18359903813E+02 0.21945032812E+02
 0.27300955596E+02 0.32449249347E+02 0.34597428389E+02 0.32449249347E+02 0.27300955596E+02
 0.21945032812E+02 0.18359903813E+02 0.16132900578E+02 0.14442906234E+02 0.13610646520E+02
 0.13586945447E+02 0.14007047096E+02 0.14486800779E+02 0.14809379333E+02 0.20148882247E+02
 0.19605072320E+02 0.18342878448E+02 0.16973429518E+02 0.15582266265E+02 0.14442906234E+02
 0.14000289129E+02 0.14442906234E+02 0.15582266265E+02 0.16973429518E+02 0.18342878448E+02
 0.19605072320E+02 0.20148882247E+02 0.19605072320E+02 0.18342878448E+02 0.16973429518E+02
 0.15582266265E+02 0.14442906234E+02 0.14000289129E+02 0.14442906234E+02 0.15582266265E+02
 0.16973429518E+02 0.18342878448E+02 0.19605072320E+02 0.34597428389E+02 0.32449249347E+02
 0.27300955596E+02 0.21945032812E+02 0.18359903813E+02 0.16132900578E+02 0.14442906234E+02
 0.13610646520E+02 0.13586945447E+02 0.14007047096E+02 0.14486800779E+02 0.14809379333E+02
 0.14917231788E+02 0.14809379333E+02 0.14486800779E+02 0.14007047096E+02 0.13586945447E+02