   4   4   0   0
  0.1022208E+02  0.3445083E-09  0.3445083E-09  0.3445083E-09  0.5000000E-15
  1.000000000000000E-004
  CAR 
 unknown system                          
     38.35680495     -4.03641346  301      6.66178333      1.00000000
     -4.036  0.0000E+00  0.0000E+00
     -3.895  0.0000E+00  0.0000E+00
     -3.754 -0.2604E-32 -0.3679E-33
     -3.612 -0.2700E-27 -0.3815E-28
     -3.471 -0.1023E-22 -0.1446E-23
     -3.330 -0.1415E-18 -0.1999E-19
     -3.189 -0.6932E-15 -0.9797E-16
     -3.047 -0.1250E-11 -0.1768E-12
     -2.906 -0.8131E-09 -0.1151E-09
     -2.765 -0.1877E-06 -0.2663E-07
     -2.623 -0.1499E-04 -0.2146E-05
     -2.482 -0.3899E-03 -0.5724E-04
     -2.341 -0.2617E-02 -0.4270E-03
     -2.199  0.3730E-02  0.1000E-03
     -2.058  0.4550E-01  0.6529E-02
     -1.917  0.5523E-01  0.1433E-01
     -1.775 -0.3117E-02  0.1389E-01
     -1.634  0.2390E-01  0.1727E-01
     -1.493  0.2812E+00  0.5701E-01
     -1.352  0.3319E+00  0.1039E+00
     -1.210  0.3480E-01  0.1088E+00
     -1.069  0.1136E+00  0.1249E+00
     -0.928  0.6650E+00  0.2188E+00
     -0.786  0.5623E+00  0.2983E+00
     -0.645  0.5922E-01  0.3067E+00
     -0.504  0.2440E+00  0.3411E+00
     -0.362  0.4890E+00  0.4103E+00
     -0.221  0.1612E+00  0.4330E+00
     -0.080  0.7178E-01  0.4432E+00
      0.062  0.3338E+00  0.4903E+00
      0.203  0.1869E+00  0.5167E+00
      0.344  0.1690E+00  0.5406E+00
      0.486  0.1160E+01  0.7046E+00
      0.627  0.1251E+01  0.8814E+00
      0.768  0.8829E+00  0.1006E+01
      0.909  0.1446E+01  0.1210E+01
      1.051  0.6856E+00  0.1307E+01
      1.192 -0.4891E-01  0.1300E+01
      1.333 -0.1324E+00  0.1282E+01
      1.475  0.2318E-01  0.1285E+01
      1.616  0.1543E+01  0.1503E+01
      1.757  0.2952E+01  0.1920E+01
      1.899  0.2094E+01  0.2216E+01
      2.040  0.2376E+01  0.2552E+01
      2.181  0.4687E+01  0.3214E+01
      2.323  0.4576E+01  0.3861E+01
      2.464  0.3715E+01  0.4386E+01
      2.605  0.4875E+01  0.5075E+01
      2.747  0.3740E+01  0.5603E+01
      2.888  0.5211E+01  0.6340E+01
      3.029  0.8150E+01  0.7491E+01
      3.170  0.8154E+01  0.8644E+01
      3.312  0.3788E+01  0.9179E+01
      3.453  0.3914E+01  0.9732E+01
      3.594  0.7689E+01  0.1082E+02
      3.736  0.6692E+01  0.1176E+02
      3.877  0.3537E+01  0.1226E+02
      4.018  0.2952E+01  0.1268E+02
      4.160  0.5110E+01  0.1340E+02
      4.301  0.7215E+01  0.1442E+02
      4.442  0.5767E+01  0.1524E+02
      4.584  0.4714E+01  0.1590E+02
      4.725  0.9964E+01  0.1731E+02
      4.866  0.1072E+02  0.1883E+02
      5.007  0.7585E+01  0.1990E+02
      5.149  0.7037E+01  0.2089E+02
      5.290  0.7455E+01  0.2195E+02
      5.431  0.8000E+01  0.2308E+02
      5.573  0.6835E+01  0.2404E+02
      5.714  0.7581E+01  0.2511E+02
      5.855  0.8457E+01  0.2631E+02
      5.997  0.7522E+01  0.2737E+02
      6.138  0.7121E+01  0.2838E+02
      6.279  0.7025E+01  0.2937E+02
      6.421  0.4009E+01  0.2994E+02
      6.562  0.6330E+01  0.3083E+02
      6.703  0.1209E+02  0.3254E+02
      6.845  0.9921E+01  0.3394E+02
      6.986  0.3670E+01  0.3446E+02
      7.127  0.3890E+01  0.3501E+02
      7.268  0.7304E+01  0.3604E+02
      7.410  0.9202E+01  0.3734E+02
      7.551  0.1223E+02  0.3907E+02
      7.692  0.1108E+02  0.4064E+02
      7.834  0.5273E+01  0.4138E+02
      7.975  0.3993E+01  0.4195E+02
      8.116  0.3590E+01  0.4246E+02
      8.258  0.2700E+01  0.4284E+02
      8.399  0.1005E+01  0.4298E+02
      8.540 -0.6855E-01  0.4297E+02
      8.682 -0.1374E+00  0.4295E+02
      8.823  0.1408E+00  0.4297E+02
      8.964  0.1187E+01  0.4314E+02
      9.105  0.1201E+01  0.4331E+02
      9.247  0.1976E+00  0.4334E+02
      9.388  0.1693E+01  0.4357E+02
      9.529  0.3808E+01  0.4411E+02
      9.671  0.2431E+01  0.4446E+02
      9.812  0.3587E+00  0.4451E+02
      9.953  0.7013E+00  0.4461E+02
     10.095  0.1655E+01  0.4484E+02
     10.236  0.7170E+00  0.4494E+02
     10.377 -0.5332E-01  0.4493E+02
     10.519 -0.9805E-01  0.4492E+02
     10.660  0.1206E-01  0.4492E+02
     10.801  0.8901E+00  0.4505E+02
     10.943  0.1743E+01  0.4529E+02
     11.084  0.1784E+01  0.4555E+02
     11.225  0.1044E+01  0.4569E+02
     11.366  0.4992E-01  0.4570E+02
     11.508  0.1809E+00  0.4573E+02
     11.649  0.7070E+00  0.4583E+02
     11.790  0.6758E+00  0.4592E+02
     11.932  0.6633E+00  0.4601E+02
     12.073  0.2517E+00  0.4605E+02
     12.214  0.1361E+01  0.4624E+02
     12.356  0.4157E+01  0.4683E+02
     12.497  0.2846E+01  0.4723E+02
     12.638  0.1824E+00  0.4726E+02
     12.780 -0.1930E+00  0.4723E+02
     12.921  0.6760E-02  0.4723E+02
     13.062  0.5157E+00  0.4730E+02
     13.203  0.7114E+00  0.4741E+02
     13.345  0.1815E+00  0.4743E+02
     13.486 -0.3601E-01  0.4743E+02
     13.627 -0.1114E-01  0.4742E+02
     13.769 -0.6649E-03  0.4742E+02
     13.910 -0.3631E-04  0.4742E+02
     14.051 -0.1307E-02  0.4742E+02
     14.193 -0.2233E-01  0.4742E+02
     14.334 -0.7972E-01  0.4741E+02
     14.475  0.3212E+00  0.4745E+02
     14.617  0.1526E+01  0.4767E+02
     14.758  0.1685E+01  0.4791E+02
     14.899  0.6748E+00  0.4800E+02
     15.041  0.6191E-02  0.4800E+02
     15.182 -0.1356E+00  0.4799E+02
     15.323  0.6702E-01  0.4800E+02
     15.464  0.1501E+01  0.4821E+02
     15.606  0.3403E+01  0.4869E+02
     15.747  0.3007E+01  0.4911E+02
     15.888  0.2593E+01  0.4948E+02
     16.030  0.2661E+01  0.4986E+02
     16.171  0.6500E+00  0.4995E+02
     16.312 -0.1470E+00  0.4993E+02
     16.454 -0.4272E-01  0.4992E+02
     16.595 -0.5767E-02  0.4992E+02
     16.736 -0.2142E-01  0.4992E+02
     16.878  0.3238E-01  0.4992E+02
     17.019  0.3510E+00  0.4997E+02
     17.160  0.3596E+00  0.5002E+02
     17.302  0.2651E+00  0.5006E+02
     17.443  0.1891E+01  0.5033E+02
     17.584  0.3369E+01  0.5080E+02
     17.725  0.1731E+01  0.5105E+02
     17.867  0.1004E+01  0.5119E+02
     18.008  0.1153E+01  0.5135E+02
     18.149  0.2869E+00  0.5139E+02
     18.291 -0.3130E-02  0.5139E+02
     18.432  0.8967E+00  0.5152E+02
     18.573  0.1864E+01  0.5178E+02
     18.715  0.3073E+01  0.5222E+02
     18.856  0.2497E+01  0.5257E+02
     18.997  0.2843E+00  0.5261E+02
     19.139  0.2370E-01  0.5261E+02
     19.280  0.6889E+00  0.5271E+02
     19.421  0.1245E+01  0.5289E+02
     19.562  0.1472E+01  0.5309E+02
     19.704  0.1161E+01  0.5326E+02
     19.845  0.1443E+01  0.5346E+02
     19.986  0.6007E+00  0.5355E+02
     20.128 -0.4836E-01  0.5354E+02
     20.269  0.1652E+01  0.5377E+02
     20.410  0.3545E+01  0.5427E+02
     20.552  0.2838E+01  0.5468E+02
     20.693  0.2054E+01  0.5497E+02
     20.834  0.8164E+00  0.5508E+02
     20.976  0.9412E-01  0.5509E+02
     21.117  0.1613E+01  0.5532E+02
     21.258  0.2497E+01  0.5567E+02
     21.400  0.7356E+00  0.5578E+02
     21.541 -0.2819E+00  0.5574E+02
     21.682  0.1477E+00  0.5576E+02
     21.823  0.2990E+01  0.5618E+02
     21.965  0.4720E+01  0.5685E+02
     22.106  0.1945E+01  0.5712E+02
     22.247 -0.5938E-01  0.5712E+02
     22.389 -0.3073E+00  0.5707E+02
     22.530  0.4828E+00  0.5714E+02
     22.671  0.3476E+01  0.5763E+02
     22.813  0.5145E+01  0.5836E+02
     22.954  0.3651E+01  0.5887E+02
     23.095  0.2026E+01  0.5916E+02
     23.237  0.9879E+00  0.5930E+02
     23.378  0.1327E+00  0.5932E+02
     23.519 -0.2080E+00  0.5929E+02
     23.660  0.1450E+00  0.5931E+02
     23.802  0.2446E+01  0.5966E+02
     23.943  0.4361E+01  0.6027E+02
     24.084  0.3379E+01  0.6075E+02
     24.226  0.2065E+01  0.6104E+02
     24.367  0.1234E+01  0.6122E+02
     24.508  0.1415E+00  0.6124E+02
     24.650 -0.2441E+00  0.6120E+02
     24.791  0.1019E+01  0.6135E+02
     24.932  0.3586E+01  0.6185E+02
     25.074  0.2442E+01  0.6220E+02
     25.215  0.7093E-01  0.6221E+02
     25.356 -0.3755E+00  0.6215E+02
     25.498  0.6022E+00  0.6224E+02
     25.639  0.4213E+01  0.6283E+02
     25.780  0.4476E+01  0.6347E+02
     25.921  0.8945E+00  0.6359E+02
     26.063  0.4020E+00  0.6365E+02
     26.204  0.1378E+01  0.6385E+02
     26.345  0.7869E+00  0.6396E+02
     26.487  0.1217E+01  0.6413E+02
     26.628  0.3028E+01  0.6456E+02
     26.769  0.2278E+01  0.6488E+02
     26.911  0.7045E+00  0.6498E+02
     27.052  0.1316E+01  0.6516E+02
     27.193  0.9556E+00  0.6530E+02
     27.335 -0.5655E-03  0.6530E+02
     27.476 -0.1485E+00  0.6528E+02
     27.617  0.5146E+00  0.6535E+02
     27.759  0.2286E+01  0.6567E+02
     27.900  0.3601E+01  0.6618E+02
     28.041  0.2812E+01  0.6658E+02
     28.182  0.1451E+01  0.6678E+02
     28.324  0.2086E+00  0.6681E+02
     28.465  0.1205E+01  0.6698E+02
     28.606  0.3693E+01  0.6751E+02
     28.748  0.2113E+01  0.6781E+02
     28.889  0.8492E-01  0.6782E+02
     29.030  0.5176E+00  0.6789E+02
     29.172  0.1328E+01  0.6808E+02
     29.313  0.1321E+01  0.6826E+02
     29.454  0.7069E+00  0.6836E+02
     29.596  0.1194E+01  0.6853E+02
     29.737  0.3367E+01  0.6901E+02
     29.878  0.3960E+01  0.6957E+02
     30.019  0.1598E+01  0.6979E+02
     30.161  0.6862E-01  0.6980E+02
     30.302  0.7481E+00  0.6991E+02
     30.443  0.1921E+01  0.7018E+02
     30.585  0.1273E+01  0.7036E+02
     30.726  0.7019E+00  0.7046E+02
     30.867  0.1817E+01  0.7072E+02
     31.009  0.1635E+01  0.7095E+02
     31.150  0.2103E+01  0.7125E+02
     31.291  0.3710E+01  0.7177E+02
     31.433  0.3699E+01  0.7229E+02
     31.574  0.2901E+01  0.7270E+02
     31.715  0.1019E+01  0.7285E+02
     31.857  0.9761E+00  0.7298E+02
     31.998  0.1196E+01  0.7315E+02
     32.139  0.3361E+00  0.7320E+02
     32.280  0.1900E+01  0.7347E+02
     32.422  0.3959E+01  0.7403E+02
     32.563  0.2287E+01  0.7435E+02
     32.704  0.1555E+00  0.7437E+02
     32.846 -0.1411E+00  0.7435E+02
     32.987 -0.9073E-01  0.7434E+02
     33.128 -0.3281E-01  0.7434E+02
     33.270  0.8679E+00  0.7446E+02
     33.411  0.3616E+01  0.7497E+02
     33.552  0.6187E+01  0.7584E+02
     33.694  0.5798E+01  0.7666E+02
     33.835  0.3403E+01  0.7714E+02
     33.976  0.1047E+01  0.7729E+02
     34.117  0.7633E+00  0.7740E+02
     34.259  0.5335E+00  0.7748E+02
     34.400  0.6716E+00  0.7757E+02
     34.541  0.3177E+00  0.7762E+02
     34.683  0.2497E+00  0.7765E+02
     34.824  0.2104E+01  0.7795E+02
     34.965  0.3140E+01  0.7839E+02
     35.107  0.1246E+01  0.7857E+02
     35.248  0.5761E+00  0.7865E+02
     35.389  0.1434E+01  0.7885E+02
     35.531  0.6893E+00  0.7895E+02
     35.672 -0.1095E+00  0.7893E+02
     35.813  0.5031E+00  0.7900E+02
     35.955  0.1892E+01  0.7927E+02
     36.096  0.1791E+01  0.7953E+02
     36.237  0.9346E+00  0.7966E+02
     36.378  0.1359E+01  0.7985E+02
     36.520  0.1053E+01  0.8000E+02
     36.661  0.8474E-01  0.8001E+02
     36.802 -0.6297E-01  0.8000E+02
     36.944 -0.9359E-02  0.8000E+02
     37.085 -0.3599E-03  0.8000E+02
     37.226 -0.4504E-05  0.8000E+02
     37.368 -0.1951E-07  0.8000E+02
     37.509 -0.3001E-10  0.8000E+02
     37.650 -0.1629E-13  0.8000E+02
     37.792  0.0000E+00  0.8000E+02
     37.933  0.0000E+00  0.8000E+02
     38.074  0.0000E+00  0.8000E+02
     38.215  0.0000E+00  0.8000E+02
     38.357  0.0000E+00  0.8000E+02
