    4    4    1    1
  0.1022208E+02  0.3445083E-09  0.3445083E-09  0.3445083E-09  0.5000000E-15
  1.000000000000000E-004
  CAR 
 unknown system                          
     32     10     40
 
  0.0000000E+00  0.0000000E+00  0.0000000E+00  0.8000000E-02
    1       -2.036413   1.000000
    2        1.830280   1.000000
    3        1.830280   1.000000
    4        1.830280   1.000000
    5        2.522448   1.000000
    6        2.522448   1.000000
    7        2.522448   1.000000
    8        5.100563   1.000000
    9        5.100563   1.000000
   10        5.100563   1.000000
   11        6.592262   0.775392
   12        6.592262   0.775392
   13        7.543823  -0.000000
   14        7.543823  -0.000000
   15        7.543823  -0.000000
   16        7.864718  -0.000000
   17        7.864718  -0.000000
   18        7.864718  -0.000000
   19        7.864718  -0.000000
   20        7.864718  -0.000000
   21        7.864718  -0.000000
   22       10.063965  -0.000000
   23       10.063965  -0.000000
   24       10.063965  -0.000000
   25       18.724127   0.000000
   26       18.724127   0.000000
   27       18.724127   0.000000
   28       23.071282   0.000000
   29       23.071282   0.000000
   30       23.071282   0.000000
   31       23.071282   0.000000
   32       23.071282   0.000000
   33       23.071282   0.000000
   34       28.944702   0.000000
   35       28.944702   0.000000
   36       28.944702   0.000000
   37       30.192049   0.000000
   38       33.493368   0.000000
   39       33.493368   0.000000
   40       33.493368   0.000000
 
  0.2000000E+00  0.0000000E+00  0.0000000E+00  0.4800000E-01
    1       -1.475684   1.000000
    2        1.888454   1.000000
    3        2.164651   1.000000
    4        2.164651   1.000000
    5        2.748166   1.000000
    6        2.761793   1.000000
    7        2.761793   1.000000
    8        4.827472   1.000000
    9        5.329719   1.000000
   10        5.329719   1.000000
   11        6.388735   1.032964
   12        6.511110   0.977137
   13        6.511110   0.977137
   14        6.700027   0.341411
   15        7.249000  -0.000133
   16        7.249000  -0.000133
   17        7.519571  -0.000000
   18        7.519571  -0.000000
   19        7.538386  -0.000000
   20        7.913563  -0.000000
   21        7.913563  -0.000000
   22        8.216426  -0.000000
   23       11.881164  -0.000000
   24       11.881164  -0.000000
   25       18.714904   0.000000
   26       18.714904   0.000000
   27       21.118918   0.000000
   28       21.118918   0.000000
   29       21.177697   0.000000
   30       21.989268   0.000000
   31       21.989268   0.000000
   32       24.003587   0.000000
   33       24.003587   0.000000
   34       29.045725   0.000000
   35       29.943489   0.000000
   36       31.291347   0.000000
   37       31.291347   0.000000
   38       33.240790   0.000000
   39       33.562917   0.000000
   40       33.562982   0.000000
 
  0.4000000E+00  0.0000000E+00  0.0000000E+00  0.4800000E-01
    1        0.031522   1.000000
    2        1.593549   1.000000
    3        2.835853   1.000000
    4        2.835853   1.000000
    5        3.332028   1.000000
    6        3.547408   1.000000
    7        3.547408   1.000000
    8        4.113964   1.000000
    9        4.799541   1.000000
   10        4.799541   1.000000
   11        5.780863   1.000000
   12        5.798690   1.000000
   13        5.798690   1.000000
   14        5.988447   1.000010
   15        6.585273   0.798974
   16        6.585273   0.798974
   17        6.657235   0.519240
   18        6.657235   0.519240
   19        6.916028  -0.035146
   20        7.249593  -0.000131
   21        7.906818  -0.000000
   22        7.906818  -0.000000
   23       14.752985   0.000000
   24       14.752985   0.000000
   25       17.936390   0.000000
   26       17.936390   0.000000
   27       18.696782   0.000000
   28       18.696782   0.000000
   29       20.692819   0.000000
   30       20.692819   0.000000
   31       25.764057   0.000000
   32       26.459292   0.000000
   33       26.459292   0.000000
   34       29.180052   0.000000
   35       29.490119   0.000000
   36       29.814731   0.000000
   37       29.822703   0.000000
   38       29.822703   0.000000
   39       34.895267   0.000000
   40       35.995834   0.000000
 
  0.2000000E+00  0.2000000E+00  0.0000000E+00  0.9600000E-01
    1       -0.941213   1.000000
    2        2.240936   1.000000
    3        2.240936   1.000000
    4        2.432691   1.000000
    5        2.947155   1.000000
    6        2.947155   1.000000
    7        2.987372   1.000000
    8        4.711214   1.000000
    9        5.353073   1.000000
   10        5.421363   1.000000
   11        5.916507   1.000001
   12        5.916507   1.000001
   13        5.920637   1.000001
   14        6.377600   1.030983
   15        6.740350   0.194290
   16        7.025631  -0.013703
   17        7.253568  -0.000117
   18        7.253568  -0.000117
   19        7.521984  -0.000000
   20        7.521984  -0.000000
   21        7.626047  -0.000000
   22       10.013064  -0.000000
   23       10.013064  -0.000000
   24       13.091364   0.000000
   25       17.388297   0.000000
   26       19.240533   0.000000
   27       21.166626   0.000000
   28       21.166626   0.000000
   29       21.886599   0.000000
   30       21.886599   0.000000
   31       22.939693   0.000000
   32       22.939693   0.000000
   33       24.862809   0.000000
   34       28.565212   0.000000
   35       29.721079   0.000000
   36       30.316877   0.000000
   37       31.507936   0.000000
   38       31.507936   0.000000
   39       34.355973   0.000000
   40       36.068890   0.000000
 
  0.4000000E+00  0.2000000E+00  0.0000000E+00  0.1920000E+00
    1        0.491568   1.000000
    2        1.994063   1.000000
    3        3.042737   1.000000
    4        3.085895   1.000000
    5        3.454495   1.000000
    6        3.509872   1.000000
    7        3.660357   1.000000
    8        4.115440   1.000000
    9        4.467095   1.000000
   10        4.702188   1.000000
   11        5.090165   1.000000
   12        5.301862   1.000000
   13        5.838916   1.000000
   14        6.165973   1.001271
   15        6.459273   1.026381
   16        6.605419   0.728319
   17        6.662986   0.494912
   18        6.762325   0.128419
   19        7.152005  -0.001437
   20        7.531392  -0.000000
   21        7.542266  -0.000000
   22        8.014339  -0.000000
   23       12.266513   0.000000
   24       14.588316   0.000000
   25       15.630345   0.000000
   26       18.710480   0.000000
   27       19.477001   0.000000
   28       20.392691   0.000000
   29       22.815456   0.000000
   30       23.793541   0.000000
   31       24.023886   0.000000
   32       24.240392   0.000000
   33       26.141222   0.000000
   34       26.648454   0.000000
   35       27.016957   0.000000
   36       32.286821   0.000000
   37       32.356633   0.000000
   38       33.432205   0.000000
   39       33.622833   0.000000
   40       36.356805   0.000000
 
  0.4000000E+00  0.4000000E+00  0.0000000E+00  0.9600000E-01
    1        1.675004   1.000000
    2        2.901305   1.000000
    3        2.901305   1.000000
    4        3.404148   1.000000
    5        3.768034   1.000000
    6        3.873623   1.000000
    7        3.873623   1.000000
    8        4.078302   1.000000
    9        4.301127   1.000000
   10        4.301127   1.000000
   11        4.416908   1.000000
   12        4.948871   1.000000
   13        5.866215   1.000000
   14        6.115016   1.000383
   15        6.142979   1.000753
   16        6.204252   1.002835
   17        6.204252   1.002835
   18        6.728199   0.235413
   19        6.728199   0.235413
   20        6.953963  -0.029355
   21        8.096130  -0.000000
   22        9.579697  -0.000000
   23        9.579697  -0.000000
   24       11.597846  -0.000000
   25       17.832388   0.000000
   26       20.315892   0.000000
   27       20.584128   0.000000
   28       20.584128   0.000000
   29       21.813510   0.000000
   30       21.813510   0.000000
   31       23.135637   0.000000
   32       23.874699   0.000000
   33       28.086561   0.000000
   34       28.086561   0.000000
   35       29.291433   0.000000
   36       30.900848   0.000000
   37       33.290383   0.000000
   38       34.931421   0.000000
   39       35.896686   0.000000
   40       35.896686   0.000000
 
  0.2000000E+00  0.2000000E+00  0.2000000E+00  0.6400000E-01
    1       -0.450683   1.000000
    2        2.514679   1.000000
    3        2.514679   1.000000
    4        2.514679   1.000000
    5        3.171473   1.000000
    6        3.171473   1.000000
    7        3.171473   1.000000
    8        4.609277   1.000000
    9        5.367570   1.000000
   10        5.367570   1.000000
   11        5.504324   1.000000
   12        5.504324   1.000000
   13        5.504324   1.000000
   14        6.610464   0.709426
   15        6.610464   0.709426
   16        6.610464   0.709426
   17        6.621565   0.666423
   18        6.621565   0.666423
   19        7.722312  -0.000000
   20        7.722312  -0.000000
   21        7.722312  -0.000000
   22       10.838784  -0.000000
   23       10.838784  -0.000000
   24       10.838784  -0.000000
   25       18.456496   0.000000
   26       18.456496   0.000000
   27       18.456496   0.000000
   28       21.869904   0.000000
   29       21.869904   0.000000
   30       21.869904   0.000000
   31       25.655120   0.000000
   32       25.655120   0.000000
   33       25.655120   0.000000
   34       25.667184   0.000000
   35       30.439305   0.000000
   36       30.439305   0.000000
   37       30.439305   0.000000
   38       31.097091   0.000000
   39       34.910625   0.000000
   40       34.910625   0.000000
 
  0.4000000E+00  0.2000000E+00  0.2000000E+00  0.1920000E+00
    1        0.841119   1.000000
    2        2.191661   1.000000
    3        3.103854   1.000000
    4        3.103854   1.000000
    5        3.562111   1.000000
    6        3.562111   1.000000
    7        3.710087   1.000000
    8        4.291666   1.000000
    9        4.715588   1.000000
   10        4.715588   1.000000
   11        4.966033   1.000000
   12        5.253987   1.000000
   13        5.552957   1.000000
   14        5.970412   1.000006
   15        6.187293   1.002009
   16        6.187293   1.002009
   17        6.743388   0.184510
   18        7.086131  -0.005290
   19        7.546629  -0.000000
   20        7.546629  -0.000000
   21        7.548552  -0.000000
   22        8.207492  -0.000000
   23       12.342176   0.000000
   24       12.342176   0.000000
   25       15.914622   0.000000
   26       15.914622   0.000000
   27       20.298708   0.000000
   28       22.648767   0.000000
   29       22.648767   0.000000
   30       22.751584   0.000000
   31       24.905022   0.000000
   32       24.905022   0.000000
   33       26.587513   0.000000
   34       27.873024   0.000000
   35       29.654971   0.000000
   36       31.176962   0.000000
   37       31.260054   0.000000
   38       33.468212   0.000000
   39       33.468212   0.000000
   40       34.800136   0.000000
 
  0.4000000E+00  0.4000000E+00  0.2000000E+00  0.1920000E+00
    1        1.670679   1.000000
    2        2.542637   1.000000
    3        2.542637   1.000000
    4        2.819053   1.000000
    5        4.049168   1.000000
    6        4.270255   1.000000
    7        4.270255   1.000000
    8        4.622251   1.000000
    9        4.776629   1.000000
   10        4.776629   1.000000
   11        4.961086   1.000000
   12        5.050394   1.000000
   13        5.375933   1.000000
   14        5.653642   1.000000
   15        5.662526   1.000000
   16        5.662526   1.000000
   17        6.751827   0.158457
   18        7.296280  -0.000034
   19        7.296280  -0.000034
   20        7.329914  -0.000012
   21        7.834168  -0.000000
   22        9.435140  -0.000000
   23        9.435140  -0.000000
   24       11.066490  -0.000000
   25       15.610853   0.000000
   26       17.524781   0.000000
   27       17.524781   0.000000
   28       19.780957   0.000000
   29       23.849269   0.000000
   30       25.627021   0.000000
   31       25.627021   0.000000
   32       27.689742   0.000000
   33       28.554308   0.000000
   34       28.554308   0.000000
   35       29.806829   0.000000
   36       30.810439   0.000000
   37       32.434509   0.000000
   38       33.717706   0.000000
   39       33.717706   0.000000
   40       35.324688   0.000000
 
  0.4000000E+00  0.4000000E+00  0.4000000E+00  0.6400000E-01
    1        1.770543   1.000000
    2        2.163494   1.000000
    3        2.163494   1.000000
    4        2.163494   1.000000
    5        4.699742   1.000000
    6        4.699742   1.000000
    7        4.699742   1.000000
    8        5.061647   1.000000
    9        5.061647   1.000000
   10        5.210371   1.000000
   11        5.210371   1.000000
   12        5.210371   1.000000
   13        5.768262   1.000000
   14        5.768262   1.000000
   15        5.768262   1.000000
   16        5.911926   1.000001
   17        7.388169  -0.000002
   18        7.388169  -0.000002
   19        7.617161  -0.000000
   20        7.617161  -0.000000
   21        7.617161  -0.000000
   22        8.972174  -0.000000
   23        8.972174  -0.000000
   24        8.972174  -0.000000
   25       15.461238   0.000000
   26       15.461238   0.000000
   27       15.461238   0.000000
   28       17.037638   0.000000
   29       27.855292   0.000000
   30       27.855292   0.000000
   31       27.855292   0.000000
   32       29.122680   0.000000
   33       31.454648   0.000000
   34       31.454648   0.000000
   35       31.454648   0.000000
   36       31.875807   0.000000
   37       31.875807   0.000000
   38       31.875807   0.000000
   39       34.026465   0.000000
   40       34.026465   0.000000
