<?xml version="1.0" encoding="ISO-8859-1"?>
<modeling>
 <generator>
  <i name="program" type="string">vasp </i>
  <i name="version" type="string">6.2.0  </i>
  <i name="subversion" type="string">18Jan21 (build Mar 17 2021 09:06:54) complex                          serial </i>
  <i name="platform" type="string">LinuxIFC </i>
  <i name="date" type="string">2021 09 09 </i>
  <i name="time" type="string">09:02:19 </i>
 </generator>
 <incar>
  <i type="string" name="PREC">normal</i>
  <i type="int" name="ICHARG">     1</i>
  <i type="int" name="IBRION">    -1</i>
  <i name="EDIFF">      0.00000100</i>
  <i type="int" name="NSW">     0</i>
  <i name="ENCUT">    220.00000000</i>
  <i type="int" name="NBANDS">    40</i>
  <i type="int" name="ISMEAR">     1</i>
  <i name="SIGMA">      0.20000000</i>
  <i type="logical" name="LCHARG"> T  </i>
  <i type="int" name="KPAR">     1</i>
  <i type="int" name="NCORE">     1</i>
  <i type="string" name="GGA">PE</i>
 </incar>
 <primitive_cell>
  <structure name="primitive_cell" >
   <crystal>
    <varray name="basis" >
     <v>       1.72254150      -1.72254150       0.00000000 </v>
     <v>       1.72254150       0.00000000       1.72254150 </v>
     <v>       0.00000000      -1.72254150       1.72254150 </v>
    </varray>
    <i name="volume">     10.22207533 </i>
    <varray name="rec_basis" >
     <v>       0.29026877      -0.29026877      -0.29026877 </v>
     <v>       0.29026877       0.29026877       0.29026877 </v>
     <v>      -0.29026877      -0.29026877       0.29026877 </v>
    </varray>
   </crystal>
   <varray name="positions" >
    <v>       0.00000000       0.00000000       0.00000000 </v>
   </varray>
  </structure>
  <varray name="primitive_index" >
   <v type="int" >        1 </v>
  </varray>
 </primitive_cell>
 <kpoints>
  <generation param="Monkhorst-Pack">
   <v type="int" name="divisions">       5        5        5 </v>
   <v name="usershift">      0.00000000       0.00000000       0.00000000 </v>
   <v name="genvec1">      0.20000000       0.00000000       0.00000000 </v>
   <v name="genvec2">      0.00000000       0.20000000       0.00000000 </v>
   <v name="genvec3">      0.00000000       0.00000000       0.20000000 </v>
   <v name="shift">      0.00000000       0.00000000       0.00000000 </v>
  </generation>
  <varray name="kpointlist" >
   <v>       0.00000000       0.00000000       0.00000000 </v>
   <v>       0.20000000       0.00000000       0.00000000 </v>
   <v>       0.40000000       0.00000000       0.00000000 </v>
   <v>       0.20000000       0.20000000       0.00000000 </v>
   <v>       0.40000000       0.20000000       0.00000000 </v>
   <v>       0.40000000       0.40000000       0.00000000 </v>
   <v>       0.20000000       0.20000000       0.20000000 </v>
   <v>       0.40000000       0.20000000       0.20000000 </v>
   <v>       0.40000000       0.40000000       0.20000000 </v>
   <v>       0.40000000       0.40000000       0.40000000 </v>
  </varray>
  <varray name="weights" >
   <v>       0.00800000 </v>
   <v>       0.04800000 </v>
   <v>       0.04800000 </v>
   <v>       0.09600000 </v>
   <v>       0.19200000 </v>
   <v>       0.09600000 </v>
   <v>       0.06400000 </v>
   <v>       0.19200000 </v>
   <v>       0.19200000 </v>
   <v>       0.06400000 </v>
  </varray>
 </kpoints>
 <parameters>
  <separator name="general" >
   <i type="string" name="SYSTEM">unknown system</i>
   <i type="logical" name="LCOMPAT"> F  </i>
  </separator>
  <separator name="electronic" >
   <i type="string" name="PREC">normal</i>
   <i name="ENMAX">    220.00000000</i>
   <i name="ENAUG">    511.36800000</i>
   <i name="EDIFF">      0.00000100</i>
   <i type="int" name="IALGO">    38</i>
   <i type="int" name="IWAVPR">     0</i>
   <i type="int" name="NBANDS">    40</i>
   <i type="int" name="NBANDSLOW">    -1</i>
   <i type="int" name="NBANDSHIGH">    -1</i>
   <i name="NELECT">     32.00000000</i>
   <i type="int" name="TURBO">     0</i>
   <i type="int" name="IRESTART">     0</i>
   <i type="int" name="NREBOOT">     0</i>
   <i type="int" name="NMIN">     0</i>
   <i name="EREF">      0.00000000</i>
   <separator name="electronic smearing" >
    <i type="int" name="ISMEAR">     1</i>
    <i name="SIGMA">      0.20000000</i>
    <i name="KSPACING">      0.50000000</i>
    <i type="logical" name="KGAMMA"> T  </i>
    <i type="logical" name="KBLOWUP"> T  </i>
   </separator>
   <separator name="electronic projectors" >
    <i type="logical" name="LREAL"> F  </i>
    <v name="ROPT">      0.00000000</v>
    <i type="int" name="LMAXPAW">  -100</i>
    <i type="int" name="LMAXMIX">     2</i>
    <i type="logical" name="NLSPLINE"> F  </i>
   </separator>
   <separator name="electronic startup" >
    <i type="int" name="ISTART">     0</i>
    <i type="int" name="ICHARG">     1</i>
    <i type="int" name="INIWAV">     1</i>
   </separator>
   <separator name="electronic spin" >
    <i type="int" name="ISPIN">     1</i>
    <i type="logical" name="LNONCOLLINEAR"> F  </i>
    <v name="MAGMOM">      1.00000000      1.00000000      1.00000000      1.00000000</v>
    <i name="NUPDOWN">     -1.00000000</i>
    <i type="logical" name="LSORBIT"> F  </i>
    <v name="SAXIS">      0.00000000      0.00000000      1.00000000</v>
    <i type="logical" name="LSPIRAL"> F  </i>
    <v name="QSPIRAL">      0.00000000      0.00000000      0.00000000</v>
    <i type="logical" name="LZEROZ"> F  </i>
   </separator>
   <separator name="electronic exchange-correlation" >
    <i type="logical" name="LASPH"> F  </i>
    <i type="logical" name="LMETAGGA"> F  </i>
   </separator>
   <separator name="electronic convergence" >
    <i type="int" name="NELM">    60</i>
    <i type="int" name="NELMDL">    -5</i>
    <i type="int" name="NELMIN">     2</i>
    <i name="ENINI">    220.00000000</i>
    <separator name="electronic convergence detail" >
     <i type="logical" name="LDIAG"> T  </i>
     <i type="logical" name="LSUBROT"> F  </i>
     <i name="WEIMIN">      0.00000000</i>
     <i name="EBREAK">      0.00000001</i>
     <i name="DEPER">      0.30000000</i>
     <i type="int" name="NRMM">     4</i>
     <i name="TIME">      0.40000000</i>
    </separator>
   </separator>
   <separator name="electronic mixer" >
    <i name="AMIX">      0.40000000</i>
    <i name="BMIX">      1.00000000</i>
    <i name="AMIN">      0.10000000</i>
    <i name="AMIX_MAG">      1.60000000</i>
    <i name="BMIX_MAG">      1.00000000</i>
    <separator name="electronic mixer details" >
     <i type="int" name="IMIX">     4</i>
     <i type="logical" name="MIXFIRST"> F  </i>
     <i type="int" name="MAXMIX">   -45</i>
     <i name="WC">    100.00000000</i>
     <i type="int" name="INIMIX">     1</i>
     <i type="int" name="MIXPRE">     1</i>
     <i type="int" name="MREMOVE">     5</i>
    </separator>
   </separator>
   <separator name="electronic dipolcorrection" >
    <i type="logical" name="LDIPOL"> F  </i>
    <i type="logical" name="LMONO"> F  </i>
    <i type="int" name="IDIPOL">     0</i>
    <i name="EPSILON">      1.00000000</i>
    <v name="DIPOL">   -100.00000000   -100.00000000   -100.00000000</v>
    <i name="EFIELD">      0.00000000</i>
   </separator>
  </separator>
  <separator name="grids" >
   <i type="int" name="NGX">    12</i>
   <i type="int" name="NGY">    12</i>
   <i type="int" name="NGZ">    12</i>
   <i type="int" name="NGXF">    24</i>
   <i type="int" name="NGYF">    24</i>
   <i type="int" name="NGZF">    24</i>
   <i type="logical" name="ADDGRID"> F  </i>
  </separator>
  <separator name="ionic" >
   <i type="int" name="NSW">     0</i>
   <i type="int" name="IBRION">    -1</i>
   <i type="int" name="MDALGO">     0</i>
   <i type="int" name="ISIF">     2</i>
   <i name="PSTRESS">      0.00000000</i>
   <i name="EDIFFG">      0.00001000</i>
   <i type="int" name="NFREE">     0</i>
   <i name="POTIM">      0.50000000</i>
   <i name="SMASS">     -3.00000000</i>
   <i name="SCALEE">      1.00000000</i>
  </separator>
  <separator name="ionic md" >
   <i name="TEBEG">      0.00010000</i>
   <i name="TEEND">      0.00010000</i>
   <i type="int" name="NBLOCK">     1</i>
   <i type="int" name="KBLOCK">     1</i>
   <i type="int" name="NPACO">   256</i>
   <i name="APACO">     16.00000000</i>
  </separator>
  <separator name="symmetry" >
   <i type="int" name="ISYM">     2</i>
   <i name="SYMPREC">      0.00001000</i>
  </separator>
  <separator name="dos" >
   <i type="int" name="LORBIT">     0</i>
   <v name="RWIGS">     -1.00000000</v>
   <i type="int" name="NEDOS">   301</i>
   <i name="EMIN">     10.00000000</i>
   <i name="EMAX">    -10.00000000</i>
   <i name="EFERMI">      0.00000000</i>
  </separator>
  <separator name="writing" >
   <i type="int" name="NWRITE">     2</i>
   <i type="logical" name="LWAVE"> T  </i>
   <i type="logical" name="LDOWNSAMPLE"> F  </i>
   <i type="logical" name="LCHARG"> T  </i>
   <i type="logical" name="LPARD"> F  </i>
   <i type="logical" name="LVTOT"> F  </i>
   <i type="logical" name="LVHAR"> F  </i>
   <i type="logical" name="LELF"> F  </i>
   <i type="logical" name="LOPTICS"> F  </i>
   <v name="STM">      0.00000000      0.00000000      0.00000000      0.00000000      0.00000000      0.00000000      0.00000000</v>
  </separator>
  <separator name="performance" >
   <i type="int" name="NPAR">     1</i>
   <i type="int" name="NSIM">     4</i>
   <i type="int" name="NBLK">    -1</i>
   <i type="logical" name="LPLANE"> T  </i>
   <i type="logical" name="LSCALAPACK"> F  </i>
   <i type="logical" name="LSCAAWARE"> F  </i>
   <i type="logical" name="LSCALU"> F  </i>
   <i type="logical" name="LASYNC"> F  </i>
   <i type="logical" name="LORBITALREAL"> F  </i>
  </separator>
  <separator name="miscellaneous" >
   <i type="int" name="IDIOT">     3</i>
   <i type="int" name="PHON_NSTRUCT">    -1</i>
   <i type="logical" name="LMUSIC"> F  </i>
   <v name="POMASS">     55.84700000</v>
   <v name="DARWINR">      0.00000000</v>
   <v name="DARWINV">      1.00000000</v>
   <i type="logical" name="LCORR"> T  </i>
  </separator>
  <i type="logical" name="GGA_COMPAT"> T  </i>
  <i type="logical" name="LBERRY"> F  </i>
  <i type="int" name="ICORELEVEL">     0</i>
  <i type="logical" name="LDAU"> F  </i>
  <i type="int" name="I_CONSTRAINED_M">     0</i>
  <separator name="electronic exchange-correlation" >
   <i type="string" name="GGA">PE</i>
   <i type="int" name="VOSKOWN">     0</i>
   <i type="logical" name="LHFCALC"> F  </i>
   <i type="string" name="PRECFOCK"></i>
   <i type="logical" name="LSYMGRAD"> F  </i>
   <i type="logical" name="LHFONE"> F  </i>
   <i type="logical" name="LRHFCALC"> F  </i>
   <i type="logical" name="LTHOMAS"> F  </i>
   <i type="logical" name="LMODELHF"> F  </i>
   <i type="logical" name="LFOCKACE"> F  </i>
   <i name="ENCUT4O">     -1.00000000</i>
   <i type="int" name="EXXOEP">     0</i>
   <i type="int" name="FOURORBIT">     0</i>
   <i name="AEXX">      0.00000000</i>
   <i name="HFALPHA">      0.00000000</i>
   <i name="MCALPHA">      0.00000000</i>
   <i name="ALDAX">      1.00000000</i>
   <i name="AGGAX">      1.00000000</i>
   <i name="ALDAC">      1.00000000</i>
   <i name="AGGAC">      1.00000000</i>
   <i type="int" name="NKREDX">     1</i>
   <i type="int" name="NKREDY">     1</i>
   <i type="int" name="NKREDZ">     1</i>
   <i type="logical" name="SHIFTRED"> F  </i>
   <i type="logical" name="ODDONLY"> F  </i>
   <i type="logical" name="EVENONLY"> F  </i>
   <i type="int" name="LMAXFOCK">     0</i>
   <i type="int" name="NMAXFOCKAE">     0</i>
   <i type="logical" name="LFOCKAEDFT"> F  </i>
   <i name="HFSCREEN">      0.00000000</i>
   <i name="HFSCREENC">      0.00000000</i>
   <i type="int" name="NBANDSGWLOW">     0</i>
  </separator>
  <separator name="vdW DFT" >
   <i type="logical" name="LUSE_VDW"> F  </i>
   <i name="Zab_VDW">     -0.84910000</i>
   <i name="PARAM1">      0.12340000</i>
   <i name="PARAM2">      1.00000000</i>
   <i name="PARAM3">      0.00000000</i>
  </separator>
  <separator name="model GW" >
   <i type="int" name="MODEL_GW">     0</i>
   <i name="MODEL_EPS0">      6.13324520</i>
   <i name="MODEL_ALPHA">      1.00000000</i>
  </separator>
  <separator name="linear response parameters" >
   <i type="logical" name="LEPSILON"> F  </i>
   <i type="logical" name="LRPA"> F  </i>
   <i type="logical" name="LNABLA"> F  </i>
   <i type="logical" name="LVEL"> F  </i>
   <i type="int" name="KINTER">     0</i>
   <i name="CSHIFT">      0.10000000</i>
   <i name="OMEGAMAX">     -1.00000000</i>
   <i name="DEG_THRESHOLD">      0.00200000</i>
   <i name="RTIME">     -0.10000000</i>
   <i name="WPLASMAI">      0.00000000</i>
   <v name="DFIELD">      0.00000000      0.00000000      0.00000000</v>
   <v name="WPLASMA">      0.00000000      0.00000000      0.00000000      0.00000000      0.00000000      0.00000000      0.00000000      0.00000000      0.00000000</v>
  </separator>
  <separator name="orbital magnetization" >
   <i type="logical" name="NUCIND"> F  </i>
   <v name="MAGPOS">      0.00000000      0.00000000      0.00000000</v>
   <i type="logical" name="LNICSALL"> T  </i>
   <i type="logical" name="ORBITALMAG"> F  </i>
   <i type="logical" name="LMAGBLOCH"> F  </i>
   <i type="logical" name="LCHIMAG"> F  </i>
   <i type="logical" name="LGAUGE"> T  </i>
   <i type="int" name="MAGATOM">     0</i>
   <v name="MAGDIPOL">      0.00000000      0.00000000      0.00000000</v>
   <v name="AVECCONST">      0.00000000      0.00000000      0.00000000</v>
  </separator>
  <separator name="response functions" >
   <i type="logical" name="LFINITE_TEMPERATURE"> F  </i>
   <i type="logical" name="LADDER"> F  </i>
   <i type="logical" name="LRPAFORCE"> F  </i>
   <i type="logical" name="LFXC"> F  </i>
   <i type="logical" name="LHARTREE"> T  </i>
   <i type="int" name="IBSE">     0</i>
   <v type="int" name="KPOINT">    -1     0     0     0</v>
   <i type="logical" name="LTCTC"> F  </i>
   <i type="logical" name="LTCTE"> F  </i>
   <i type="logical" name="LTETE"> F  </i>
   <i type="logical" name="LTRIPLET"> F  </i>
   <i type="logical" name="LFXCEPS"> F  </i>
   <i type="logical" name="LFXHEG"> F  </i>
   <i type="int" name="NATURALO">     2</i>
   <i type="logical" name="LHOLEGF"> F  </i>
   <i type="logical" name="L2ORDER"> F  </i>
   <i type="logical" name="LDMP1"> F  </i>
   <i type="logical" name="LMP2LT"> F  </i>
   <i type="logical" name="LSMP2LT"> F  </i>
   <i type="logical" name="LGWLF"> F  </i>
   <i name="ENCUTGW">     -2.00000000</i>
   <i name="ENCUTGWSOFT">     -2.00000000</i>
   <i name="ENCUTLF">     -1.00000000</i>
   <i type="logical" name="LESF_SPLINES"> F  </i>
   <i type="int" name="LMAXMP2">    -1</i>
   <i name="SCISSOR">      0.00000000</i>
   <i type="int" name="NOMEGA">     0</i>
   <i type="int" name="NOMEGAR">     0</i>
   <i type="int" name="NBANDSGW">    -1</i>
   <i type="int" name="NBANDSO">    -1</i>
   <i type="int" name="NBANDSV">    -1</i>
   <i type="int" name="NELM">     1</i>
   <i type="int" name="NELMHF">     1</i>
   <i type="int" name="DIM">     3</i>
   <i type="int" name="IESPILON">     4</i>
   <i type="int" name="ANTIRES">     0</i>
   <i name="OMEGAMAX">    -30.00000000</i>
   <i name="OMEGAMIN">    -30.00000000</i>
   <i name="OMEGATL">   -200.00000000</i>
   <i type="int" name="OMEGAGRID">     0</i>
   <i name="CSHIFT">     -0.10000000</i>
   <i type="logical" name="LSELFENERGY"> F  </i>
   <i type="logical" name="LSPECTRAL"> F  </i>
   <i type="logical" name="LSPECTRALGW"> F  </i>
   <i type="logical" name="LSINGLES"> F  </i>
   <i type="logical" name="LFERMIGW"> F  </i>
   <i type="logical" name="ODDONLYGW"> F  </i>
   <i type="logical" name="EVENONLYGW"> F  </i>
   <i type="int" name="NKREDLFX">     1</i>
   <i type="int" name="NKREDLFY">     1</i>
   <i type="int" name="NKREDLFZ">     1</i>
   <i type="int" name="MAXMEM">  2800</i>
   <i type="int" name="TELESCOPE">     0</i>
   <i type="int" name="NTAUPAR">    -1</i>
   <i type="int" name="NOMEGAPAR">    -1</i>
   <i name="DAMP_NEWTON">      0.80000001</i>
   <i name="LAMBDA">      1.00000000</i>
  </separator>
  <separator name="External order field" >
   <i name="OFIELD_KAPPA">      0.00000000</i>
   <v name="OFIELD_K">      0.00000000      0.00000000      0.00000000</v>
   <i name="OFIELD_Q6_NEAR">      0.00000000</i>
   <i name="OFIELD_Q6_FAR">      0.00000000</i>
   <i name="OFIELD_A">      0.00000000</i>
  </separator>
 </parameters>
 <atominfo>
  <atoms>       4 </atoms>
  <types>       1 </types>
  <array name="atoms" >
   <dimension dim="1">ion</dimension>
   <field type="string">element</field>
   <field type="int">atomtype</field>
   <set>
    <rc><c>Fe</c><c>   1</c></rc>
    <rc><c>Fe</c><c>   1</c></rc>
    <rc><c>Fe</c><c>   1</c></rc>
    <rc><c>Fe</c><c>   1</c></rc>
   </set>
  </array>
  <array name="atomtypes" >
   <dimension dim="1">type</dimension>
   <field type="int">atomspertype</field>
   <field type="string">element</field>
   <field>mass</field>
   <field>valence</field>
   <field type="string">pseudopotential</field>
   <set>
    <rc><c>   4</c><c>Fe</c><c>     55.84700000</c><c>      8.00000000</c><c>  PAW_PBE Fe 06Sep2000                  </c></rc>
   </set>
  </array>
 </atominfo>
 <structure name="initialpos" >
  <crystal>
   <varray name="basis" >
    <v>       3.44508300       0.00000000       0.00000000 </v>
    <v>       0.00000000       3.44508300       0.00000000 </v>
    <v>       0.00000000       0.00000000       3.44508300 </v>
   </varray>
   <i name="volume">     40.88830133 </i>
   <varray name="rec_basis" >
    <v>       0.29026877       0.00000000       0.00000000 </v>
    <v>       0.00000000       0.29026877       0.00000000 </v>
    <v>       0.00000000       0.00000000       0.29026877 </v>
   </varray>
  </crystal>
  <varray name="positions" >
   <v>       0.00000000       0.00000000       0.00000000 </v>
   <v>       0.50000000       0.50000000       0.00000000 </v>
   <v>       0.50000000       0.00000000       0.50000000 </v>
   <v>       0.00000000       0.50000000       0.50000000 </v>
  </varray>
 </structure>
 <calculation>
  <scstep>
   <time name="dav">    0.11    0.13</time>
   <time name="total">    0.12    0.14</time>
   <energy>
    <i name="alphaZ">    270.44909666 </i>
    <i name="ewald">  -2452.97223925 </i>
    <i name="hartreedc">   -414.53988316 </i>
    <i name="XCdc">     16.92907004 </i>
    <i name="pawpsdc">   2219.38341365 </i>
    <i name="pawaedc">  -2250.19294531 </i>
    <i name="eentropy">     -0.01080023 </i>
    <i name="bandstr">    345.33710662 </i>
    <i name="atom">   2376.20782424 </i>
    <i name="e_fr_energy">    110.59064327 </i>
    <i name="e_wo_entrp">    110.60144350 </i>
    <i name="e_0_energy">    110.59424335 </i>
   </energy>
  </scstep>
  <scstep>
   <time name="dav">    0.10    0.10</time>
   <time name="total">    0.10    0.10</time>
   <energy>
    <i name="e_fr_energy">    -31.85538794 </i>
    <i name="e_wo_entrp">    -31.84592879 </i>
    <i name="e_0_energy">    -31.85223489 </i>
   </energy>
  </scstep>
  <scstep>
   <time name="dav">    0.09    0.09</time>
   <time name="total">    0.09    0.09</time>
   <energy>
    <i name="e_fr_energy">    -38.42528233 </i>
    <i name="e_wo_entrp">    -38.39133597 </i>
    <i name="e_0_energy">    -38.41396688 </i>
   </energy>
  </scstep>
  <scstep>
   <time name="dav">    0.09    0.09</time>
   <time name="total">    0.09    0.09</time>
   <energy>
    <i name="e_fr_energy">    -38.46368618 </i>
    <i name="e_wo_entrp">    -38.42973288 </i>
    <i name="e_0_energy">    -38.45236841 </i>
   </energy>
  </scstep>
  <scstep>
   <time name="dav">    0.08    0.08</time>
   <time name="total">    0.09    0.09</time>
   <energy>
    <i name="e_fr_energy">    -38.46393996 </i>
    <i name="e_wo_entrp">    -38.42998658 </i>
    <i name="e_0_energy">    -38.45262217 </i>
   </energy>
  </scstep>
  <scstep>
   <time name="dav">    0.09    0.09</time>
   <time name="total">    0.10    0.10</time>
   <energy>
    <i name="e_fr_energy">    -31.71045916 </i>
    <i name="e_wo_entrp">    -31.65102163 </i>
    <i name="e_0_energy">    -31.69064665 </i>
   </energy>
  </scstep>
  <scstep>
   <time name="dav">    0.09    0.09</time>
   <time name="total">    0.10    0.10</time>
   <energy>
    <i name="e_fr_energy">    -31.42711540 </i>
    <i name="e_wo_entrp">    -31.37078731 </i>
    <i name="e_0_energy">    -31.40833937 </i>
   </energy>
  </scstep>
  <scstep>
   <time name="dav">    0.09    0.09</time>
   <time name="total">    0.11    0.11</time>
   <energy>
    <i name="e_fr_energy">    -31.39451295 </i>
    <i name="e_wo_entrp">    -31.33718264 </i>
    <i name="e_0_energy">    -31.37540285 </i>
   </energy>
  </scstep>
  <scstep>
   <time name="dav">    0.09    0.09</time>
   <time name="total">    0.10    0.10</time>
   <energy>
    <i name="e_fr_energy">    -31.37339806 </i>
    <i name="e_wo_entrp">    -31.31621559 </i>
    <i name="e_0_energy">    -31.35433724 </i>
   </energy>
  </scstep>
  <scstep>
   <time name="dav">    0.09    0.09</time>
   <time name="total">    0.10    0.10</time>
   <energy>
    <i name="e_fr_energy">    -31.37334898 </i>
    <i name="e_wo_entrp">    -31.31613174 </i>
    <i name="e_0_energy">    -31.35427657 </i>
   </energy>
  </scstep>
  <scstep>
   <time name="dav">    0.09    0.09</time>
   <time name="total">    0.10    0.10</time>
   <energy>
    <i name="e_fr_energy">    -31.37323872 </i>
    <i name="e_wo_entrp">    -31.31606626 </i>
    <i name="e_0_energy">    -31.35418123 </i>
   </energy>
  </scstep>
  <scstep>
   <time name="dav">    0.07    0.07</time>
   <time name="total">    0.08    0.08</time>
   <energy>
    <i name="e_fr_energy">    -31.37324169 </i>
    <i name="e_wo_entrp">    -31.31605463 </i>
    <i name="e_0_energy">    -31.35417934 </i>
   </energy>
  </scstep>
  <scstep>
   <time name="dav">    0.05    0.05</time>
   <time name="total">    0.07    0.07</time>
   <energy>
    <i name="e_fr_energy">    -31.37324321 </i>
    <i name="e_wo_entrp">    -31.31605967 </i>
    <i name="e_0_energy">    -31.35418203 </i>
   </energy>
  </scstep>
  <scstep>
   <time name="dav">    0.05    0.05</time>
   <time name="total">    0.06    0.06</time>
   <energy>
    <i name="alphaZ">    270.44909666 </i>
    <i name="ewald">  -2452.97223925 </i>
    <i name="hartreedc">   -344.56231398 </i>
    <i name="XCdc">     13.52308837 </i>
    <i name="pawpsdc">   2967.04352748 </i>
    <i name="pawaedc">  -2997.70595363 </i>
    <i name="eentropy">     -0.05718363 </i>
    <i name="bandstr">    136.70091034 </i>
    <i name="atom">   2376.20782424 </i>
    <i name="e_fr_energy">    -31.37324340 </i>
    <i name="e_wo_entrp">    -31.31605977 </i>
    <i name="e_0_energy">    -31.35418219 </i>
   </energy>
  </scstep>
  <structure>
   <crystal>
    <varray name="basis" >
     <v>       3.44508300       0.00000000       0.00000000 </v>
     <v>       0.00000000       3.44508300       0.00000000 </v>
     <v>       0.00000000       0.00000000       3.44508300 </v>
    </varray>
    <i name="volume">     40.88830133 </i>
    <varray name="rec_basis" >
     <v>       0.29026877       0.00000000       0.00000000 </v>
     <v>       0.00000000       0.29026877       0.00000000 </v>
     <v>       0.00000000       0.00000000       0.29026877 </v>
    </varray>
   </crystal>
   <varray name="positions" >
    <v>       0.00000000       0.00000000       0.00000000 </v>
    <v>       0.50000000       0.50000000       0.00000000 </v>
    <v>       0.50000000       0.00000000       0.50000000 </v>
    <v>       0.00000000       0.50000000       0.50000000 </v>
   </varray>
  </structure>
  <varray name="forces" >
   <v>       0.00000000       0.00000000      -0.00000000 </v>
   <v>      -0.00000000      -0.00000000      -0.00000000 </v>
   <v>       0.00000000       0.00000000       0.00000000 </v>
   <v>      -0.00000000      -0.00000000       0.00000000 </v>
  </varray>
  <varray name="stress" >
   <v>    -588.21798486       0.00000000       0.00000000 </v>
   <v>      -0.00000000    -588.21798486      -0.00000000 </v>
   <v>       0.00000000      -0.00000000    -588.21798486 </v>
  </varray>
  <energy>
   <i name="e_fr_energy">    -31.37324340 </i>
   <i name="e_wo_entrp">    -31.31605977 </i>
   <i name="e_0_energy">    -31.35418219 </i>
  </energy>
  <time name="totalsc">    1.40    1.42</time>
  <eigenvalues>
   <array>
    <dimension dim="1">band</dimension>
    <dimension dim="2">kpoint</dimension>
    <dimension dim="3">spin</dimension>
    <field>eigene</field>
    <field>occ</field>
    <set>
     <set comment="spin 1">
      <set comment="kpoint 1">
       <r>   -2.0364    1.0000 </r>
       <r>    1.8303    1.0000 </r>
       <r>    1.8303    1.0000 </r>
       <r>    1.8303    1.0000 </r>
       <r>    2.5224    1.0000 </r>
       <r>    2.5224    1.0000 </r>
       <r>    2.5224    1.0000 </r>
       <r>    5.1006    1.0000 </r>
       <r>    5.1006    1.0000 </r>
       <r>    5.1006    1.0000 </r>
       <r>    6.5923    0.7754 </r>
       <r>    6.5923    0.7754 </r>
       <r>    7.5438   -0.0000 </r>
       <r>    7.5438   -0.0000 </r>
       <r>    7.5438   -0.0000 </r>
       <r>    7.8647   -0.0000 </r>
       <r>    7.8647   -0.0000 </r>
       <r>    7.8647   -0.0000 </r>
       <r>    7.8647   -0.0000 </r>
       <r>    7.8647   -0.0000 </r>
       <r>    7.8647   -0.0000 </r>
       <r>   10.0640   -0.0000 </r>
       <r>   10.0640   -0.0000 </r>
       <r>   10.0640   -0.0000 </r>
       <r>   18.7241    0.0000 </r>
       <r>   18.7241    0.0000 </r>
       <r>   18.7241    0.0000 </r>
       <r>   23.0713    0.0000 </r>
       <r>   23.0713    0.0000 </r>
       <r>   23.0713    0.0000 </r>
       <r>   23.0713    0.0000 </r>
       <r>   23.0713    0.0000 </r>
       <r>   23.0713    0.0000 </r>
       <r>   28.9447    0.0000 </r>
       <r>   28.9447    0.0000 </r>
       <r>   28.9447    0.0000 </r>
       <r>   30.1920    0.0000 </r>
       <r>   33.4934    0.0000 </r>
       <r>   33.4934    0.0000 </r>
       <r>   33.4934    0.0000 </r>
      </set>
      <set comment="kpoint 2">
       <r>   -1.4757    1.0000 </r>
       <r>    1.8885    1.0000 </r>
       <r>    2.1647    1.0000 </r>
       <r>    2.1647    1.0000 </r>
       <r>    2.7482    1.0000 </r>
       <r>    2.7618    1.0000 </r>
       <r>    2.7618    1.0000 </r>
       <r>    4.8275    1.0000 </r>
       <r>    5.3297    1.0000 </r>
       <r>    5.3297    1.0000 </r>
       <r>    6.3887    1.0330 </r>
       <r>    6.5111    0.9771 </r>
       <r>    6.5111    0.9771 </r>
       <r>    6.7000    0.3414 </r>
       <r>    7.2490   -0.0001 </r>
       <r>    7.2490   -0.0001 </r>
       <r>    7.5196   -0.0000 </r>
       <r>    7.5196   -0.0000 </r>
       <r>    7.5384   -0.0000 </r>
       <r>    7.9136   -0.0000 </r>
       <r>    7.9136   -0.0000 </r>
       <r>    8.2164   -0.0000 </r>
       <r>   11.8812   -0.0000 </r>
       <r>   11.8812   -0.0000 </r>
       <r>   18.7149    0.0000 </r>
       <r>   18.7149    0.0000 </r>
       <r>   21.1189    0.0000 </r>
       <r>   21.1189    0.0000 </r>
       <r>   21.1777    0.0000 </r>
       <r>   21.9893    0.0000 </r>
       <r>   21.9893    0.0000 </r>
       <r>   24.0036    0.0000 </r>
       <r>   24.0036    0.0000 </r>
       <r>   29.0457    0.0000 </r>
       <r>   29.9435    0.0000 </r>
       <r>   31.2913    0.0000 </r>
       <r>   31.2913    0.0000 </r>
       <r>   33.2408    0.0000 </r>
       <r>   33.5629    0.0000 </r>
       <r>   33.5630    0.0000 </r>
      </set>
      <set comment="kpoint 3">
       <r>    0.0315    1.0000 </r>
       <r>    1.5935    1.0000 </r>
       <r>    2.8359    1.0000 </r>
       <r>    2.8359    1.0000 </r>
       <r>    3.3320    1.0000 </r>
       <r>    3.5474    1.0000 </r>
       <r>    3.5474    1.0000 </r>
       <r>    4.1140    1.0000 </r>
       <r>    4.7995    1.0000 </r>
       <r>    4.7995    1.0000 </r>
       <r>    5.7809    1.0000 </r>
       <r>    5.7987    1.0000 </r>
       <r>    5.7987    1.0000 </r>
       <r>    5.9884    1.0000 </r>
       <r>    6.5853    0.7990 </r>
       <r>    6.5853    0.7990 </r>
       <r>    6.6572    0.5192 </r>
       <r>    6.6572    0.5192 </r>
       <r>    6.9160   -0.0351 </r>
       <r>    7.2496   -0.0001 </r>
       <r>    7.9068   -0.0000 </r>
       <r>    7.9068   -0.0000 </r>
       <r>   14.7530    0.0000 </r>
       <r>   14.7530    0.0000 </r>
       <r>   17.9364    0.0000 </r>
       <r>   17.9364    0.0000 </r>
       <r>   18.6968    0.0000 </r>
       <r>   18.6968    0.0000 </r>
       <r>   20.6928    0.0000 </r>
       <r>   20.6928    0.0000 </r>
       <r>   25.7641    0.0000 </r>
       <r>   26.4593    0.0000 </r>
       <r>   26.4593    0.0000 </r>
       <r>   29.1801    0.0000 </r>
       <r>   29.4901    0.0000 </r>
       <r>   29.8147    0.0000 </r>
       <r>   29.8227    0.0000 </r>
       <r>   29.8227    0.0000 </r>
       <r>   34.8953    0.0000 </r>
       <r>   35.9958    0.0000 </r>
      </set>
      <set comment="kpoint 4">
       <r>   -0.9412    1.0000 </r>
       <r>    2.2409    1.0000 </r>
       <r>    2.2409    1.0000 </r>
       <r>    2.4327    1.0000 </r>
       <r>    2.9472    1.0000 </r>
       <r>    2.9472    1.0000 </r>
       <r>    2.9874    1.0000 </r>
       <r>    4.7112    1.0000 </r>
       <r>    5.3531    1.0000 </r>
       <r>    5.4214    1.0000 </r>
       <r>    5.9165    1.0000 </r>
       <r>    5.9165    1.0000 </r>
       <r>    5.9206    1.0000 </r>
       <r>    6.3776    1.0310 </r>
       <r>    6.7403    0.1943 </r>
       <r>    7.0256   -0.0137 </r>
       <r>    7.2536   -0.0001 </r>
       <r>    7.2536   -0.0001 </r>
       <r>    7.5220   -0.0000 </r>
       <r>    7.5220   -0.0000 </r>
       <r>    7.6260   -0.0000 </r>
       <r>   10.0131   -0.0000 </r>
       <r>   10.0131   -0.0000 </r>
       <r>   13.0914    0.0000 </r>
       <r>   17.3883    0.0000 </r>
       <r>   19.2405    0.0000 </r>
       <r>   21.1666    0.0000 </r>
       <r>   21.1666    0.0000 </r>
       <r>   21.8866    0.0000 </r>
       <r>   21.8866    0.0000 </r>
       <r>   22.9397    0.0000 </r>
       <r>   22.9397    0.0000 </r>
       <r>   24.8628    0.0000 </r>
       <r>   28.5652    0.0000 </r>
       <r>   29.7211    0.0000 </r>
       <r>   30.3169    0.0000 </r>
       <r>   31.5079    0.0000 </r>
       <r>   31.5079    0.0000 </r>
       <r>   34.3560    0.0000 </r>
       <r>   36.0689    0.0000 </r>
      </set>
      <set comment="kpoint 5">
       <r>    0.4916    1.0000 </r>
       <r>    1.9941    1.0000 </r>
       <r>    3.0427    1.0000 </r>
       <r>    3.0859    1.0000 </r>
       <r>    3.4545    1.0000 </r>
       <r>    3.5099    1.0000 </r>
       <r>    3.6604    1.0000 </r>
       <r>    4.1154    1.0000 </r>
       <r>    4.4671    1.0000 </r>
       <r>    4.7022    1.0000 </r>
       <r>    5.0902    1.0000 </r>
       <r>    5.3019    1.0000 </r>
       <r>    5.8389    1.0000 </r>
       <r>    6.1660    1.0013 </r>
       <r>    6.4593    1.0264 </r>
       <r>    6.6054    0.7283 </r>
       <r>    6.6630    0.4949 </r>
       <r>    6.7623    0.1284 </r>
       <r>    7.1520   -0.0014 </r>
       <r>    7.5314   -0.0000 </r>
       <r>    7.5423   -0.0000 </r>
       <r>    8.0143   -0.0000 </r>
       <r>   12.2665    0.0000 </r>
       <r>   14.5883    0.0000 </r>
       <r>   15.6303    0.0000 </r>
       <r>   18.7105    0.0000 </r>
       <r>   19.4770    0.0000 </r>
       <r>   20.3927    0.0000 </r>
       <r>   22.8155    0.0000 </r>
       <r>   23.7935    0.0000 </r>
       <r>   24.0239    0.0000 </r>
       <r>   24.2404    0.0000 </r>
       <r>   26.1412    0.0000 </r>
       <r>   26.6485    0.0000 </r>
       <r>   27.0170    0.0000 </r>
       <r>   32.2868    0.0000 </r>
       <r>   32.3566    0.0000 </r>
       <r>   33.4322    0.0000 </r>
       <r>   33.6228    0.0000 </r>
       <r>   36.3568    0.0000 </r>
      </set>
      <set comment="kpoint 6">
       <r>    1.6750    1.0000 </r>
       <r>    2.9013    1.0000 </r>
       <r>    2.9013    1.0000 </r>
       <r>    3.4041    1.0000 </r>
       <r>    3.7680    1.0000 </r>
       <r>    3.8736    1.0000 </r>
       <r>    3.8736    1.0000 </r>
       <r>    4.0783    1.0000 </r>
       <r>    4.3011    1.0000 </r>
       <r>    4.3011    1.0000 </r>
       <r>    4.4169    1.0000 </r>
       <r>    4.9489    1.0000 </r>
       <r>    5.8662    1.0000 </r>
       <r>    6.1150    1.0004 </r>
       <r>    6.1430    1.0008 </r>
       <r>    6.2043    1.0028 </r>
       <r>    6.2043    1.0028 </r>
       <r>    6.7282    0.2354 </r>
       <r>    6.7282    0.2354 </r>
       <r>    6.9540   -0.0294 </r>
       <r>    8.0961   -0.0000 </r>
       <r>    9.5797   -0.0000 </r>
       <r>    9.5797   -0.0000 </r>
       <r>   11.5978   -0.0000 </r>
       <r>   17.8324    0.0000 </r>
       <r>   20.3159    0.0000 </r>
       <r>   20.5841    0.0000 </r>
       <r>   20.5841    0.0000 </r>
       <r>   21.8135    0.0000 </r>
       <r>   21.8135    0.0000 </r>
       <r>   23.1356    0.0000 </r>
       <r>   23.8747    0.0000 </r>
       <r>   28.0866    0.0000 </r>
       <r>   28.0866    0.0000 </r>
       <r>   29.2914    0.0000 </r>
       <r>   30.9008    0.0000 </r>
       <r>   33.2904    0.0000 </r>
       <r>   34.9314    0.0000 </r>
       <r>   35.8967    0.0000 </r>
       <r>   35.8967    0.0000 </r>
      </set>
      <set comment="kpoint 7">
       <r>   -0.4507    1.0000 </r>
       <r>    2.5147    1.0000 </r>
       <r>    2.5147    1.0000 </r>
       <r>    2.5147    1.0000 </r>
       <r>    3.1715    1.0000 </r>
       <r>    3.1715    1.0000 </r>
       <r>    3.1715    1.0000 </r>
       <r>    4.6093    1.0000 </r>
       <r>    5.3676    1.0000 </r>
       <r>    5.3676    1.0000 </r>
       <r>    5.5043    1.0000 </r>
       <r>    5.5043    1.0000 </r>
       <r>    5.5043    1.0000 </r>
       <r>    6.6105    0.7094 </r>
       <r>    6.6105    0.7094 </r>
       <r>    6.6105    0.7094 </r>
       <r>    6.6216    0.6664 </r>
       <r>    6.6216    0.6664 </r>
       <r>    7.7223   -0.0000 </r>
       <r>    7.7223   -0.0000 </r>
       <r>    7.7223   -0.0000 </r>
       <r>   10.8388   -0.0000 </r>
       <r>   10.8388   -0.0000 </r>
       <r>   10.8388   -0.0000 </r>
       <r>   18.4565    0.0000 </r>
       <r>   18.4565    0.0000 </r>
       <r>   18.4565    0.0000 </r>
       <r>   21.8699    0.0000 </r>
       <r>   21.8699    0.0000 </r>
       <r>   21.8699    0.0000 </r>
       <r>   25.6551    0.0000 </r>
       <r>   25.6551    0.0000 </r>
       <r>   25.6551    0.0000 </r>
       <r>   25.6672    0.0000 </r>
       <r>   30.4393    0.0000 </r>
       <r>   30.4393    0.0000 </r>
       <r>   30.4393    0.0000 </r>
       <r>   31.0971    0.0000 </r>
       <r>   34.9106    0.0000 </r>
       <r>   34.9106    0.0000 </r>
      </set>
      <set comment="kpoint 8">
       <r>    0.8411    1.0000 </r>
       <r>    2.1917    1.0000 </r>
       <r>    3.1039    1.0000 </r>
       <r>    3.1039    1.0000 </r>
       <r>    3.5621    1.0000 </r>
       <r>    3.5621    1.0000 </r>
       <r>    3.7101    1.0000 </r>
       <r>    4.2917    1.0000 </r>
       <r>    4.7156    1.0000 </r>
       <r>    4.7156    1.0000 </r>
       <r>    4.9660    1.0000 </r>
       <r>    5.2540    1.0000 </r>
       <r>    5.5530    1.0000 </r>
       <r>    5.9704    1.0000 </r>
       <r>    6.1873    1.0020 </r>
       <r>    6.1873    1.0020 </r>
       <r>    6.7434    0.1845 </r>
       <r>    7.0861   -0.0053 </r>
       <r>    7.5466   -0.0000 </r>
       <r>    7.5466   -0.0000 </r>
       <r>    7.5486   -0.0000 </r>
       <r>    8.2075   -0.0000 </r>
       <r>   12.3422    0.0000 </r>
       <r>   12.3422    0.0000 </r>
       <r>   15.9146    0.0000 </r>
       <r>   15.9146    0.0000 </r>
       <r>   20.2987    0.0000 </r>
       <r>   22.6488    0.0000 </r>
       <r>   22.6488    0.0000 </r>
       <r>   22.7516    0.0000 </r>
       <r>   24.9050    0.0000 </r>
       <r>   24.9050    0.0000 </r>
       <r>   26.5875    0.0000 </r>
       <r>   27.8730    0.0000 </r>
       <r>   29.6550    0.0000 </r>
       <r>   31.1770    0.0000 </r>
       <r>   31.2601    0.0000 </r>
       <r>   33.4682    0.0000 </r>
       <r>   33.4682    0.0000 </r>
       <r>   34.8001    0.0000 </r>
      </set>
      <set comment="kpoint 9">
       <r>    1.6707    1.0000 </r>
       <r>    2.5426    1.0000 </r>
       <r>    2.5426    1.0000 </r>
       <r>    2.8191    1.0000 </r>
       <r>    4.0492    1.0000 </r>
       <r>    4.2703    1.0000 </r>
       <r>    4.2703    1.0000 </r>
       <r>    4.6223    1.0000 </r>
       <r>    4.7766    1.0000 </r>
       <r>    4.7766    1.0000 </r>
       <r>    4.9611    1.0000 </r>
       <r>    5.0504    1.0000 </r>
       <r>    5.3759    1.0000 </r>
       <r>    5.6536    1.0000 </r>
       <r>    5.6625    1.0000 </r>
       <r>    5.6625    1.0000 </r>
       <r>    6.7518    0.1585 </r>
       <r>    7.2963   -0.0000 </r>
       <r>    7.2963   -0.0000 </r>
       <r>    7.3299   -0.0000 </r>
       <r>    7.8342   -0.0000 </r>
       <r>    9.4351   -0.0000 </r>
       <r>    9.4351   -0.0000 </r>
       <r>   11.0665   -0.0000 </r>
       <r>   15.6109    0.0000 </r>
       <r>   17.5248    0.0000 </r>
       <r>   17.5248    0.0000 </r>
       <r>   19.7810    0.0000 </r>
       <r>   23.8493    0.0000 </r>
       <r>   25.6270    0.0000 </r>
       <r>   25.6270    0.0000 </r>
       <r>   27.6897    0.0000 </r>
       <r>   28.5543    0.0000 </r>
       <r>   28.5543    0.0000 </r>
       <r>   29.8068    0.0000 </r>
       <r>   30.8104    0.0000 </r>
       <r>   32.4345    0.0000 </r>
       <r>   33.7177    0.0000 </r>
       <r>   33.7177    0.0000 </r>
       <r>   35.3247    0.0000 </r>
      </set>
      <set comment="kpoint 10">
       <r>    1.7705    1.0000 </r>
       <r>    2.1635    1.0000 </r>
       <r>    2.1635    1.0000 </r>
       <r>    2.1635    1.0000 </r>
       <r>    4.6997    1.0000 </r>
       <r>    4.6997    1.0000 </r>
       <r>    4.6997    1.0000 </r>
       <r>    5.0616    1.0000 </r>
       <r>    5.0616    1.0000 </r>
       <r>    5.2104    1.0000 </r>
       <r>    5.2104    1.0000 </r>
       <r>    5.2104    1.0000 </r>
       <r>    5.7683    1.0000 </r>
       <r>    5.7683    1.0000 </r>
       <r>    5.7683    1.0000 </r>
       <r>    5.9119    1.0000 </r>
       <r>    7.3882   -0.0000 </r>
       <r>    7.3882   -0.0000 </r>
       <r>    7.6172   -0.0000 </r>
       <r>    7.6172   -0.0000 </r>
       <r>    7.6172   -0.0000 </r>
       <r>    8.9722   -0.0000 </r>
       <r>    8.9722   -0.0000 </r>
       <r>    8.9722   -0.0000 </r>
       <r>   15.4612    0.0000 </r>
       <r>   15.4612    0.0000 </r>
       <r>   15.4612    0.0000 </r>
       <r>   17.0376    0.0000 </r>
       <r>   27.8553    0.0000 </r>
       <r>   27.8553    0.0000 </r>
       <r>   27.8553    0.0000 </r>
       <r>   29.1227    0.0000 </r>
       <r>   31.4546    0.0000 </r>
       <r>   31.4546    0.0000 </r>
       <r>   31.4546    0.0000 </r>
       <r>   31.8758    0.0000 </r>
       <r>   31.8758    0.0000 </r>
       <r>   31.8758    0.0000 </r>
       <r>   34.0265    0.0000 </r>
       <r>   34.0265    0.0000 </r>
      </set>
     </set>
    </set>
   </array>
  </eigenvalues>
  <separator name="orbital magnetization" >
   <v name="MAGDIPOLOUT">      0.00000000      0.00000000      0.00000000</v>
  </separator>
  <dos>
   <i name="efermi">      6.66178333 </i>
   <total>
    <array>
     <dimension dim="1">gridpoints</dimension>
     <dimension dim="2">spin</dimension>
     <field>energy</field>
     <field>total</field>
     <field>integrated</field>
     <set>
      <set comment="spin 1">
       <r>    -4.0364     0.0000     0.0000 </r>
       <r>    -3.8951     0.0000     0.0000 </r>
       <r>    -3.7538    -0.0000    -0.0000 </r>
       <r>    -3.6125    -0.0000    -0.0000 </r>
       <r>    -3.4712    -0.0000    -0.0000 </r>
       <r>    -3.3299    -0.0000    -0.0000 </r>
       <r>    -3.1885    -0.0000    -0.0000 </r>
       <r>    -3.0472    -0.0000    -0.0000 </r>
       <r>    -2.9059    -0.0000    -0.0000 </r>
       <r>    -2.7646    -0.0000    -0.0000 </r>
       <r>    -2.6233    -0.0000    -0.0000 </r>
       <r>    -2.4820    -0.0004    -0.0001 </r>
       <r>    -2.3407    -0.0026    -0.0004 </r>
       <r>    -2.1994     0.0037     0.0001 </r>
       <r>    -2.0581     0.0455     0.0065 </r>
       <r>    -1.9168     0.0552     0.0143 </r>
       <r>    -1.7754    -0.0031     0.0139 </r>
       <r>    -1.6341     0.0239     0.0173 </r>
       <r>    -1.4928     0.2812     0.0570 </r>
       <r>    -1.3515     0.3319     0.1039 </r>
       <r>    -1.2102     0.0348     0.1088 </r>
       <r>    -1.0689     0.1136     0.1249 </r>
       <r>    -0.9276     0.6650     0.2188 </r>
       <r>    -0.7863     0.5623     0.2983 </r>
       <r>    -0.6450     0.0592     0.3067 </r>
       <r>    -0.5036     0.2440     0.3411 </r>
       <r>    -0.3623     0.4890     0.4103 </r>
       <r>    -0.2210     0.1612     0.4330 </r>
       <r>    -0.0797     0.0718     0.4432 </r>
       <r>     0.0616     0.3338     0.4903 </r>
       <r>     0.2029     0.1869     0.5167 </r>
       <r>     0.3442     0.1690     0.5406 </r>
       <r>     0.4855     1.1604     0.7046 </r>
       <r>     0.6268     1.2511     0.8814 </r>
       <r>     0.7682     0.8829     1.0062 </r>
       <r>     0.9095     1.4457     1.2105 </r>
       <r>     1.0508     0.6856     1.3073 </r>
       <r>     1.1921    -0.0489     1.3004 </r>
       <r>     1.3334    -0.1324     1.2817 </r>
       <r>     1.4747     0.0232     1.2850 </r>
       <r>     1.6160     1.5432     1.5031 </r>
       <r>     1.7573     2.9521     1.9202 </r>
       <r>     1.8986     2.0940     2.2161 </r>
       <r>     2.0399     2.3761     2.5519 </r>
       <r>     2.1813     4.6872     3.2142 </r>
       <r>     2.3226     4.5762     3.8609 </r>
       <r>     2.4639     3.7152     4.3859 </r>
       <r>     2.6052     4.8755     5.0749 </r>
       <r>     2.7465     3.7397     5.6033 </r>
       <r>     2.8878     5.2108     6.3397 </r>
       <r>     3.0291     8.1500     7.4914 </r>
       <r>     3.1704     8.1538     8.6436 </r>
       <r>     3.3117     3.7880     9.1789 </r>
       <r>     3.4531     3.9141     9.7320 </r>
       <r>     3.5944     7.6890    10.8185 </r>
       <r>     3.7357     6.6917    11.7641 </r>
       <r>     3.8770     3.5372    12.2640 </r>
       <r>     4.0183     2.9522    12.6812 </r>
       <r>     4.1596     5.1102    13.4033 </r>
       <r>     4.3009     7.2145    14.4228 </r>
       <r>     4.4422     5.7671    15.2377 </r>
       <r>     4.5835     4.7137    15.9038 </r>
       <r>     4.7249     9.9637    17.3118 </r>
       <r>     4.8662    10.7177    18.8263 </r>
       <r>     5.0075     7.5847    19.8981 </r>
       <r>     5.1488     7.0371    20.8925 </r>
       <r>     5.2901     7.4554    21.9461 </r>
       <r>     5.4314     8.0003    23.0766 </r>
       <r>     5.5727     6.8346    24.0424 </r>
       <r>     5.7140     7.5810    25.1137 </r>
       <r>     5.8553     8.4566    26.3087 </r>
       <r>     5.9966     7.5221    27.3716 </r>
       <r>     6.1380     7.1205    28.3778 </r>
       <r>     6.2793     7.0248    29.3705 </r>
       <r>     6.4206     4.0090    29.9370 </r>
       <r>     6.5619     6.3298    30.8315 </r>
       <r>     6.7032    12.0950    32.5407 </r>
       <r>     6.8445     9.9209    33.9426 </r>
       <r>     6.9858     3.6702    34.4612 </r>
       <r>     7.1271     3.8902    35.0110 </r>
       <r>     7.2684     7.3039    36.0431 </r>
       <r>     7.4098     9.2016    37.3434 </r>
       <r>     7.5511    12.2344    39.0722 </r>
       <r>     7.6924    11.0835    40.6384 </r>
       <r>     7.8337     5.2735    41.3836 </r>
       <r>     7.9750     3.9935    41.9480 </r>
       <r>     8.1163     3.5896    42.4552 </r>
       <r>     8.2576     2.7001    42.8367 </r>
       <r>     8.3989     1.0049    42.9788 </r>
       <r>     8.5402    -0.0685    42.9691 </r>
       <r>     8.6816    -0.1374    42.9496 </r>
       <r>     8.8229     0.1408    42.9695 </r>
       <r>     8.9642     1.1873    43.1373 </r>
       <r>     9.1055     1.2015    43.3071 </r>
       <r>     9.2468     0.1976    43.3350 </r>
       <r>     9.3881     1.6934    43.5743 </r>
       <r>     9.5294     3.8078    44.1124 </r>
       <r>     9.6707     2.4307    44.4559 </r>
       <r>     9.8120     0.3587    44.5066 </r>
       <r>     9.9533     0.7013    44.6057 </r>
       <r>    10.0947     1.6555    44.8396 </r>
       <r>    10.2360     0.7170    44.9409 </r>
       <r>    10.3773    -0.0533    44.9334 </r>
       <r>    10.5186    -0.0980    44.9196 </r>
       <r>    10.6599     0.0121    44.9213 </r>
       <r>    10.8012     0.8901    45.0470 </r>
       <r>    10.9425     1.7431    45.2934 </r>
       <r>    11.0838     1.7844    45.5455 </r>
       <r>    11.2251     1.0435    45.6930 </r>
       <r>    11.3665     0.0499    45.7000 </r>
       <r>    11.5078     0.1809    45.7256 </r>
       <r>    11.6491     0.7070    45.8255 </r>
       <r>    11.7904     0.6758    45.9210 </r>
       <r>    11.9317     0.6633    46.0147 </r>
       <r>    12.0730     0.2517    46.0503 </r>
       <r>    12.2143     1.3613    46.2427 </r>
       <r>    12.3556     4.1569    46.8301 </r>
       <r>    12.4969     2.8459    47.2322 </r>
       <r>    12.6383     0.1824    47.2580 </r>
       <r>    12.7796    -0.1930    47.2307 </r>
       <r>    12.9209     0.0068    47.2317 </r>
       <r>    13.0622     0.5157    47.3046 </r>
       <r>    13.2035     0.7114    47.4051 </r>
       <r>    13.3448     0.1815    47.4308 </r>
       <r>    13.4861    -0.0360    47.4257 </r>
       <r>    13.6274    -0.0111    47.4241 </r>
       <r>    13.7687    -0.0007    47.4240 </r>
       <r>    13.9100    -0.0000    47.4240 </r>
       <r>    14.0514    -0.0013    47.4238 </r>
       <r>    14.1927    -0.0223    47.4207 </r>
       <r>    14.3340    -0.0797    47.4094 </r>
       <r>    14.4753     0.3212    47.4548 </r>
       <r>    14.6166     1.5259    47.6704 </r>
       <r>    14.7579     1.6850    47.9085 </r>
       <r>    14.8992     0.6748    48.0039 </r>
       <r>    15.0405     0.0062    48.0047 </r>
       <r>    15.1818    -0.1356    47.9856 </r>
       <r>    15.3232     0.0670    47.9950 </r>
       <r>    15.4645     1.5009    48.2071 </r>
       <r>    15.6058     3.4031    48.6880 </r>
       <r>    15.7471     3.0069    49.1129 </r>
       <r>    15.8884     2.5926    49.4793 </r>
       <r>    16.0297     2.6609    49.8553 </r>
       <r>    16.1710     0.6500    49.9471 </r>
       <r>    16.3123    -0.1470    49.9264 </r>
       <r>    16.4536    -0.0427    49.9203 </r>
       <r>    16.5950    -0.0058    49.9195 </r>
       <r>    16.7363    -0.0214    49.9165 </r>
       <r>    16.8776     0.0324    49.9211 </r>
       <r>    17.0189     0.3510    49.9707 </r>
       <r>    17.1602     0.3596    50.0215 </r>
       <r>    17.3015     0.2651    50.0590 </r>
       <r>    17.4428     1.8913    50.3262 </r>
       <r>    17.5841     3.3693    50.8023 </r>
       <r>    17.7254     1.7306    51.0469 </r>
       <r>    17.8667     1.0038    51.1887 </r>
       <r>    18.0081     1.1533    51.3517 </r>
       <r>    18.1494     0.2869    51.3922 </r>
       <r>    18.2907    -0.0031    51.3918 </r>
       <r>    18.4320     0.8967    51.5185 </r>
       <r>    18.5733     1.8644    51.7820 </r>
       <r>    18.7146     3.0731    52.2162 </r>
       <r>    18.8559     2.4970    52.5691 </r>
       <r>    18.9972     0.2843    52.6093 </r>
       <r>    19.1385     0.0237    52.6126 </r>
       <r>    19.2799     0.6889    52.7100 </r>
       <r>    19.4212     1.2445    52.8858 </r>
       <r>    19.5625     1.4716    53.0938 </r>
       <r>    19.7038     1.1611    53.2579 </r>
       <r>    19.8451     1.4429    53.4618 </r>
       <r>    19.9864     0.6007    53.5466 </r>
       <r>    20.1277    -0.0484    53.5398 </r>
       <r>    20.2690     1.6524    53.7733 </r>
       <r>    20.4103     3.5445    54.2742 </r>
       <r>    20.5517     2.8376    54.6752 </r>
       <r>    20.6930     2.0538    54.9654 </r>
       <r>    20.8343     0.8164    55.0808 </r>
       <r>    20.9756     0.0941    55.0941 </r>
       <r>    21.1169     1.6131    55.3220 </r>
       <r>    21.2582     2.4966    55.6748 </r>
       <r>    21.3995     0.7356    55.7787 </r>
       <r>    21.5408    -0.2819    55.7389 </r>
       <r>    21.6821     0.1477    55.7598 </r>
       <r>    21.8234     2.9897    56.1823 </r>
       <r>    21.9648     4.7200    56.8493 </r>
       <r>    22.1061     1.9451    57.1241 </r>
       <r>    22.2474    -0.0594    57.1157 </r>
       <r>    22.3887    -0.3073    57.0723 </r>
       <r>    22.5300     0.4828    57.1405 </r>
       <r>    22.6713     3.4765    57.6318 </r>
       <r>    22.8126     5.1454    58.3589 </r>
       <r>    22.9539     3.6514    58.8749 </r>
       <r>    23.0952     2.0263    59.1612 </r>
       <r>    23.2366     0.9879    59.3008 </r>
       <r>    23.3779     0.1327    59.3196 </r>
       <r>    23.5192    -0.2080    59.2902 </r>
       <r>    23.6605     0.1450    59.3107 </r>
       <r>    23.8018     2.4457    59.6563 </r>
       <r>    23.9431     4.3605    60.2725 </r>
       <r>    24.0844     3.3795    60.7500 </r>
       <r>    24.2257     2.0655    61.0419 </r>
       <r>    24.3670     1.2345    61.2163 </r>
       <r>    24.5084     0.1415    61.2363 </r>
       <r>    24.6497    -0.2441    61.2018 </r>
       <r>    24.7910     1.0186    61.3458 </r>
       <r>    24.9323     3.5862    61.8525 </r>
       <r>    25.0736     2.4417    62.1976 </r>
       <r>    25.2149     0.0709    62.2076 </r>
       <r>    25.3562    -0.3755    62.1545 </r>
       <r>    25.4975     0.6022    62.2396 </r>
       <r>    25.6388     4.2130    62.8350 </r>
       <r>    25.7802     4.4756    63.4674 </r>
       <r>    25.9215     0.8945    63.5938 </r>
       <r>    26.0628     0.4020    63.6506 </r>
       <r>    26.2041     1.3781    63.8454 </r>
       <r>    26.3454     0.7869    63.9566 </r>
       <r>    26.4867     1.2167    64.1285 </r>
       <r>    26.6280     3.0276    64.5563 </r>
       <r>    26.7693     2.2783    64.8783 </r>
       <r>    26.9106     0.7045    64.9778 </r>
       <r>    27.0519     1.3157    65.1638 </r>
       <r>    27.1933     0.9556    65.2988 </r>
       <r>    27.3346    -0.0006    65.2987 </r>
       <r>    27.4759    -0.1485    65.2777 </r>
       <r>    27.6172     0.5146    65.3505 </r>
       <r>    27.7585     2.2860    65.6735 </r>
       <r>    27.8998     3.6012    66.1824 </r>
       <r>    28.0411     2.8119    66.5797 </r>
       <r>    28.1824     1.4513    66.7848 </r>
       <r>    28.3237     0.2086    66.8143 </r>
       <r>    28.4651     1.2053    66.9846 </r>
       <r>    28.6064     3.6932    67.5065 </r>
       <r>    28.7477     2.1132    67.8051 </r>
       <r>    28.8890     0.0849    67.8171 </r>
       <r>    29.0303     0.5176    67.8903 </r>
       <r>    29.1716     1.3279    68.0779 </r>
       <r>    29.3129     1.3213    68.2646 </r>
       <r>    29.4542     0.7069    68.3645 </r>
       <r>    29.5955     1.1935    68.5332 </r>
       <r>    29.7369     3.3670    69.0090 </r>
       <r>    29.8782     3.9597    69.5685 </r>
       <r>    30.0195     1.5979    69.7943 </r>
       <r>    30.1608     0.0686    69.8040 </r>
       <r>    30.3021     0.7481    69.9097 </r>
       <r>    30.4434     1.9205    70.1811 </r>
       <r>    30.5847     1.2725    70.3610 </r>
       <r>    30.7260     0.7019    70.4601 </r>
       <r>    30.8673     1.8168    70.7169 </r>
       <r>    31.0086     1.6352    70.9479 </r>
       <r>    31.1500     2.1031    71.2451 </r>
       <r>    31.2913     3.7101    71.7694 </r>
       <r>    31.4326     3.6987    72.2921 </r>
       <r>    31.5739     2.9011    72.7020 </r>
       <r>    31.7152     1.0189    72.8460 </r>
       <r>    31.8565     0.9761    72.9840 </r>
       <r>    31.9978     1.1958    73.1529 </r>
       <r>    32.1391     0.3361    73.2004 </r>
       <r>    32.2804     1.9004    73.4690 </r>
       <r>    32.4218     3.9588    74.0284 </r>
       <r>    32.5631     2.2870    74.3516 </r>
       <r>    32.7044     0.1555    74.3735 </r>
       <r>    32.8457    -0.1411    74.3536 </r>
       <r>    32.9870    -0.0907    74.3408 </r>
       <r>    33.1283    -0.0328    74.3361 </r>
       <r>    33.2696     0.8679    74.4588 </r>
       <r>    33.4109     3.6162    74.9698 </r>
       <r>    33.5522     6.1869    75.8441 </r>
       <r>    33.6936     5.7982    76.6634 </r>
       <r>    33.8349     3.4031    77.1443 </r>
       <r>    33.9762     1.0472    77.2923 </r>
       <r>    34.1175     0.7633    77.4001 </r>
       <r>    34.2588     0.5335    77.4755 </r>
       <r>    34.4001     0.6716    77.5704 </r>
       <r>    34.5414     0.3177    77.6153 </r>
       <r>    34.6827     0.2497    77.6506 </r>
       <r>    34.8240     2.1041    77.9480 </r>
       <r>    34.9653     3.1401    78.3917 </r>
       <r>    35.1067     1.2465    78.5678 </r>
       <r>    35.2480     0.5761    78.6492 </r>
       <r>    35.3893     1.4344    78.8519 </r>
       <r>    35.5306     0.6893    78.9493 </r>
       <r>    35.6719    -0.1095    78.9339 </r>
       <r>    35.8132     0.5031    79.0050 </r>
       <r>    35.9545     1.8918    79.2723 </r>
       <r>    36.0958     1.7912    79.5254 </r>
       <r>    36.2371     0.9346    79.6575 </r>
       <r>    36.3785     1.3590    79.8495 </r>
       <r>    36.5198     1.0529    79.9983 </r>
       <r>    36.6611     0.0847    80.0103 </r>
       <r>    36.8024    -0.0630    80.0014 </r>
       <r>    36.9437    -0.0094    80.0001 </r>
       <r>    37.0850    -0.0004    80.0000 </r>
       <r>    37.2263    -0.0000    80.0000 </r>
       <r>    37.3676    -0.0000    80.0000 </r>
       <r>    37.5089    -0.0000    80.0000 </r>
       <r>    37.6503    -0.0000    80.0000 </r>
       <r>    37.7916     0.0000    80.0000 </r>
       <r>    37.9329     0.0000    80.0000 </r>
       <r>    38.0742     0.0000    80.0000 </r>
       <r>    38.2155     0.0000    80.0000 </r>
       <r>    38.3568     0.0000    80.0000 </r>
      </set>
     </set>
    </array>
   </total>
  </dos>
 </calculation>
 <structure name="finalpos" >
  <crystal>
   <varray name="basis" >
    <v>       3.44508300       0.00000000       0.00000000 </v>
    <v>       0.00000000       3.44508300       0.00000000 </v>
    <v>       0.00000000       0.00000000       3.44508300 </v>
   </varray>
   <i name="volume">     40.88830133 </i>
   <varray name="rec_basis" >
    <v>       0.29026877       0.00000000       0.00000000 </v>
    <v>       0.00000000       0.29026877       0.00000000 </v>
    <v>       0.00000000       0.00000000       0.29026877 </v>
   </varray>
  </crystal>
  <varray name="positions" >
   <v>       0.00000000       0.00000000       0.00000000 </v>
   <v>       0.50000000       0.50000000       0.00000000 </v>
   <v>       0.50000000       0.00000000       0.50000000 </v>
   <v>       0.00000000       0.50000000       0.50000000 </v>
  </varray>
 </structure>
</modeling>
