unknown system                          
   1.00000000000000     
     2.423200    0.000000    0.000000
    -1.211600    2.098553    0.000000
     0.000000    0.000000    4.093440
   Fe
     2
Direct
  0.000000  0.000000  0.000000
  0.333333  0.666667  0.500000
 
   20   20   36
 0.17479041978E+03 0.16492122679E+03 0.13856067992E+03 0.10364746796E+03 0.68918244978E+02
 0.40756961429E+02 0.22078364412E+02 0.12546789923E+02 0.92688941742E+01 0.82405516210E+01
 0.79000953018E+01 0.82415058752E+01 0.92696194190E+01 0.12546410859E+02 0.22077369333E+02
 0.40756514829E+02 0.68918741174E+02 0.10364820344E+03 0.13856091483E+03 0.16492107555E+03
 0.16493205017E+03 0.16492037476E+03 0.14685184775E+03 0.11644905596E+03 0.82141996719E+02
 0.51450448987E+02 0.28912657093E+02 0.15722817687E+02 0.10167609483E+02 0.85494664068E+01
 0.78813340928E+01 0.78801104380E+01 0.85481000376E+01 0.10168907366E+02 0.15724624014E+02
 0.28910963156E+02 0.51447915517E+02 0.82148474385E+02 0.11646986654E+03 0.14687738227E+03
 0.13857723915E+03 0.14682733767E+03 0.13856077876E+03 0.11644988166E+03 0.87072693833E+02
 0.57810247440E+02 0.34209442736E+02 0.18847565376E+02 0.11316835678E+02 0.88304597160E+01
 0.78950602842E+01 0.75810232167E+01 0.78921161652E+01 0.88294939942E+01 0.11319262779E+02
 0.18847934628E+02 0.34203762083E+02 0.57804605401E+02 0.87078102391E+02 0.11646760521E+03
 0.10364120491E+03 0.11636431551E+03 0.11636700901E+03 0.10364906053E+03 0.82141937048E+02
 0.57809580859E+02 0.36204533623E+02 0.20787878234E+02 0.12322284101E+02 0.90847232667E+01
 0.79330417536E+01 0.73700274109E+01 0.73692698478E+01 0.79320976203E+01 0.90855167903E+01
 0.12323947249E+02 0.20786718756E+02 0.36197751919E+02 0.57798367992E+02 0.82130501227E+02
 0.68896300655E+02 0.82016612557E+02 0.86909401426E+02 0.82034635393E+02 0.68918489971E+02
 0.51449112213E+02 0.34209484980E+02 0.20788319131E+02 0.12723341247E+02 0.92597558559E+01
 0.79740109869E+01 0.72467056994E+01 0.70157221002E+01 0.72476917971E+01 0.79745051909E+01
 0.92602885761E+01 0.12726596286E+02 0.20793717293E+02 0.34209878279E+02 0.51436940897E+02
 0.40754706166E+02 0.51365395560E+02 0.57657108938E+02 0.57663187781E+02 0.51376015365E+02
 0.40756203458E+02 0.28912456711E+02 0.18848526909E+02 0.12322219037E+02 0.92595328557E+01
 0.79918062023E+01 0.71932843595E+01 0.68200724789E+01 0.68212239279E+01 0.71942114243E+01
 0.79898170611E+01 0.92584799135E+01 0.12329137124E+02 0.18862979237E+02 0.28923746438E+02
 0.22093693656E+02 0.28918053158E+02 0.34167734815E+02 0.36135259738E+02 0.34161596355E+02
 0.28905498412E+02 0.22077883106E+02 0.15723548022E+02 0.11316961172E+02 0.90841394679E+01
 0.79741614545E+01 0.71933622931E+01 0.67582718106E+01 0.66257722976E+01 0.67598698829E+01
 0.71922037897E+01 0.79683889956E+01 0.90787172250E+01 0.11319262779E+02 0.15735399662E+02
 0.12545149565E+02 0.15780664855E+02 0.18922924784E+02 0.20851969353E+02 0.20844893526E+02
 0.18907794642E+02 0.15770040036E+02 0.12546806879E+02 0.10167994079E+02 0.88297983700E+01
 0.79330283034E+01 0.72470128146E+01 0.68197641289E+01 0.66257288467E+01 0.66268346194E+01
 0.68217712966E+01 0.72464305032E+01 0.79263603769E+01 0.88175193411E+01 0.10156671452E+02
 0.92511858370E+01 0.10222892204E+02 0.11435382882E+02 0.12474112744E+02 0.12880899568E+02
 0.12469008530E+02 0.11435237674E+02 0.10234651342E+02 0.92692011506E+01 0.85491482566E+01
 0.78947280345E+01 0.73705720991E+01 0.70155774970E+01 0.68210254228E+01 0.67603810696E+01
 0.68218811416E+01 0.70197290365E+01 0.73762683851E+01 0.78942254242E+01 0.85371254177E+01
 0.82405270572E+01 0.86068038662E+01 0.89489727103E+01 0.92573288819E+01 0.94638530459E+01
 0.94659099854E+01 0.92645394625E+01 0.89609272537E+01 0.86171918362E+01 0.82408357509E+01
 0.78809669976E+01 0.75814827873E+01 0.73695932811E+01 0.72472952906E+01 0.71945400831E+01
 0.71924545148E+01 0.72457268814E+01 0.73760471303E+01 0.75952379816E+01 0.78920638758E+01
 0.79164196248E+01 0.79624127417E+01 0.80314247072E+01 0.81185420150E+01 0.81983528067E+01
 0.82337083884E+01 0.82042983302E+01 0.81243213935E+01 0.80297497693E+01 0.79509214676E+01
 0.79000911259E+01 0.78800491856E+01 0.78926187755E+01 0.79317060036E+01 0.79741614545E+01
 0.79900585456E+01 0.79678947916E+01 0.79259822104E+01 0.78950602842E+01 0.78923697186E+01
 0.82396532323E+01 0.79621033115E+01 0.77349560783E+01 0.75781485161E+01 0.74950247404E+01
 0.74669226888E+01 0.74686366811E+01 0.74957695928E+01 0.75710855883E+01 0.77213501598E+01
 0.79518808621E+01 0.82409161802E+01 0.85482498679E+01 0.88294354647E+01 0.90848388845E+01
 0.92604431297E+01 0.92588574672E+01 0.90786231180E+01 0.88181221577E+01 0.85375933983E+01
 0.92505512119E+01 0.86063664822E+01 0.80322335332E+01 0.75783616484E+01 0.72756066055E+01
 0.71142748589E+01 0.70660482186E+01 0.71139685189E+01 0.72716620164E+01 0.75719839770E+01
 0.80317684086E+01 0.86181706541E+01 0.92692917703E+01 0.10169255373E+02 0.11318979811E+02
 0.12324027700E+02 0.12727438803E+02 0.12329282638E+02 0.11318854317E+02 0.10156634863E+02
 0.12545569154E+02 0.10223030359E+02 0.89495552492E+01 0.81188019283E+01 0.74943695860E+01
 0.71142344426E+01 0.69445606789E+01 0.69436637204E+01 0.71127477497E+01 0.74954472122E+01
 0.81254811568E+01 0.89611692049E+01 0.10233430573E+02 0.12546847404E+02 0.15724967763E+02
 0.18847939015E+02 0.20787098362E+02 0.20793656002E+02 0.18862022092E+02 0.15735013076E+02
 0.22094688735E+02 0.15781139789E+02 0.11434980956E+02 0.92571296307E+01 0.81978961753E+01
 0.74669474515E+01 0.70665066077E+01 0.69435184082E+01 0.70640295793E+01 0.74675597940E+01
 0.82042983302E+01 0.92637391430E+01 0.11433128415E+02 0.15768600244E+02 0.22077883106E+02
 0.28910826546E+02 0.34203368785E+02 0.36197356587E+02 0.34209442736E+02 0.28923810212E+02
 0.40755161737E+02 0.28917928808E+02 0.18921985252E+02 0.12473741602E+02 0.94642151091E+01
 0.82339224785E+01 0.74689256421E+01 0.71136555197E+01 0.71124751668E+01 0.74678239923E+01
 0.82355690864E+01 0.94650891112E+01 0.12467208838E+02 0.18908333041E+02 0.28907099132E+02
 0.40756212428E+02 0.51447312521E+02 0.57804382013E+02 0.57798811185E+02 0.51437674676E+02
 0.68895840426E+02 0.51364463091E+02 0.34167301261E+02 0.20852223100E+02 0.12881699334E+02
 0.94660148012E+01 0.82039764047E+01 0.74955903552E+01 0.72715450154E+01 0.74959231291E+01
 0.82044330361E+01 0.94648318639E+01 0.12876928598E+02 0.20846154820E+02 0.34167676584E+02
 0.51377824028E+02 0.68918525937E+02 0.82148935586E+02 0.87078774063E+02 0.82131022100E+02
 0.10364050159E+03 0.82015956555E+02 0.57657541567E+02 0.36136209119E+02 0.20845256730E+02
 0.12468574924E+02 0.92639175024E+01 0.81245475292E+01 0.75713952783E+01 0.75720805346E+01
 0.81254473793E+01 0.92633164341E+01 0.12467146374E+02 0.20846264277E+02 0.36142425081E+02
 0.57668345488E+02 0.82027669022E+02 0.10364909269E+03 0.11647008398E+03 0.11646699695E+03
 0.13857700425E+03 0.11636502534E+03 0.86910079820E+02 0.57663770611E+02 0.34161221031E+02
 0.18906990145E+02 0.11434980956E+02 0.89615298947E+01 0.80302148939E+01 0.77208622749E+01
 0.80314247072E+01 0.89611893070E+01 0.11433273623E+02 0.18908468076E+02 0.34167734815E+02
 0.57668495691E+02 0.86903285230E+02 0.11634681506E+03 0.13856077876E+03 0.14687601778E+03
 0.16493218470E+03 0.14682895623E+03 0.11636726284E+03 0.82033880837E+02 0.51375421003E+02
 0.28905171204E+02 0.15770360376E+02 0.10235209040E+02 0.86173243942E+01 0.79502470108E+01
 0.79515158356E+01 0.86187405961E+01 0.10233850116E+02 0.15768445649E+02 0.28906896274E+02
 0.51378162135E+02 0.82027570469E+02 0.11634635906E+03 0.14680314381E+03 0.16492035806E+03
 0.16598562600E+03 0.15662706655E+03 0.13160962721E+03 0.98434839779E+02 0.65413635541E+02
 0.38675746603E+02 0.21037226627E+02 0.12140634338E+02 0.91237565451E+01 0.81290498213E+01
 0.77979841651E+01 0.81299715927E+01 0.91244561722E+01 0.12140265921E+02 0.21036262895E+02
 0.38675313952E+02 0.65414115254E+02 0.98435551281E+02 0.13160985472E+03 0.15662692052E+03
 0.15663708585E+03 0.15662624015E+03 0.13947912913E+03 0.11059706453E+03 0.77976005290E+02
 0.48805416297E+02 0.27459453894E+02 0.15075113434E+02 0.99386363778E+01 0.84224192321E+01
 0.77723015904E+01 0.77711282172E+01 0.84211069202E+01 0.99399038405E+01 0.15076961773E+02
 0.27458038456E+02 0.48803099834E+02 0.77981954722E+02 0.11061632132E+03 0.13950282308E+03
 0.13162498149E+03 0.13946055684E+03 0.13160972147E+03 0.11059786472E+03 0.82660853376E+02
 0.54837318612E+02 0.32453285835E+02 0.17981713080E+02 0.10980253959E+02 0.86889965876E+01
 0.77796622472E+01 0.74755104460E+01 0.77768298903E+01 0.86880402096E+01 0.10982589533E+02
 0.17982220116E+02 0.32448108518E+02 0.54832041401E+02 0.82665768184E+02 0.11061424412E+03
 0.98429098329E+02 0.11052978252E+03 0.11053227929E+03 0.98436383097E+02 0.77975949339E+02
 0.54836673152E+02 0.34336986236E+02 0.19793243103E+02 0.11897323539E+02 0.89187133482E+01
 0.78121261837E+01 0.72674119399E+01 0.72666916462E+01 0.78112023879E+01 0.89193832457E+01
 0.11898797195E+02 0.19792108936E+02 0.34330655387E+02 0.54826251828E+02 0.77965336441E+02
 0.65393390378E+02 0.77878871675E+02 0.82535609710E+02 0.77895540994E+02 0.65413874751E+02
 0.48804121945E+02 0.32453325102E+02 0.19793669852E+02 0.12264442269E+02 0.90742320036E+01
 0.78491137804E+01 0.71457297596E+01 0.69232583118E+01 0.71467080911E+01 0.78495908517E+01
 0.90746204701E+01 0.12267285282E+02 0.19798561889E+02 0.32453706624E+02 0.48792934505E+02
 0.38673700186E+02 0.48751516357E+02 0.54735080727E+02 0.54740717424E+02 0.48761339275E+02
 0.38675012799E+02 0.27459258554E+02 0.17982644024E+02 0.11897262668E+02 0.90740165732E+01
 0.78654212899E+01 0.70929030877E+01 0.67337167537E+01 0.67348434362E+01 0.70938758900E+01
 0.78636308228E+01 0.90730067045E+01 0.11903636382E+02 0.17996076407E+02 0.27469817551E+02
 0.21051389665E+02 0.27491509390E+02 0.32462222045E+02 0.34328016587E+02 0.32456600772E+02
 0.27479950434E+02 0.21036760918E+02 0.15075821122E+02 0.10980377163E+02 0.89181485053E+01
 0.78492567975E+01 0.70929774918E+01 0.66739203731E+01 0.65466031528E+01 0.66754514841E+01
 0.70919817678E+01 0.78439927460E+01 0.89132106498E+01 0.10982589533E+02 0.15086846745E+02
 0.12139033343E+02 0.15154373525E+02 0.18099902962E+02 0.19914247948E+02 0.19907718491E+02
 0.18085961324E+02 0.15144634886E+02 0.12140651564E+02 0.99390081087E+01 0.86883550520E+01
 0.78121106095E+01 0.71460256757E+01 0.67334203049E+01 0.65465621930E+01 0.65475553734E+01
 0.67352246246E+01 0.71454755139E+01 0.78059820126E+01 0.86770302612E+01 0.99285059346E+01
 0.91073044466E+01 0.10012526510E+02 0.11134378269E+02 0.12097920003E+02 0.12476033745E+02
 0.12093162856E+02 0.11134237150E+02 0.10023463279E+02 0.91240517261E+01 0.84221088639E+01
 0.77793405659E+01 0.72679402759E+01 0.69231206499E+01 0.67346528821E+01 0.66759453287E+01
 0.67353305193E+01 0.69268314619E+01 0.72731445986E+01 0.77788548460E+01 0.84109415915E+01
 0.81290369063E+01 0.84958559574E+01 0.88383528998E+01 0.91335253653E+01 0.93267679918E+01
 0.93286232901E+01 0.91400974436E+01 0.88493426088E+01 0.85054513389E+01 0.81293238099E+01
 0.77719483520E+01 0.74759587431E+01 0.72670055895E+01 0.71463235664E+01 0.70941925348E+01
 0.70922240085E+01 0.71447950732E+01 0.72729302060E+01 0.74886876580E+01 0.77822282324E+01
 0.78131109351E+01 0.78665424990E+01 0.79426345982E+01 0.80348644576E+01 0.81171926128E+01
 0.81530074646E+01 0.81226276377E+01 0.80401266875E+01 0.79410285724E+01 0.78558885601E+01
 0.77979822464E+01 0.77710715565E+01 0.77773156103E+01 0.78108201413E+01 0.78492567975E+01
 0.78638654152E+01 0.78435156747E+01 0.78056153403E+01 0.77796622472E+01 0.77825248100E+01
 0.81281915022E+01 0.78662421430E+01 0.76537552157E+01 0.75087301574E+01 0.74331756466E+01
 0.74084070917E+01 0.74100170194E+01 0.74339085222E+01 0.75022151520E+01 0.76411671801E+01
 0.78568047702E+01 0.81294001772E+01 0.84212505448E+01 0.86879807940E+01 0.89187264679E+01
 0.90747720197E+01 0.90733736844E+01 0.89131187149E+01 0.86776123812E+01 0.84113955843E+01
 0.91066910499E+01 0.84954310693E+01 0.79434171822E+01 0.75089375437E+01 0.72202143840E+01
 0.70668736663E+01 0.70211821623E+01 0.70667243729E+01 0.72167007655E+01 0.75030734711E+01
 0.79429672976E+01 0.85063860254E+01 0.91241379565E+01 0.99402406859E+01 0.10982315888E+02
 0.11898876433E+02 0.12268101650E+02 0.11903776492E+02 0.10982192684E+02 0.99284710491E+01
 0.12139440556E+02 0.10012659649E+02 0.88389162932E+01 0.80351181273E+01 0.74325424586E+01
 0.70668338160E+01 0.69038972175E+01 0.69031043379E+01 0.70655305912E+01 0.74335730597E+01
 0.80412625783E+01 0.88496017041E+01 0.10022269497E+02 0.12140690360E+02 0.15077295260E+02
 0.17982224040E+02 0.19792476071E+02 0.19798502273E+02 0.17995149388E+02 0.15086472544E+02
 0.21052353397E+02 0.15154833674E+02 0.11133988757E+02 0.91333335640E+01 0.81167514630E+01
 0.74084294859E+01 0.70216243999E+01 0.69029636323E+01 0.70192434371E+01 0.74088985038E+01
 0.81226276377E+01 0.91394229537E+01 0.11132212195E+02 0.15143142113E+02 0.21036760918E+02
 0.27457904985E+02 0.32447726996E+02 0.34330273087E+02 0.32453285835E+02 0.27469879419E+02
 0.38674140695E+02 0.27491389185E+02 0.18098993183E+02 0.12097560327E+02 0.93271184056E+01
 0.81532134304E+01 0.74102955901E+01 0.70664216900E+01 0.70652677586E+01 0.74091546802E+01
 0.81546712632E+01 0.93279520688E+01 0.12091556948E+02 0.18086334655E+02 0.27481275986E+02
 0.38675020657E+02 0.48802516037E+02 0.54831826107E+02 0.54826681994E+02 0.48793645061E+02
 0.65392943788E+02 0.48750613212E+02 0.32461802361E+02 0.19914492953E+02 0.12476807382E+02
 0.93287243134E+01 0.81223164465E+01 0.74337362403E+01 0.72165881256E+01 0.74340339657E+01
 0.81227575963E+01 0.93277026782E+01 0.12472493717E+02 0.19908951068E+02 0.32462165756E+02
 0.48762953041E+02 0.65413907873E+02 0.77982402291E+02 0.82666418359E+02 0.77965839961E+02
 0.98428416684E+02 0.77878236877E+02 0.54735500157E+02 0.34328935748E+02 0.19908069858E+02
 0.12092743140E+02 0.91394964625E+01 0.80403474407E+01 0.75025144486E+01 0.75031653815E+01
 0.80412296617E+01 0.91390137739E+01 0.12091496908E+02 0.19909057431E+02 0.34334720039E+02
 0.54745526753E+02 0.77889117899E+02 0.98436412954E+02 0.11061653034E+03 0.11061365296E+03
 0.13162475398E+03 0.11053047192E+03 0.82536267906E+02 0.54741281857E+02 0.32456237378E+02
 0.18085182481E+02 0.11133988757E+02 0.88499273063E+01 0.79414784570E+01 0.76406921018E+01
 0.79426345982E+01 0.88496230081E+01 0.11132353314E+02 0.18086465590E+02 0.32462222045E+02
 0.54745671757E+02 0.82530011605E+02 0.11051362154E+03 0.13160972147E+03 0.13950149925E+03
 0.15663721631E+03 0.13946212697E+03 0.11053252696E+03 0.77894809729E+02 0.48760762969E+02
 0.27479633520E+02 0.15144944114E+02 0.10024003187E+02 0.85055808258E+01 0.78552340674E+01
 0.78564506334E+01 0.85069404003E+01 0.10022676267E+02 0.15142991191E+02 0.27481079277E+02
 0.48763279880E+02 0.77889021431E+02 0.11051317981E+03 0.13943816455E+03 0.15662622458E+03
 0.14219626786E+03 0.13419905133E+03 0.11277597101E+03 0.84287614339E+02 0.55913821545E+02
 0.33076926379E+02 0.18285512506E+02 0.11096797573E+02 0.87381179894E+01 0.78247399623E+01
 0.75211640874E+01 0.78255695977E+01 0.87387445038E+01 0.11096458658E+02 0.18284637893E+02
 0.33076535236E+02 0.55914257350E+02 0.84288259646E+02 0.11277617747E+03 0.13419891923E+03
 0.13420694512E+03 0.13419829820E+03 0.11951437327E+03 0.94720647669E+02 0.66670891574E+02
 0.41659251844E+02 0.23582271798E+02 0.13387037405E+02 0.93496516280E+01 0.80717448556E+01
 0.74745932830E+01 0.74735609604E+01 0.80705841840E+01 0.93508226194E+01 0.13388956475E+02
 0.23581556673E+02 0.41657500465E+02 0.66675455426E+02 0.94735803264E+02 0.11953319541E+03
 0.11278813642E+03 0.11951249609E+03 0.11277605252E+03 0.94721375191E+02 0.70686113243E+02
 0.46791794158E+02 0.27745580058E+02 0.15704456820E+02 0.10114709778E+02 0.82995428706E+01
 0.74622855740E+01 0.71864800255E+01 0.74597707911E+01 0.82986243584E+01 0.10116785179E+02
 0.15705292868E+02 0.27741713870E+02 0.46787489758E+02 0.70689740816E+02 0.94734208305E+02
 0.84283241529E+02 0.94701780385E+02 0.94703757642E+02 0.84289017474E+02 0.66670846140E+02
 0.46791208652E+02 0.29323508092E+02 0.17166122419E+02 0.10799722741E+02 0.84763751461E+01
 0.74773821658E+01 0.69848431994E+01 0.69842266107E+01 0.74765255117E+01 0.84767350622E+01
 0.10800711845E+02 0.17165069354E+02 0.29318380309E+02 0.46782887025E+02 0.66662411420E+02
 0.55898053247E+02 0.66651447603E+02 0.70665752678E+02 0.66664543549E+02 0.55914044024E+02
 0.41658077841E+02 0.27745610570E+02 0.17166508950E+02 0.11076992893E+02 0.85857929155E+01
 0.75017276719E+01 0.68661850634E+01 0.66674668186E+01 0.68671296782E+01 0.75021562803E+01
 0.85858233571E+01 0.11078784407E+02 0.17170087471E+02 0.27745959022E+02 0.41649474576E+02
 0.33075421622E+02 0.41690784846E+02 0.46829315393E+02 0.46833781101E+02 0.41698502459E+02
 0.33076260954E+02 0.23582090558E+02 0.15705300779E+02 0.10799673918E+02 0.85855990223E+01
 0.75133014247E+01 0.68140763001E+01 0.64936591759E+01 0.64947057143E+01 0.68151417455E+01
 0.75120221280E+01 0.85847097424E+01 0.10804616347E+02 0.15716027332E+02 0.23590696177E+02
 0.18296596844E+02 0.23687762622E+02 0.27893750180E+02 0.29480262763E+02 0.27889482101E+02
 0.23678821974E+02 0.18285091186E+02 0.13387680723E+02 0.10114826647E+02 0.84758643243E+01
 0.75018498429E+01 0.68141408202E+01 0.64389581777E+01 0.63256911892E+01 0.64402985642E+01
 0.68135559090E+01 0.74979111274E+01 0.84721891677E+01 0.10116785179E+02 0.13396510142E+02
 0.11095317434E+02 0.13526114882E+02 0.15941657722E+02 0.17444918281E+02 0.17439828010E+02
 0.15930842725E+02 0.13518697713E+02 0.11096815758E+02 0.93499869405E+01 0.82989579359E+01
 0.74773608831E+01 0.68664493387E+01 0.64933961737E+01 0.63256571054E+01 0.63263601914E+01
 0.64946781050E+01 0.68659884542E+01 0.74726486192E+01 0.82901447334E+01 0.93416555062E+01
 0.87250004251E+01 0.94766425845E+01 0.10369934232E+02 0.11138473073E+02 0.11441465305E+02
 0.11134640531E+02 0.10369804826E+02 0.94853930359E+01 0.87383798438E+01 0.80714568474E+01
 0.74619938993E+01 0.69853248879E+01 0.66673484934E+01 0.64945373978E+01 0.64407433057E+01
 0.64947727905E+01 0.66699268435E+01 0.69892447272E+01 0.74615559191E+01 0.80625582948E+01
 0.78247582092E+01 0.81923250184E+01 0.85391658526E+01 0.88146518179E+01 0.89800468464E+01
 0.89813807922E+01 0.88195602032E+01 0.85476218486E+01 0.81998277207E+01 0.78249850061E+01
 0.74742789201E+01 0.71868957230E+01 0.69845134995E+01 0.68667791742E+01 0.68154244306E+01
 0.68137740739E+01 0.68653736749E+01 0.69890499274E+01 0.71969122630E+01 0.74823982381E+01
 0.75331230381E+01 0.76084929414E+01 0.77052282590E+01 0.78124568048E+01 0.79023725026E+01
 0.79397236220E+01 0.79064733002E+01 0.78163720838E+01 0.77038179330E+01 0.76000566091E+01
 0.75211678500E+01 0.74735168384E+01 0.74602087713E+01 0.74761703524E+01 0.75018498429E+01
 0.75122371168E+01 0.74974825190E+01 0.74723147426E+01 0.74622855740E+01 0.74826684789E+01
 0.78239936198E+01 0.76082183550E+01 0.74389531439E+01 0.73289074897E+01 0.72762283537E+01
 0.72618090482E+01 0.72631378580E+01 0.72769186275E+01 0.73238360692E+01 0.74290562725E+01
 0.76008522584E+01 0.78250500521E+01 0.80707105049E+01 0.82985630544E+01 0.84761384450E+01
 0.85859662944E+01 0.85850465730E+01 0.84721033722E+01 0.82906683641E+01 0.80629726239E+01
 0.87244473682E+01 0.81919354895E+01 0.77059358285E+01 0.73290984544E+01 0.70824448629E+01
 0.69534474191E+01 0.69155655995E+01 0.69536835151E+01 0.70800396066E+01 0.73245824117E+01
 0.77055296035E+01 0.82006391091E+01 0.87384533013E+01 0.93511281645E+01 0.10116538317E+02
 0.10800787532E+02 0.11079526375E+02 0.10804740857E+02 0.10116421448E+02 0.93416257388E+01
 0.11095689411E+02 0.94767611601E+01 0.85396744155E+01 0.78126926142E+01 0.72756579927E+01
 0.69534092333E+01 0.68110188089E+01 0.68104931061E+01 0.69525753532E+01 0.72765568081E+01
 0.78174309389E+01 0.85479186221E+01 0.94842848740E+01 0.11096848820E+02 0.13389261107E+02
 0.15705295326E+02 0.17165400788E+02 0.17170032374E+02 0.15715185831E+02 0.13396171456E+02
 0.18297471457E+02 0.13526532743E+02 0.10369579967E+02 0.88144812484E+01 0.79019756987E+01
 0.72618248170E+01 0.69159617429E+01 0.68103656567E+01 0.69138539290E+01 0.72619365057E+01
 0.79064733002E+01 0.88192038244E+01 0.10368019698E+02 0.13517101479E+02 0.18285091186E+02
 0.23581431953E+02 0.27741365417E+02 0.29318034966E+02 0.27745580058E+02 0.23590752697E+02
 0.33075819420E+02 0.23687654251E+02 0.15940832766E+02 0.11138146172E+02 0.89803641338E+01
 0.79399065804E+01 0.72633867858E+01 0.69534104361E+01 0.69523404600E+01 0.72621696647E+01
 0.79408798878E+01 0.89810852216E+01 0.11133533572E+02 0.15930808460E+02 0.23679456711E+02
 0.33076267610E+02 0.41656970882E+02 0.46787297494E+02 0.46783280268E+02 0.41650118996E+02
 0.55897645595E+02 0.41689965348E+02 0.27893370011E+02 0.17445138493E+02 0.11442164467E+02
 0.89814710929E+01 0.79061926980E+01 0.72767661546E+01 0.70799395341E+01 0.72769746963E+01
 0.79065895019E+01 0.89808582348E+01 0.11439033434E+02 0.17440969234E+02 0.27893699100E+02
 0.41699616073E+02 0.55914072177E+02 0.66675864256E+02 0.70690330242E+02 0.66662865685E+02
 0.84282621615E+02 0.66650873109E+02 0.46829696988E+02 0.29481095839E+02 0.17440145768E+02
 0.11134260407E+02 0.88190189629E+01 0.78165771764E+01 0.73241057303E+01 0.73246611081E+01
 0.78174002222E+01 0.88188331536E+01 0.11133480348E+02 0.17441066781E+02 0.29485727709E+02
 0.46837660211E+02 0.66659550825E+02 0.84289042866E+02 0.94735988764E+02 0.94733666282E+02
 0.11278792996E+03 0.94702411168E+02 0.70666352866E+02 0.46834293018E+02 0.27889153011E+02
 0.15930137052E+02 0.10369579967E+02 0.85481550081E+01 0.77042241580E+01 0.74286180469E+01
 0.77052282590E+01 0.85479432185E+01 0.10368149104E+02 0.15930927744E+02 0.27893750180E+02
 0.46837790532E+02 0.70661507525E+02 0.94689150771E+02 0.11277605252E+03 0.11953198792E+03
 0.13420706397E+03 0.11951392771E+03 0.94703987281E+02 0.66663878475E+02 0.41697977990E+02
 0.23678534650E+02 0.13518975111E+02 0.94858819641E+01 0.81999481316E+01 0.75994593704E+01
 0.76005296061E+01 0.82011490489E+01 0.94846552266E+01 0.13516961016E+02 0.23679277758E+02
 0.41699911103E+02 0.66659460245E+02 0.94688749627E+02 0.11949486260E+03 0.13419828495E+03
 0.10993096865E+03 0.10374241440E+03 0.87130062133E+02 0.64999958830E+02 0.43032747672E+02
 0.25626649877E+02 0.14765711952E+02 0.98320548023E+01 0.82059913723E+01 0.74030012587E+01
 0.71421806283E+01 0.74036945711E+01 0.82065090876E+01 0.98317588714E+01 0.14764970662E+02
 0.25626324972E+02 0.43033124646E+02 0.65000509837E+02 0.87130237127E+02 0.10374230107E+03
 0.10374757690E+03 0.10374177201E+03 0.92348119115E+02 0.73073976626E+02 0.51289542227E+02
 0.32053673990E+02 0.18519781844E+02 0.11290269036E+02 0.86175206573E+01 0.75766756496E+01
 0.70625558781E+01 0.70617282989E+01 0.75757354631E+01 0.86185226505E+01 0.11292164841E+02
 0.18519865286E+02 0.32052625171E+02 0.51292356106E+02 0.73083878107E+02 0.92360660550E+02
 0.87138118713E+02 0.92370000643E+02 0.87130125348E+02 0.73074595147E+02 0.54380374509E+02
 0.35932837069E+02 0.21533507559E+02 0.12822694492E+02 0.90588834889E+01 0.77415543585E+01
 0.70174626526E+01 0.67843037317E+01 0.70154189035E+01 0.77407215847E+01 0.90605720360E+01
 0.12823852890E+02 0.21531271595E+02 0.35929807762E+02 0.54382399635E+02 0.73082890382E+02
 0.64997315182E+02 0.73122507811E+02 0.73123818525E+02 0.65001151776E+02 0.51289512330E+02
 0.35932341005E+02 0.22686611803E+02 0.13811560276E+02 0.94560484509E+01 0.78683738369E+01
 0.70026055526E+01 0.65877423262E+01 0.65872730390E+01 0.70018716208E+01 0.78683818609E+01
 0.94564608325E+01 0.13810651839E+02 0.22683062339E+02 0.35926738861E+02 0.51283885619E+02
 0.43022690339E+02 0.51376741870E+02 0.54504550625E+02 0.51385258515E+02 0.43032944318E+02
 0.32052679355E+02 0.21533524201E+02 0.13811886666E+02 0.96194915194E+01 0.79367175622E+01
 0.70048374713E+01 0.64692937708E+01 0.63046016619E+01 0.64701570982E+01 0.70051943279E+01
 0.79363540867E+01 0.96200389859E+01 0.13813846494E+02 0.21533824315E+02 0.32047349340E+02
 0.25625812017E+02 0.32201868732E+02 0.36161612455E+02 0.36164567165E+02 0.32206884515E+02
 0.25626085820E+02 0.18519621062E+02 0.12823408361E+02 0.94560179208E+01 0.79365558992E+01
 0.70081047225E+01 0.64156926057E+01 0.61498067160E+01 0.61507093013E+01 0.64167984875E+01
 0.70074439396E+01 0.79358411318E+01 0.94591425327E+01 0.12830629401E+02 0.18525654072E+02
 0.14772852248E+02 0.18726238910E+02 0.21872517169E+02 0.23070367572E+02 0.21869948291E+02
 0.18720623000E+02 0.14765357218E+02 0.11290816096E+02 0.90589912526E+01 0.78679441249E+01
 0.70049294337E+01 0.64157428035E+01 0.61010608817E+01 0.60068155728E+01 0.61021184614E+01
 0.64156319034E+01 0.70026416075E+01 0.78658408349E+01 0.90605720360E+01 0.11296787043E+02
 0.98307782787E+01 0.11513469566E+02 0.13225797758E+02 0.14309508407E+02 0.14306253192E+02
 0.13218958014E+02 0.11508975530E+02 0.98320748424E+01 0.86178019296E+01 0.77410548749E+01
 0.70025767040E+01 0.64695113430E+01 0.61495926084E+01 0.60067911666E+01 0.60071425363E+01
 0.61502416636E+01 0.64691765056E+01 0.69996575582E+01 0.77354386207E+01 0.86122662268E+01
 0.81971979999E+01 0.88216631674E+01 0.94599618998E+01 0.99930622059E+01 0.10202913053E+02
 0.99904382333E+01 0.94598502986E+01 0.88275688471E+01 0.82062040150E+01 0.75764218187E+01
 0.70172157419E+01 0.65881538016E+01 0.63045110845E+01 0.61505732011E+01 0.61024903834E+01
 0.61503196710E+01 0.63057248806E+01 0.65904676942E+01 0.70168484053E+01 0.75704596320E+01
 0.74030600117E+01 0.77680538106E+01 0.81166512500E+01 0.83918404780E+01 0.85434382656E+01
 0.85441352376E+01 0.83946792511E+01 0.81218990403E+01 0.77728748254E+01 0.74032027375E+01
 0.70622982023E+01 0.67846690978E+01 0.65875192423E+01 0.64698573762E+01 0.64170309920E+01
 0.64158142101E+01 0.64686592115E+01 0.65903024220E+01 0.67912018476E+01 0.70676386893E+01
 0.71500622143E+01 0.72581230133E+01 0.73841935606E+01 0.75120796123E+01 0.76122060066E+01
 0.76516204679E+01 0.76146357799E+01 0.75143212437E+01 0.73830731209E+01 0.72525483354E+01
 0.71421908690E+01 0.70617014705E+01 0.70157862401E+01 0.70015582838E+01 0.70049294337E+01
 0.70076295951E+01 0.70022847509E+01 0.69993730698E+01 0.70174626526E+01 0.70678695368E+01
 0.74024163166E+01 0.72578869273E+01 0.71537491653E+01 0.70958268856E+01 0.70772598632E+01
 0.70784339606E+01 0.70793845704E+01 0.70778646461E+01 0.70925969703E+01 0.71473117584E+01
 0.72531711050E+01 0.74032523549E+01 0.75758368767E+01 0.77406592243E+01 0.78678754378E+01
 0.79364839121E+01 0.79361326202E+01 0.78657641238E+01 0.77358757440E+01 0.75708148764E+01
 0.81967351252E+01 0.77677168249E+01 0.73847878380E+01 0.70959930416E+01 0.69131717104E+01
 0.68212147423E+01 0.67952334642E+01 0.68218609346E+01 0.69121024107E+01 0.70931819123E+01
 0.73844477821E+01 0.77735093848E+01 0.82062588555E+01 0.86187825222E+01 0.90603659138E+01
 0.94565308758E+01 0.96206695786E+01 0.94592431061E+01 0.90602581501E+01 0.86122448262E+01
 0.98310974080E+01 0.88217591602E+01 0.81170767618E+01 0.75122883532E+01 0.70767844719E+01
 0.68211791807E+01 0.67103501894E+01 0.67101450662E+01 0.68209035403E+01 0.70774921939E+01
 0.75152408104E+01 0.81222218752E+01 0.88266114528E+01 0.98320980407E+01 0.11292427119E+02
 0.12823852801E+02 0.13810929272E+02 0.13813797537E+02 0.12829915443E+02 0.11296502261E+02
 0.14773593538E+02 0.11513823459E+02 0.94596603270E+01 0.83917017802E+01 0.76118764204E+01
 0.70784400863E+01 0.67955601940E+01 0.67100378827E+01 0.67938588030E+01 0.70781545409E+01
 0.76146357799E+01 0.83946897792E+01 0.94584207969E+01 0.11507349850E+02 0.14765357218E+02
 0.18519753194E+02 0.21530971481E+02 0.22682772060E+02 0.21533507559E+02 0.18525702763E+02
 0.25626146199E+02 0.18726148368E+02 0.13225100338E+02 0.99927848423E+01 0.85437059555E+01
 0.76517692259E+01 0.70795888517E+01 0.68216328971E+01 0.68207110644E+01 0.70783526964E+01
 0.76521619733E+01 0.85442661192E+01 0.99899345554E+01 0.13218481099E+02 0.18720473049E+02
 0.25626095097E+02 0.32052175677E+02 0.35929650028E+02 0.35927077190E+02 0.32047894481E+02
 0.43022341383E+02 0.32201175091E+02 0.21872196337E+02 0.14309691743E+02 0.10203500312E+02
 0.85442096334E+01 0.76144011230E+01 0.70777418662E+01 0.69120216690E+01 0.70778448052E+01
 0.76147307092E+01 0.85440728250E+01 0.10201817852E+02 0.14307233784E+02 0.21872472993E+02
 0.32207397470E+02 0.43032972336E+02 0.51292706986E+02 0.54382899211E+02 0.51284266396E+02
 0.64996787907E+02 0.51376257622E+02 0.36161936589E+02 0.23071071439E+02 0.14306520820E+02
 0.99901175977E+01 0.83942276151E+01 0.75145018814E+01 0.70928221192E+01 0.70932409052E+01
 0.75152127072E+01 0.83943768411E+01 0.99898912835E+01 0.14307318077E+02 0.23074192123E+02
 0.36167225132E+02 0.51382087592E+02 0.65001175508E+02 0.73084029626E+02 0.73082423379E+02
 0.87137943718E+02 0.73123049336E+02 0.54505062452E+02 0.36164999937E+02 0.21869671635E+02
 0.13218362390E+02 0.94596603270E+01 0.81223536381E+01 0.73834131768E+01 0.71469299527E+01
 0.73841935606E+01 0.81222509612E+01 0.94585323981E+01 0.13218582895E+02 0.21872517169E+02
 0.36167333771E+02 0.54501997904E+02 0.73114389599E+02 0.87130125348E+02 0.92359629217E+02
 0.10374767826E+03 0.92371222701E+02 0.73124019739E+02 0.51384692412E+02 0.32206438958E+02
 0.18720380823E+02 0.11509204679E+02 0.88279804222E+01 0.77729806926E+01 0.72520381175E+01
 0.72528969732E+01 0.77739522376E+01 0.88269270351E+01 0.11507225106E+02 0.18720321414E+02
 0.32207645555E+02 0.51382005738E+02 0.73114049288E+02 0.92358473219E+02 0.10374176005E+03
 0.76590597699E+02 0.72245896812E+02 0.60585377106E+02 0.45108653290E+02 0.29953836722E+02
 0.18339107907E+02 0.11553027462E+02 0.87417638088E+01 0.76110508625E+01 0.69513115102E+01
 0.67425471486E+01 0.69518461948E+01 0.76114419247E+01 0.87415187120E+01 0.11552444669E+02
 0.18338866286E+02 0.29954151773E+02 0.45109097886E+02 0.60585514685E+02 0.72245803246E+02
 0.72248521879E+02 0.72245387837E+02 0.64230877320E+02 0.50700864629E+02 0.35544935826E+02
 0.22478180862E+02 0.13735806764E+02 0.94566505543E+01 0.78942285668E+01 0.70356693642E+01