   2   2   0   0
  0.1040801E+02  0.2423200E-09  0.2423200E-09  0.4093440E-09  0.5000000E-15
  1.000000000000000E-004
  CAR 
 unknown system                          
     71.51108377     -5.63106903  301      6.63143940      1.00000000
     -5.631  0.0000E+00  0.0000E+00
     -5.374  0.0000E+00  0.0000E+00
     -5.117  0.0000E+00  0.0000E+00
     -4.860  0.0000E+00  0.0000E+00
     -4.603  0.0000E+00  0.0000E+00
     -4.345  0.0000E+00  0.0000E+00
     -4.088  0.0000E+00  0.0000E+00
     -3.831 -0.3400E-33 -0.8742E-34
     -3.574 -0.1872E-24 -0.4814E-25
     -3.317 -0.3681E-17 -0.9465E-18
     -3.060 -0.2456E-11 -0.6316E-12
     -2.803 -0.5847E-07 -0.1504E-07
     -2.545 -0.4535E-04 -0.1168E-04
     -2.288 -0.4369E-03 -0.1240E-03
     -2.031  0.8328E-02  0.2017E-02
     -1.774  0.5946E-01  0.1731E-01
     -1.517  0.9624E-01  0.4205E-01
     -1.260  0.6615E-01  0.5906E-01
     -1.003  0.1615E+00  0.1006E+00
     -0.745  0.1795E+00  0.1468E+00
     -0.488  0.1784E+00  0.1926E+00
     -0.231  0.8843E-01  0.2154E+00
      0.026  0.2871E+00  0.2892E+00
      0.283  0.2891E+00  0.3635E+00
      0.540  0.2869E+00  0.4373E+00
      0.797  0.2889E+00  0.5116E+00
      1.055  0.2109E+00  0.5658E+00
      1.312  0.5507E+00  0.7074E+00
      1.569  0.6596E+00  0.8770E+00
      1.826  0.7747E+00  0.1076E+01
      2.083  0.1566E+01  0.1479E+01
      2.340  0.2010E+01  0.1996E+01
      2.597  0.2685E+01  0.2686E+01
      2.855  0.2377E+01  0.3297E+01
      3.112  0.3065E+01  0.4085E+01
      3.369  0.2215E+01  0.4655E+01
      3.626  0.3179E+01  0.5473E+01
      3.883  0.3347E+01  0.6333E+01
      4.140  0.3155E+01  0.7144E+01
      4.397  0.2149E+01  0.7697E+01
      4.655  0.2896E+01  0.8442E+01
      4.912  0.4242E+01  0.9533E+01
      5.169  0.4208E+01  0.1061E+02
      5.426  0.4430E+01  0.1175E+02
      5.683  0.4610E+01  0.1294E+02
      5.940  0.3621E+01  0.1387E+02
      6.197  0.2958E+01  0.1463E+02
      6.455  0.3139E+01  0.1544E+02
      6.712  0.2960E+01  0.1620E+02
      6.969  0.2482E+01  0.1684E+02
      7.226  0.4698E+01  0.1805E+02
      7.483  0.5740E+01  0.1952E+02
      7.740  0.5252E+01  0.2087E+02
      7.997  0.1372E+01  0.2122E+02
      8.255  0.1029E+00  0.2125E+02
      8.512  0.6459E+00  0.2142E+02
      8.769  0.1193E+01  0.2172E+02
      9.026  0.5572E+00  0.2187E+02
      9.283  0.3178E+00  0.2195E+02
      9.540  0.7137E+00  0.2213E+02
      9.797  0.4394E+00  0.2225E+02
     10.055  0.1834E+00  0.2229E+02
     10.312  0.7488E+00  0.2249E+02
     10.569  0.7703E+00  0.2268E+02
     10.826  0.4635E+00  0.2280E+02
     11.083  0.2378E+00  0.2286E+02
     11.340  0.3825E+00  0.2296E+02
     11.597  0.4540E+00  0.2308E+02
     11.854  0.5504E+00  0.2322E+02
     12.112  0.3401E+00  0.2331E+02
     12.369  0.2597E+00  0.2337E+02
     12.626  0.3020E+00  0.2345E+02
     12.883  0.4137E+00  0.2356E+02
     13.140  0.5659E+00  0.2370E+02
     13.397  0.5411E+00  0.2384E+02
     13.654  0.8431E-01  0.2387E+02
     13.912  0.7507E-01  0.2388E+02
     14.169  0.1383E+00  0.2392E+02
     14.426  0.2171E+00  0.2398E+02
     14.683  0.1518E+00  0.2401E+02
     14.940  0.2768E+00  0.2409E+02
     15.197  0.2230E+00  0.2414E+02
     15.454  0.3967E+00  0.2425E+02
     15.712  0.2581E+00  0.2431E+02
     15.969  0.6715E+00  0.2448E+02
     16.226  0.1213E+01  0.2480E+02
     16.483  0.6563E+00  0.2496E+02
     16.740  0.7360E+00  0.2515E+02
     16.997  0.4723E+00  0.2528E+02
     17.254  0.4958E+00  0.2540E+02
     17.512  0.7583E+00  0.2560E+02
     17.769  0.8141E+00  0.2581E+02
     18.026  0.8905E+00  0.2604E+02
     18.283  0.6134E+00  0.2619E+02
     18.540  0.5821E+00  0.2634E+02
     18.797  0.8367E+00  0.2656E+02
     19.054  0.8827E+00  0.2679E+02
     19.312  0.5307E+00  0.2692E+02
     19.569  0.8346E+00  0.2714E+02
     19.826  0.6121E+00  0.2729E+02
     20.083  0.6194E+00  0.2745E+02
     20.340  0.6760E+00  0.2763E+02
     20.597  0.4253E+00  0.2774E+02
     20.854  0.4886E+00  0.2786E+02
     21.112  0.5819E+00  0.2801E+02
     21.369  0.5095E+00  0.2814E+02
     21.626  0.8383E+00  0.2836E+02
     21.883  0.6223E+00  0.2852E+02
     22.140  0.4316E+00  0.2863E+02
     22.397  0.1107E+01  0.2891E+02
     22.654  0.8089E+00  0.2912E+02
     22.912  0.7270E+00  0.2931E+02
     23.169  0.1076E+01  0.2959E+02
     23.426  0.7363E+00  0.2978E+02
     23.683  0.6533E+00  0.2994E+02
     23.940  0.8715E+00  0.3017E+02
     24.197  0.1288E+01  0.3050E+02
     24.454  0.7285E+00  0.3069E+02
     24.712  0.6712E+00  0.3086E+02
     24.969  0.9050E+00  0.3109E+02
     25.226  0.1096E+01  0.3137E+02
     25.483  0.1260E+01  0.3170E+02
     25.740  0.5997E+00  0.3185E+02
     25.997  0.7965E+00  0.3206E+02
     26.254  0.6337E+00  0.3222E+02
     26.511  0.1164E+01  0.3252E+02
     26.769  0.9053E+00  0.3275E+02
     27.026  0.8903E+00  0.3298E+02
     27.283  0.1113E+01  0.3327E+02
     27.540  0.7096E+00  0.3345E+02
     27.797  0.7124E+00  0.3363E+02
     28.054  0.1039E+01  0.3390E+02
     28.311  0.8202E+00  0.3411E+02
     28.569  0.6167E+00  0.3427E+02
     28.826  0.7233E+00  0.3445E+02
     29.083  0.7479E+00  0.3465E+02
     29.340  0.8594E+00  0.3487E+02
     29.597  0.8200E+00  0.3508E+02
     29.854  0.5870E+00  0.3523E+02
     30.111  0.7797E+00  0.3543E+02
     30.369  0.9289E+00  0.3567E+02
     30.626  0.6063E+00  0.3583E+02
     30.883  0.7387E+00  0.3602E+02
     31.140  0.6297E+00  0.3618E+02
     31.397  0.7804E+00  0.3638E+02
     31.654  0.1165E+01  0.3668E+02
     31.911  0.8061E+00  0.3688E+02
     32.169  0.5676E+00  0.3703E+02
     32.426  0.1097E+01  0.3731E+02
     32.683  0.8036E+00  0.3752E+02
     32.940  0.1004E+01  0.3778E+02
     33.197  0.9111E+00  0.3801E+02
     33.454  0.7851E+00  0.3821E+02
     33.711  0.8209E+00  0.3842E+02
     33.969  0.1264E+01  0.3875E+02
     34.226  0.6386E+00  0.3891E+02
     34.483  0.6587E+00  0.3908E+02
     34.740  0.1016E+01  0.3934E+02
     34.997  0.1291E+01  0.3968E+02
     35.254  0.1039E+01  0.3994E+02
     35.511  0.7546E+00  0.4014E+02
     35.769  0.8773E+00  0.4036E+02
     36.026  0.4878E+00  0.4049E+02
     36.283  0.7190E+00  0.4067E+02
     36.540  0.9364E+00  0.4091E+02
     36.797  0.7688E+00  0.4111E+02
     37.054  0.8536E+00  0.4133E+02
     37.311  0.7573E+00  0.4153E+02
     37.569  0.1138E+01  0.4182E+02
     37.826  0.9855E+00  0.4207E+02
     38.083  0.1015E+01  0.4233E+02
     38.340  0.1060E+01  0.4261E+02
     38.597  0.7352E+00  0.4279E+02
     38.854  0.7767E+00  0.4299E+02
     39.111  0.1214E+01  0.4331E+02
     39.369  0.8217E+00  0.4352E+02
     39.626  0.7121E+00  0.4370E+02
     39.883  0.7512E+00  0.4389E+02
     40.140  0.7386E+00  0.4408E+02
     40.397  0.8156E+00  0.4429E+02
     40.654  0.9678E+00  0.4454E+02
     40.911  0.9299E+00  0.4478E+02
     41.169  0.1260E+01  0.4511E+02
     41.426  0.1299E+01  0.4544E+02
     41.683  0.9523E+00  0.4568E+02
     41.940  0.1059E+01  0.4596E+02
     42.197  0.1071E+01  0.4623E+02
     42.454  0.9949E+00  0.4649E+02
     42.711  0.9453E+00  0.4673E+02
     42.968  0.1316E+01  0.4707E+02
     43.226  0.1274E+01  0.4740E+02
     43.483  0.7566E+00  0.4759E+02
     43.740  0.1249E+01  0.4791E+02
     43.997  0.1329E+01  0.4826E+02
     44.254  0.8505E+00  0.4847E+02
     44.511  0.8541E+00  0.4869E+02
     44.768  0.7244E+00  0.4888E+02
     45.026  0.8772E+00  0.4911E+02
     45.283  0.4661E+00  0.4923E+02
     45.540  0.1047E+01  0.4949E+02
     45.797  0.1066E+01  0.4977E+02
     46.054  0.5241E+00  0.4990E+02
     46.311  0.8380E+00  0.5012E+02
     46.568  0.1101E+01  0.5040E+02
     46.826  0.1409E+01  0.5076E+02
     47.083  0.1081E+01  0.5104E+02
     47.340  0.7354E+00  0.5123E+02
     47.597  0.1458E+01  0.5161E+02
     47.854  0.1570E+01  0.5201E+02
     48.111  0.9835E+00  0.5226E+02
     48.368  0.8820E+00  0.5249E+02
     48.626  0.5960E+00  0.5264E+02
     48.883  0.1078E+01  0.5292E+02
     49.140  0.1331E+01  0.5326E+02
     49.397  0.1257E+01  0.5359E+02
     49.654  0.9530E+00  0.5383E+02
     49.911  0.9887E+00  0.5408E+02
     50.168  0.1181E+01  0.5439E+02
     50.426  0.1080E+01  0.5467E+02
     50.683  0.1474E+01  0.5505E+02
     50.940  0.8970E+00  0.5528E+02
     51.197  0.1651E+01  0.5570E+02
     51.454  0.1132E+01  0.5599E+02
     51.711  0.9612E+00  0.5624E+02
     51.968  0.1334E+01  0.5658E+02
     52.226  0.1090E+01  0.5686E+02
     52.483  0.1122E+01  0.5715E+02
     52.740  0.7952E+00  0.5736E+02
     52.997  0.8112E+00  0.5756E+02
     53.254  0.1359E+01  0.5791E+02
     53.511  0.1508E+01  0.5830E+02
     53.768  0.1675E+01  0.5873E+02
     54.026  0.9962E+00  0.5899E+02
     54.283  0.8894E+00  0.5922E+02
     54.540  0.1445E+01  0.5959E+02
     54.797  0.1569E+01  0.5999E+02
     55.054  0.1091E+01  0.6027E+02
     55.311  0.1574E+01  0.6068E+02
     55.568  0.1825E+01  0.6115E+02
     55.826  0.1644E+01  0.6157E+02
     56.083  0.1275E+01  0.6190E+02
     56.340  0.1269E+01  0.6222E+02
     56.597  0.1586E+01  0.6263E+02
     56.854  0.9236E+00  0.6287E+02
     57.111  0.1390E+01  0.6323E+02
     57.368  0.1960E+01  0.6373E+02
     57.625  0.1490E+01  0.6411E+02
     57.883  0.1920E+01  0.6461E+02
     58.140  0.1676E+01  0.6504E+02
     58.397  0.1633E+01  0.6546E+02
     58.654  0.1863E+01  0.6594E+02
     58.911  0.1822E+01  0.6641E+02
     59.168  0.1426E+01  0.6677E+02
     59.425  0.1870E+01  0.6725E+02
     59.683  0.8783E+00  0.6748E+02
     59.940  0.1446E+01  0.6785E+02
     60.197  0.1375E+01  0.6820E+02
     60.454  0.1228E+01  0.6852E+02
     60.711  0.1424E+01  0.6889E+02
     60.968  0.1721E+01  0.6933E+02
     61.225  0.2018E+01  0.6985E+02
     61.483  0.1508E+01  0.7024E+02
     61.740  0.1428E+01  0.7060E+02
     61.997  0.1929E+01  0.7110E+02
     62.254  0.1557E+01  0.7150E+02
     62.511  0.1895E+01  0.7199E+02
     62.768  0.1382E+01  0.7234E+02
     63.025  0.1666E+01  0.7277E+02
     63.283  0.1690E+01  0.7320E+02
     63.540  0.1827E+01  0.7367E+02
     63.797  0.2546E+01  0.7433E+02
     64.054  0.1865E+01  0.7481E+02
     64.311  0.1816E+01  0.7528E+02
     64.568  0.1781E+01  0.7573E+02
     64.825  0.1955E+01  0.7624E+02
     65.083  0.2237E+01  0.7681E+02
     65.340  0.1845E+01  0.7729E+02
     65.597  0.1725E+01  0.7773E+02
     65.854  0.1955E+01  0.7823E+02
     66.111  0.1776E+01  0.7869E+02
     66.368  0.1342E+01  0.7903E+02
     66.625  0.1386E+01  0.7939E+02
     66.883  0.9664E+00  0.7964E+02
     67.140  0.9995E+00  0.7990E+02
     67.397  0.2138E+00  0.7995E+02
     67.654  0.4829E-01  0.7996E+02
     67.911  0.8168E-01  0.7998E+02
     68.168  0.5844E-01  0.8000E+02
     68.425  0.4152E-03  0.8000E+02
     68.683 -0.3950E-03  0.8000E+02
     68.940 -0.6291E-06  0.8000E+02
     69.197 -0.2840E-10  0.8000E+02
     69.454 -0.4671E-16  0.8000E+02
     69.711  0.0000E+00  0.8000E+02
     69.968  0.0000E+00  0.8000E+02
     70.225  0.0000E+00  0.8000E+02
     70.483  0.0000E+00  0.8000E+02
     70.740  0.0000E+00  0.8000E+02
     70.997  0.0000E+00  0.8000E+02
     71.254  0.0000E+00  0.8000E+02
     71.511  0.0000E+00  0.8000E+02
