 vasp.6.2.0 18Jan21 (build Mar 17 2021 09:06:54) complex                        
  
 executed on             LinuxIFC date 2021.09.09  12:09:51
 serial version


--------------------------------------------------------------------------------------------------------


 INCAR:
   ENCUT = 280.000000
   SIGMA = 0.200000
   EDIFF = 1.00e-06
   GGA = PE
   PREC = normal
   IBRION = 1
   ICHARG = 1
   ISIF = 2
   ISMEAR = 1
   KPAR = 1
   NBANDS = 40
   NSW = 0
   NCORE = 1
   LCHARG = .TRUE.

 POTCAR:    PAW_PBE Fe 06Sep2000                  
 POTCAR:    PAW_PBE Fe 06Sep2000                  
   SHA256 =  cd5a22d9368cc8b5cc476bea79732366149640da08ac9009b0e1b7fc627eea28 Fe/POTCAR             
   COPYR  = (c) Copyright 06Sep2000 Georg Kresse                                                    
   COPYR  = This file is part of the software VASP. Any use, copying, and all other rights are regul
   COPYR  = If you do not have a valid VASP license, you may not use, copy or distribute this file. 
   VRHFIN =Fe:  d7 s1                                                                               
   LEXCH  = PE                                                                                      
   EATOM  =   594.3153 eV,   43.6809 Ry                                                             
                                                                                                    
   TITEL  = PAW_PBE Fe 06Sep2000                                                                    
   LULTRA =        F    use ultrasoft PP ?                                                          
   IUNSCR =        1    unscreen: 0-lin 1-nonlin 2-no                                               
   RPACOR =    2.000    partial core radius                                                         
   POMASS =   55.847; ZVAL   =    8.000    mass and valenz                                          
   RCORE  =    2.300    outmost cutoff radius                                                       
   RWIGS  =    2.460; RWIGS  =    1.302    wigner-seitz radius (au A)                               
   ENMAX  =  267.882; ENMIN  =  200.911 eV                                                          
   RCLOC  =    1.701    cutoff for local pot                                                        
   LCOR   =        T    correct aug charges                                                         
   LPAW   =        T    paw PP                                                                      
   EAUG   =  511.368                                                                                
   DEXC   =    0.000                                                                                
   RMAX   =    2.356    core radius for proj-oper                                                   
   RAUG   =    1.300    factor for augmentation sphere                                              
   RDEP   =    2.442    radius for radial grids                                                     
   RDEPT  =    1.890    core radius for aug-charge                                                  
                                                                                                    
   Atomic configuration                                                                             
    9 entries                                                                                       
     n  l   j            E        occ.                                                              
     1  0  0.50     -6993.8440   2.0000                                                             
     2  0  0.50      -814.6047   2.0000                                                             
     2  1  1.50      -693.3689   6.0000                                                             
     3  0  0.50       -89.4732   2.0000                                                             
     3  1  1.50       -55.6373   6.0000                                                             
     3  2  2.50        -3.8151   7.0000                                                             
     4  0  0.50        -4.2551   1.0000                                                             
     4  1  1.50        -3.4015   0.0000                                                             
     4  3  2.50        -1.3606   0.0000                                                             
   Description                                                                                      
     l       E           TYP  RCUT    TYP  RCUT                                                     
     2     -3.8151135     23  2.300                                                                 
     2     -5.1756961     23  2.300                                                                 
     0     -4.2550963     23  2.300                                                                 
     0      7.2035603     23  2.300                                                                 
     1     -2.7211652     23  2.300                                                                 
     1     18.4316424     23  2.300                                                                 
  local pseudopotential read in
  partial core-charges read in
  partial kinetic energy density read in
  atomic valenz-charges read in
  non local Contribution for L=           2  read in
    real space projection operators read in
  non local Contribution for L=           2  read in
    real space projection operators read in
  non local Contribution for L=           0  read in
    real space projection operators read in
  non local Contribution for L=           0  read in
    real space projection operators read in
  non local Contribution for L=           1  read in
    real space projection operators read in
  non local Contribution for L=           1  read in
    real space projection operators read in
    PAW grid and wavefunctions read in
 
   number of l-projection  operators is LMAX  =           6
   number of lm-projection operators is LMMAX =          18
 
  PAW_PBE Fe 06Sep2000                  :
 energy of atom  1       EATOM= -594.3153
 kinetic energy error for atom=    0.0278 (will be added to EATOM!!)
 
 
 POSCAR: Fe
  positions in cartesian coordinates
  No initial velocities read in
 exchange correlation table for  LEXCH =        8
   RHO(1)=    0.500       N(1)  =     2000
   RHO(2)=  100.500       N(2)  =     4000
 


--------------------------------------------------------------------------------------------------------


 ion  position               nearest neighbor table
   1  0.000  0.000  0.000-   2 2.48   2 2.48   2 2.48   2 2.48   2 2.48   2 2.48
   2  0.333  0.667  0.500-   1 2.48   1 2.48   1 2.48   1 2.48   1 2.48   1 2.48
 
  LATTYP: Found a hexagonal cell.
 ALAT       =     2.4232000000
 C/A-ratio  =     1.6892703863
  
  Lattice vectors:
  
 A1 = (   2.4232000000,   0.0000000000,   0.0000000000)
 A2 = (  -1.2116000000,   2.0985527585,   0.0000000000)
 A3 = (   0.0000000000,   0.0000000000,   4.0934400000)


Analysis of symmetry for initial positions (statically):
=====================================================================
 Subroutine PRICEL returns:
 Original cell was already a primitive cell.
 

 Routine SETGRP: Setting up the symmetry group for a 
 hexagonal supercell.


 Subroutine GETGRP returns: Found 24 space group operations
 (whereof 12 operations were pure point group operations)
 out of a pool of 24 trial point group operations.


The static configuration has the point symmetry D_3h.
 The point group associated with its full space group is D_6h.


Analysis of symmetry for dynamics (positions and initial velocities):
=====================================================================
 Subroutine PRICEL returns:
 Original cell was already a primitive cell.
 

 Routine SETGRP: Setting up the symmetry group for a 
 hexagonal supercell.


 Subroutine GETGRP returns: Found 24 space group operations
 (whereof 12 operations were pure point group operations)
 out of a pool of 24 trial point group operations.


The dynamic configuration has the point symmetry D_3h.
 The point group associated with its full space group is D_6h.


 Subroutine INISYM returns: Found 24 space group operations
 (whereof 12 operations are pure point group operations),
 and found     1 'primitive' translations


----------------------------------------------------------------------------------------

                                     Primitive cell                                     

  volume of cell :      20.8160

  direct lattice vectors                    reciprocal lattice vectors
     2.423200000  0.000000000  0.000000000     0.412677451  0.238259438  0.000000000
    -1.211600000  2.098552758  0.000000000     0.000000000  0.476518875  0.000000000
     0.000000000  0.000000000  4.093440000     0.000000000  0.000000000  0.244293308

  length of vectors
     2.423200000  2.423200000  4.093440000     0.476518875  0.476518875  0.244293308

  position of ions in fractional coordinates (direct lattice)
     0.000000000  0.000000000  0.000000000
     0.333333333  0.666666667  0.500000000

  ion indices of the primitive-cell ions
   primitive index   ion index
                 1           1
                 2           2

----------------------------------------------------------------------------------------

 
 
 KPOINTS: KPOINTS created by Atomic Simulation Env

Automatic generation of k-mesh.
 Grid dimensions read from file:
 generate k-points for:   11   11   11

 Generating k-lattice:

  Cartesian coordinates                     Fractional coordinates (reciprocal lattice)
     0.037516132  0.021659949  0.000000000     0.090909091 -0.000000000  0.000000000
     0.000000000  0.043319898  0.000000000     0.000000000  0.090909091  0.000000000
     0.000000000  0.000000000  0.022208483     0.000000000  0.000000000  0.090909091

  Length of vectors
     0.043319898  0.043319898  0.022208483

  Shift w.r.t. Gamma in fractional coordinates (k-lattice)
     0.000000000  0.000000000  0.000000000

 
 Subroutine IBZKPT returns following result:
 ===========================================
 
 Found     96 irreducible k-points:
 
 Following reciprocal coordinates:
            Coordinates               Weight
  0.000000  0.000000  0.000000      1.000000
  0.090909  0.000000  0.000000      6.000000
  0.181818  0.000000  0.000000      6.000000
  0.272727  0.000000  0.000000      6.000000
  0.363636  0.000000  0.000000      6.000000
  0.454545 -0.000000  0.000000      6.000000
  0.090909  0.090909  0.000000      6.000000
  0.181818  0.090909  0.000000     12.000000
  0.272727  0.090909  0.000000     12.000000
  0.363636  0.090909  0.000000     12.000000
  0.454545  0.090909  0.000000      6.000000
  0.181818  0.181818  0.000000      6.000000
  0.272727  0.181818  0.000000     12.000000
  0.363636  0.181818  0.000000     12.000000
  0.272727  0.272727  0.000000      6.000000
  0.363636  0.272727  0.000000      6.000000
  0.000000  0.000000  0.090909      2.000000
  0.090909  0.000000  0.090909     12.000000
  0.181818  0.000000  0.090909     12.000000
  0.272727  0.000000  0.090909     12.000000
  0.363636  0.000000  0.090909     12.000000
  0.454545 -0.000000  0.090909     12.000000
  0.090909  0.090909  0.090909     12.000000
  0.181818  0.090909  0.090909     24.000000
  0.272727  0.090909  0.090909     24.000000
  0.363636  0.090909  0.090909     24.000000
  0.454545  0.090909  0.090909     12.000000
  0.181818  0.181818  0.090909     12.000000
  0.272727  0.181818  0.090909     24.000000
  0.363636  0.181818  0.090909     24.000000
  0.272727  0.272727  0.090909     12.000000
  0.363636  0.272727  0.090909     12.000000
  0.000000  0.000000  0.181818      2.000000
  0.090909  0.000000  0.181818     12.000000
  0.181818  0.000000  0.181818     12.000000
  0.272727  0.000000  0.181818     12.000000
  0.363636  0.000000  0.181818     12.000000
  0.454545 -0.000000  0.181818     12.000000
  0.090909  0.090909  0.181818     12.000000
  0.181818  0.090909  0.181818     24.000000
  0.272727  0.090909  0.181818     24.000000
  0.363636  0.090909  0.181818     24.000000
  0.454545  0.090909  0.181818     12.000000
  0.181818  0.181818  0.181818     12.000000
  0.272727  0.181818  0.181818     24.000000
  0.363636  0.181818  0.181818     24.000000
  0.272727  0.272727  0.181818     12.000000
  0.363636  0.272727  0.181818     12.000000
  0.000000  0.000000  0.272727      2.000000
  0.090909  0.000000  0.272727     12.000000
  0.181818  0.000000  0.272727     12.000000
  0.272727  0.000000  0.272727     12.000000
  0.363636  0.000000  0.272727     12.000000
  0.454545 -0.000000  0.272727     12.000000
  0.090909  0.090909  0.272727     12.000000
  0.181818  0.090909  0.272727     24.000000
  0.272727  0.090909  0.272727     24.000000
  0.363636  0.090909  0.272727     24.000000
  0.454545  0.090909  0.272727     12.000000
  0.181818  0.181818  0.272727     12.000000
  0.272727  0.181818  0.272727     24.000000
  0.363636  0.181818  0.272727     24.000000
  0.272727  0.272727  0.272727     12.000000
  0.363636  0.272727  0.272727     12.000000
  0.000000  0.000000  0.363636      2.000000
  0.090909  0.000000  0.363636     12.000000
  0.181818  0.000000  0.363636     12.000000
  0.272727  0.000000  0.363636     12.000000
  0.363636  0.000000  0.363636     12.000000
  0.454545 -0.000000  0.363636     12.000000
  0.090909  0.090909  0.363636     12.000000
  0.181818  0.090909  0.363636     24.000000
  0.272727  0.090909  0.363636     24.000000
  0.363636  0.090909  0.363636     24.000000
  0.454545  0.090909  0.363636     12.000000
  0.181818  0.181818  0.363636     12.000000
  0.272727  0.181818  0.363636     24.000000
  0.363636  0.181818  0.363636     24.000000
  0.272727  0.272727  0.363636     12.000000
  0.363636  0.272727  0.363636     12.000000
  0.000000  0.000000  0.454545      2.000000
  0.090909  0.000000  0.454545     12.000000
  0.181818  0.000000  0.454545     12.000000
  0.272727  0.000000  0.454545     12.000000
  0.363636  0.000000  0.454545     12.000000
  0.454545 -0.000000  0.454545     12.000000
  0.090909  0.090909  0.454545     12.000000
  0.181818  0.090909  0.454545     24.000000
  0.272727  0.090909  0.454545     24.000000
  0.363636  0.090909  0.454545     24.000000
  0.454545  0.090909  0.454545     12.000000
  0.181818  0.181818  0.454545     12.000000
  0.272727  0.181818  0.454545     24.000000
  0.363636  0.181818  0.454545     24.000000
  0.272727  0.272727  0.454545     12.000000
  0.363636  0.272727  0.454545     12.000000
 
 Following cartesian coordinates:
            Coordinates               Weight
  0.000000  0.000000  0.000000      1.000000
  0.037516  0.021660  0.000000      6.000000
  0.075032  0.043320  0.000000      6.000000
  0.112548  0.064980  0.000000      6.000000
  0.150065  0.086640  0.000000      6.000000
  0.187581  0.108300  0.000000      6.000000
  0.037516  0.064980  0.000000      6.000000
  0.075032  0.086640  0.000000     12.000000
  0.112548  0.108300  0.000000     12.000000
  0.150065  0.129960  0.000000     12.000000
  0.187581  0.151620  0.000000      6.000000
  0.075032  0.129960  0.000000      6.000000
  0.112548  0.151620  0.000000     12.000000
  0.150065  0.173280  0.000000     12.000000
  0.112548  0.194940  0.000000      6.000000
  0.150065  0.216599  0.000000      6.000000
  0.000000  0.000000  0.022208      2.000000
  0.037516  0.021660  0.022208     12.000000
  0.075032  0.043320  0.022208     12.000000
  0.112548  0.064980  0.022208     12.000000
  0.150065  0.086640  0.022208     12.000000
  0.187581  0.108300  0.022208     12.000000
  0.037516  0.064980  0.022208     12.000000
  0.075032  0.086640  0.022208     24.000000
  0.112548  0.108300  0.022208     24.000000
  0.150065  0.129960  0.022208     24.000000
  0.187581  0.151620  0.022208     12.000000
  0.075032  0.129960  0.022208     12.000000
  0.112548  0.151620  0.022208     24.000000
  0.150065  0.173280  0.022208     24.000000
  0.112548  0.194940  0.022208     12.000000
  0.150065  0.216599  0.022208     12.000000
  0.000000  0.000000  0.044417      2.000000
  0.037516  0.021660  0.044417     12.000000
  0.075032  0.043320  0.044417     12.000000
  0.112548  0.064980  0.044417     12.000000
  0.150065  0.086640  0.044417     12.000000
  0.187581  0.108300  0.044417     12.000000
  0.037516  0.064980  0.044417     12.000000
  0.075032  0.086640  0.044417     24.000000
  0.112548  0.108300  0.044417     24.000000
  0.150065  0.129960  0.044417     24.000000
  0.187581  0.151620  0.044417     12.000000
  0.075032  0.129960  0.044417     12.000000
  0.112548  0.151620  0.044417     24.000000
  0.150065  0.173280  0.044417     24.000000
  0.112548  0.194940  0.044417     12.000000
  0.150065  0.216599  0.044417     12.000000
  0.000000  0.000000  0.066625      2.000000
  0.037516  0.021660  0.066625     12.000000
  0.075032  0.043320  0.066625     12.000000
  0.112548  0.064980  0.066625     12.000000
  0.150065  0.086640  0.066625     12.000000
  0.187581  0.108300  0.066625     12.000000
  0.037516  0.064980  0.066625     12.000000
  0.075032  0.086640  0.066625     24.000000
  0.112548  0.108300  0.066625     24.000000
  0.150065  0.129960  0.066625     24.000000
  0.187581  0.151620  0.066625     12.000000
  0.075032  0.129960  0.066625     12.000000
  0.112548  0.151620  0.066625     24.000000
  0.150065  0.173280  0.066625     24.000000
  0.112548  0.194940  0.066625     12.000000
  0.150065  0.216599  0.066625     12.000000
  0.000000  0.000000  0.088834      2.000000
  0.037516  0.021660  0.088834     12.000000
  0.075032  0.043320  0.088834     12.000000
  0.112548  0.064980  0.088834     12.000000
  0.150065  0.086640  0.088834     12.000000
  0.187581  0.108300  0.088834     12.000000
  0.037516  0.064980  0.088834     12.000000
  0.075032  0.086640  0.088834     24.000000
  0.112548  0.108300  0.088834     24.000000
  0.150065  0.129960  0.088834     24.000000
  0.187581  0.151620  0.088834     12.000000
  0.075032  0.129960  0.088834     12.000000
  0.112548  0.151620  0.088834     24.000000
  0.150065  0.173280  0.088834     24.000000
  0.112548  0.194940  0.088834     12.000000
  0.150065  0.216599  0.088834     12.000000
  0.000000  0.000000  0.111042      2.000000
  0.037516  0.021660  0.111042     12.000000
  0.075032  0.043320  0.111042     12.000000
  0.112548  0.064980  0.111042     12.000000
  0.150065  0.086640  0.111042     12.000000
  0.187581  0.108300  0.111042     12.000000
  0.037516  0.064980  0.111042     12.000000
  0.075032  0.086640  0.111042     24.000000
  0.112548  0.108300  0.111042     24.000000
  0.150065  0.129960  0.111042     24.000000
  0.187581  0.151620  0.111042     12.000000
  0.075032  0.129960  0.111042     12.000000
  0.112548  0.151620  0.111042     24.000000
  0.150065  0.173280  0.111042     24.000000
  0.112548  0.194940  0.111042     12.000000
  0.150065  0.216599  0.111042     12.000000
 


--------------------------------------------------------------------------------------------------------




 Dimension of arrays:
   k-points           NKPTS =     96   k-points in BZ     NKDIM =     96   number of bands    NBANDS=     40
   number of dos      NEDOS =    301   number of ions     NIONS =      2
   non local maximal  LDIM  =      6   non local SUM 2l+1 LMDIM =     18
   total plane-waves  NPLWV =   1800
   max r-space proj   IRMAX =      1   max aug-charges    IRDMAX=   3279
   dimension x,y,z NGX =    10 NGY =   10 NGZ =   18
   dimension x,y,z NGXF=    20 NGYF=   20 NGZF=   36
   support grid    NGXF=    20 NGYF=   20 NGZF=   36
   ions per type =               2
   NGX,Y,Z   is equivalent  to a cutoff of   6.86,  6.86,  7.31 a.u.
   NGXF,Y,Z  is equivalent  to a cutoff of  13.72, 13.72, 14.62 a.u.

 SYSTEM =  unknown system                          
 POSCAR =  Fe                                      

 Startparameter for this run:
   NWRITE =      2    write-flag & timer
   PREC   = normal    normal or accurate (medium, high low for compatibility)
   ISTART =      0    job   : 0-new  1-cont  2-samecut
   ICHARG =      1    charge: 1-file 2-atom 10-const
   ISPIN  =      1    spin polarized calculation?
   LNONCOLLINEAR =      F non collinear calculations
   LSORBIT =      F    spin-orbit coupling
   INIWAV =      1    electr: 0-lowe 1-rand  2-diag
   LASPH  =      F    aspherical Exc in radial PAW
   METAGGA=      F    non-selfconsistent MetaGGA calc.

 Electronic Relaxation 1
   ENCUT  =  280.0 eV  20.58 Ry    4.54 a.u.   3.31  3.31  5.59*2*pi/ulx,y,z
   ENINI  =  280.0     initial cutoff
   ENAUG  =  511.4 eV  augmentation charge cutoff
   NELM   =     60;   NELMIN=  2; NELMDL= -5     # of ELM steps 
   EDIFF  = 0.1E-05   stopping-criterion for ELM
   LREAL  =      F    real-space projection
   NLSPLINE    = F    spline interpolate recip. space projectors
   LCOMPAT=      F    compatible to vasp.4.4
   GGA_COMPAT  = T    GGA compatible to vasp.4.4-vasp.4.6
   LMAXPAW     = -100 max onsite density
   LMAXMIX     =    2 max onsite mixed and CHGCAR
   VOSKOWN=      0    Vosko Wilk Nusair interpolation
   ROPT   =    0.00000
 Ionic relaxation
   EDIFFG = 0.1E-04   stopping-criterion for IOM
   NSW    =      0    number of steps for IOM
   NBLOCK =      1;   KBLOCK =      1    inner block; outer block 
   IBRION =     -1    ionic relax: 0-MD 1-quasi-New 2-CG
   NFREE  =      0    steps in history (QN), initial steepest desc. (CG)
   ISIF   =      2    stress and relaxation
   IWAVPR =      0    prediction:  0-non 1-charg 2-wave 3-comb
   ISYM   =      2    0-nonsym 1-usesym 2-fastsym
   LCORR  =      T    Harris-Foulkes like correction to forces

   POTIM  = 0.5000    time-step for ionic-motion
   TEIN   =    0.0    initial temperature
   TEBEG  =    0.0;   TEEND  =   0.0 temperature during run
   SMASS  =  -3.00    Nose mass-parameter (am)
   estimated Nose-frequenzy (Omega)   =  0.10E-29 period in steps = 0.13E+47 mass=  -0.134E-27a.u.
   SCALEE = 1.0000    scale energy and forces
   NPACO  =    256;   APACO  = 16.0  distance and # of slots for P.C.
   PSTRESS=    0.0 pullay stress

  Mass of Ions in am
   POMASS =  55.85
  Ionic Valenz
   ZVAL   =   8.00
  Atomic Wigner-Seitz radii
   RWIGS  =  -1.00
  virtual crystal weights 
   VCA    =   1.00
   NELECT =      16.0000    total number of electrons
   NUPDOWN=      -1.0000    fix difference up-down

 DOS related values:
   EMIN   =  10.00;   EMAX   =-10.00  energy-range for DOS
   EFERMI =   0.00
   ISMEAR =     1;   SIGMA  =   0.20  broadening in eV -4-tet -1-fermi 0-gaus

 Electronic relaxation 2 (details)
   IALGO  =     38    algorithm
   LDIAG  =      T    sub-space diagonalisation (order eigenvalues)
   LSUBROT=      F    optimize rotation matrix (better conditioning)
   TURBO    =      0    0=normal 1=particle mesh
   IRESTART =      0    0=no restart 2=restart with 2 vectors
   NREBOOT  =      0    no. of reboots
   NMIN     =      0    reboot dimension
   EREF     =   0.00    reference energy to select bands
   IMIX   =      4    mixing-type and parameters
     AMIX     =   0.40;   BMIX     =  1.00
     AMIX_MAG =   1.60;   BMIX_MAG =  1.00
     AMIN     =   0.10
     WC   =   100.;   INIMIX=   1;  MIXPRE=   1;  MAXMIX= -45

 Intra band minimization:
   WEIMIN = 0.0000     energy-eigenvalue tresh-hold
   EBREAK =  0.62E-08  absolut break condition
   DEPER  =   0.30     relativ break condition  

   TIME   =   0.40     timestep for ELM

  volume/ion in A,a.u.               =      10.41        70.24
  Fermi-wavevector in a.u.,A,eV,Ry     =   1.499624  2.833878 30.597751  2.248871
  Thomas-Fermi vector in A             =   2.611230
 
 Write flags
   LWAVE        =      T    write WAVECAR
   LDOWNSAMPLE  =      F    k-point downsampling of WAVECAR
   LCHARG       =      T    write CHGCAR
   LVTOT        =      F    write LOCPOT, total local potential
   LVHAR        =      F    write LOCPOT, Hartree potential only
   LELF         =      F    write electronic localiz. function (ELF)
   LORBIT       =      0    0 simple, 1 ext, 2 COOP (PROOUT), +10 PAW based schemes


 Dipole corrections
   LMONO  =      F    monopole corrections only (constant potential shift)
   LDIPOL =      F    correct potential (dipole corrections)
   IDIPOL =      0    1-x, 2-y, 3-z, 4-all directions 
   EPSILON=  1.0000000 bulk dielectric constant

 Exchange correlation treatment:
   GGA     =    PE    GGA type
   LEXCH   =     8    internal setting for exchange type
   VOSKOWN=      0    Vosko Wilk Nusair interpolation
   LHFCALC =     F    Hartree Fock is set to
   LHFONE  =     F    Hartree Fock one center treatment
   AEXX    =    0.0000 exact exchange contribution

 Linear response parameters
   LEPSILON=     F    determine dielectric tensor
   LRPA    =     F    only Hartree local field effects (RPA)
   LNABLA  =     F    use nabla operator in PAW spheres
   LVEL    =     F    velocity operator in full k-point grid
   LINTERFAST=   F  fast interpolation
   KINTER  =     0    interpolate to denser k-point grid
   CSHIFT  =0.1000    complex shift for real part using Kramers Kronig
   OMEGAMAX=  -1.0    maximum frequency
   DEG_THRESHOLD= 0.2000000E-02 threshold for treating states as degnerate
   RTIME   =   -0.100 relaxation time in fs
  (WPLASMAI=    0.000 imaginary part of plasma frequency in eV, 0.658/RTIME)
   DFIELD  = 0.0000000 0.0000000 0.0000000 field for delta impulse in time
 
 Orbital magnetization related:
   ORBITALMAG=     F  switch on orbital magnetization
   LCHIMAG   =     F  perturbation theory with respect to B field
   DQ        =  0.001000  dq finite difference perturbation B field
   LLRAUG    =     F  two centre corrections for induced B field



--------------------------------------------------------------------------------------------------------


 Static calculation
 charge density and potential will be updated during run
 non-spin polarized calculation
 Variant of blocked Davidson
 Davidson routine will perform the subspace rotation
 perform sub-space diagonalisation
    after iterative eigenvector-optimisation
 modified Broyden-mixing scheme, WC =      100.0
 initial mixing is a Kerker type mixing with AMIX =  0.4000 and BMIX =      1.0000
 Hartree-type preconditioning will be used
 using additional bands           32
 reciprocal scheme for non local part
 use partial core corrections
 calculate Harris-corrections to forces 
   (improved forces if not selfconsistent)
 use gradient corrections 
 use of overlap-Matrix (Vanderbilt PP)
 Methfessel and Paxton  Order N= 1 SIGMA  =   0.20


--------------------------------------------------------------------------------------------------------


  energy-cutoff  :      280.00
  volume of cell :       20.82
      direct lattice vectors                 reciprocal lattice vectors
     2.423200000  0.000000000  0.000000000     0.412677451  0.238259438  0.000000000
    -1.211600000  2.098552758  0.000000000     0.000000000  0.476518875  0.000000000
     0.000000000  0.000000000  4.093440000     0.000000000  0.000000000  0.244293308

  length of vectors
     2.423200000  2.423200000  4.093440000     0.476518875  0.476518875  0.244293308


 
 k-points in units of 2pi/SCALE and weight: KPOINTS created by Atomic Simulation Env
   0.00000000  0.00000000  0.00000000       0.001
   0.03751613  0.02165995  0.00000000       0.005
   0.07503226  0.04331990  0.00000000       0.005
   0.11254840  0.06497985  0.00000000       0.005
   0.15006453  0.08663980  0.00000000       0.005
   0.18758066  0.10829974  0.00000000       0.005
   0.03751613  0.06497985  0.00000000       0.005
   0.07503226  0.08663980  0.00000000       0.009
   0.11254840  0.10829974  0.00000000       0.009
   0.15006453  0.12995969  0.00000000       0.009
   0.18758066  0.15161964  0.00000000       0.005
   0.07503226  0.12995969  0.00000000       0.005
   0.11254840  0.15161964  0.00000000       0.009
   0.15006453  0.17327959  0.00000000       0.009
   0.11254840  0.19493954  0.00000000       0.005
   0.15006453  0.21659949  0.00000000       0.005
   0.00000000  0.00000000  0.02220848       0.002
   0.03751613  0.02165995  0.02220848       0.009
   0.07503226  0.04331990  0.02220848       0.009
   0.11254840  0.06497985  0.02220848       0.009
   0.15006453  0.08663980  0.02220848       0.009
   0.18758066  0.10829974  0.02220848       0.009
   0.03751613  0.06497985  0.02220848       0.009
   0.07503226  0.08663980  0.02220848       0.018
   0.11254840  0.10829974  0.02220848       0.018
   0.15006453  0.12995969  0.02220848       0.018
   0.18758066  0.15161964  0.02220848       0.009
   0.07503226  0.12995969  0.02220848       0.009
   0.11254840  0.15161964  0.02220848       0.018
   0.15006453  0.17327959  0.02220848       0.018
   0.11254840  0.19493954  0.02220848       0.009
   0.15006453  0.21659949  0.02220848       0.009
   0.00000000  0.00000000  0.04441697       0.002
   0.03751613  0.02165995  0.04441697       0.009
   0.07503226  0.04331990  0.04441697       0.009
   0.11254840  0.06497985  0.04441697       0.009
   0.15006453  0.08663980  0.04441697       0.009
   0.18758066  0.10829974  0.04441697       0.009
   0.03751613  0.06497985  0.04441697       0.009
   0.07503226  0.08663980  0.04441697       0.018
   0.11254840  0.10829974  0.04441697       0.018
   0.15006453  0.12995969  0.04441697       0.018
   0.18758066  0.15161964  0.04441697       0.009
   0.07503226  0.12995969  0.04441697       0.009
   0.11254840  0.15161964  0.04441697       0.018
   0.15006453  0.17327959  0.04441697       0.018
   0.11254840  0.19493954  0.04441697       0.009
   0.15006453  0.21659949  0.04441697       0.009
   0.00000000  0.00000000  0.06662545       0.002
   0.03751613  0.02165995  0.06662545       0.009
   0.07503226  0.04331990  0.06662545       0.009
   0.11254840  0.06497985  0.06662545       0.009
   0.15006453  0.08663980  0.06662545       0.009
   0.18758066  0.10829974  0.06662545       0.009
   0.03751613  0.06497985  0.06662545       0.009
   0.07503226  0.08663980  0.06662545       0.018
   0.11254840  0.10829974  0.06662545       0.018
   0.15006453  0.12995969  0.06662545       0.018
   0.18758066  0.15161964  0.06662545       0.009
   0.07503226  0.12995969  0.06662545       0.009
   0.11254840  0.15161964  0.06662545       0.018
   0.15006453  0.17327959  0.06662545       0.018
   0.11254840  0.19493954  0.06662545       0.009
   0.15006453  0.21659949  0.06662545       0.009
   0.00000000  0.00000000  0.08883393       0.002
   0.03751613  0.02165995  0.08883393       0.009
   0.07503226  0.04331990  0.08883393       0.009
   0.11254840  0.06497985  0.08883393       0.009
   0.15006453  0.08663980  0.08883393       0.009
   0.18758066  0.10829974  0.08883393       0.009
   0.03751613  0.06497985  0.08883393       0.009
   0.07503226  0.08663980  0.08883393       0.018
   0.11254840  0.10829974  0.08883393       0.018
   0.15006453  0.12995969  0.08883393       0.018
   0.18758066  0.15161964  0.08883393       0.009
   0.07503226  0.12995969  0.08883393       0.009
   0.11254840  0.15161964  0.08883393       0.018
   0.15006453  0.17327959  0.08883393       0.018
   0.11254840  0.19493954  0.08883393       0.009
   0.15006453  0.21659949  0.08883393       0.009
   0.00000000  0.00000000  0.11104241       0.002
   0.03751613  0.02165995  0.11104241       0.009
   0.07503226  0.04331990  0.11104241       0.009
   0.11254840  0.06497985  0.11104241       0.009
   0.15006453  0.08663980  0.11104241       0.009
   0.18758066  0.10829974  0.11104241       0.009
   0.03751613  0.06497985  0.11104241       0.009
   0.07503226  0.08663980  0.11104241       0.018
   0.11254840  0.10829974  0.11104241       0.018
   0.15006453  0.12995969  0.11104241       0.018
   0.18758066  0.15161964  0.11104241       0.009
   0.07503226  0.12995969  0.11104241       0.009
   0.11254840  0.15161964  0.11104241       0.018
   0.15006453  0.17327959  0.11104241       0.018
   0.11254840  0.19493954  0.11104241       0.009
   0.15006453  0.21659949  0.11104241       0.009
 
 k-points in reciprocal lattice and weights: KPOINTS created by Atomic Simulation Env
   0.00000000  0.00000000  0.00000000       0.001
   0.09090909  0.00000000  0.00000000       0.005
   0.18181818  0.00000000  0.00000000       0.005
   0.27272727  0.00000000  0.00000000       0.005
   0.36363636  0.00000000  0.00000000       0.005
   0.45454545 -0.00000000  0.00000000       0.005
   0.09090909  0.09090909  0.00000000       0.005
   0.18181818  0.09090909  0.00000000       0.009
   0.27272727  0.09090909  0.00000000       0.009
   0.36363636  0.09090909  0.00000000       0.009
   0.45454545  0.09090909  0.00000000       0.005
   0.18181818  0.18181818  0.00000000       0.005
   0.27272727  0.18181818  0.00000000       0.009
   0.36363636  0.18181818  0.00000000       0.009
   0.27272727  0.27272727  0.00000000       0.005
   0.36363636  0.27272727  0.00000000       0.005
   0.00000000  0.00000000  0.09090909       0.002
   0.09090909  0.00000000  0.09090909       0.009
   0.18181818  0.00000000  0.09090909       0.009
   0.27272727  0.00000000  0.09090909       0.009
   0.36363636  0.00000000  0.09090909       0.009
   0.45454545 -0.00000000  0.09090909       0.009
   0.09090909  0.09090909  0.09090909       0.009
   0.18181818  0.09090909  0.09090909       0.018
   0.27272727  0.09090909  0.09090909       0.018
   0.36363636  0.09090909  0.09090909       0.018
   0.45454545  0.09090909  0.09090909       0.009
   0.18181818  0.18181818  0.09090909       0.009
   0.27272727  0.18181818  0.09090909       0.018
   0.36363636  0.18181818  0.09090909       0.018
   0.27272727  0.27272727  0.09090909       0.009
   0.36363636  0.27272727  0.09090909       0.009
   0.00000000  0.00000000  0.18181818       0.002
   0.09090909  0.00000000  0.18181818       0.009
   0.18181818  0.00000000  0.18181818       0.009
   0.27272727  0.00000000  0.18181818       0.009
   0.36363636  0.00000000  0.18181818       0.009
   0.45454545 -0.00000000  0.18181818       0.009
   0.09090909  0.09090909  0.18181818       0.009
   0.18181818  0.09090909  0.18181818       0.018
   0.27272727  0.09090909  0.18181818       0.018
   0.36363636  0.09090909  0.18181818       0.018
   0.45454545  0.09090909  0.18181818       0.009
   0.18181818  0.18181818  0.18181818       0.009
   0.27272727  0.18181818  0.18181818       0.018
   0.36363636  0.18181818  0.18181818       0.018
   0.27272727  0.27272727  0.18181818       0.009
   0.36363636  0.27272727  0.18181818       0.009
   0.00000000  0.00000000  0.27272727       0.002
   0.09090909  0.00000000  0.27272727       0.009
   0.18181818  0.00000000  0.27272727       0.009
   0.27272727  0.00000000  0.27272727       0.009
   0.36363636  0.00000000  0.27272727       0.009
   0.45454545 -0.00000000  0.27272727       0.009
   0.09090909  0.09090909  0.27272727       0.009
   0.18181818  0.09090909  0.27272727       0.018
   0.27272727  0.09090909  0.27272727       0.018
   0.36363636  0.09090909  0.27272727       0.018
   0.45454545  0.09090909  0.27272727       0.009
   0.18181818  0.18181818  0.27272727       0.009
   0.27272727  0.18181818  0.27272727       0.018
   0.36363636  0.18181818  0.27272727       0.018
   0.27272727  0.27272727  0.27272727       0.009
   0.36363636  0.27272727  0.27272727       0.009
   0.00000000  0.00000000  0.36363636       0.002
   0.09090909  0.00000000  0.36363636       0.009
   0.18181818  0.00000000  0.36363636       0.009
   0.27272727  0.00000000  0.36363636       0.009
   0.36363636  0.00000000  0.36363636       0.009
   0.45454545 -0.00000000  0.36363636       0.009
   0.09090909  0.09090909  0.36363636       0.009
   0.18181818  0.09090909  0.36363636       0.018
   0.27272727  0.09090909  0.36363636       0.018
   0.36363636  0.09090909  0.36363636       0.018
   0.45454545  0.09090909  0.36363636       0.009
   0.18181818  0.18181818  0.36363636       0.009
   0.27272727  0.18181818  0.36363636       0.018
   0.36363636  0.18181818  0.36363636       0.018
   0.27272727  0.27272727  0.36363636       0.009
   0.36363636  0.27272727  0.36363636       0.009
   0.00000000  0.00000000  0.45454545       0.002
   0.09090909  0.00000000  0.45454545       0.009
   0.18181818  0.00000000  0.45454545       0.009
   0.27272727  0.00000000  0.45454545       0.009
   0.36363636  0.00000000  0.45454545       0.009
   0.45454545 -0.00000000  0.45454545       0.009
   0.09090909  0.09090909  0.45454545       0.009
   0.18181818  0.09090909  0.45454545       0.018
   0.27272727  0.09090909  0.45454545       0.018
   0.36363636  0.09090909  0.45454545       0.018
   0.45454545  0.09090909  0.45454545       0.009
   0.18181818  0.18181818  0.45454545       0.009
   0.27272727  0.18181818  0.45454545       0.018
   0.36363636  0.18181818  0.45454545       0.018
   0.27272727  0.27272727  0.45454545       0.009
   0.36363636  0.27272727  0.45454545       0.009
 
 position of ions in fractional coordinates (direct lattice) 
   0.00000000  0.00000000  0.00000000
   0.33333333  0.66666667  0.50000000
 
 position of ions in cartesian coordinates  (Angst):
   0.00000000  0.00000000  0.00000000
   0.00000000  1.39903517  2.04672000
 


--------------------------------------------------------------------------------------------------------


 k-point   1 :   0.0000 0.0000 0.0000  plane waves:     233
 k-point   2 :   0.0909 0.0000 0.0000  plane waves:     231
 k-point   3 :   0.1818 0.0000 0.0000  plane waves:     224
 k-point   4 :   0.2727 0.0000 0.0000  plane waves:     224
 k-point   5 :   0.3636 0.0000 0.0000  plane waves:     224
 k-point   6 :   0.4545-0.0000 0.0000  plane waves:     222
 k-point   7 :   0.0909 0.0909 0.0000  plane waves:     225
 k-point   8 :   0.1818 0.0909 0.0000  plane waves:     225
 k-point   9 :   0.2727 0.0909 0.0000  plane waves:     224
 k-point  10 :   0.3636 0.0909 0.0000  plane waves:     219
 k-point  11 :   0.4545 0.0909 0.0000  plane waves:     220
 k-point  12 :   0.1818 0.1818 0.0000  plane waves:     219
 k-point  13 :   0.2727 0.1818 0.0000  plane waves:     221
 k-point  14 :   0.3636 0.1818 0.0000  plane waves:     220
 k-point  15 :   0.2727 0.2727 0.0000  plane waves:     215
 k-point  16 :   0.3636 0.2727 0.0000  plane waves:     214
 k-point  17 :   0.0000 0.0000 0.0909  plane waves:     239
 k-point  18 :   0.0909 0.0000 0.0909  plane waves:     227
 k-point  19 :   0.1818 0.0000 0.0909  plane waves:     228
 k-point  20 :   0.2727 0.0000 0.0909  plane waves:     219
 k-point  21 :   0.3636 0.0000 0.0909  plane waves:     223
 k-point  22 :   0.4545-0.0000 0.0909  plane waves:     226
 k-point  23 :   0.0909 0.0909 0.0909  plane waves:     227
 k-point  24 :   0.1818 0.0909 0.0909  plane waves:     223
 k-point  25 :   0.2727 0.0909 0.0909  plane waves:     225
 k-point  26 :   0.3636 0.0909 0.0909  plane waves:     220
 k-point  27 :   0.4545 0.0909 0.0909  plane waves:     219
 k-point  28 :   0.1818 0.1818 0.0909  plane waves:     223
 k-point  29 :   0.2727 0.1818 0.0909  plane waves:     221
 k-point  30 :   0.3636 0.1818 0.0909  plane waves:     218
 k-point  31 :   0.2727 0.2727 0.0909  plane waves:     218
 k-point  32 :   0.3636 0.2727 0.0909  plane waves:     214
 k-point  33 :   0.0000 0.0000 0.1818  plane waves:     227
 k-point  34 :   0.0909 0.0000 0.1818  plane waves:     227
 k-point  35 :   0.1818 0.0000 0.1818  plane waves:     224
 k-point  36 :   0.2727 0.0000 0.1818  plane waves:     219
 k-point  37 :   0.3636 0.0000 0.1818  plane waves:     223
 k-point  38 :   0.4545-0.0000 0.1818  plane waves:     225
 k-point  39 :   0.0909 0.0909 0.1818  plane waves:     225
 k-point  40 :   0.1818 0.0909 0.1818  plane waves:     223
 k-point  41 :   0.2727 0.0909 0.1818  plane waves:     222
 k-point  42 :   0.3636 0.0909 0.1818  plane waves:     223
 k-point  43 :   0.4545 0.0909 0.1818  plane waves:     221
 k-point  44 :   0.1818 0.1818 0.1818  plane waves:     223
 k-point  45 :   0.2727 0.1818 0.1818  plane waves:     220
 k-point  46 :   0.3636 0.1818 0.1818  plane waves:     219
 k-point  47 :   0.2727 0.2727 0.1818  plane waves:     218
 k-point  48 :   0.3636 0.2727 0.1818  plane waves:     212
 k-point  49 :   0.0000 0.0000 0.2727  plane waves:     221
 k-point  50 :   0.0909 0.0000 0.2727  plane waves:     224
 k-point  51 :   0.1818 0.0000 0.2727  plane waves:     224
 k-point  52 :   0.2727 0.0000 0.2727  plane waves:     221
 k-point  53 :   0.3636 0.0000 0.2727  plane waves:     223
 k-point  54 :   0.4545-0.0000 0.2727  plane waves:     224
 k-point  55 :   0.0909 0.0909 0.2727  plane waves:     222
 k-point  56 :   0.1818 0.0909 0.2727  plane waves:     223
 k-point  57 :   0.2727 0.0909 0.2727  plane waves:     223
 k-point  58 :   0.3636 0.0909 0.2727  plane waves:     222
 k-point  59 :   0.4545 0.0909 0.2727  plane waves:     220
 k-point  60 :   0.1818 0.1818 0.2727  plane waves:     219
 k-point  61 :   0.2727 0.1818 0.2727  plane waves:     219
 k-point  62 :   0.3636 0.1818 0.2727  plane waves:     219
 k-point  63 :   0.2727 0.2727 0.2727  plane waves:     220
 k-point  64 :   0.3636 0.2727 0.2727  plane waves:     223
 k-point  65 :   0.0000 0.0000 0.3636  plane waves:     221
 k-point  66 :   0.0909 0.0000 0.3636  plane waves:     223
 k-point  67 :   0.1818 0.0000 0.3636  plane waves:     222
 k-point  68 :   0.2727 0.0000 0.3636  plane waves:     218
 k-point  69 :   0.3636 0.0000 0.3636  plane waves:     217
 k-point  70 :   0.4545-0.0000 0.3636  plane waves:     219
 k-point  71 :   0.0909 0.0909 0.3636  plane waves:     219
 k-point  72 :   0.1818 0.0909 0.3636  plane waves:     221
 k-point  73 :   0.2727 0.0909 0.3636  plane waves:     217
 k-point  74 :   0.3636 0.0909 0.3636  plane waves:     222
 k-point  75 :   0.4545 0.0909 0.3636  plane waves:     223
 k-point  76 :   0.1818 0.1818 0.3636  plane waves:     221
 k-point  77 :   0.2727 0.1818 0.3636  plane waves:     222
 k-point  78 :   0.3636 0.1818 0.3636  plane waves:     221
 k-point  79 :   0.2727 0.2727 0.3636  plane waves:     220
 k-point  80 :   0.3636 0.2727 0.3636  plane waves:     227
 k-point  81 :   0.0000 0.0000 0.4545  plane waves:     216
 k-point  82 :   0.0909 0.0000 0.4545  plane waves:     222
 k-point  83 :   0.1818 0.0000 0.4545  plane waves:     222
 k-point  84 :   0.2727 0.0000 0.4545  plane waves:     214
 k-point  85 :   0.3636 0.0000 0.4545  plane waves:     219
 k-point  86 :   0.4545-0.0000 0.4545  plane waves:     216
 k-point  87 :   0.0909 0.0909 0.4545  plane waves:     226
 k-point  88 :   0.1818 0.0909 0.4545  plane waves:     220
 k-point  89 :   0.2727 0.0909 0.4545  plane waves:     219
 k-point  90 :   0.3636 0.0909 0.4545  plane waves:     220
 k-point  91 :   0.4545 0.0909 0.4545  plane waves:     222
 k-point  92 :   0.1818 0.1818 0.4545  plane waves:     216
 k-point  93 :   0.2727 0.1818 0.4545  plane waves:     219
 k-point  94 :   0.3636 0.1818 0.4545  plane waves:     223
 k-point  95 :   0.2727 0.2727 0.4545  plane waves:     225
 k-point  96 :   0.3636 0.2727 0.4545  plane waves:     224

 maximum number of plane-waves:       239
 maximum index in each direction: 
   IXMAX=    3   IYMAX=    3   IZMAX=    5
   IXMIN=   -3   IYMIN=   -3   IZMIN=   -6


 total amount of memory used by VASP MPI-rank0    51050. kBytes
=======================================================================

   base      :      30000. kBytes
   nonl-proj :       3311. kBytes
   grid      :        812. kBytes
   one-center:         31. kBytes
   wavefun   :      16896. kBytes
 
     INWAV:  cpu time    0.0000: real time    0.0000
 Broyden mixing: mesh for mixing (old mesh)
   NGX =  7   NGY =  7   NGZ = 11
  (NGX  = 20   NGY  = 20   NGZ  = 36)
  gives a total of    539 points

 initial charge density was supplied:
 charge density of overlapping atoms calculated
 number of electron      16.0000000 magnetization 
 keeping initial charge density in first step


--------------------------------------------------------------------------------------------------------


 Maximum index for augmentation-charges         3000 (set IRDMAX)


--------------------------------------------------------------------------------------------------------


 First call to EWALD:  gamma=   0.644
 Maximum number of real-space cells 3x 3x 2
 Maximum number of reciprocal cells 2x 2x 4

    FEWALD:  cpu time    0.0008: real time    0.0008


--------------------------------------- Iteration      1(   1)  ---------------------------------------


    POTLOK:  cpu time    0.0035: real time    0.0035
    SETDIJ:  cpu time    0.0022: real time    0.0022
     EDDAV:  cpu time    0.8000: real time    0.8201
       DOS:  cpu time    0.0057: real time    0.0057
    --------------------------------------------
      LOOP:  cpu time    0.8114: real time    0.8316

 eigenvalue-minimisations  :  9240
 total energy-change (2. order) : 0.6057412E+02  (-0.2722981E+03)
 number of electron      16.0000000 magnetization 
 augmentation part       16.0000000 magnetization 

 Free energy of the ion-electron system (eV)
  ---------------------------------------------------
  alpha Z        PSCENC =       132.80885455
  Ewald energy   TEWEN  =     -1218.90499911
  -Hartree energ DENC   =      -210.13673574
  -exchange      EXHF   =         0.00000000
  -V(xc)+E(xc)   XCENC  =         8.35335388
  PAW double counting   =      1109.69170683    -1125.09647265
  entropy T*S    EENTRO =         0.00078327
  eigenvalues    EBANDS =       175.28271991
  atomic energy  EATOM  =      1188.57490811
  Solvation  Ediel_sol  =         0.00000000
  ---------------------------------------------------
  free energy    TOTEN  =        60.57411906 eV

  energy without entropy =       60.57333579  energy(sigma->0) =       60.57385797


--------------------------------------------------------------------------------------------------------




--------------------------------------- Iteration      1(   2)  ---------------------------------------


     EDDAV:  cpu time    0.6922: real time    0.6922
       DOS:  cpu time    0.0063: real time    0.0063
    --------------------------------------------
      LOOP:  cpu time    0.6985: real time    0.6985

 eigenvalue-minimisations  :  7928
 total energy-change (2. order) :-0.7542927E+02  (-0.6408276E+02)
 number of electron      16.0000000 magnetization 
 augmentation part       16.0000000 magnetization 

 Free energy of the ion-electron system (eV)
  ---------------------------------------------------
  alpha Z        PSCENC =       132.80885455
  Ewald energy   TEWEN  =     -1218.90499911
  -Hartree energ DENC   =      -210.13673574
  -exchange      EXHF   =         0.00000000
  -V(xc)+E(xc)   XCENC  =         8.35335388
  PAW double counting   =      1109.69170683    -1125.09647265
  entropy T*S    EENTRO =        -0.00131536
  eigenvalues    EBANDS =        99.85555142
  atomic energy  EATOM  =      1188.57490811
  Solvation  Ediel_sol  =         0.00000000
  ---------------------------------------------------
  free energy    TOTEN  =       -14.85514807 eV

  energy without entropy =      -14.85383271  energy(sigma->0) =      -14.85470962


--------------------------------------------------------------------------------------------------------




--------------------------------------- Iteration      1(   3)  ---------------------------------------


     EDDAV:  cpu time    0.7973: real time    0.7973
       DOS:  cpu time    0.0063: real time    0.0063
    --------------------------------------------
      LOOP:  cpu time    0.8035: real time    0.8036

 eigenvalue-minimisations  :  9568
 total energy-change (2. order) :-0.4549020E+01  (-0.4324872E+01)
 number of electron      16.0000000 magnetization 
 augmentation part       16.0000000 magnetization 

 Free energy of the ion-electron system (eV)
  ---------------------------------------------------
  alpha Z        PSCENC =       132.80885455
  Ewald energy   TEWEN  =     -1218.90499911
  -Hartree energ DENC   =      -210.13673574
  -exchange      EXHF   =         0.00000000
  -V(xc)+E(xc)   XCENC  =         8.35335388
  PAW double counting   =      1109.69170683    -1125.09647265
  entropy T*S    EENTRO =        -0.00162446
  eigenvalues    EBANDS =        95.30684005
  atomic energy  EATOM  =      1188.57490811
  Solvation  Ediel_sol  =         0.00000000
  ---------------------------------------------------
  free energy    TOTEN  =       -19.40416853 eV

  energy without entropy =      -19.40254408  energy(sigma->0) =      -19.40362705


--------------------------------------------------------------------------------------------------------




--------------------------------------- Iteration      1(   4)  ---------------------------------------


     EDDAV:  cpu time    0.7691: real time    0.7691
       DOS:  cpu time    0.0063: real time    0.0063
    --------------------------------------------
      LOOP:  cpu time    0.7754: real time    0.7754

 eigenvalue-minimisations  :  9232
 total energy-change (2. order) :-0.2144899E-01  (-0.2143558E-01)
 number of electron      16.0000000 magnetization 
 augmentation part       16.0000000 magnetization 

 Free energy of the ion-electron system (eV)
  ---------------------------------------------------
  alpha Z        PSCENC =       132.80885455
  Ewald energy   TEWEN  =     -1218.90499911
  -Hartree energ DENC   =      -210.13673574
  -exchange      EXHF   =         0.00000000
  -V(xc)+E(xc)   XCENC  =         8.35335388
  PAW double counting   =      1109.69170683    -1125.09647265
  entropy T*S    EENTRO =        -0.00163927
  eigenvalues    EBANDS =        95.28540586
  atomic energy  EATOM  =      1188.57490811
  Solvation  Ediel_sol  =         0.00000000
  ---------------------------------------------------
  free energy    TOTEN  =       -19.42561753 eV

  energy without entropy =      -19.42397826  energy(sigma->0) =      -19.42507111


--------------------------------------------------------------------------------------------------------




--------------------------------------- Iteration      1(   5)  ---------------------------------------


     EDDAV:  cpu time    0.7681: real time    0.7681
       DOS:  cpu time    0.0066: real time    0.0066
    CHARGE:  cpu time    0.0201: real time    0.0201
    MIXING:  cpu time    0.0001: real time    0.0001
    --------------------------------------------
      LOOP:  cpu time    0.7950: real time    0.7950

 eigenvalue-minimisations  :  9232
 total energy-change (2. order) :-0.2822367E-04  (-0.2822259E-04)
 number of electron      15.9999896 magnetization 
 augmentation part        7.0491118 magnetization 

 Broyden mixing:
  rms(total) = 0.16651E+01    rms(broyden)= 0.16650E+01
  rms(prec ) = 0.29619E+01
  weight for this iteration     100.00

 Free energy of the ion-electron system (eV)
  ---------------------------------------------------
  alpha Z        PSCENC =       132.80885455
  Ewald energy   TEWEN  =     -1218.90499911
  -Hartree energ DENC   =      -210.13673574
  -exchange      EXHF   =         0.00000000
  -V(xc)+E(xc)   XCENC  =         8.35335388
  PAW double counting   =      1109.69170683    -1125.09647265
  entropy T*S    EENTRO =        -0.00163928
  eigenvalues    EBANDS =        95.28537765
  atomic energy  EATOM  =      1188.57490811
  Solvation  Ediel_sol  =         0.00000000
  ---------------------------------------------------
  free energy    TOTEN  =       -19.42564575 eV

  energy without entropy =      -19.42400647  energy(sigma->0) =      -19.42509932


--------------------------------------------------------------------------------------------------------




--------------------------------------- Iteration      1(   6)  ---------------------------------------


    POTLOK:  cpu time    0.0034: real time    0.0034
    SETDIJ:  cpu time    0.0021: real time    0.0021
     EDDAV:  cpu time    0.9098: real time    0.9098
       DOS:  cpu time    0.0069: real time    0.0069
    CHARGE:  cpu time    0.0207: real time    0.0207
    MIXING:  cpu time    0.0002: real time    0.0002
    --------------------------------------------
      LOOP:  cpu time    0.9430: real time    0.9431

 eigenvalue-minimisations  : 11120
 total energy-change (2. order) : 0.2935242E+01  (-0.1856051E+00)
 number of electron      15.9999871 magnetization 
 augmentation part        8.5175247 magnetization 

 Broyden mixing:
  rms(total) = 0.27720E+00    rms(broyden)= 0.27711E+00
  rms(prec ) = 0.49519E+00
  weight for this iteration     100.00

 eigenvalues of (default mixing * dielectric matrix)
  average eigenvalue GAMMA=   0.9008
  0.9008

 Free energy of the ion-electron system (eV)
  ---------------------------------------------------
  alpha Z        PSCENC =       132.80885455
  Ewald energy   TEWEN  =     -1218.90499911
  -Hartree energ DENC   =      -174.79631657
  -exchange      EXHF   =         0.00000000
  -V(xc)+E(xc)   XCENC  =         6.62832345
  PAW double counting   =      1241.60606205    -1252.28750841
  entropy T*S    EENTRO =         0.00115974
  eigenvalues    EBANDS =        59.87911229
  atomic energy  EATOM  =      1188.57490811
  Solvation  Ediel_sol  =         0.00000000
  ---------------------------------------------------
  free energy    TOTEN  =       -16.49040389 eV

  energy without entropy =      -16.49156363  energy(sigma->0) =      -16.49079047


--------------------------------------------------------------------------------------------------------




--------------------------------------- Iteration      1(   7)  ---------------------------------------


    POTLOK:  cpu time    0.0034: real time    0.0034
    SETDIJ:  cpu time    0.0021: real time    0.0021
     EDDAV:  cpu time    0.8435: real time    0.8436
       DOS:  cpu time    0.0068: real time    0.0068
    CHARGE:  cpu time    0.0198: real time    0.0198
    MIXING:  cpu time    0.0002: real time    0.0002
    --------------------------------------------
      LOOP:  cpu time    0.8759: real time    0.8759

 eigenvalue-minimisations  : 10272
 total energy-change (2. order) : 0.2254151E+00  (-0.1458150E-01)
 number of electron      15.9999876 magnetization 
 augmentation part        8.1793134 magnetization 

 Broyden mixing:
  rms(total) = 0.99510E-01    rms(broyden)= 0.99509E-01
  rms(prec ) = 0.20538E+00
  weight for this iteration     100.00

 eigenvalues of (default mixing * dielectric matrix)
  average eigenvalue GAMMA=   0.9341
  1.1444  0.7238

 Free energy of the ion-electron system (eV)
  ---------------------------------------------------
  alpha Z        PSCENC =       132.80885455
  Ewald energy   TEWEN  =     -1218.90499911
  -Hartree energ DENC   =      -179.68913311
  -exchange      EXHF   =         0.00000000
  -V(xc)+E(xc)   XCENC  =         6.89885940
  PAW double counting   =      1314.62682657    -1328.92515124
  entropy T*S    EENTRO =         0.00094785
  eigenvalues    EBANDS =        68.34389819
  atomic energy  EATOM  =      1188.57490811
  Solvation  Ediel_sol  =         0.00000000
  ---------------------------------------------------
  free energy    TOTEN  =       -16.26498878 eV

  energy without entropy =      -16.26593663  energy(sigma->0) =      -16.26530473


--------------------------------------------------------------------------------------------------------




--------------------------------------- Iteration      1(   8)  ---------------------------------------


    POTLOK:  cpu time    0.0034: real time    0.0034
    SETDIJ:  cpu time    0.0021: real time    0.0021
     EDDAV:  cpu time    0.8258: real time    0.8258
       DOS:  cpu time    0.0068: real time    0.0068
    CHARGE:  cpu time    0.0194: real time    0.0194
    MIXING:  cpu time    0.0002: real time    0.0002
    --------------------------------------------
      LOOP:  cpu time    0.8576: real time    0.8577

 eigenvalue-minimisations  :  9920
 total energy-change (2. order) : 0.2527604E-01  (-0.3763753E-03)
 number of electron      15.9999876 magnetization 
 augmentation part        8.2095095 magnetization 

 Broyden mixing:
  rms(total) = 0.47972E-01    rms(broyden)= 0.47971E-01
  rms(prec ) = 0.97965E-01
  weight for this iteration     100.00

 eigenvalues of (default mixing * dielectric matrix)
  average eigenvalue GAMMA=   1.4471
  0.7748  1.0415  2.5251

 Free energy of the ion-electron system (eV)
  ---------------------------------------------------
  alpha Z        PSCENC =       132.80885455
  Ewald energy   TEWEN  =     -1218.90499911
  -Hartree energ DENC   =      -177.70504710
  -exchange      EXHF   =         0.00000000
  -V(xc)+E(xc)   XCENC  =         6.82027782
  PAW double counting   =      1367.78643364    -1383.30234603
  entropy T*S    EENTRO =         0.00103780
  eigenvalues    EBANDS =        67.68116759
  atomic energy  EATOM  =      1188.57490811
  Solvation  Ediel_sol  =         0.00000000
  ---------------------------------------------------
  free energy    TOTEN  =       -16.23971273 eV

  energy without entropy =      -16.24075053  energy(sigma->0) =      -16.24005866


--------------------------------------------------------------------------------------------------------




--------------------------------------- Iteration      1(   9)  ---------------------------------------


    POTLOK:  cpu time    0.0034: real time    0.0034
    SETDIJ:  cpu time    0.0021: real time    0.0021
     EDDAV:  cpu time    0.9159: real time    0.9159
       DOS:  cpu time    0.0064: real time    0.0064
    CHARGE:  cpu time    0.0198: real time    0.0198
    MIXING:  cpu time    0.0002: real time    0.0002
    --------------------------------------------
      LOOP:  cpu time    0.9478: real time    0.9478

 eigenvalue-minimisations  : 11248
 total energy-change (2. order) : 0.1163816E-01  (-0.9486374E-04)
 number of electron      15.9999875 magnetization 
 augmentation part        8.2271103 magnetization 

 Broyden mixing:
  rms(total) = 0.61233E-02    rms(broyden)= 0.61217E-02
  rms(prec ) = 0.67053E-02
  weight for this iteration     100.00

 eigenvalues of (default mixing * dielectric matrix)
  average eigenvalue GAMMA=   1.5517
  0.7739  1.0059  2.5467  1.8802

 Free energy of the ion-electron system (eV)
  ---------------------------------------------------
  alpha Z        PSCENC =       132.80885455
  Ewald energy   TEWEN  =     -1218.90499911
  -Hartree energ DENC   =      -175.49122317
  -exchange      EXHF   =         0.00000000
  -V(xc)+E(xc)   XCENC  =         6.73988167
  PAW double counting   =      1446.16397398    -1463.48035264
  entropy T*S    EENTRO =         0.00105038
  eigenvalues    EBANDS =        67.35983165
  atomic energy  EATOM  =      1188.57490811
  Solvation  Ediel_sol  =         0.00000000
  ---------------------------------------------------
  free energy    TOTEN  =       -16.22807457 eV

  energy without entropy =      -16.22912495  energy(sigma->0) =      -16.22842470


--------------------------------------------------------------------------------------------------------




--------------------------------------- Iteration      1(  10)  ---------------------------------------


    POTLOK:  cpu time    0.0034: real time    0.0034
    SETDIJ:  cpu time    0.0022: real time    0.0022
     EDDAV:  cpu time    0.7520: real time    0.7520
       DOS:  cpu time    0.0068: real time    0.0068
    CHARGE:  cpu time    0.0194: real time    0.0194
    MIXING:  cpu time    0.0002: real time    0.0002
    --------------------------------------------
      LOOP:  cpu time    0.7839: real time    0.7840

 eigenvalue-minimisations  :  8896
 total energy-change (2. order) :-0.2318242E-04  (-0.3786316E-05)
 number of electron      15.9999875 magnetization 
 augmentation part        8.2272348 magnetization 

 Broyden mixing:
  rms(total) = 0.24027E-02    rms(broyden)= 0.24023E-02
  rms(prec ) = 0.29482E-02
  weight for this iteration     100.00

 eigenvalues of (default mixing * dielectric matrix)
  average eigenvalue GAMMA=   1.6104
  2.5598  2.5598  0.7740  1.0083  1.1502

 Free energy of the ion-electron system (eV)
  ---------------------------------------------------
  alpha Z        PSCENC =       132.80885455
  Ewald energy   TEWEN  =     -1218.90499911
  -Hartree energ DENC   =      -175.52692719
  -exchange      EXHF   =         0.00000000
  -V(xc)+E(xc)   XCENC  =         6.74235767
  PAW double counting   =      1447.71590062    -1464.98976290
  entropy T*S    EENTRO =         0.00104597
  eigenvalues    EBANDS =        67.35052451
  atomic energy  EATOM  =      1188.57490811
  Solvation  Ediel_sol  =         0.00000000
  ---------------------------------------------------
  free energy    TOTEN  =       -16.22809776 eV

  energy without entropy =      -16.22914373  energy(sigma->0) =      -16.22844641


--------------------------------------------------------------------------------------------------------




--------------------------------------- Iteration      1(  11)  ---------------------------------------


    POTLOK:  cpu time    0.0034: real time    0.0034
    SETDIJ:  cpu time    0.0022: real time    0.0022
     EDDAV:  cpu time    0.7364: real time    0.7364
       DOS:  cpu time    0.0067: real time    0.0067
    CHARGE:  cpu time    0.0196: real time    0.0196
    MIXING:  cpu time    0.0002: real time    0.0002
    --------------------------------------------
      LOOP:  cpu time    0.7685: real time    0.7685

 eigenvalue-minimisations  :  8520
 total energy-change (2. order) : 0.5899066E-05  (-0.2038658E-07)
 number of electron      15.9999875 magnetization 
 augmentation part        8.2270089 magnetization 

 Broyden mixing:
  rms(total) = 0.15069E-03    rms(broyden)= 0.15045E-03
  rms(prec ) = 0.18664E-03
  weight for this iteration     100.00

 eigenvalues of (default mixing * dielectric matrix)
  average eigenvalue GAMMA=   1.5445
  2.5679  2.5679  0.7739  1.0061  1.0061  1.3452

 Free energy of the ion-electron system (eV)
  ---------------------------------------------------
  alpha Z        PSCENC =       132.80885455
  Ewald energy   TEWEN  =     -1218.90499911
  -Hartree energ DENC   =      -175.58030831
  -exchange      EXHF   =         0.00000000
  -V(xc)+E(xc)   XCENC  =         6.74500127
  PAW double counting   =      1447.70056101    -1464.92377521
  entropy T*S    EENTRO =         0.00104575
  eigenvalues    EBANDS =        67.35062008
  atomic energy  EATOM  =      1188.57490811
  Solvation  Ediel_sol  =         0.00000000
  ---------------------------------------------------
  free energy    TOTEN  =       -16.22809186 eV

  energy without entropy =      -16.22913760  energy(sigma->0) =      -16.22844044


--------------------------------------------------------------------------------------------------------




--------------------------------------- Iteration      1(  12)  ---------------------------------------


    POTLOK:  cpu time    0.0034: real time    0.0034
    SETDIJ:  cpu time    0.0022: real time    0.0022
     EDDAV:  cpu time    0.5649: real time    0.5649
       DOS:  cpu time    0.0066: real time    0.0066
    --------------------------------------------
      LOOP:  cpu time    0.5770: real time    0.5771

 eigenvalue-minimisations  :  5816
 total energy-change (2. order) :-0.4333242E-07  (-0.4146697E-08)
 number of electron      15.9999875 magnetization 
 augmentation part        8.2270089 magnetization 

 Free energy of the ion-electron system (eV)
  ---------------------------------------------------
  alpha Z        PSCENC =       132.80885455
  Ewald energy   TEWEN  =     -1218.90499911
  -Hartree energ DENC   =      -175.58039496
  -exchange      EXHF   =         0.00000000
  -V(xc)+E(xc)   XCENC  =         6.74502673
  PAW double counting   =      1447.82944502    -1465.05221383
  entropy T*S    EENTRO =         0.00104596
  eigenvalues    EBANDS =        67.35023562
  atomic energy  EATOM  =      1188.57490811
  Solvation  Ediel_sol  =         0.00000000
  ---------------------------------------------------
  free energy    TOTEN  =       -16.22809190 eV

  energy without entropy =      -16.22913786  energy(sigma->0) =      -16.22844055


--------------------------------------------------------------------------------------------------------




 average (electrostatic) potential at core
  the test charge radii are     1.0103
  (the norm of the test charge is              1.0000)
       1 -42.8632       2 -42.8631
 
 
 
 E-fermi :   6.6314     XC(G=0): -13.6706     alpha+bet :-14.8928

 Fermi energy:         6.6314393958

 k-point     1 :       0.0000    0.0000    0.0000
  band No.  band energies     occupation 
      1      -2.1246      2.00000
      2       1.8155      2.00000
      3       4.7753      2.00000
      4       5.1095      2.00000
      5       5.1096      2.00000
      6       5.4604      2.00000
      7       5.4605      2.00000
      8       6.1498      2.00346
      9       6.1499      2.00346
     10       6.4156      2.06302
     11       7.3539     -0.00000
     12       7.3540     -0.00000
     13      14.2923      0.00000
     14      29.2982      0.00000
     15      31.1546      0.00000
     16      32.4710      0.00000
     17      33.8705      0.00000
     18      33.8706      0.00000
     19      34.7592      0.00000
     20      34.7594      0.00000
     21      37.7014      0.00000
     22      38.1463      0.00000
     23      38.1463      0.00000
     24      39.2383      0.00000
     25      41.7474      0.00000
     26      41.7474      0.00000
     27      42.9230      0.00000
     28      45.0434      0.00000
     29      45.0438      0.00000
     30      46.8009      0.00000
     31      46.8011      0.00000
     32      49.8307      0.00000
     33      58.1299      0.00000
     34      61.2255      0.00000
     35      61.2269      0.00000
     36      61.8052      0.00000
     37      62.6689      0.00000
     38      63.3486      0.00000
     39      63.3497      0.00000
     40      64.5508      0.00000

 k-point     2 :       0.0909    0.0000    0.0000
  band No.  band energies     occupation 
      1      -1.8097      2.00000
      2       2.0372      2.00000
      3       4.6669      2.00000
      4       5.1616      2.00000
      5       5.2873      2.00000
      6       5.3671      2.00000
      7       5.3934      2.00000
      8       5.6221      2.00000
      9       6.0399      2.00024
     10       6.0626      2.00043
     11       7.3905     -0.00000
     12       8.6077     -0.00000
     13      14.3149      0.00000
     14      27.9076      0.00000
     15      30.4885      0.00000
     16      31.2356      0.00000
     17      31.3803      0.00000
     18      33.9634      0.00000
     19      34.3671      0.00000
     20      37.3895      0.00000
     21      37.5886      0.00000
     22      37.6028      0.00000
     23      38.4051      0.00000
     24      38.8512      0.00000
     25      42.5333      0.00000
     26      42.7503      0.00000
     27      42.8482      0.00000
     28      43.2586      0.00000
     29      46.7766      0.00000
     30      48.3102      0.00000
     31      49.2788      0.00000
     32      51.6647      0.00000
     33      57.5873      0.00000
     34      59.9727      0.00000
     35      60.3040      0.00000
     36      60.5225      0.00000
     37      61.3321      0.00000
     38      64.3302      0.00000
     39      64.4185      0.00000
     40      65.2208      0.00000

 k-point     3 :       0.1818    0.0000    0.0000
  band No.  band energies     occupation 
      1      -0.9140      2.00000
      2       2.5633      2.00000
      3       4.2936      2.00000
      4       4.3531      2.00000
      5       5.0292      2.00000
      6       5.5865      2.00000
      7       5.7827      2.00000
      8       5.7836      2.00000
      9       5.7916      2.00000
     10       6.0706      2.00054
     11       7.4642     -0.00000
     12      10.4535     -0.00000
     13      14.4130      0.00000
     14      24.1481      0.00000
     15      28.5038      0.00000
     16      29.3354      0.00000
     17      30.1664      0.00000
     18      31.9347      0.00000
     19      34.6283      0.00000
     20      36.3943      0.00000
     21      36.7933      0.00000
     22      36.9547      0.00000
     23      38.9133      0.00000
     24      40.3443      0.00000
     25      42.1057      0.00000
     26      43.5188      0.00000
     27      45.3473      0.00000
     28      47.5993      0.00000
     29      49.3875      0.00000
     30      52.0227      0.00000
     31      52.2459      0.00000
     32      55.2027      0.00000
     33      56.1142      0.00000
     34      57.1406      0.00000
     35      58.2535      0.00000
     36      60.1266      0.00000
     37      60.9723      0.00000
     38      64.1355      0.00000
     39      65.4959      0.00000
     40      66.7772      0.00000

 k-point     4 :       0.2727    0.0000    0.0000
  band No.  band energies     occupation 
      1       0.3787      2.00000
      2       2.8566      2.00000
      3       3.4534      2.00000
      4       4.2163      2.00000
      5       4.8865      2.00000
      6       5.4489      2.00000
      7       5.4899      2.00000
      8       6.2669      2.02714
      9       6.4874      1.93333
     10       6.6974      0.47398
     11       7.5187     -0.00000
     12      12.5093      0.00000
     13      14.6130      0.00000
     14      20.2700      0.00000
     15      26.1694      0.00000
     16      26.6305      0.00000
     17      27.8279      0.00000
     18      31.3116      0.00000
     19      32.6861      0.00000
     20      36.1702      0.00000
     21      36.6691      0.00000
     22      37.1017      0.00000
     23      37.3301      0.00000
     24      41.0927      0.00000
     25      45.5833      0.00000
     26      47.5690      0.00000
     27      48.6726      0.00000
     28      50.4269      0.00000
     29      51.7667      0.00000
     30      52.9873      0.00000
     31      54.1544      0.00000
     32      55.2528      0.00000
     33      57.6369      0.00000
     34      58.3948      0.00000
     35      58.4657      0.00000
     36      59.2654      0.00000
     37      61.9366      0.00000
     38      63.7589      0.00000
     39      65.6245      0.00000
     40      66.0119      0.00000

 k-point     5 :       0.3636    0.0000    0.0000
  band No.  band energies     occupation 
      1       1.6096      2.00000
      2       2.6433      2.00000
      3       2.8946      2.00000
      4       4.3928      2.00000
      5       5.1442      2.00000
      6       5.1604      2.00000
      7       5.2472      2.00000
      8       7.1907     -0.00056
      9       7.3280     -0.00001
     10       7.3567     -0.00000
     11       7.5457     -0.00000
     12      14.3018      0.00000
     13      14.7032      0.00000
     14      17.6734      0.00000
     15      23.4780      0.00000
     16      24.3867      0.00000
     17      25.1782      0.00000
     18      30.2888      0.00000
     19      31.4960      0.00000
     20      34.7477      0.00000
     21      35.7693      0.00000
     22      37.9576      0.00000
     23      39.4382      0.00000
     24      41.7526      0.00000
     25      49.2897      0.00000
     26      49.4153      0.00000
     27      49.5999      0.00000
     28      52.6547      0.00000
     29      52.9376      0.00000
     30      54.1576      0.00000
     31      56.1215      0.00000
     32      56.6893      0.00000
     33      57.6924      0.00000
     34      58.8390      0.00000
     35      60.5742      0.00000
     36      62.4318      0.00000
     37      63.1950      0.00000
     38      64.2128      0.00000
     39      64.9446      0.00000
     40      65.5010      0.00000

 k-point     6 :       0.4545   -0.0000    0.0000
  band No.  band energies     occupation 
      1       2.1962      2.00000
      2       2.4075      2.00000
      3       2.6174      2.00000
      4       4.8333      2.00000
      5       4.9664      2.00000
      6       5.1122      2.00000
      7       5.3901      2.00000
      8       7.5552     -0.00000
      9       7.6174     -0.00000
     10       7.7592     -0.00000
     11       8.8950     -0.00000
     12      12.1956      0.00000
     13      16.7781      0.00000
     14      17.9227      0.00000
     15      20.9497      0.00000
     16      22.6460      0.00000
     17      23.3937      0.00000
     18      29.6547      0.00000
     19      31.1341      0.00000
     20      33.6886      0.00000
     21      35.5851      0.00000
     22      38.6031      0.00000
     23      41.5918      0.00000
     24      42.2133      0.00000
     25      46.0761      0.00000
     26      50.2514      0.00000
     27      51.6392      0.00000
     28      54.9187      0.00000
     29      55.7171      0.00000
     30      56.6288      0.00000
     31      57.0384      0.00000
     32      58.8164      0.00000
     33      59.0560      0.00000
     34      60.6668      0.00000
     35      60.8236      0.00000
     36      61.3965      0.00000
     37      63.7474      0.00000
     38      63.9894      0.00000
     39      64.3270      0.00000
     40      64.9493      0.00000

 k-point     7 :       0.0909    0.0909    0.0000
  band No.  band energies     occupation 
      1      -1.2023      2.00000
      2       2.4254      2.00000
      3       4.4127      2.00000
      4       4.5828      2.00000
      5       5.1808      2.00000
      6       5.3287      2.00000
      7       5.6495      2.00000
      8       5.6814      2.00000
      9       5.9726      2.00003
     10       6.0505      2.00031
     11       7.4253     -0.00000
     12       9.9415     -0.00000
     13      14.3799      0.00000
     14      25.8655      0.00000
     15      27.0000      0.00000
     16      31.4944      0.00000
     17      31.6996      0.00000
     18      32.4855      0.00000
     19      33.0609      0.00000
     20      35.3434      0.00000
     21      36.7207      0.00000
     22      39.4032      0.00000
     23      40.3749      0.00000
     24      40.8143      0.00000
     25      41.6374      0.00000
     26      41.7357      0.00000
     27      41.8680      0.00000
     28      48.0200      0.00000
     29      50.2029      0.00000
     30      50.2466      0.00000
     31      50.2658      0.00000
     32      54.5055      0.00000
     33      56.6967      0.00000
     34      58.1153      0.00000
     35      58.4557      0.00000
     36      60.0750      0.00000
     37      60.7306      0.00000
     38      64.5787      0.00000
     39      65.5401      0.00000
     40      66.5709      0.00000

 k-point     8 :       0.1818    0.0909    0.0000
  band No.  band energies     occupation 
      1      -0.0887      2.00000
      2       2.9308      2.00000
      3       3.7581      2.00000
      4       4.0636      2.00000
      5       4.9557      2.00000
      6       5.3158      2.00000
      7       5.7259      2.00000
      8       5.8320      2.00000
      9       6.2972      2.03966
     10       6.6219      1.08081
     11       7.4528     -0.00000
     12      11.7837     -0.00000
     13      14.5728      0.00000
     14      22.2354      0.00000
     15      24.7045      0.00000
     16      28.3810      0.00000
     17      30.5093      0.00000
     18      30.6535      0.00000
     19      33.5723      0.00000
     20      35.0512      0.00000
     21      35.2373      0.00000
     22      39.8424      0.00000
     23      39.8444      0.00000
     24      40.1275      0.00000
     25      43.4008      0.00000
     26      44.5307      0.00000
     27      46.0093      0.00000
     28      50.5356      0.00000
     29      52.4588      0.00000
     30      53.1693      0.00000
     31      54.0332      0.00000
     32      55.8483      0.00000
     33      56.5467      0.00000
     34      56.9573      0.00000
     35      58.0566      0.00000
     36      58.4060      0.00000
     37      61.3013      0.00000
     38      64.6322      0.00000
     39      65.6143      0.00000
     40      66.7062      0.00000

 k-point     9 :       0.2727    0.0909    0.0000
  band No.  band energies     occupation 
      1       1.2453      2.00000
      2       2.9298      2.00000
      3       3.1366      2.00000
      4       4.0732      2.00000
      5       5.0132      2.00000
      6       5.0388      2.00000
      7       5.5021      2.00000
      8       6.3916      2.07071
      9       7.0119     -0.02163
     10       7.4706     -0.00000
     11       7.4708     -0.00000
     12      13.8776      0.00000
     13      14.8263      0.00000
     14      18.7187      0.00000
     15      23.0433      0.00000
     16      25.1313      0.00000
     17      27.3689      0.00000
     18      29.3980      0.00000
     19      32.8708      0.00000
     20      33.7764      0.00000
     21      36.4273      0.00000
     22      39.7312      0.00000
     23      39.7347      0.00000
     24      41.8719      0.00000
     25      45.3372      0.00000
     26      48.1985      0.00000
     27      50.1018      0.00000
     28      51.1765      0.00000
     29      51.4122      0.00000
     30      54.4576      0.00000
     31      56.2191      0.00000
     32      56.3787      0.00000
     33      57.3552      0.00000
     34      58.1563      0.00000
     35      59.9603      0.00000
     36      61.8073      0.00000
     37      62.2900      0.00000
     38      64.2810      0.00000
     39      64.7910      0.00000
     40      66.5506      0.00000

 k-point    10 :       0.3636    0.0909    0.0000
  band No.  band energies     occupation 
      1       2.1835      2.00000
      2       2.6501      2.00000
      3       2.7612      2.00000
      4       4.4159      2.00000
      5       4.9086      2.00000
      6       5.1843      2.00000
      7       5.3179      2.00000
      8       7.1770     -0.00079
      9       7.4765     -0.00000
     10       7.5231     -0.00000
     11       8.5895     -0.00000
     12      13.6172      0.00000
     13      16.0817      0.00000
     14      17.6601      0.00000
     15      21.7938      0.00000
     16      22.2433      0.00000
     17      24.2747      0.00000
     18      28.5204      0.00000
     19      31.9184      0.00000
     20      33.2196      0.00000
     21      36.9779      0.00000
     22      40.1731      0.00000
     23      41.3319      0.00000
     24      42.1809      0.00000
     25      47.9745      0.00000
     26      48.1282      0.00000
     27      50.6537      0.00000
     28      52.0694      0.00000
     29      53.4987      0.00000
     30      55.9216      0.00000
     31      56.2701      0.00000
     32      57.7716      0.00000
     33      59.1394      0.00000
     34      60.8883      0.00000
     35      61.2041      0.00000
     36      62.5132      0.00000
     37      63.2246      0.00000
     38      64.1362      0.00000
     39      65.3414      0.00000
     40      65.5205      0.00000

 k-point    11 :       0.4545    0.0909    0.0000
  band No.  band energies     occupation 
      1       2.4316      2.00000
      2       2.5166      2.00000
      3       2.6363      2.00000
      4       4.7221      2.00000
      5       4.9236      2.00000
      6       5.0052      2.00000
      7       5.4403      2.00000
      8       7.4761     -0.00000
      9       7.6141     -0.00000
     10       7.6195     -0.00000
     11       9.7678     -0.00000
     12      11.8303     -0.00000
     13      17.5756      0.00000
     14      18.3674      0.00000
     15      20.5257      0.00000
     16      21.1178      0.00000
     17      22.7842      0.00000
     18      28.2139      0.00000
     19      31.5330      0.00000
[...]
     18      26.9643      0.00000
     19      31.5886      0.00000
     20      32.2591      0.00000
     21      35.4950      0.00000
     22      36.3645      0.00000
     23      40.9701      0.00000
     24      42.2363      0.00000
     25      47.8569      0.00000
     26      49.6265      0.00000
     27      50.9886      0.00000
     28      51.7080      0.00000
     29      55.7248      0.00000
     30      57.0063      0.00000
     31      58.0714      0.00000
     32      58.8433      0.00000
     33      60.4638      0.00000
     34      61.0371      0.00000
     35      61.8395      0.00000
     36      62.0083      0.00000
     37      63.6949      0.00000
     38      64.3465      0.00000
     39      64.9840      0.00000
     40      65.6768      0.00000

 k-point    91 :       0.4545    0.0909    0.4545
  band No.  band energies     occupation 
      1       2.0880      2.00000
      2       2.2385      2.00000
      3       3.4891      2.00000
      4       3.6151      2.00000
      5       5.5509      2.00000
      6       5.9646      2.00003
      7       6.5620      1.55036
      8       6.8426     -0.06000
      9       7.5306     -0.00000
     10       7.5467     -0.00000
     11       9.7211     -0.00000
     12      10.2111     -0.00000
     13      15.9028      0.00000
     14      15.9243      0.00000
     15      23.8517      0.00000
     16      24.6904      0.00000
     17      26.4955      0.00000
     18      27.0108      0.00000
     19      31.3977      0.00000
     20      31.5272      0.00000
     21      34.8567      0.00000
     22      35.2329      0.00000
     23      41.0813      0.00000
     24      42.3735      0.00000
     25      48.0199      0.00000
     26      49.8657      0.00000
     27      54.3401      0.00000
     28      54.9728      0.00000
     29      55.2535      0.00000
     30      55.9220      0.00000
     31      57.5356      0.00000
     32      58.5922      0.00000
     33      62.0233      0.00000
     34      62.1503      0.00000
     35      62.6253      0.00000
     36      63.3782      0.00000
     37      63.3861      0.00000
     38      63.5154      0.00000
     39      65.6712      0.00000
     40      65.7619      0.00000

 k-point    92 :       0.1818    0.1818    0.4545
  band No.  band energies     occupation 
      1       2.0495      2.00000
      2       2.3581      2.00000
      3       3.9415      2.00000
      4       4.0263      2.00000
      5       4.4789      2.00000
      6       4.5574      2.00000
      7       5.8719      2.00000
      8       6.1139      2.00155
      9       7.3618     -0.00000
     10       7.4359     -0.00000
     11       7.9197     -0.00000
     12       8.4865     -0.00000
     13      21.9174      0.00000
     14      22.3414      0.00000
     15      22.5936      0.00000
     16      23.5890      0.00000
     17      24.3217      0.00000
     18      25.9460      0.00000
     19      35.6428      0.00000
     20      36.6186      0.00000
     21      37.0363      0.00000
     22      38.0067      0.00000
     23      39.8118      0.00000
     24      39.8682      0.00000
     25      45.6359      0.00000
     26      46.0907      0.00000
     27      50.5713      0.00000
     28      50.7539      0.00000
     29      52.8212      0.00000
     30      54.3257      0.00000
     31      55.5294      0.00000
     32      55.9948      0.00000
     33      58.2186      0.00000
     34      58.2673      0.00000
     35      60.1538      0.00000
     36      60.6060      0.00000
     37      63.4532      0.00000
     38      64.2611      0.00000
     39      65.3394      0.00000
     40      65.6208      0.00000

 k-point    93 :       0.2727    0.1818    0.4545
  band No.  band energies     occupation 
      1       2.4524      2.00000
      2       2.5746      2.00000
      3       3.8086      2.00000
      4       4.0164      2.00000
      5       4.6945      2.00000
      6       4.8526      2.00000
      7       5.8464      2.00000
      8       6.0833      2.00074
      9       7.4595     -0.00000
     10       7.6721     -0.00000
     11       9.2836     -0.00000
     12       9.8377     -0.00000
     13      18.7922      0.00000
     14      19.4041      0.00000
     15      21.4564      0.00000
     16      22.2006      0.00000
     17      25.2768      0.00000
     18      27.0942      0.00000
     19      33.6261      0.00000
     20      35.1130      0.00000
     21      36.2525      0.00000
     22      37.5772      0.00000
     23      40.0979      0.00000
     24      40.5434      0.00000
     25      46.7841      0.00000
     26      47.3241      0.00000
     27      51.7436      0.00000
     28      53.4242      0.00000
     29      55.4379      0.00000
     30      57.1629      0.00000
     31      57.6107      0.00000
     32      58.5186      0.00000
     33      59.1694      0.00000
     34      59.4565      0.00000
     35      60.6754      0.00000
     36      60.8600      0.00000
     37      63.5395      0.00000
     38      64.4277      0.00000
     39      65.2196      0.00000
     40      65.7194      0.00000

 k-point    94 :       0.3636    0.1818    0.4545
  band No.  band energies     occupation 
      1       2.5110      2.00000
      2       2.6603      2.00000
      3       3.7073      2.00000
      4       3.9185      2.00000
      5       4.7976      2.00000
      6       5.1262      2.00000
      7       6.1645      2.00470
      8       6.2928      2.03768
      9       7.4174     -0.00000
     10       7.5713     -0.00000
     11      10.9026     -0.00000
     12      11.3446     -0.00000
     13      16.3025      0.00000
     14      16.6943      0.00000
     15      20.8433      0.00000
     16      21.6076      0.00000
     17      26.8588      0.00000
     18      28.0025      0.00000
     19      32.1548      0.00000
     20      33.2309      0.00000
     21      35.1798      0.00000
     22      36.5925      0.00000
     23      40.9122      0.00000
     24      41.2010      0.00000
     25      49.9727      0.00000
     26      50.5998      0.00000
     27      51.9426      0.00000
     28      53.6269      0.00000
     29      54.7369      0.00000
     30      55.3301      0.00000
     31      57.7453      0.00000
     32      59.2992      0.00000
     33      60.8559      0.00000
     34      61.2531      0.00000
     35      62.6851      0.00000
     36      62.9905      0.00000
     37      63.7499      0.00000
     38      64.1238      0.00000
     39      64.8075      0.00000
     40      65.6222      0.00000

 k-point    95 :       0.2727    0.2727    0.4545
  band No.  band energies     occupation 
      1       2.8932      2.00000
      2       2.9286      2.00000
      3       3.8594      2.00000
      4       4.0798      2.00000
      5       4.4141      2.00000
      6       4.6275      2.00000
      7       5.8151      2.00000
      8       6.0158      2.00012
      9       7.4291     -0.00000
     10       7.5944     -0.00000
     11      11.3026     -0.00000
     12      11.8439     -0.00000
     13      17.3310      0.00000
     14      17.7602      0.00000
     15      19.1026      0.00000
     16      19.4932      0.00000
     17      26.9920      0.00000
     18      28.6645      0.00000
     19      32.2513      0.00000
     20      33.6912      0.00000
     21      35.1065      0.00000
     22      36.2120      0.00000
     23      42.7040      0.00000
     24      43.0984      0.00000
     25      46.9670      0.00000
     26      47.0960      0.00000
     27      54.1176      0.00000
     28      54.7970      0.00000
     29      55.3157      0.00000
     30      56.7401      0.00000
     31      58.1508      0.00000
     32      58.4347      0.00000
     33      59.2465      0.00000
     34      59.8216      0.00000
     35      62.2309      0.00000
     36      62.7934      0.00000
     37      63.4582      0.00000
     38      63.6572      0.00000
     39      64.7263      0.00000
     40      65.4547      0.00000

 k-point    96 :       0.3636    0.2727    0.4545
  band No.  band energies     occupation 
      1       3.0813      2.00000
      2       3.2056      2.00000
      3       3.7726      2.00000
      4       3.8457      2.00000
      5       4.4573      2.00000
      6       4.5624      2.00000
      7       5.8930      2.00000
      8       6.0477      2.00029
      9       7.3958     -0.00000
     10       7.4582     -0.00000
     11      13.0581      0.00000
     12      13.1735      0.00000
     13      15.7329      0.00000
     14      16.0809      0.00000
     15      18.4661      0.00000
     16      18.9237      0.00000
     17      28.6295      0.00000
     18      29.3718      0.00000
     19      31.4355      0.00000
     20      31.8137      0.00000
     21      34.8691      0.00000
     22      35.7098      0.00000
     23      43.8792      0.00000
     24      44.5298      0.00000
     25      48.4229      0.00000
     26      48.8296      0.00000
     27      51.1401      0.00000
     28      51.5194      0.00000
     29      56.0718      0.00000
     30      57.8467      0.00000
     31      58.6801      0.00000
     32      59.8640      0.00000
     33      60.4139      0.00000
     34      60.5279      0.00000
     35      60.8459      0.00000
     36      61.9394      0.00000
     37      63.5696      0.00000
     38      65.1037      0.00000
     39      66.2486      0.00000
     40      66.2600      0.00000


--------------------------------------------------------------------------------------------------------


 soft charge-density along one line, spin component           1
         0         1         2         3         4         5         6         7         8         9
x     7.7730    0.0000    0.1263   -0.2187   -0.0641   -0.1111    0.0135    0.0000    0.0020   -0.0034
x     0.0000    0.0000
y     7.7730    0.0000    0.1263    0.2187   -0.0641    0.1111    0.0135   -0.0000    0.0020    0.0034
y     0.0000    0.0000
z     7.7730    0.0000    0.0000   -0.0000    0.4090    0.0000    0.0000    0.0000   -0.1691   -0.0000
z     0.0000   -0.0000    0.0190    0.0000    0.0000    0.0000    0.0063   -0.0000    0.0000    0.0000
 total charge-density along one line
x    16.0000    0.0000    1.5390   -2.6656    0.3352    0.5806    0.0523   -0.0000   -0.0003    0.0004
x     0.0007    0.0012   -0.0012    0.0000    0.0002   -0.0003   -0.0001   -0.0002    0.0002   -0.0000
x    -0.0000    0.0000
y    16.0000    0.0000    1.5390    2.6656    0.3352   -0.5806    0.0523    0.0000   -0.0003   -0.0004
y     0.0007   -0.0012   -0.0012   -0.0000    0.0002    0.0003   -0.0001    0.0002    0.0002    0.0000
y    -0.0000   -0.0000
z    16.0000    0.0000   -0.0000    0.0000    5.9536   -0.0000   -0.0000    0.0000    1.2794   -0.0000
z    -0.0000   -0.0000    0.0326   -0.0000   -0.0000   -0.0000    0.0042    0.0000   -0.0000   -0.0000
z     0.0009   -0.0000    0.0000    0.0000   -0.0004    0.0000    0.0000   -0.0000    0.0002    0.0000
z     0.0000   -0.0000   -0.0002    0.0000   -0.0000    0.0000    0.0001   -0.0000
 
 pseudopotential strength for first ion, spin component:           1
 -4.585  -0.000  -0.000   0.000  -0.000  -5.145  -0.000  -0.000
 -0.000  -4.586  -0.000  -0.000   0.000  -0.000  -5.146  -0.000
 -0.000  -0.000  -4.595  -0.000  -0.000  -0.000  -0.000  -5.154
  0.000  -0.000  -0.000  -4.586  -0.000   0.000  -0.000  -0.000
 -0.000   0.000  -0.000  -0.000  -4.585  -0.000   0.000  -0.000
 -5.145  -0.000  -0.000   0.000  -0.000  -5.662  -0.000  -0.000
 -0.000  -5.146  -0.000  -0.000   0.000  -0.000  -5.663  -0.000
 -0.000  -0.000  -5.154  -0.000  -0.000  -0.000  -0.000  -5.671
  0.000  -0.000  -0.000  -5.146  -0.000   0.000  -0.000  -0.000
 -0.000   0.000  -0.000  -0.000  -5.145  -0.000   0.000  -0.000
  0.000   0.000   0.002   0.000  -0.000   0.000   0.000   0.001
  0.000   0.000   0.003   0.000  -0.000   0.000   0.000   0.003
 -0.000   0.000   0.000  -0.000  -0.001  -0.000   0.000   0.000
 -0.000  -0.000   0.000   0.000   0.000  -0.000  -0.000   0.000
 -0.001  -0.000   0.000   0.000  -0.000  -0.001  -0.000   0.000
 -0.000   0.000   0.000  -0.000  -0.001  -0.000   0.000   0.000
 -0.000  -0.000   0.000   0.000   0.000  -0.000  -0.000   0.000
 -0.001  -0.000   0.000   0.000  -0.000  -0.001  -0.000   0.000
 total augmentation occupancy for first ion, spin component:           1
  1.611   0.000   0.000   0.000  -0.000  -0.859   0.000  -0.000   0.000   0.000   0.000  -0.000   0.000   0.000   0.032  -0.000
 -0.000   1.908   0.000  -0.000  -0.000   0.000  -1.012   0.000   0.000   0.000   0.000   0.000   0.000   0.000   0.000   0.000
  0.000   0.000   1.340   0.000  -0.000  -0.000   0.000  -0.675   0.000   0.000  -0.005  -0.005  -0.000   0.000  -0.000   0.000
  0.000  -0.000  -0.000   1.908  -0.000   0.000   0.000   0.000  -1.012   0.000  -0.000   0.000   0.000  -0.000   0.000   0.000
  0.000   0.000  -0.000   0.000   1.611  -0.000   0.000   0.000  -0.000  -0.859   0.000  -0.000   0.032  -0.000  -0.000  -0.002
 -0.859   0.000  -0.000   0.000   0.000   1.466   0.000   0.000   0.000   0.000   0.000   0.000  -0.000   0.000  -0.050   0.000
  0.000  -1.012   0.000   0.000   0.000   0.000   1.459   0.000  -0.000   0.000  -0.000  -0.000   0.000   0.000   0.000  -0.000
 -0.000   0.000  -0.675   0.000   0.000   0.000   0.000   1.355   0.000  -0.000  -0.037   0.005   0.000   0.000   0.000  -0.000
  0.000   0.000   0.000  -1.012   0.000  -0.000  -0.000  -0.000   1.459   0.000   0.000   0.000   0.000   0.000   0.000   0.000
 -0.000   0.000   0.000  -0.000  -0.859   0.000   0.000  -0.000   0.000   1.466  -0.000   0.000  -0.050  -0.000   0.000   0.003
  0.000  -0.000  -0.005   0.000   0.000   0.000  -0.000  -0.037  -0.000  -0.000   2.594  -0.295   0.000   0.000   0.000  -0.000
  0.000   0.000  -0.005   0.000  -0.000   0.000   0.000   0.005  -0.000   0.000  -0.295   0.038   0.000   0.000  -0.000   0.000
  0.000  -0.000  -0.000  -0.000   0.032  -0.000   0.000   0.000   0.000  -0.050  -0.000   0.000   0.335  -0.000  -0.000  -0.028
  0.000   0.000   0.000   0.000  -0.000  -0.000   0.000   0.000   0.000  -0.000   0.000   0.000   0.000   0.327   0.000  -0.000
  0.032   0.000   0.000   0.000  -0.000  -0.050  -0.000  -0.000   0.000   0.000   0.000  -0.000  -0.000   0.000   0.335   0.000
 -0.000   0.000   0.000   0.000  -0.002   0.000  -0.000  -0.000   0.000   0.003  -0.000   0.000  -0.028  -0.000   0.000   0.003
  0.000   0.000   0.000  -0.000  -0.000  -0.000   0.000   0.000  -0.000  -0.000   0.000   0.000  -0.000  -0.028   0.000   0.000
 -0.002   0.000  -0.000   0.000   0.000   0.003   0.000   0.000  -0.000  -0.000  -0.000  -0.000   0.000   0.000  -0.028  -0.000


------------------------ aborting loop because EDIFF is reached ----------------------------------------


    CHARGE:  cpu time    0.0196: real time    0.0196
    FORLOC:  cpu time    0.0002: real time    0.0002
    FORNL :  cpu time    0.1098: real time    0.1098
    STRESS:  cpu time    0.1590: real time    0.1590
    FORCOR:  cpu time    0.0035: real time    0.0035
    FORHAR:  cpu time    0.0007: real time    0.0007
    MIXING:  cpu time    0.0002: real time    0.0002

  FORCE on cell =-STRESS in cart. coord.  units (eV):
  Direction    XX          YY          ZZ          XY          YZ          ZX
  --------------------------------------------------------------------------------------
  Alpha Z   132.80885   132.80885   132.80885
  Ewald    -400.43033  -400.43033  -418.04479     0.00000     0.00000    -0.00000
  Hartree    60.77039    60.77039    54.03883    -0.00000    -0.00000    -0.00000
  E(xc)     -78.31061   -78.31077   -78.18241     0.00040     0.00000     0.00000
  Local     113.40449   113.40474   137.08754    -0.00094     0.00000    -0.00000
  n-local   -53.51022   -52.87340   -54.42873    -3.31486     1.52500     1.06066
  augment    75.99370    75.99273    75.94372     0.00143    -0.00000     0.00000
  Kinetic   152.11283   146.21973   147.41261     0.85072    -1.09545     0.06263
  Fock        0.00000     0.00000     0.00000     0.00000     0.00000     0.00000
  -------------------------------------------------------------------------------------
  Total       0.21053     0.21053    -3.36438    -0.00000     0.00000     0.00000
  in kB      16.20380    16.20380  -258.95119    -0.00000     0.00000     0.00000
  external pressure =      -75.51 kB  Pullay stress =        0.00 kB


 VOLUME and BASIS-vectors are now :
 -----------------------------------------------------------------------------
  energy-cutoff  :      280.00
  volume of cell :       20.82
      direct lattice vectors                 reciprocal lattice vectors
     2.423200000  0.000000000  0.000000000     0.412677451  0.238259438  0.000000000
    -1.211600000  2.098552758  0.000000000     0.000000000  0.476518875  0.000000000
     0.000000000  0.000000000  4.093440000     0.000000000  0.000000000  0.244293308

  length of vectors
     2.423200000  2.423200000  4.093440000     0.476518875  0.476518875  0.244293308


 FORCES acting on ions
    electron-ion (+dipol)            ewald-force                    non-local-force                 convergence-correction
 -----------------------------------------------------------------------------------------------
   0.912E-06 -.211E-05 0.600E-14   0.700E-12 -.399E-12 -.224E-13   0.392E-17 -.743E-18 -.640E-20   -.813E-08 0.450E-08 -.189E-13
   0.102E-04 0.528E-05 0.267E-12   -.700E-12 0.399E-12 0.224E-13   -.212E-17 0.125E-17 0.297E-20   0.809E-08 -.448E-08 0.317E-13
 -----------------------------------------------------------------------------------------------
   0.111E-04 0.317E-05 0.273E-12   0.716E-15 -.113E-15 -.436E-17   0.180E-17 0.504E-18 -.342E-20   -.394E-10 0.212E-10 0.129E-13
 
 
 POSITION                                       TOTAL-FORCE (eV/Angst)
 -----------------------------------------------------------------------------------
      0.00000      0.00000      0.00000         0.000000      0.000000     -0.000000
      0.00000      1.39904      2.04672        -0.000000     -0.000000      0.000000
 -----------------------------------------------------------------------------------
    total drift:                                0.000011      0.000003      0.000000


--------------------------------------------------------------------------------------------------------



  FREE ENERGIE OF THE ION-ELECTRON SYSTEM (eV)
  ---------------------------------------------------
  free  energy   TOTEN  =       -16.22809190 eV

  energy  without entropy=      -16.22913786  energy(sigma->0) =      -16.22844055
 


--------------------------------------------------------------------------------------------------------


    POTLOK:  cpu time    0.0055: real time    0.0055


--------------------------------------------------------------------------------------------------------


 writing wavefunctions
     LOOP+:  cpu time    9.9770: real time    9.9977
    4ORBIT:  cpu time    0.0000: real time    0.0000

 total amount of memory used by VASP MPI-rank0    51050. kBytes
=======================================================================

   base      :      30000. kBytes
   nonl-proj :       3311. kBytes
   grid      :        812. kBytes
   one-center:         31. kBytes
   wavefun   :      16896. kBytes
 
  
  
 General timing and accounting informations for this job:
 ========================================================
  
                  Total CPU time used (sec):       10.176
                            User time (sec):       10.132
                          System time (sec):        0.044
                         Elapsed time (sec):       10.186
  
                   Maximum memory used (kb):       55840.
                   Average memory used (kb):          N/A
  
                          Minor page faults:         7597
                          Major page faults:            0
                 Voluntary context switches:           26
