unknown system                          
   1.00000000000000     
     3.862764    0.000000    0.000000
     0.000000    3.862764    0.000000
     0.000000    0.000000    3.862764
   Cu
     4
Direct
  0.000000  0.000000  0.000000
  0.500000  0.500000  0.000000
  0.500000  0.000000  0.500000
  0.000000  0.500000  0.500000
 
   36   36   36
  1019.5      966.88      824.11      629.13      426.61      252.99      129.02      58.245      28.993      19.880    
  14.474      10.978      8.9174      7.7555      7.0346      6.5051      6.1600      6.0250      6.0056      6.0250    
  6.1600      6.5051      7.0346      7.7555      8.9174      10.978      14.474      19.880      28.993      58.245    
  129.02      252.99      426.61      629.13      824.11      966.88      966.88      916.80      780.87      595.29    
  402.70      238.03      121.09      54.992      28.104      19.556      14.292      10.900      8.8980      7.7615    
  7.0505      6.5267      6.1838      6.0465      6.0250      6.0465      6.1838      6.5267      7.0505      7.7615    
  8.8980      10.900      14.292      19.556      28.104      54.992      121.09      238.03      402.70      595.29    
  780.87      916.80      824.11      780.87      663.55      503.54      338.11      197.93      100.15      46.655    
  25.888      18.635      13.788      10.695      8.8630      7.8072      7.1361      6.6420      6.3183      6.1838    
  6.1600      6.1838      6.3183      6.6420      7.1361      7.8072      8.8630      10.695      13.788      18.635    
  25.888      46.655      100.15      197.93      338.11      503.54      663.55      780.87      629.13      595.29    
  503.54      378.87      251.15      144.95      73.450      36.656      23.268      17.271      13.075      10.431    
  8.8601      7.9385      7.3464      6.9177      6.6420      6.5267      6.5051      6.5267      6.6420      6.9177    
  7.3464      7.9385      8.8601      10.431      13.075      17.271      23.268      36.656      73.450      144.95    
  251.15      378.87      503.54      595.29      426.61      402.70      338.11      251.15      163.71      93.531    
  49.126      28.393      20.671      15.689      12.299      10.191      8.9297      8.1751      7.6877      7.3464    
  7.1361      7.0505      7.0346      7.0505      7.1361      7.3464      7.6877      8.1751      8.9297      10.191    
  12.299      15.689      20.671      28.393      49.126      93.531      163.71      251.15      338.11      402.70    
  252.99      238.03      197.93      144.95      93.531      54.743      32.568      23.148      17.984      14.136    
  11.603      10.045      9.1066      8.5374      8.1751      7.9385      7.8072      7.7615      7.7555      7.7615    
  7.8072      7.9385      8.1751      8.5374      9.1066      10.045      11.603      14.136      17.984      23.148    
  32.568      54.743      93.531      144.95      197.93      238.03      129.02      121.09      100.15      73.450    
  49.126      32.568      24.112      19.333      15.516      12.816      11.094      10.055      9.4482      9.1066    
  8.9297      8.8601      8.8630      8.8980      8.9174      8.8980      8.8630      8.8601      8.9297      9.1066    
  9.4482      10.055      11.094      12.816      15.516      19.333      24.112      32.568      49.126      73.450    
  100.15      121.09      58.245      54.992      46.655      36.656      28.393      23.148      19.333      16.033    
  13.530      11.851      10.836      10.287      10.055      10.045      10.191      10.431      10.695      10.900    
  10.978      10.900      10.695      10.431      10.191      10.045      10.055      10.287      10.836      11.851    
  13.530      16.033      19.333      23.148      28.393      36.656      46.655      54.992      28.993      28.104    
  25.888      23.268      20.671      17.984      15.516      13.530      12.129      11.277      10.876      10.836    
  11.094      11.603      12.299      13.075      13.788      14.292      14.474      14.292      13.788      13.075    
  12.299      11.603      11.094      10.836      10.876      11.277      12.129      13.530      15.516      17.984    
  20.671      23.268      25.888      28.104      19.880      19.556      18.635      17.271      15.689      14.136    
  12.816      11.851      11.277      11.089      11.277      11.851      12.816      14.136      15.689      17.271    
  18.635      19.556      19.880      19.556      18.635      17.271      15.689      14.136      12.816      11.851    
  11.277      11.089      11.277      11.851      12.816      14.136      15.689      17.271      18.635      19.556    
  14.474      14.292      13.788      13.075      12.299      11.603      11.094      10.836      10.876      11.277    
  12.129      13.530      15.516      17.984      20.671      23.268      25.888      28.104      28.993      28.104    
  25.888      23.268      20.671      17.984      15.516      13.530      12.129      11.277      10.876      10.836    
  11.094      11.603      12.299      13.075      13.788      14.292      10.978      10.900      10.695      10.431    
  10.191      10.045      10.055      10.287      10.836      11.851      13.530      16.033      19.333      23.148    
  28.393      36.656      46.655      54.992      58.245      54.992      46.655      36.656      28.393      23.148    
  19.333      16.033      13.530      11.851      10.836      10.287      10.055      10.045      10.191      10.431    
  10.695      10.900      8.9174      8.8980      8.8630      8.8601      8.9297      9.1066      9.4482      10.055    
  11.094      12.816      15.516      19.333      24.112      32.568      49.126      73.450      100.15      121.09    
  129.02      121.09      100.15      73.450      49.126      32.568      24.112      19.333      15.516      12.816    
  11.094      10.055      9.4482      9.1066      8.9297      8.8601      8.8630      8.8980      7.7555      7.7615    
  7.8072      7.9385      8.1751      8.5374      9.1066      10.045      11.603      14.136      17.984      23.148    
  32.568      54.743      93.531      144.95      197.93      238.03      252.99      238.03      197.93      144.95    
  93.531      54.743      32.568      23.148      17.984      14.136      11.603      10.045      9.1066      8.5374    
  8.1751      7.9385      7.8072      7.7615      7.0346      7.0505      7.1361      7.3464      7.6877      8.1751    
  8.9297      10.191      12.299      15.689      20.671      28.393      49.126      93.531      163.71      251.15    
  338.11      402.70      426.61      402.70      338.11      251.15      163.71      93.531      49.126      28.393    
  20.671      15.689      12.299      10.191      8.9297      8.1751      7.6877      7.3464      7.1361      7.0505    
  6.5051      6.5267      6.6420      6.9177      7.3464      7.9385      8.8601      10.431      13.075      17.271    
  23.268      36.656      73.450      144.95      251.15      378.87      503.54      595.29      629.13      595.29    
  503.54      378.87      251.15      144.95      73.450      36.656      23.268      17.271      13.075      10.431    
  8.8601      7.9385      7.3464      6.9177      6.6420      6.5267      6.1600      6.1838      6.3183      6.6420    
  7.1361      7.8072      8.8630      10.695      13.788      18.635      25.888      46.655      100.15      197.93    
  338.11      503.54      663.55      780.87      824.11      780.87      663.55      503.54      338.11      197.93    
  100.15      46.655      25.888      18.635      13.788      10.695      8.8630      7.8072      7.1361      6.6420    
  6.3183      6.1838      6.0250      6.0465      6.1838      6.5267      7.0505      7.7615      8.8980      10.900    
  14.292      19.556      28.104      54.992      121.09      238.03      402.70      595.29      780.87      916.80    
  966.88      916.80      780.87      595.29      402.70      238.03      121.09      54.992      28.104      19.556    
  14.292      10.900      8.8980      7.7615      7.0505      6.5267      6.1838      6.0465      6.0056      6.0250    
  6.1600      6.5051      7.0346      7.7555      8.9174      10.978      14.474      19.880      28.993      58.245    
  129.02      252.99      426.61      629.13      824.11      966.88      1019.5      966.88      824.11      629.13    
  426.61      252.99      129.02      58.245      28.993      19.880      14.474      10.978      8.9174      7.7555    
  7.0346      6.5051      6.1600      6.0250      6.0250      6.0465      6.1838      6.5267      7.0505      7.7615    
  8.8980      10.900      14.292      19.556      28.104      54.992      121.09      238.03      402.70      595.29    
  780.87      916.80      966.88      916.80      780.87      595.29      402.70      238.03      121.09      54.992    
  28.104      19.556      14.292      10.900      8.8980      7.7615      7.0505      6.5267      6.1838      6.0465    
  6.1600      6.1838      6.3183      6.6420      7.1361      7.8072      8.8630      10.695      13.788      18.635    
  25.888      46.655      100.15      197.93      338.11      503.54      663.55      780.87      824.11      780.87    
  663.55      503.54      338.11      197.93      100.15      46.655      25.888      18.635      13.788      10.695    
  8.8630      7.8072      7.1361      6.6420      6.3183      6.1838      6.5051      6.5267      6.6420      6.9177    
  7.3464      7.9385      8.8601      10.431      13.075      17.271      23.268      36.656      73.450      144.95    
  251.15      378.87      503.54      595.29      629.13      595.29      503.54      378.87      251.15      144.95    
  73.450      36.656      23.268      17.271      13.075      10.431      8.8601      7.9385      7.3464      6.9177    
  6.6420      6.5267      7.0346      7.0505      7.1361      7.3464      7.6877      8.1751      8.9297      10.191    
  12.299      15.689      20.671      28.393      49.126      93.531      163.71      251.15      338.11      402.70    
  426.61      402.70      338.11      251.15      163.71      93.531      49.126      28.393      20.671      15.689    
  12.299      10.191      8.9297      8.1751      7.6877      7.3464      7.1361      7.0505      7.7555      7.7615    
  7.8072      7.9385      8.1751      8.5374      9.1066      10.045      11.603      14.136      17.984      23.148    
  32.568      54.743      93.531      144.95      197.93      238.03      252.99      238.03      197.93      144.95    
  93.531      54.743      32.568      23.148      17.984      14.136      11.603      10.045      9.1066      8.5374    
  8.1751      7.9385      7.8072      7.7615      8.9174      8.8980      8.8630      8.8601      8.9297      9.1066    
  9.4482      10.055      11.094      12.816      15.516      19.333      24.112      32.568      49.126      73.450    
  100.15      121.09      129.02      121.09      100.15      73.450      49.126      32.568      24.112      19.333    
  15.516      12.816      11.094      10.055      9.4482      9.1066      8.9297      8.8601      8.8630      8.8980    
  10.978      10.900      10.695      10.431      10.191      10.045      10.055      10.287      10.836      11.851    
  13.530      16.033      19.333      23.148      28.393      36.656      46.655      54.992      58.245      54.992    
  46.655      36.656      28.393      23.148      19.333      16.033      13.530      11.851      10.836      10.287    
  10.055      10.045      10.191      10.431      10.695      10.900      14.474      14.292      13.788      13.075    
  12.299      11.603      11.094      10.836      10.876      11.277      12.129      13.530      15.516      17.984    
  20.671      23.268      25.888      28.104      28.993      28.104      25.888      23.268      20.671      17.984    
  15.516      13.530      12.129      11.277      10.876      10.836      11.094      11.603      12.299      13.075    
  13.788      14.292      19.880      19.556      18.635      17.271      15.689      14.136      12.816      11.851    
  11.277      11.089      11.277      11.851      12.816      14.136      15.689      17.271      18.635      19.556    
  19.880      19.556      18.635      17.271      15.689      14.136      12.816      11.851      11.277      11.089    
  11.277      11.851      12.816      14.136      15.689      17.271      18.635      19.556      28.993      28.104    
  25.888      23.268      20.671      17.984      15.516      13.530      12.129      11.277      10.876      10.836    
  11.094      11.603      12.299      13.075      13.788      14.292      14.474      14.292      13.788      13.075    
  12.299      11.603      11.094      10.836      10.876      11.277      12.129      13.530      15.516      17.984    
  20.671      23.268      25.888      28.104      58.245      54.992      46.655      36.656      28.393      23.148    
  19.333      16.033      13.530      11.851      10.836      10.287      10.055      10.045      10.191      10.431    
  10.695      10.900      10.978      10.900      10.695      10.431      10.191      10.045      10.055      10.287    
  10.836      11.851      13.530      16.033      19.333      23.148      28.393      36.656      46.655      54.992    
  129.02      121.09      100.15      73.450      49.126      32.568      24.112      19.333      15.516      12.816    
  11.094      10.055      9.4482      9.1066      8.9297      8.8601      8.8630      8.8980      8.9174      8.8980    
  8.8630      8.8601      8.9297      9.1066      9.4482      10.055      11.094      12.816      15.516      19.333    
  24.112      32.568      49.126      73.450      100.15      121.09      252.99      238.03      197.93      144.95    
  93.531      54.743      32.568      23.148      17.984      14.136      11.603      10.045      9.1066      8.5374    
  8.1751      7.9385      7.8072      7.7615      7.7555      7.7615      7.8072      7.9385      8.1751      8.5374    
  9.1066      10.045      11.603      14.136      17.984      23.148      32.568      54.743      93.531      144.95    
  197.93      238.03      426.61      402.70      338.11      251.15      163.71      93.531      49.126      28.393    
  20.671      15.689      12.299      10.191      8.9297      8.1751      7.6877      7.3464      7.1361      7.0505    
  7.0346      7.0505      7.1361      7.3464      7.6877      8.1751      8.9297      10.191      12.299      15.689    
  20.671      28.393      49.126      93.531      163.71      251.15      338.11      402.70      629.13      595.29    
  503.54      378.87      251.15      144.95      73.450      36.656      23.268      17.271      13.075      10.431    
  8.8601      7.9385      7.3464      6.9177      6.6420      6.5267      6.5051      6.5267      6.6420      6.9177    
  7.3464      7.9385      8.8601      10.431      13.075      17.271      23.268      36.656      73.450      144.95    
  251.15      378.87      503.54      595.29      824.11      780.87      663.55      503.54      338.11      197.93    
  100.15      46.655      25.888      18.635      13.788      10.695      8.8630      7.8072      7.1361      6.6420    
  6.3183      6.1838      6.1600      6.1838      6.3183      6.6420      7.1361      7.8072      8.8630      10.695    
  13.788      18.635      25.888      46.655      100.15      197.93      338.11      503.54      663.55      780.87    
  966.88      916.80      780.87      595.29      402.70      238.03      121.09      54.992      28.104      19.556    
  14.292      10.900      8.8980      7.7615      7.0505      6.5267      6.1838      6.0465      6.0250      6.0465    
  6.1838      6.5267      7.0505      7.7615      8.8980      10.900      14.292      19.556      28.104      54.992    
  121.09      238.03      402.70      595.29      780.87      916.80      966.88      916.80      780.87      595.29    
  402.70      238.03      121.09      54.992      28.104      19.556      14.292      10.900      8.8980      7.7615    
  7.0505      6.5267      6.1838      6.0465      6.0250      6.0465      6.1838      6.5267      7.0505      7.7615    
  8.8980      10.900      14.292      19.556      28.104      54.992      121.09      238.03      402.70      595.29    
  780.87      916.80      916.80      869.12      739.72      563.09      379.99      223.88      113.64      51.985    
  27.294      19.238      14.115      10.824      8.8789      7.7674      7.0665      6.5490      6.2089      6.0698    
  6.0465      6.0698      6.2089      6.5490      7.0665      7.7674      8.8789      10.824      14.115      19.238    
  27.294      51.985      113.64      223.88      379.99      563.09      739.72      869.12      780.87      739.72    
  628.05      475.85      318.72      186.01      94.042      44.295      25.268      18.339      13.624      10.624    
  8.8439      7.8116      7.1510      6.6640      6.3440      6.2089      6.1838      6.2089      6.3440      6.6640    
  7.1510      7.8116      8.8439      10.624      13.624      18.339      25.268      44.295      94.042      186.01    
  318.72      475.85      628.05      739.72      595.29      563.09      475.85      357.42      236.34      136.10    
  69.131      35.118      22.838      17.008      12.931      10.367      8.8398      7.9389      7.3569      6.9353    
  6.6640      6.5490      6.5267      6.5490      6.6640      6.9353      7.3569      7.9389      8.8398      10.367    
  12.931      17.008      22.838      35.118      69.131      136.10      236.34      357.42      475.85      563.09    
  402.70      379.99      318.72      236.34      153.77      87.875      46.589      27.575      20.321      15.467    
  12.178      10.133      8.9067      8.1693      7.6913      7.3569      7.1510      7.0665      7.0505      7.0665    
  7.1510      7.3569      7.6913      8.1693      8.9067      10.133      12.178      15.467      20.321      27.575    
  46.589      87.875      153.77      236.34      318.72      379.99      238.03      223.88      186.01      136.10    
  87.875      51.783      31.394      22.728      17.698      13.959      11.504      9.9920      9.0794      8.5236    
  8.1693      7.9389      7.8116      7.7674      7.7615      7.7674      7.8116      7.9389      8.1693      8.5236    
  9.0794      9.9920      11.504      13.959      17.698      22.728      31.394      51.783      87.875      136.10    
  186.01      223.88      121.09      113.64      94.042      69.131      46.589      31.394      23.641      19.012    
  15.299      12.681      11.012      10.004      9.4129      9.0794      8.9067      8.8398      8.8439      8.8789    
  8.8980      8.8789      8.8439      8.8398      8.9067      9.0794      9.4129      10.004      11.012      12.681    
  15.299      19.012      23.641      31.394      46.589      69.131      94.042      113.64      54.992      51.985    
  44.295      35.118      27.575      22.728      19.012      15.802      13.375      11.748      10.764      10.231    
  10.004      9.9920      10.133      10.367      10.624      10.824      10.900      10.824      10.624      10.367    
  10.133      9.9920      10.004      10.231      10.764      11.748      13.375      15.802      19.012      22.728    
  27.575      35.118      44.295      51.985      28.104      27.294      25.268      22.838      20.321      17.698    
  15.299      13.375      12.019      11.195      10.806      10.764      11.012      11.504      12.178      12.931    
  13.624      14.115      14.292      14.115      13.624      12.931      12.178      11.504      11.012      10.764    
  10.806      11.195      12.019      13.375      15.299      17.698      20.321      22.838      25.268      27.294    
  19.556      19.238      18.339      17.008      15.467      13.959      12.681      11.748      11.195      11.013    
  11.195      11.748      12.681      13.959      15.467      17.008      18.339      19.238      19.556      19.238    
  18.339      17.008      15.467      13.959      12.681      11.748      11.195      11.013      11.195      11.748    
  12.681      13.959      15.467      17.008      18.339      19.238      14.292      14.115      13.624      12.931    
  12.178      11.504      11.012      10.764      10.806      11.195      12.019      13.375      15.299      17.698    
  20.321      22.838      25.268      27.294      28.104      27.294      25.268      22.838      20.321      17.698    
  15.299      13.375      12.019      11.195      10.806      10.764      11.012      11.504      12.178      12.931    
  13.624      14.115      10.900      10.824      10.624      10.367      10.133      9.9920      10.004      10.231    
  10.764      11.748      13.375      15.802      19.012      22.728      27.575      35.118      44.295      51.985    
  54.992      51.985      44.295      35.118      27.575      22.728      19.012      15.802      13.375      11.748    
  10.764      10.231      10.004      9.9920      10.133      10.367      10.624      10.824      8.8980      8.8789    
  8.8439      8.8398      8.9067      9.0794      9.4129      10.004      11.012      12.681      15.299      19.012    
  23.641      31.394      46.589      69.131      94.042      113.64      121.09      113.64      94.042      69.131    
  46.589      31.394      23.641      19.012      15.299      12.681      11.012      10.004      9.4129      9.0794    
  8.9067      8.8398      8.8439      8.8789      7.7615      7.7674      7.8116      7.9389      8.1693      8.5236    
  9.0794      9.9920      11.504      13.959      17.698      22.728      31.394      51.783      87.875      136.10    
  186.01      223.88      238.03      223.88      186.01      136.10      87.875      51.783      31.394      22.728    
  17.698      13.959      11.504      9.9920      9.0794      8.5236      8.1693      7.9389      7.8116      7.7674    
  7.0505      7.0665      7.1510      7.3569      7.6913      8.1693      8.9067      10.133      12.178      15.467    
  20.321      27.575      46.589      87.875      153.77      236.34      318.72      379.99      402.70      379.99    
  318.72      236.34      153.77      87.875      46.589      27.575      20.321      15.467      12.178      10.133    
  8.9067      8.1693      7.6913      7.3569      7.1510      7.0665      6.5267      6.5490      6.6640      6.9353    
  7.3569      7.9389      8.8398      10.367      12.931      17.008      22.838      35.118      69.131      136.10    
  236.34      357.42      475.85      563.09      595.29      563.09      475.85      357.42      236.34      136.10    
  69.131      35.118      22.838      17.008      12.931      10.367      8.8398      7.9389      7.3569      6.9353    
  6.6640      6.5490      6.1838      6.2089      6.3440      6.6640      7.1510      7.8116      8.8439      10.624    
  13.624      18.339      25.268      44.295      94.042      186.01      318.72      475.85      628.05      739.72    
  780.87      739.72      628.05      475.85      318.72      186.01      94.042      44.295      25.268      18.339    
  13.624      10.624      8.8439      7.8116      7.1510      6.6640      6.3440      6.2089      6.0465      6.0698    
  6.2089      6.5490      7.0665      7.7674      8.8789      10.824      14.115      19.238      27.294      51.985    
  113.64      223.88      379.99      563.09      739.72      869.12      916.80      869.12      739.72      563.09    
  379.99      223.88      113.64      51.985      27.294      19.238      14.115      10.824      8.8789      7.7674    
  7.0665      6.5490      6.2089      6.0698      6.0250      6.0465      6.1838      6.5267      7.0505      7.7615    
  8.8980      10.900      14.292      19.556      28.104      54.992      121.09      238.03      402.70      595.29    
  780.87      916.80      966.88      916.80      780.87      595.29      402.70      238.03      121.09      54.992    
  28.104      19.556      14.292      10.900      8.8980      7.7615      7.0505      6.5267      6.1838      6.0465    
  6.0465      6.0698      6.2089      6.5490      7.0665      7.7674      8.8789      10.824      14.115      19.238    
  27.294      51.985      113.64      223.88      379.99      563.09      739.72      869.12      916.80      869.12    
  739.72      563.09      379.99      223.88      113.64      51.985      27.294      19.238      14.115      10.824    
  8.8789      7.7674      7.0665      6.5490      6.2089      6.0698      6.1838      6.2089      6.3440      6.6640    
  7.1510      7.8116      8.8439      10.624      13.624      18.339      25.268      44.295      94.042      186.01    
  318.72      475.85      628.05      739.72      780.87      739.72      628.05      475.85      318.72      186.01    
  94.042      44.295      25.268      18.339      13.624      10.624      8.8439      7.8116      7.1510      6.6640    
  6.3440      6.2089      6.5267      6.5490      6.6640      6.9353      7.3569      7.9389      8.8398      10.367    
  12.931      17.008      22.838      35.118      69.131      136.10      236.34      357.42      475.85      563.09    
  595.29      563.09      475.85      357.42      236.34      136.10      69.131      35.118      22.838      17.008    
  12.931      10.367      8.8398      7.9389      7.3569      6.9353      6.6640      6.5490      7.0505      7.0665    
  7.1510      7.3569      7.6913      8.1693      8.9067      10.133      12.178      15.467      20.321      27.575    
  46.589      87.875      153.77      236.34      318.72      379.99      402.70      379.99      318.72      236.34    
  153.77      87.875      46.589      27.575      20.321      15.467      12.178      10.133      8.9067      8.1693    
  7.6913      7.3569      7.1510      7.0665      7.7615      7.7674      7.8116      7.9389      8.1693      8.5236    
  9.0794      9.9920      11.504      13.959      17.698      22.728      31.394      51.783      87.875      136.10    
  186.01      223.88      238.03      223.88      186.01      136.10      87.875      51.783      31.394      22.728    
  17.698      13.959      11.504      9.9920      9.0794      8.5236      8.1693      7.9389      7.8116      7.7674    
  8.8980      8.8789      8.8439      8.8398      8.9067      9.0794      9.4129      10.004      11.012      12.681    
  15.299      19.012      23.641      31.394      46.589      69.131      94.042      113.64      121.09      113.64    
  94.042      69.131      46.589      31.394      23.641      19.012      15.299      12.681      11.012      10.004    
  9.4129      9.0794      8.9067      8.8398      8.8439      8.8789      10.900      10.824      10.624      10.367    
  10.133      9.9920      10.004      10.231      10.764      11.748      13.375      15.802      19.012      22.728    
  27.575      35.118      44.295      51.985      54.992      51.985      44.295      35.118      27.575      22.728    
  19.012      15.802      13.375      11.748      10.764      10.231      10.004      9.9920      10.133      10.367    
  10.624      10.824      14.292      14.115      13.624      12.931      12.178      11.504      11.012      10.764    
  10.806      11.195      12.019      13.375      15.299      17.698      20.321      22.838      25.268      27.294    
  28.104      27.294      25.268      22.838      20.321      17.698      15.299      13.375      12.019      11.195    
  10.806      10.764      11.012      11.504      12.178      12.931      13.624      14.115      19.556      19.238    
  18.339      17.008      15.467      13.959      12.681      11.748      11.195      11.013      11.195      11.748    
  12.681      13.959      15.467      17.008      18.339      19.238      19.556      19.238      18.339      17.008    
  15.467      13.959      12.681      11.748      11.195      11.013      11.195      11.748      12.681      13.959    
  15.467      17.008      18.339      19.238      28.104      27.294      25.268      22.838      20.321      17.698    
  15.299      13.375      12.019      11.195      10.806      10.764      11.012      11.504      12.178      12.931    
  13.624      14.115      14.292      14.115      13.624      12.931      12.178      11.504      11.012      10.764    
  10.806      11.195      12.019      13.375      15.299      17.698      20.321      22.838      25.268      27.294    
  54.992      51.985      44.295      35.118      27.575      22.728      19.012      15.802      13.375      11.748    
  10.764      10.231      10.004      9.9920      10.133      10.367      10.624      10.824      10.900      10.824    
  10.624      10.367      10.133      9.9920      10.004      10.231      10.764      11.748      13.375      15.802    
  19.012      22.728      27.575      35.118      44.295      51.985      121.09      113.64      94.042      69.131    
  46.589      31.394      23.641      19.012      15.299      12.681      11.012      10.004      9.4129      9.0794    
  8.9067      8.8398      8.8439      8.8789      8.8980      8.8789      8.8439      8.8398      8.9067      9.0794    
  9.4129      10.004      11.012      12.681      15.299      19.012      23.641      31.394      46.589      69.131    
  94.042      113.64      238.03      223.88      186.01      136.10      87.875      51.783      31.394      22.728    
  17.698      13.959      11.504      9.9920      9.0794      8.5236      8.1693      7.9389      7.8116      7.7674    
  7.7615      7.7674      7.8116      7.9389      8.1693      8.5236      9.0794      9.9920      11.504      13.959    
  17.698      22.728      31.394      51.783      87.875      136.10      186.01      223.88      402.70      379.99    