unknown system                          
   1.00000000000000     
     3.862764    0.000000    0.000000
     0.000000    3.862764    0.000000
     0.000000    0.000000    3.862764
   Cu
     4
Direct
  0.000000  0.000000  0.000000
  0.500000  0.500000  0.000000
  0.500000  0.000000  0.500000
  0.000000  0.500000  0.500000
 
   36   36   36
 0.10194943325E+04 0.96688305165E+03 0.82410562815E+03 0.62913419884E+03 0.42660797019E+03
 0.25299317235E+03 0.12902317877E+03 0.58244704090E+02 0.28992933670E+02 0.19880264016E+02
 0.14473795828E+02 0.10977938275E+02 0.89174303691E+01 0.77554677341E+01 0.70346093183E+01
 0.65050851105E+01 0.61599753274E+01 0.60249865889E+01 0.60055523693E+01 0.60249865889E+01
 0.61599753274E+01 0.65050851105E+01 0.70346093183E+01 0.77554677341E+01 0.89174303691E+01
 0.10977938275E+02 0.14473795828E+02 0.19880264016E+02 0.28992933670E+02 0.58244704090E+02
 0.12902317877E+03 0.25299317235E+03 0.42660797019E+03 0.62913419884E+03 0.82410562815E+03
 0.96688305165E+03 0.96688305165E+03 0.91679795716E+03 0.78087007521E+03 0.59528546642E+03
 0.40269529014E+03 0.23802802340E+03 0.12108709652E+03 0.54992377156E+02 0.28104287860E+02
 0.19555876981E+02 0.14291898928E+02 0.10900023412E+02 0.88980231993E+01 0.77614971976E+01
 0.70504807873E+01 0.65266823888E+01 0.61838186423E+01 0.60464995459E+01 0.60249865889E+01
 0.60464995459E+01 0.61838186423E+01 0.65266823888E+01 0.70504807873E+01 0.77614971976E+01
 0.88980231993E+01 0.10900023412E+02 0.14291898928E+02 0.19555876981E+02 0.28104287860E+02
 0.54992377156E+02 0.12108709652E+03 0.23802802340E+03 0.40269529014E+03 0.59528546642E+03
 0.78087007521E+03 0.91679795716E+03 0.82410562815E+03 0.78087007521E+03 0.66354753279E+03
 0.50353995508E+03 0.33811133340E+03 0.19793251254E+03 0.10015401837E+03 0.46655006363E+02
 0.25887865698E+02 0.18635486429E+02 0.13788078164E+02 0.10694547971E+02 0.88629851247E+01
 0.78071667636E+01 0.71360878802E+01 0.66420239207E+01 0.63182753739E+01 0.61838186423E+01
 0.61599753274E+01 0.61838186423E+01 0.63182753739E+01 0.66420239207E+01 0.71360878802E+01
 0.78071667636E+01 0.88629851247E+01 0.10694547971E+02 0.13788078164E+02 0.18635486429E+02
 0.25887865698E+02 0.46655006363E+02 0.10015401837E+03 0.19793251254E+03 0.33811133340E+03
 0.50353995508E+03 0.66354753279E+03 0.78087007521E+03 0.62913419884E+03 0.59528546642E+03
 0.50353995508E+03 0.37887491013E+03 0.25114993358E+03 0.14494889017E+03 0.73449847136E+02
 0.36655583438E+02 0.23268231303E+02 0.17271228337E+02 0.13074541904E+02 0.10431237484E+02
 0.88601405242E+01 0.79384914031E+01 0.73463877278E+01 0.69176896712E+01 0.66420239207E+01
 0.65266823888E+01 0.65050851105E+01 0.65266823888E+01 0.66420239207E+01 0.69176896712E+01
 0.73463877278E+01 0.79384914031E+01 0.88601405242E+01 0.10431237484E+02 0.13074541904E+02
 0.17271228337E+02 0.23268231303E+02 0.36655583438E+02 0.73449847136E+02 0.14494889017E+03
 0.25114993358E+03 0.37887491013E+03 0.50353995508E+03 0.59528546642E+03 0.42660797019E+03
 0.40269529014E+03 0.33811133340E+03 0.25114993358E+03 0.16371411936E+03 0.93531038619E+02
 0.49125541358E+02 0.28392594976E+02 0.20670621049E+02 0.15688888061E+02 0.12299054660E+02
 0.10190846968E+02 0.89296975156E+01 0.81750603818E+01 0.76876819413E+01 0.73463877278E+01
 0.71360878802E+01 0.70504807873E+01 0.70346093183E+01 0.70504807873E+01 0.71360878802E+01
 0.73463877278E+01 0.76876819413E+01 0.81750603818E+01 0.89296975156E+01 0.10190846968E+02
 0.12299054660E+02 0.15688888061E+02 0.20670621049E+02 0.28392594976E+02 0.49125541358E+02
 0.93531038619E+02 0.16371411936E+03 0.25114993358E+03 0.33811133340E+03 0.40269529014E+03
 0.25299317235E+03 0.23802802340E+03 0.19793251254E+03 0.14494889017E+03 0.93531038619E+02
 0.54743192867E+02 0.32568075935E+02 0.23147976012E+02 0.17983625777E+02 0.14135603316E+02
 0.11603421432E+02 0.10045003306E+02 0.91066306555E+01 0.85373969108E+01 0.81750603818E+01
 0.79384914031E+01 0.78071667636E+01 0.77614971976E+01 0.77554677341E+01 0.77614971976E+01
 0.78071667636E+01 0.79384914031E+01 0.81750603818E+01 0.85373969108E+01 0.91066306555E+01
 0.10045003306E+02 0.11603421432E+02 0.14135603316E+02 0.17983625777E+02 0.23147976012E+02
 0.32568075935E+02 0.54743192867E+02 0.93531038619E+02 0.14494889017E+03 0.19793251254E+03
 0.23802802340E+03 0.12902317877E+03 0.12108709652E+03 0.10015401837E+03 0.73449847136E+02
 0.49125541358E+02 0.32568075935E+02 0.24111986612E+02 0.19333164415E+02 0.15515792366E+02
 0.12816109390E+02 0.11093680444E+02 0.10055394668E+02 0.94482231645E+01 0.91066306555E+01
 0.89296975156E+01 0.88601405242E+01 0.88629851247E+01 0.88980231993E+01 0.89174303691E+01
 0.88980231993E+01 0.88629851247E+01 0.88601405242E+01 0.89296975156E+01 0.91066306555E+01
 0.94482231645E+01 0.10055394668E+02 0.11093680444E+02 0.12816109390E+02 0.15515792366E+02
 0.19333164415E+02 0.24111986612E+02 0.32568075935E+02 0.49125541358E+02 0.73449847136E+02
 0.10015401837E+03 0.12108709652E+03 0.58244704090E+02 0.54992377156E+02 0.46655006363E+02
 0.36655583438E+02 0.28392594976E+02 0.23147976012E+02 0.19333164415E+02 0.16033117538E+02
 0.13530406561E+02 0.11850658828E+02 0.10835615366E+02 0.10287425883E+02 0.10055394668E+02
 0.10045003306E+02 0.10190846968E+02 0.10431237484E+02 0.10694547971E+02 0.10900023412E+02
 0.10977938275E+02 0.10900023412E+02 0.10694547971E+02 0.10431237484E+02 0.10190846968E+02
 0.10045003306E+02 0.10055394668E+02 0.10287425883E+02 0.10835615366E+02 0.11850658828E+02
 0.13530406561E+02 0.16033117538E+02 0.19333164415E+02 0.23147976012E+02 0.28392594976E+02
 0.36655583438E+02 0.46655006363E+02 0.54992377156E+02 0.28992933670E+02 0.28104287860E+02
 0.25887865698E+02 0.23268231303E+02 0.20670621049E+02 0.17983625777E+02 0.15515792366E+02
 0.13530406561E+02 0.12129289063E+02 0.11277077293E+02 0.10876381066E+02 0.10835615366E+02
 0.11093680444E+02 0.11603421432E+02 0.12299054660E+02 0.13074541904E+02 0.13788078164E+02
 0.14291898928E+02 0.14473795828E+02 0.14291898928E+02 0.13788078164E+02 0.13074541904E+02
 0.12299054660E+02 0.11603421432E+02 0.11093680444E+02 0.10835615366E+02 0.10876381066E+02
 0.11277077293E+02 0.12129289063E+02 0.13530406561E+02 0.15515792366E+02 0.17983625777E+02
 0.20670621049E+02 0.23268231303E+02 0.25887865698E+02 0.28104287860E+02 0.19880264016E+02
 0.19555876981E+02 0.18635486429E+02 0.17271228337E+02 0.15688888061E+02 0.14135603316E+02
 0.12816109390E+02 0.11850658828E+02 0.11277077293E+02 0.11088651439E+02 0.11277077293E+02
 0.11850658828E+02 0.12816109390E+02 0.14135603316E+02 0.15688888061E+02 0.17271228337E+02
 0.18635486429E+02 0.19555876981E+02 0.19880264016E+02 0.19555876981E+02 0.18635486429E+02
 0.17271228337E+02 0.15688888061E+02 0.14135603316E+02 0.12816109390E+02 0.11850658828E+02
 0.11277077293E+02 0.11088651439E+02 0.11277077293E+02 0.11850658828E+02 0.12816109390E+02
 0.14135603316E+02 0.15688888061E+02 0.17271228337E+02 0.18635486429E+02 0.19555876981E+02
 0.14473795828E+02 0.14291898928E+02 0.13788078164E+02 0.13074541904E+02 0.12299054660E+02
 0.11603421432E+02 0.11093680444E+02 0.10835615366E+02 0.10876381066E+02 0.11277077293E+02
 0.12129289063E+02 0.13530406561E+02 0.15515792366E+02 0.17983625777E+02 0.20670621049E+02
 0.23268231303E+02 0.25887865698E+02 0.28104287860E+02 0.28992933670E+02 0.28104287860E+02
 0.25887865698E+02 0.23268231303E+02 0.20670621049E+02 0.17983625777E+02 0.15515792366E+02
 0.13530406561E+02 0.12129289063E+02 0.11277077293E+02 0.10876381066E+02 0.10835615366E+02
 0.11093680444E+02 0.11603421432E+02 0.12299054660E+02 0.13074541904E+02 0.13788078164E+02
 0.14291898928E+02 0.10977938275E+02 0.10900023412E+02 0.10694547971E+02 0.10431237484E+02
 0.10190846968E+02 0.10045003306E+02 0.10055394668E+02 0.10287425883E+02 0.10835615366E+02
 0.11850658828E+02 0.13530406561E+02 0.16033117538E+02 0.19333164415E+02 0.23147976012E+02
 0.28392594976E+02 0.36655583438E+02 0.46655006363E+02 0.54992377156E+02 0.58244704090E+02
 0.54992377156E+02 0.46655006363E+02 0.36655583438E+02 0.28392594976E+02 0.23147976012E+02
 0.19333164415E+02 0.16033117538E+02 0.13530406561E+02 0.11850658828E+02 0.10835615366E+02
 0.10287425883E+02 0.10055394668E+02 0.10045003306E+02 0.10190846968E+02 0.10431237484E+02
 0.10694547971E+02 0.10900023412E+02 0.89174303691E+01 0.88980231993E+01 0.88629851247E+01
 0.88601405242E+01 0.89296975156E+01 0.91066306555E+01 0.94482231645E+01 0.10055394668E+02
 0.11093680444E+02 0.12816109390E+02 0.15515792366E+02 0.19333164415E+02 0.24111986612E+02
 0.32568075935E+02 0.49125541358E+02 0.73449847136E+02 0.10015401837E+03 0.12108709652E+03
 0.12902317877E+03 0.12108709652E+03 0.10015401837E+03 0.73449847136E+02 0.49125541358E+02
 0.32568075935E+02 0.24111986612E+02 0.19333164415E+02 0.15515792366E+02 0.12816109390E+02
 0.11093680444E+02 0.10055394668E+02 0.94482231645E+01 0.91066306555E+01 0.89296975156E+01
 0.88601405242E+01 0.88629851247E+01 0.88980231993E+01 0.77554677341E+01 0.77614971976E+01
 0.78071667636E+01 0.79384914031E+01 0.81750603818E+01 0.85373969108E+01 0.91066306555E+01
 0.10045003306E+02 0.11603421432E+02 0.14135603316E+02 0.17983625777E+02 0.23147976012E+02
 0.32568075935E+02 0.54743192867E+02 0.93531038619E+02 0.14494889017E+03 0.19793251254E+03
 0.23802802340E+03 0.25299317235E+03 0.23802802340E+03 0.19793251254E+03 0.14494889017E+03
 0.93531038619E+02 0.54743192867E+02 0.32568075935E+02 0.23147976012E+02 0.17983625777E+02
 0.14135603316E+02 0.11603421432E+02 0.10045003306E+02 0.91066306555E+01 0.85373969108E+01
 0.81750603818E+01 0.79384914031E+01 0.78071667636E+01 0.77614971976E+01 0.70346093183E+01
 0.70504807873E+01 0.71360878802E+01 0.73463877278E+01 0.76876819413E+01 0.81750603818E+01
 0.89296975156E+01 0.10190846968E+02 0.12299054660E+02 0.15688888061E+02 0.20670621049E+02
 0.28392594976E+02 0.49125541358E+02 0.93531038619E+02 0.16371411936E+03 0.25114993358E+03
 0.33811133340E+03 0.40269529014E+03 0.42660797019E+03 0.40269529014E+03 0.33811133340E+03
 0.25114993358E+03 0.16371411936E+03 0.93531038619E+02 0.49125541358E+02 0.28392594976E+02
 0.20670621049E+02 0.15688888061E+02 0.12299054660E+02 0.10190846968E+02 0.89296975156E+01
 0.81750603818E+01 0.76876819413E+01 0.73463877278E+01 0.71360878802E+01 0.70504807873E+01
 0.65050851105E+01 0.65266823888E+01 0.66420239207E+01 0.69176896712E+01 0.73463877278E+01
 0.79384914031E+01 0.88601405242E+01 0.10431237484E+02 0.13074541904E+02 0.17271228337E+02
 0.23268231303E+02 0.36655583438E+02 0.73449847136E+02 0.14494889017E+03 0.25114993358E+03
 0.37887491013E+03 0.50353995508E+03 0.59528546642E+03 0.62913419884E+03 0.59528546642E+03
 0.50353995508E+03 0.37887491013E+03 0.25114993358E+03 0.14494889017E+03 0.73449847136E+02
 0.36655583438E+02 0.23268231303E+02 0.17271228337E+02 0.13074541904E+02 0.10431237484E+02
 0.88601405242E+01 0.79384914031E+01 0.73463877278E+01 0.69176896712E+01 0.66420239207E+01
 0.65266823888E+01 0.61599753274E+01 0.61838186423E+01 0.63182753739E+01 0.66420239207E+01
 0.71360878802E+01 0.78071667636E+01 0.88629851247E+01 0.10694547971E+02 0.13788078164E+02
 0.18635486429E+02 0.25887865698E+02 0.46655006363E+02 0.10015401837E+03 0.19793251254E+03
 0.33811133340E+03 0.50353995508E+03 0.66354753279E+03 0.78087007521E+03 0.82410562815E+03
 0.78087007521E+03 0.66354753279E+03 0.50353995508E+03 0.33811133340E+03 0.19793251254E+03
 0.10015401837E+03 0.46655006363E+02 0.25887865698E+02 0.18635486429E+02 0.13788078164E+02
 0.10694547971E+02 0.88629851247E+01 0.78071667636E+01 0.71360878802E+01 0.66420239207E+01
 0.63182753739E+01 0.61838186423E+01 0.60249865889E+01 0.60464995459E+01 0.61838186423E+01
 0.65266823888E+01 0.70504807873E+01 0.77614971976E+01 0.88980231993E+01 0.10900023412E+02
 0.14291898928E+02 0.19555876981E+02 0.28104287860E+02 0.54992377156E+02 0.12108709652E+03
 0.23802802340E+03 0.40269529014E+03 0.59528546642E+03 0.78087007521E+03 0.91679795716E+03
 0.96688305165E+03 0.91679795716E+03 0.78087007521E+03 0.59528546642E+03 0.40269529014E+03
 0.23802802340E+03 0.12108709652E+03 0.54992377156E+02 0.28104287860E+02 0.19555876981E+02
 0.14291898928E+02 0.10900023412E+02 0.88980231993E+01 0.77614971976E+01 0.70504807873E+01
 0.65266823888E+01 0.61838186423E+01 0.60464995459E+01 0.60055523693E+01 0.60249865889E+01
 0.61599753274E+01 0.65050851105E+01 0.70346093183E+01 0.77554677341E+01 0.89174303691E+01
 0.10977938275E+02 0.14473795828E+02 0.19880264016E+02 0.28992933670E+02 0.58244704090E+02
 0.12902317877E+03 0.25299317235E+03 0.42660797019E+03 0.62913419884E+03 0.82410562815E+03
 0.96688305165E+03 0.10194943325E+04 0.96688305165E+03 0.82410562815E+03 0.62913419884E+03
 0.42660797019E+03 0.25299317235E+03 0.12902317877E+03 0.58244704090E+02 0.28992933670E+02
 0.19880264016E+02 0.14473795828E+02 0.10977938275E+02 0.89174303691E+01 0.77554677341E+01
 0.70346093183E+01 0.65050851105E+01 0.61599753274E+01 0.60249865889E+01 0.60249865889E+01
 0.60464995459E+01 0.61838186423E+01 0.65266823888E+01 0.70504807873E+01 0.77614971976E+01
 0.88980231993E+01 0.10900023412E+02 0.14291898928E+02 0.19555876981E+02 0.28104287860E+02
 0.54992377156E+02 0.12108709652E+03 0.23802802340E+03 0.40269529014E+03 0.59528546642E+03
 0.78087007521E+03 0.91679795716E+03 0.96688305165E+03 0.91679795716E+03 0.78087007521E+03
 0.59528546642E+03 0.40269529014E+03 0.23802802340E+03 0.12108709652E+03 0.54992377156E+02
 0.28104287860E+02 0.19555876981E+02 0.14291898928E+02 0.10900023412E+02 0.88980231993E+01
 0.77614971976E+01 0.70504807873E+01 0.65266823888E+01 0.61838186423E+01 0.60464995459E+01
 0.61599753274E+01 0.61838186423E+01 0.63182753739E+01 0.66420239207E+01 0.71360878802E+01
 0.78071667636E+01 0.88629851247E+01 0.10694547971E+02 0.13788078164E+02 0.18635486429E+02
 0.25887865698E+02 0.46655006363E+02 0.10015401837E+03 0.19793251254E+03 0.33811133340E+03
 0.50353995508E+03 0.66354753279E+03 0.78087007521E+03 0.82410562815E+03 0.78087007521E+03
 0.66354753279E+03 0.50353995508E+03 0.33811133340E+03 0.19793251254E+03 0.10015401837E+03
 0.46655006363E+02 0.25887865698E+02 0.18635486429E+02 0.13788078164E+02 0.10694547971E+02
 0.88629851247E+01 0.78071667636E+01 0.71360878802E+01 0.66420239207E+01 0.63182753739E+01
 0.61838186423E+01 0.65050851105E+01 0.65266823888E+01 0.66420239207E+01 0.69176896712E+01
 0.73463877278E+01 0.79384914031E+01 0.88601405242E+01 0.10431237484E+02 0.13074541904E+02
 0.17271228337E+02 0.23268231303E+02 0.36655583438E+02 0.73449847136E+02 0.14494889017E+03
 0.25114993358E+03 0.37887491013E+03 0.50353995508E+03 0.59528546642E+03 0.62913419884E+03
 0.59528546642E+03 0.50353995508E+03 0.37887491013E+03 0.25114993358E+03 0.14494889017E+03
 0.73449847136E+02 0.36655583438E+02 0.23268231303E+02 0.17271228337E+02 0.13074541904E+02
 0.10431237484E+02 0.88601405242E+01 0.79384914031E+01 0.73463877278E+01 0.69176896712E+01
 0.66420239207E+01 0.65266823888E+01 0.70346093183E+01 0.70504807873E+01 0.71360878802E+01
 0.73463877278E+01 0.76876819413E+01 0.81750603818E+01 0.89296975156E+01 0.10190846968E+02
 0.12299054660E+02 0.15688888061E+02 0.20670621049E+02 0.28392594976E+02 0.49125541358E+02
 0.93531038619E+02 0.16371411936E+03 0.25114993358E+03 0.33811133340E+03 0.40269529014E+03
 0.42660797019E+03 0.40269529014E+03 0.33811133340E+03 0.25114993358E+03 0.16371411936E+03
 0.93531038619E+02 0.49125541358E+02 0.28392594976E+02 0.20670621049E+02 0.15688888061E+02
 0.12299054660E+02 0.10190846968E+02 0.89296975156E+01 0.81750603818E+01 0.76876819413E+01
 0.73463877278E+01 0.71360878802E+01 0.70504807873E+01 0.77554677341E+01 0.77614971976E+01
 0.78071667636E+01 0.79384914031E+01 0.81750603818E+01 0.85373969108E+01 0.91066306555E+01
 0.10045003306E+02 0.11603421432E+02 0.14135603316E+02 0.17983625777E+02 0.23147976012E+02
 0.32568075935E+02 0.54743192867E+02 0.93531038619E+02 0.14494889017E+03 0.19793251254E+03
 0.23802802340E+03 0.25299317235E+03 0.23802802340E+03 0.19793251254E+03 0.14494889017E+03
 0.93531038619E+02 0.54743192867E+02 0.32568075935E+02 0.23147976012E+02 0.17983625777E+02
 0.14135603316E+02 0.11603421432E+02 0.10045003306E+02 0.91066306555E+01 0.85373969108E+01
 0.81750603818E+01 0.79384914031E+01 0.78071667636E+01 0.77614971976E+01 0.89174303691E+01
 0.88980231993E+01 0.88629851247E+01 0.88601405242E+01 0.89296975156E+01 0.91066306555E+01
 0.94482231645E+01 0.10055394668E+02 0.11093680444E+02 0.12816109390E+02 0.15515792366E+02
 0.19333164415E+02 0.24111986612E+02 0.32568075935E+02 0.49125541358E+02 0.73449847136E+02
 0.10015401837E+03 0.12108709652E+03 0.12902317877E+03 0.12108709652E+03 0.10015401837E+03
 0.73449847136E+02 0.49125541358E+02 0.32568075935E+02 0.24111986612E+02 0.19333164415E+02
 0.15515792366E+02 0.12816109390E+02 0.11093680444E+02 0.10055394668E+02 0.94482231645E+01
 0.91066306555E+01 0.89296975156E+01 0.88601405242E+01 0.88629851247E+01 0.88980231993E+01
 0.10977938275E+02 0.10900023412E+02 0.10694547971E+02 0.10431237484E+02 0.10190846968E+02
 0.10045003306E+02 0.10055394668E+02 0.10287425883E+02 0.10835615366E+02 0.11850658828E+02
 0.13530406561E+02 0.16033117538E+02 0.19333164415E+02 0.23147976012E+02 0.28392594976E+02
 0.36655583438E+02 0.46655006363E+02 0.54992377156E+02 0.58244704090E+02 0.54992377156E+02
 0.46655006363E+02 0.36655583438E+02 0.28392594976E+02 0.23147976012E+02 0.19333164415E+02
 0.16033117538E+02 0.13530406561E+02 0.11850658828E+02 0.10835615366E+02 0.10287425883E+02
 0.10055394668E+02 0.10045003306E+02 0.10190846968E+02 0.10431237484E+02 0.10694547971E+02
 0.10900023412E+02 0.14473795828E+02 0.14291898928E+02 0.13788078164E+02 0.13074541904E+02
 0.12299054660E+02 0.11603421432E+02 0.11093680444E+02 0.10835615366E+02 0.10876381066E+02
 0.11277077293E+02 0.12129289063E+02 0.13530406561E+02 0.15515792366E+02 0.17983625777E+02
 0.20670621049E+02 0.23268231303E+02 0.25887865698E+02 0.28104287860E+02 0.28992933670E+02
 0.28104287860E+02 0.25887865698E+02 0.23268231303E+02 0.20670621049E+02 0.17983625777E+02
 0.15515792366E+02 0.13530406561E+02 0.12129289063E+02 0.11277077293E+02 0.10876381066E+02
 0.10835615366E+02 0.11093680444E+02 0.11603421432E+02 0.12299054660E+02 0.13074541904E+02
 0.13788078164E+02 0.14291898928E+02 0.19880264016E+02 0.19555876981E+02 0.18635486429E+02
 0.17271228337E+02 0.15688888061E+02 0.14135603316E+02 0.12816109390E+02 0.11850658828E+02
 0.11277077293E+02 0.11088651439E+02 0.11277077293E+02 0.11850658828E+02 0.12816109390E+02
 0.14135603316E+02 0.15688888061E+02 0.17271228337E+02 0.18635486429E+02 0.19555876981E+02
 0.19880264016E+02 0.19555876981E+02 0.18635486429E+02 0.17271228337E+02 0.15688888061E+02
 0.14135603316E+02 0.12816109390E+02 0.11850658828E+02 0.11277077293E+02 0.11088651439E+02
 0.11277077293E+02 0.11850658828E+02 0.12816109390E+02 0.14135603316E+02 0.15688888061E+02
 0.17271228337E+02 0.18635486429E+02 0.19555876981E+02 0.28992933670E+02 0.28104287860E+02
 0.25887865698E+02 0.23268231303E+02 0.20670621049E+02 0.17983625777E+02 0.15515792366E+02
 0.13530406561E+02 0.12129289063E+02 0.11277077293E+02 0.10876381066E+02 0.10835615366E+02
 0.11093680444E+02 0.11603421432E+02 0.12299054660E+02 0.13074541904E+02 0.13788078164E+02
 0.14291898928E+02 0.14473795828E+02 0.14291898928E+02 0.13788078164E+02 0.13074541904E+02
 0.12299054660E+02 0.11603421432E+02 0.11093680444E+02 0.10835615366E+02 0.10876381066E+02
 0.11277077293E+02 0.12129289063E+02 0.13530406561E+02 0.15515792366E+02 0.17983625777E+02
 0.20670621049E+02 0.23268231303E+02 0.25887865698E+02 0.28104287860E+02 0.58244704090E+02
 0.54992377156E+02 0.46655006363E+02 0.36655583438E+02 0.28392594976E+02 0.23147976012E+02
 0.19333164415E+02 0.16033117538E+02 0.13530406561E+02 0.11850658828E+02 0.10835615366E+02
 0.10287425883E+02 0.10055394668E+02 0.10045003306E+02 0.10190846968E+02 0.10431237484E+02
 0.10694547971E+02 0.10900023412E+02 0.10977938275E+02 0.10900023412E+02 0.10694547971E+02
 0.10431237484E+02 0.10190846968E+02 0.10045003306E+02 0.10055394668E+02 0.10287425883E+02
 0.10835615366E+02 0.11850658828E+02 0.13530406561E+02 0.16033117538E+02 0.19333164415E+02
 0.23147976012E+02 0.28392594976E+02 0.36655583438E+02 0.46655006363E+02 0.54992377156E+02
 0.12902317877E+03 0.12108709652E+03 0.10015401837E+03 0.73449847136E+02 0.49125541358E+02
 0.32568075935E+02 0.24111986612E+02 0.19333164415E+02 0.15515792366E+02 0.12816109390E+02
 0.11093680444E+02 0.10055394668E+02 0.94482231645E+01 0.91066306555E+01 0.89296975156E+01
 0.88601405242E+01 0.88629851247E+01 0.88980231993E+01 0.89174303691E+01 0.88980231993E+01
 0.88629851247E+01 0.88601405242E+01 0.89296975156E+01 0.91066306555E+01 0.94482231645E+01
 0.10055394668E+02 0.11093680444E+02 0.12816109390E+02 0.15515792366E+02 0.19333164415E+02
 0.24111986612E+02 0.32568075935E+02 0.49125541358E+02 0.73449847136E+02 0.10015401837E+03
 0.12108709652E+03 0.25299317235E+03 0.23802802340E+03 0.19793251254E+03 0.14494889017E+03
 0.93531038619E+02 0.54743192867E+02 0.32568075935E+02 0.23147976012E+02 0.17983625777E+02
 0.14135603316E+02 0.11603421432E+02 0.10045003306E+02 0.91066306555E+01 0.85373969108E+01
 0.81750603818E+01 0.79384914031E+01 0.78071667636E+01 0.77614971976E+01 0.77554677341E+01
 0.77614971976E+01 0.78071667636E+01 0.79384914031E+01 0.81750603818E+01 0.85373969108E+01
 0.91066306555E+01 0.10045003306E+02 0.11603421432E+02 0.14135603316E+02 0.17983625777E+02
 0.23147976012E+02 0.32568075935E+02 0.54743192867E+02 0.93531038619E+02 0.14494889017E+03
 0.19793251254E+03 0.23802802340E+03 0.42660797019E+03 0.40269529014E+03 0.33811133340E+03
 0.25114993358E+03 0.16371411936E+03 0.93531038619E+02 0.49125541358E+02 0.28392594976E+02
 0.20670621049E+02 0.15688888061E+02 0.12299054660E+02 0.10190846968E+02 0.89296975156E+01
 0.81750603818E+01 0.76876819413E+01 0.73463877278E+01 0.71360878802E+01 0.70504807873E+01
 0.70346093183E+01 0.70504807873E+01 0.71360878802E+01 0.73463877278E+01 0.76876819413E+01
 0.81750603818E+01 0.89296975156E+01 0.10190846968E+02 0.12299054660E+02 0.15688888061E+02
 0.20670621049E+02 0.28392594976E+02 0.49125541358E+02 0.93531038619E+02 0.16371411936E+03
 0.25114993358E+03 0.33811133340E+03 0.40269529014E+03 0.62913419884E+03 0.59528546642E+03
 0.50353995508E+03 0.37887491013E+03 0.25114993358E+03 0.14494889017E+03 0.73449847136E+02
 0.36655583438E+02 0.23268231303E+02 0.17271228337E+02 0.13074541904E+02 0.10431237484E+02
 0.88601405242E+01 0.79384914031E+01 0.73463877278E+01 0.69176896712E+01 0.66420239207E+01
 0.65266823888E+01 0.65050851105E+01 0.65266823888E+01 0.66420239207E+01 0.69176896712E+01
 0.73463877278E+01 0.79384914031E+01 0.88601405242E+01 0.10431237484E+02 0.13074541904E+02
 0.17271228337E+02 0.23268231303E+02 0.36655583438E+02 0.73449847136E+02 0.14494889017E+03
 0.25114993358E+03 0.37887491013E+03 0.50353995508E+03 0.59528546642E+03 0.82410562815E+03
 0.78087007521E+03 0.66354753279E+03 0.50353995508E+03 0.33811133340E+03 0.19793251254E+03
 0.10015401837E+03 0.46655006363E+02 0.25887865698E+02 0.18635486429E+02 0.13788078164E+02
 0.10694547971E+02 0.88629851247E+01 0.78071667636E+01 0.71360878802E+01 0.66420239207E+01
 0.63182753739E+01 0.61838186423E+01 0.61599753274E+01 0.61838186423E+01 0.63182753739E+01
 0.66420239207E+01 0.71360878802E+01 0.78071667636E+01 0.88629851247E+01 0.10694547971E+02
 0.13788078164E+02 0.18635486429E+02 0.25887865698E+02 0.46655006363E+02 0.10015401837E+03
 0.19793251254E+03 0.33811133340E+03 0.50353995508E+03 0.66354753279E+03 0.78087007521E+03
 0.96688305165E+03 0.91679795716E+03 0.78087007521E+03 0.59528546642E+03 0.40269529014E+03
 0.23802802340E+03 0.12108709652E+03 0.54992377156E+02 0.28104287860E+02 0.19555876981E+02
 0.14291898928E+02 0.10900023412E+02 0.88980231993E+01 0.77614971976E+01 0.70504807873E+01
 0.65266823888E+01 0.61838186423E+01 0.60464995459E+01 0.60249865889E+01 0.60464995459E+01
 0.61838186423E+01 0.65266823888E+01 0.70504807873E+01 0.77614971976E+01 0.88980231993E+01
 0.10900023412E+02 0.14291898928E+02 0.19555876981E+02 0.28104287860E+02 0.54992377156E+02
 0.12108709652E+03 0.23802802340E+03 0.40269529014E+03 0.59528546642E+03 0.78087007521E+03
 0.91679795716E+03 0.96688305165E+03 0.91679795716E+03 0.78087007521E+03 0.59528546642E+03
 0.40269529014E+03 0.23802802340E+03 0.12108709652E+03 0.54992377156E+02 0.28104287860E+02
 0.19555876981E+02 0.14291898928E+02 0.10900023412E+02 0.88980231993E+01 0.77614971976E+01
 0.70504807873E+01 0.65266823888E+01 0.61838186423E+01 0.60464995459E+01 0.60249865889E+01
 0.60464995459E+01 0.61838186423E+01 0.65266823888E+01 0.70504807873E+01 0.77614971976E+01
 0.88980231993E+01 0.10900023412E+02 0.14291898928E+02 0.19555876981E+02 0.28104287860E+02
 0.54992377156E+02 0.12108709652E+03 0.23802802340E+03 0.40269529014E+03 0.59528546642E+03
 0.78087007521E+03 0.91679795716E+03 0.91679795716E+03 0.86911762636E+03 0.73971577352E+03
 0.56308802571E+03 0.37999297562E+03 0.22387954656E+03 0.11364349907E+03 0.51985130469E+02
 0.27294222869E+02 0.19238457081E+02 0.14114798601E+02 0.10824049775E+02 0.88788821260E+01
 0.77674060111E+01 0.70665493847E+01 0.65489772891E+01 0.62089211760E+01 0.60698337607E+01
 0.60464995459E+01 0.60698337607E+01 0.62089211760E+01 0.65489772891E+01 0.70665493847E+01
 0.77674060111E+01 0.88788821260E+01 0.10824049775E+02 0.14114798601E+02 0.19238457081E+02
 0.27294222869E+02 0.51985130469E+02 0.11364349907E+03 0.22387954656E+03 0.37999297562E+03
 0.56308802571E+03 0.73971577352E+03 0.86911762636E+03 0.78087007521E+03 0.73971577352E+03
 0.62805467211E+03 0.47584773576E+03 0.31871742918E+03 0.18601238113E+03 0.94042367305E+02
 0.44295034504E+02 0.25268393448E+02 0.18338762362E+02 0.13624458007E+02 0.10623627625E+02
 0.88438966663E+01 0.78116218280E+01 0.71510317156E+01 0.66639648797E+01 0.63440034674E+01
 0.62089211760E+01 0.61838186423E+01 0.62089211760E+01 0.63440034674E+01 0.66639648797E+01
 0.71510317156E+01 0.78116218280E+01 0.88438966663E+01 0.10623627625E+02 0.13624458007E+02
 0.18338762362E+02 0.25268393448E+02 0.44295034504E+02 0.94042367305E+02 0.18601238113E+03
 0.31871742918E+03 0.47584773576E+03 0.62805467211E+03 0.73971577352E+03 0.59528546642E+03
 0.56308802571E+03 0.47584773576E+03 0.35741752765E+03 0.23634073976E+03 0.13609598623E+03
 0.69131068703E+02 0.35117686747E+02 0.22837808780E+02 0.17007641239E+02 0.12930629126E+02
 0.10366833217E+02 0.88398035970E+01 0.79388725731E+01 0.73568836740E+01 0.69353384821E+01
 0.66639648797E+01 0.65489772891E+01 0.65266823888E+01 0.65489772891E+01 0.66639648797E+01
 0.69353384821E+01 0.73568836740E+01 0.79388725731E+01 0.88398035970E+01 0.10366833217E+02
 0.12930629126E+02 0.17007641239E+02 0.22837808780E+02 0.35117686747E+02 0.69131068703E+02
 0.13609598623E+03 0.23634073976E+03 0.35741752765E+03 0.47584773576E+03 0.56308802571E+03
 0.40269529014E+03 0.37999297562E+03 0.31871742918E+03 0.23634073976E+03 0.15377316569E+03
 0.87875093537E+02 0.46589473175E+02 0.27575473388E+02 0.20320724977E+02 0.15467346614E+02
 0.12177700414E+02 0.10132891465E+02 0.89066956538E+01 0.81693076043E+01 0.76912615716E+01
 0.73568836740E+01 0.71510317156E+01 0.70665493847E+01 0.70504807873E+01 0.70665493847E+01
 0.71510317156E+01 0.73568836740E+01 0.76912615716E+01 0.81693076043E+01 0.89066956538E+01
 0.10132891465E+02 0.12177700414E+02 0.15467346614E+02 0.20320724977E+02 0.27575473388E+02
 0.46589473175E+02 0.87875093537E+02 0.15377316569E+03 0.23634073976E+03 0.31871742918E+03
 0.37999297562E+03 0.23802802340E+03 0.22387954656E+03 0.18601238113E+03 0.13609598623E+03
 0.87875093537E+02 0.51783461389E+02 0.31393869540E+02 0.22728355878E+02 0.17698080468E+02
 0.13959153761E+02 0.11503834882E+02 0.99920132901E+01 0.90793536169E+01 0.85235916234E+01
 0.81693076043E+01 0.79388725731E+01 0.78116218280E+01 0.77674060111E+01 0.77614971976E+01
 0.77674060111E+01 0.78116218280E+01 0.79388725731E+01 0.81693076043E+01 0.85235916234E+01
 0.90793536169E+01 0.99920132901E+01 0.11503834882E+02 0.13959153761E+02 0.17698080468E+02
 0.22728355878E+02 0.31393869540E+02 0.51783461389E+02 0.87875093537E+02 0.13609598623E+03
 0.18601238113E+03 0.22387954656E+03 0.12108709652E+03 0.11364349907E+03 0.94042367305E+02
 0.69131068703E+02 0.46589473175E+02 0.31393869540E+02 0.23641150826E+02 0.19012074028E+02
 0.15299052400E+02 0.12681117832E+02 0.11011677232E+02 0.10003912521E+02 0.94129073381E+01
 0.90793536169E+01 0.89066956538E+01 0.88398035970E+01 0.88438966663E+01 0.88788821260E+01
 0.88980231993E+01 0.88788821260E+01 0.88438966663E+01 0.88398035970E+01 0.89066956538E+01
 0.90793536169E+01 0.94129073381E+01 0.10003912521E+02 0.11011677232E+02 0.12681117832E+02
 0.15299052400E+02 0.19012074028E+02 0.23641150826E+02 0.31393869540E+02 0.46589473175E+02
 0.69131068703E+02 0.94042367305E+02 0.11364349907E+03 0.54992377156E+02 0.51985130469E+02
 0.44295034504E+02 0.35117686747E+02 0.27575473388E+02 0.22728355878E+02 0.19012074028E+02
 0.15801523444E+02 0.13374834962E+02 0.11748040646E+02 0.10764120012E+02 0.10231115617E+02
 0.10003912521E+02 0.99920132901E+01 0.10132891465E+02 0.10366833217E+02 0.10623627625E+02
 0.10824049775E+02 0.10900023412E+02 0.10824049775E+02 0.10623627625E+02 0.10366833217E+02
 0.10132891465E+02 0.99920132901E+01 0.10003912521E+02 0.10231115617E+02 0.10764120012E+02
 0.11748040646E+02 0.13374834962E+02 0.15801523444E+02 0.19012074028E+02 0.22728355878E+02
 0.27575473388E+02 0.35117686747E+02 0.44295034504E+02 0.51985130469E+02 0.28104287860E+02
 0.27294222869E+02 0.25268393448E+02 0.22837808780E+02 0.20320724977E+02 0.17698080468E+02
 0.15299052400E+02 0.13374834962E+02 0.12019194870E+02 0.11194620196E+02 0.10805706580E+02
 0.10764120012E+02 0.11011677232E+02 0.11503834882E+02 0.12177700414E+02 0.12930629126E+02
 0.13624458007E+02 0.14114798601E+02 0.14291898928E+02 0.14114798601E+02 0.13624458007E+02
 0.12930629126E+02 0.12177700414E+02 0.11503834882E+02 0.11011677232E+02 0.10764120012E+02
 0.10805706580E+02 0.11194620196E+02 0.12019194870E+02 0.13374834962E+02 0.15299052400E+02
 0.17698080468E+02 0.20320724977E+02 0.22837808780E+02 0.25268393448E+02 0.27294222869E+02
 0.19555876981E+02 0.19238457081E+02 0.18338762362E+02 0.17007641239E+02 0.15467346614E+02