   4   4   0   0
  0.1440902E+02  0.3862764E-09  0.3862764E-09  0.3862764E-09  0.5000000E-15
  1.000000000000000E-004
  CAR 
 unknown system                          
     25.39520069     -4.58004426  301      5.28042136      1.00000000
     -4.580  0.0000E+00  0.0000E+00
     -4.480  0.0000E+00  0.0000E+00
     -4.380  0.0000E+00  0.0000E+00
     -4.280  0.0000E+00  0.0000E+00
     -4.180 -0.9681E-29 -0.9673E-30
     -4.080 -0.2097E-25 -0.2096E-26
     -3.981 -0.2746E-22 -0.2746E-23
     -3.881 -0.2171E-19 -0.2172E-20
     -3.781 -0.1036E-16 -0.1038E-17
     -3.681 -0.2885E-14 -0.2893E-15
     -3.581 -0.4967E-12 -0.4992E-13
     -3.481 -0.5134E-10 -0.5179E-11
     -3.381 -0.3180E-08 -0.3229E-09
     -3.281 -0.1179E-06 -0.1210E-07
     -3.181 -0.2611E-05 -0.2730E-06
     -3.081 -0.3459E-04 -0.3729E-05
     -2.981 -0.2744E-03 -0.3114E-04
     -2.881 -0.1293E-02 -0.1604E-03
     -2.782 -0.3365E-02 -0.4965E-03
     -2.682 -0.2316E-02 -0.7279E-03
     -2.582  0.1632E-01  0.9028E-03
     -2.482  0.7010E-01  0.7907E-02
     -2.382  0.1488E+00  0.2277E-01
     -2.282  0.1990E+00  0.4266E-01
     -2.182  0.1876E+00  0.6141E-01
     -2.082  0.1853E+00  0.7992E-01
     -1.982  0.2905E+00  0.1089E+00
     -1.882  0.4332E+00  0.1522E+00
     -1.782  0.4183E+00  0.1940E+00
     -1.682  0.2535E+00  0.2194E+00
     -1.583  0.1961E+00  0.2390E+00
     -1.483  0.3547E+00  0.2744E+00
     -1.383  0.5402E+00  0.3284E+00
     -1.283  0.5852E+00  0.3868E+00
     -1.183  0.5004E+00  0.4368E+00
     -1.083  0.3942E+00  0.4762E+00
     -0.983  0.4493E+00  0.5211E+00
     -0.883  0.6489E+00  0.5860E+00
     -0.783  0.6383E+00  0.6497E+00
     -0.683  0.3791E+00  0.6876E+00
     -0.583  0.3517E+00  0.7228E+00
     -0.483  0.6626E+00  0.7890E+00
     -0.384  0.8711E+00  0.8760E+00
     -0.284  0.8026E+00  0.9562E+00
     -0.184  0.7554E+00  0.1032E+01
     -0.084  0.8913E+00  0.1121E+01
      0.016  0.8719E+00  0.1208E+01
      0.116  0.5413E+00  0.1262E+01
      0.216  0.3709E+00  0.1299E+01
      0.316  0.7013E+00  0.1369E+01
      0.416  0.1236E+01  0.1493E+01
      0.516  0.1423E+01  0.1635E+01
      0.616  0.1253E+01  0.1760E+01
      0.716  0.1125E+01  0.1872E+01
      0.815  0.1073E+01  0.1980E+01
      0.915  0.1053E+01  0.2085E+01
      1.015  0.1340E+01  0.2219E+01
      1.115  0.2014E+01  0.2420E+01
      1.215  0.2568E+01  0.2676E+01
      1.315  0.2713E+01  0.2948E+01
      1.415  0.3105E+01  0.3258E+01
      1.515  0.4171E+01  0.3675E+01
      1.615  0.5335E+01  0.4208E+01
      1.715  0.5981E+01  0.4805E+01
      1.815  0.6453E+01  0.5450E+01
      1.915  0.7860E+01  0.6235E+01
      2.015  0.1000E+02  0.7235E+01
      2.114  0.1139E+02  0.8373E+01
      2.214  0.1157E+02  0.9529E+01
      2.314  0.1123E+02  0.1065E+02
      2.414  0.1123E+02  0.1177E+02
      2.514  0.1218E+02  0.1299E+02
      2.614  0.1425E+02  0.1441E+02
      2.714  0.1667E+02  0.1608E+02
      2.814  0.1901E+02  0.1798E+02
      2.914  0.2169E+02  0.2015E+02
      3.014  0.2262E+02  0.2241E+02
      3.114  0.1972E+02  0.2438E+02
      3.214  0.1610E+02  0.2599E+02
      3.313  0.1597E+02  0.2758E+02
      3.413  0.1835E+02  0.2942E+02
      3.513  0.1931E+02  0.3134E+02
      3.613  0.1862E+02  0.3320E+02
      3.713  0.1972E+02  0.3518E+02
      3.813  0.2313E+02  0.3749E+02
      3.913  0.2333E+02  0.3982E+02
      4.013  0.1637E+02  0.4145E+02
      4.113  0.7111E+01  0.4216E+02
      4.213  0.1834E+01  0.4235E+02
      4.313  0.7864E+00  0.4243E+02
      4.413  0.1454E+01  0.4257E+02
      4.512  0.2015E+01  0.4277E+02
      4.612  0.1838E+01  0.4296E+02
      4.712  0.1231E+01  0.4308E+02
      4.812  0.6514E+00  0.4314E+02
      4.912  0.8319E+00  0.4323E+02
      5.012  0.1954E+01  0.4342E+02
      5.112  0.2634E+01  0.4369E+02
      5.212  0.2147E+01  0.4390E+02
      5.312  0.1360E+01  0.4404E+02
      5.412  0.8428E+00  0.4412E+02
      5.512  0.5764E+00  0.4418E+02
      5.612  0.5570E+00  0.4423E+02
      5.711  0.9916E+00  0.4433E+02
      5.811  0.1691E+01  0.4450E+02
      5.911  0.1889E+01  0.4469E+02
      6.011  0.1563E+01  0.4485E+02
      6.111  0.1415E+01  0.4499E+02
      6.211  0.1430E+01  0.4513E+02
      6.311  0.1168E+01  0.4525E+02
      6.411  0.9122E+00  0.4534E+02
      6.511  0.9088E+00  0.4543E+02
      6.611  0.7868E+00  0.4551E+02
      6.711  0.5501E+00  0.4556E+02
      6.811  0.7939E+00  0.4564E+02
      6.910  0.1538E+01  0.4580E+02
      7.010  0.1772E+01  0.4597E+02
      7.110  0.1230E+01  0.4610E+02
      7.210  0.9971E+00  0.4620E+02
      7.310  0.1351E+01  0.4633E+02
      7.410  0.1451E+01  0.4648E+02
      7.510  0.1145E+01  0.4659E+02
      7.610  0.8109E+00  0.4667E+02
      7.710  0.5061E+00  0.4672E+02
      7.810  0.3311E+00  0.4675E+02
      7.910  0.3983E+00  0.4679E+02
      8.010  0.6826E+00  0.4686E+02
      8.109  0.1038E+01  0.4697E+02
      8.209  0.1166E+01  0.4708E+02
      8.309  0.1217E+01  0.4720E+02
      8.409  0.1586E+01  0.4736E+02
      8.509  0.1880E+01  0.4755E+02
      8.609  0.1485E+01  0.4770E+02
      8.709  0.7591E+00  0.4777E+02
      8.809  0.5620E+00  0.4783E+02
      8.909  0.9502E+00  0.4793E+02
      9.009  0.1479E+01  0.4807E+02
      9.109  0.1916E+01  0.4826E+02
      9.209  0.1849E+01  0.4845E+02
      9.308  0.1147E+01  0.4856E+02
      9.408  0.5964E+00  0.4862E+02
      9.508  0.7812E+00  0.4870E+02
      9.608  0.1358E+01  0.4884E+02
      9.708  0.1722E+01  0.4901E+02
      9.808  0.1549E+01  0.4916E+02
      9.908  0.9595E+00  0.4926E+02
     10.008  0.4119E+00  0.4930E+02
     10.108  0.5086E+00  0.4935E+02
     10.208  0.1409E+01  0.4949E+02
     10.308  0.2229E+01  0.4972E+02
     10.408  0.1981E+01  0.4991E+02
     10.507  0.1194E+01  0.5003E+02
     10.607  0.8887E+00  0.5012E+02
     10.707  0.8887E+00  0.5021E+02
     10.807  0.7828E+00  0.5029E+02
     10.907  0.7530E+00  0.5036E+02
     11.007  0.7518E+00  0.5044E+02
     11.107  0.6077E+00  0.5050E+02
     11.207  0.6607E+00  0.5057E+02
     11.307  0.1116E+01  0.5068E+02
     11.407  0.1678E+01  0.5085E+02
     11.507  0.1892E+01  0.5103E+02
     11.607  0.1796E+01  0.5121E+02
     11.707  0.1816E+01  0.5140E+02
     11.806  0.1857E+01  0.5158E+02
     11.906  0.1579E+01  0.5174E+02
     12.006  0.1153E+01  0.5185E+02
     12.106  0.8863E+00  0.5194E+02
     12.206  0.9251E+00  0.5203E+02
     12.306  0.1278E+01  0.5216E+02
     12.406  0.1507E+01  0.5231E+02
     12.506  0.1370E+01  0.5245E+02
     12.606  0.1353E+01  0.5258E+02
     12.706  0.1614E+01  0.5275E+02
     12.806  0.1515E+01  0.5290E+02
     12.906  0.1312E+01  0.5303E+02
     13.005  0.1915E+01  0.5322E+02
     13.105  0.2671E+01  0.5349E+02
     13.205  0.2402E+01  0.5373E+02
     13.305  0.1516E+01  0.5388E+02
     13.405  0.1236E+01  0.5400E+02
     13.505  0.1683E+01  0.5417E+02
     13.605  0.1867E+01  0.5436E+02
     13.705  0.1411E+01  0.5450E+02
     13.805  0.1042E+01  0.5460E+02
     13.905  0.1229E+01  0.5472E+02
     14.005  0.1452E+01  0.5487E+02
     14.105  0.1393E+01  0.5501E+02
     14.204  0.1427E+01  0.5515E+02
     14.304  0.1508E+01  0.5530E+02
     14.404  0.1273E+01  0.5543E+02
     14.504  0.9458E+00  0.5552E+02
     14.604  0.1050E+01  0.5563E+02
     14.704  0.1910E+01  0.5582E+02
     14.804  0.2874E+01  0.5611E+02
     14.904  0.2633E+01  0.5637E+02
     15.004  0.1647E+01  0.5653E+02
     15.104  0.1584E+01  0.5669E+02
     15.204  0.2229E+01  0.5692E+02
     15.304  0.2162E+01  0.5713E+02
     15.403  0.1414E+01  0.5727E+02
     15.503  0.9510E+00  0.5737E+02
     15.603  0.9715E+00  0.5746E+02
     15.703  0.1063E+01  0.5757E+02
     15.803  0.1312E+01  0.5770E+02
     15.903  0.1957E+01  0.5790E+02
     16.003  0.2235E+01  0.5812E+02
     16.103  0.1603E+01  0.5828E+02
     16.203  0.1043E+01  0.5839E+02
     16.303  0.1313E+01  0.5852E+02
     16.403  0.1607E+01  0.5868E+02
     16.503  0.1202E+01  0.5880E+02
     16.602  0.7480E+00  0.5887E+02
     16.702  0.7491E+00  0.5895E+02
     16.802  0.7307E+00  0.5902E+02
     16.902  0.5493E+00  0.5907E+02
     17.002  0.4990E+00  0.5912E+02
     17.102  0.4460E+00  0.5917E+02
     17.202  0.3846E+00  0.5921E+02
     17.302  0.4870E+00  0.5926E+02
     17.402  0.4663E+00  0.5930E+02
     17.502  0.2012E+00  0.5932E+02
     17.602  0.3426E-02  0.5932E+02
     17.702 -0.3033E-01  0.5932E+02
     17.801 -0.2346E-01  0.5932E+02
     17.901 -0.1531E-01  0.5932E+02
     18.001  0.6000E-01  0.5932E+02
     18.101  0.2509E+00  0.5935E+02
     18.201  0.4967E+00  0.5940E+02
     18.301  0.6235E+00  0.5946E+02
     18.401  0.4530E+00  0.5950E+02
     18.501  0.1570E+00  0.5952E+02
     18.601  0.9477E-01  0.5953E+02
     18.701  0.2198E+00  0.5955E+02
     18.801  0.2202E+00  0.5957E+02
     18.901  0.7907E-01  0.5958E+02
     19.000  0.5135E-01  0.5959E+02
     19.100  0.2276E+00  0.5961E+02
     19.200  0.3941E+00  0.5965E+02
     19.300  0.3296E+00  0.5968E+02
     19.400  0.1286E+00  0.5969E+02
     19.500  0.2299E-02  0.5969E+02
     19.600 -0.2675E-01  0.5969E+02
     19.700 -0.3341E-01  0.5969E+02
     19.800  0.1460E-01  0.5969E+02
     19.900  0.2380E+00  0.5971E+02
     20.000  0.5073E+00  0.5976E+02
     20.100  0.4636E+00  0.5981E+02
     20.199  0.1722E+00  0.5983E+02
     20.299 -0.8028E-02  0.5983E+02
     20.399 -0.3236E-01  0.5982E+02
     20.499 -0.2073E-01  0.5982E+02
     20.599  0.3099E-01  0.5983E+02
     20.699  0.1679E+00  0.5984E+02
     20.799  0.2686E+00  0.5987E+02
     20.899  0.1898E+00  0.5989E+02
     20.999  0.4680E-01  0.5989E+02
     21.099 -0.1154E-01  0.5989E+02
     21.199 -0.1005E-01  0.5989E+02
     21.299 -0.6665E-02  0.5989E+02
     21.399 -0.1315E-01  0.5989E+02
     21.498  0.1140E-02  0.5989E+02
     21.598  0.1004E+00  0.5990E+02
     21.698  0.2425E+00  0.5992E+02
     21.798  0.2449E+00  0.5995E+02
     21.898  0.1041E+00  0.5996E+02
     21.998  0.2370E-02  0.5996E+02
     22.098 -0.1304E-01  0.5996E+02
     22.198 -0.4611E-02  0.5996E+02
     22.298 -0.7271E-03  0.5996E+02
     22.398 -0.6155E-04  0.5996E+02
     22.498 -0.2963E-05  0.5996E+02
     22.598 -0.1396E-06  0.5996E+02
     22.697 -0.2006E-05  0.5996E+02
     22.797 -0.4154E-04  0.5996E+02
     22.897 -0.4894E-03  0.5996E+02
     22.997 -0.3095E-02  0.5996E+02
     23.097 -0.8708E-02  0.5995E+02
     23.197  0.1730E-02  0.5996E+02
     23.297  0.6982E-01  0.5996E+02
     23.397  0.1636E+00  0.5998E+02
     23.497  0.1614E+00  0.5999E+02
     23.597  0.6653E-01  0.6000E+02
     23.697  0.6296E-03  0.6000E+02
     23.797 -0.8571E-02  0.6000E+02
     23.896 -0.2942E-02  0.6000E+02
     23.996 -0.4548E-03  0.6000E+02
     24.096 -0.3785E-04  0.6000E+02
     24.196 -0.1793E-05  0.6000E+02
     24.296 -0.4955E-07  0.6000E+02
     24.396 -0.8097E-09  0.6000E+02
     24.496 -0.7882E-11  0.6000E+02
     24.596 -0.4585E-13  0.6000E+02
     24.696 -0.1951E-15  0.6000E+02
     24.796  0.0000E+00  0.6000E+02
     24.896  0.0000E+00  0.6000E+02
     24.996  0.0000E+00  0.6000E+02
     25.095  0.0000E+00  0.6000E+02
     25.195  0.0000E+00  0.6000E+02
     25.295  0.0000E+00  0.6000E+02
     25.395  0.0000E+00  0.6000E+02
