   2   2   0   0
  0.9533046E+01  0.2353300E-09  0.2353300E-09  0.3975360E-09  0.5000000E-15
  1.000000000000000E-004
  CAR 
 unknown system                          
     75.10759389     -5.26759440  301      7.64666912      1.00000000
     -5.268  0.0000E+00  0.0000E+00
     -5.000  0.0000E+00  0.0000E+00
     -4.732  0.0000E+00  0.0000E+00
     -4.464  0.0000E+00  0.0000E+00
     -4.196  0.0000E+00  0.0000E+00
     -3.928  0.0000E+00  0.0000E+00
     -3.660  0.0000E+00  0.0000E+00
     -3.392 -0.6689E-36 -0.1792E-36
     -3.124 -0.2087E-26 -0.5593E-27
     -2.856 -0.1749E-18 -0.4686E-19
     -2.588 -0.3743E-12 -0.1003E-12
     -2.321 -0.2133E-07 -0.5714E-08
     -2.053 -0.2979E-04 -0.7986E-05
     -1.785 -0.4186E-03 -0.1201E-03
     -1.517  0.8253E-02  0.2091E-02
     -1.249  0.5203E-01  0.1603E-01
     -0.981  0.9178E-01  0.4062E-01
     -0.713  0.6058E-01  0.5685E-01
     -0.445  0.1433E+00  0.9524E-01
     -0.177  0.1747E+00  0.1420E+00
      0.091  0.1675E+00  0.1869E+00
      0.359  0.9095E-01  0.2113E+00
      0.627  0.2314E+00  0.2733E+00
      0.895  0.3096E+00  0.3562E+00
      1.162  0.2614E+00  0.4262E+00
      1.430  0.2930E+00  0.5047E+00
      1.698  0.2121E+00  0.5616E+00
      1.966  0.5084E+00  0.6978E+00
      2.234  0.8453E+00  0.9243E+00
      2.502  0.1317E+01  0.1277E+01
      2.770  0.1664E+01  0.1723E+01
      3.038  0.2622E+01  0.2425E+01
      3.306  0.2224E+01  0.3021E+01
      3.574  0.2962E+01  0.3815E+01
      3.842  0.1967E+01  0.4342E+01
      4.110  0.2597E+01  0.5038E+01
      4.377  0.2895E+01  0.5813E+01
      4.645  0.2992E+01  0.6615E+01
      4.913  0.2629E+01  0.7319E+01
      5.181  0.1778E+01  0.7796E+01
      5.449  0.2880E+01  0.8567E+01
      5.717  0.3769E+01  0.9577E+01
      5.985  0.3702E+01  0.1057E+02
      6.253  0.3853E+01  0.1160E+02
      6.521  0.4208E+01  0.1273E+02
      6.789  0.3468E+01  0.1366E+02
      7.057  0.2635E+01  0.1436E+02
      7.325  0.2611E+01  0.1506E+02
      7.592  0.2972E+01  0.1586E+02
      7.860  0.2084E+01  0.1642E+02
      8.128  0.2755E+01  0.1716E+02
      8.396  0.4515E+01  0.1837E+02
      8.664  0.5035E+01  0.1971E+02
      8.932  0.4544E+01  0.2093E+02
      9.200  0.1069E+01  0.2122E+02
      9.468  0.1277E+00  0.2125E+02
      9.736  0.4312E+00  0.2137E+02
     10.004  0.1150E+01  0.2168E+02
     10.272  0.6305E+00  0.2185E+02
     10.540  0.2203E+00  0.2190E+02
     10.807  0.6984E+00  0.2209E+02
     11.075  0.4698E+00  0.2222E+02
     11.343  0.2361E+00  0.2228E+02
     11.611  0.3259E+00  0.2237E+02
     11.879  0.9075E+00  0.2261E+02
     12.147  0.5193E+00  0.2275E+02
     12.415  0.3434E+00  0.2284E+02
     12.683  0.1907E+00  0.2289E+02
     12.951  0.4514E+00  0.2301E+02
     13.219  0.4143E+00  0.2313E+02
     13.487  0.5388E+00  0.2327E+02
     13.755  0.2081E+00  0.2333E+02
     14.022  0.3212E+00  0.2341E+02
     14.290  0.2237E+00  0.2347E+02
     14.558  0.4524E+00  0.2359E+02
     14.826  0.5468E+00  0.2374E+02
     15.094  0.4154E+00  0.2385E+02
     15.362  0.7853E-01  0.2387E+02
     15.630  0.6867E-01  0.2389E+02
     15.898  0.1563E+00  0.2393E+02
     16.166  0.1058E+00  0.2396E+02
     16.434  0.1571E+00  0.2400E+02
     16.702  0.2354E+00  0.2407E+02
     16.970  0.2798E+00  0.2414E+02
     17.237  0.3882E+00  0.2424E+02
     17.505  0.2961E+00  0.2432E+02
     17.773  0.3877E+00  0.2443E+02
     18.041  0.1093E+01  0.2472E+02
     18.309  0.7714E+00  0.2493E+02
     18.577  0.6978E+00  0.2511E+02
     18.845  0.5557E+00  0.2526E+02
     19.113  0.4023E+00  0.2537E+02
     19.381  0.7303E+00  0.2557E+02
     19.649  0.6840E+00  0.2575E+02
     19.917  0.9215E+00  0.2600E+02
     20.185  0.6079E+00  0.2616E+02
     20.452  0.5321E+00  0.2630E+02
     20.720  0.7716E+00  0.2651E+02
     20.988  0.8441E+00  0.2673E+02
     21.256  0.6003E+00  0.2690E+02
     21.524  0.6825E+00  0.2708E+02
     21.792  0.6894E+00  0.2726E+02
     22.060  0.6155E+00  0.2743E+02
     22.328  0.6271E+00  0.2760E+02
     22.596  0.4958E+00  0.2773E+02
     22.864  0.4045E+00  0.2784E+02
     23.132  0.5963E+00  0.2800E+02
     23.400  0.5283E+00  0.2814E+02
     23.667  0.7918E+00  0.2835E+02
     23.935  0.6015E+00  0.2851E+02
     24.203  0.4349E+00  0.2863E+02
     24.471  0.1017E+01  0.2890E+02
     24.739  0.8148E+00  0.2912E+02
     25.007  0.7336E+00  0.2932E+02
     25.275  0.9198E+00  0.2956E+02
     25.543  0.8661E+00  0.2979E+02
     25.811  0.5540E+00  0.2994E+02
     26.079  0.9314E+00  0.3019E+02
     26.347  0.1040E+01  0.3047E+02
     26.615  0.8324E+00  0.3069E+02
     26.882  0.6051E+00  0.3086E+02
     27.150  0.9862E+00  0.3112E+02
     27.418  0.1041E+01  0.3140E+02
     27.686  0.1064E+01  0.3168E+02
     27.954  0.7371E+00  0.3188E+02
     28.222  0.8047E+00  0.3210E+02
     28.490  0.5202E+00  0.3224E+02
     28.758  0.1169E+01  0.3255E+02
     29.026  0.7561E+00  0.3275E+02
     29.294  0.1053E+01  0.3303E+02
     29.562  0.9516E+00  0.3329E+02
     29.830  0.6976E+00  0.3348E+02
     30.097  0.8669E+00  0.3371E+02
     30.365  0.1023E+01  0.3398E+02
     30.633  0.7547E+00  0.3418E+02
     30.901  0.3852E+00  0.3429E+02
     31.169  0.6663E+00  0.3447E+02
     31.437  0.7816E+00  0.3468E+02
     31.705  0.1139E+01  0.3498E+02
     31.973  0.5086E+00  0.3512E+02
     32.241  0.6735E+00  0.3530E+02
     32.509  0.8085E+00  0.3551E+02
     32.777  0.7927E+00  0.3573E+02
     33.045  0.5644E+00  0.3588E+02
     33.312  0.6406E+00  0.3605E+02
     33.580  0.6141E+00  0.3621E+02
     33.848  0.3966E+00  0.3632E+02
     34.116  0.1113E+01  0.3662E+02
     34.384  0.8900E+00  0.3686E+02
     34.652  0.6090E+00  0.3702E+02
     34.920  0.1062E+01  0.3730E+02
     35.188  0.9400E+00  0.3756E+02
     35.456  0.5842E+00  0.3771E+02
     35.724  0.8470E+00  0.3794E+02
     35.992  0.9698E+00  0.3820E+02
     36.260  0.7200E+00  0.3839E+02
     36.528  0.1226E+01  0.3872E+02
     36.795  0.7727E+00  0.3893E+02
     37.063  0.5293E+00  0.3907E+02
     37.331  0.8495E+00  0.3930E+02
     37.599  0.1081E+01  0.3959E+02
     37.867  0.1033E+01  0.3986E+02
     38.135  0.7946E+00  0.4008E+02
     38.403  0.6722E+00  0.4026E+02
     38.671  0.7242E+00  0.4045E+02
     38.939  0.7366E+00  0.4065E+02
     39.207  0.9886E+00  0.4091E+02
     39.475  0.6516E+00  0.4109E+02
     39.743  0.6702E+00  0.4127E+02
     40.010  0.9053E+00  0.4151E+02
     40.278  0.8243E+00  0.4173E+02
     40.546  0.1152E+01  0.4204E+02
     40.814  0.9113E+00  0.4228E+02
     41.082  0.8702E+00  0.4252E+02
     41.350  0.9171E+00  0.4276E+02
     41.618  0.5606E+00  0.4291E+02
     41.886  0.1253E+01  0.4325E+02
     42.154  0.8884E+00  0.4349E+02
     42.422  0.5557E+00  0.4364E+02
     42.690  0.6623E+00  0.4381E+02
     42.958  0.7259E+00  0.4401E+02
     43.225  0.8350E+00  0.4423E+02
     43.493  0.8120E+00  0.4445E+02
     43.761  0.8111E+00  0.4467E+02
     44.029  0.1101E+01  0.4496E+02
     44.297  0.1152E+01  0.4527E+02
     44.565  0.1404E+01  0.4565E+02
     44.833  0.8819E+00  0.4588E+02
     45.101  0.9256E+00  0.4613E+02
     45.369  0.9109E+00  0.4637E+02
     45.637  0.8735E+00  0.4661E+02
     45.905  0.1289E+01  0.4695E+02
     46.173  0.1154E+01  0.4726E+02
     46.440  0.8237E+00  0.4748E+02
     46.708  0.1182E+01  0.4780E+02
     46.976  0.1145E+01  0.4811E+02
     47.244  0.1172E+01  0.4842E+02
     47.512  0.7676E+00  0.4863E+02
     47.780  0.7267E+00  0.4882E+02
     48.048  0.7381E+00  0.4902E+02
     48.316  0.5697E+00  0.4917E+02
     48.584  0.9695E+00  0.4943E+02
     48.852  0.8700E+00  0.4966E+02
     49.120  0.5578E+00  0.4981E+02
     49.388  0.8085E+00  0.5003E+02
     49.655  0.8555E+00  0.5026E+02
     49.923  0.9549E+00  0.5052E+02
     50.191  0.1406E+01  0.5089E+02
     50.459  0.8056E+00  0.5111E+02
     50.727  0.1093E+01  0.5140E+02
     50.995  0.1677E+01  0.5185E+02
     51.263  0.1004E+01  0.5212E+02
     51.531  0.1015E+01  0.5239E+02
     51.799  0.6110E+00  0.5256E+02
     52.067  0.6988E+00  0.5274E+02
     52.335  0.1045E+01  0.5302E+02
     52.603  0.1228E+01  0.5335E+02
     52.870  0.1166E+01  0.5366E+02
     53.138  0.1045E+01  0.5394E+02
     53.406  0.1068E+01  0.5423E+02
     53.674  0.1076E+01  0.5452E+02
     53.942  0.1123E+01  0.5482E+02
     54.210  0.1335E+01  0.5518E+02
     54.478  0.1260E+01  0.5551E+02
     54.746  0.1359E+01  0.5588E+02
     55.014  0.8615E+00  0.5611E+02
     55.282  0.1437E+01  0.5649E+02
     55.550  0.1072E+01  0.5678E+02
     55.818  0.9113E+00  0.5703E+02
     56.085  0.1036E+01  0.5730E+02
     56.353  0.8353E+00  0.5753E+02
     56.621  0.1255E+01  0.5786E+02
     56.889  0.1369E+01  0.5823E+02
     57.157  0.1717E+01  0.5869E+02
     57.425  0.1271E+01  0.5903E+02
     57.693  0.8829E+00  0.5927E+02
     57.961  0.1277E+01  0.5961E+02
     58.229  0.1584E+01  0.6003E+02
     58.497  0.1448E+01  0.6042E+02
     58.765  0.1694E+01  0.6088E+02
     59.033  0.1646E+01  0.6132E+02
     59.300  0.1938E+01  0.6184E+02
     59.568  0.1415E+01  0.6222E+02
     59.836  0.1391E+01  0.6259E+02
     60.104  0.1485E+01  0.6299E+02
     60.372  0.1727E+01  0.6345E+02
     60.640  0.1757E+01  0.6392E+02
     60.908  0.2216E+01  0.6451E+02
     61.176  0.2534E+01  0.6519E+02
     61.444  0.2013E+01  0.6573E+02
     61.712  0.2238E+01  0.6633E+02
     61.980  0.1907E+01  0.6684E+02
     62.248  0.1537E+01  0.6725E+02
     62.515  0.1352E+01  0.6762E+02
     62.783  0.1535E+01  0.6803E+02
     63.051  0.1515E+01  0.6843E+02
     63.319  0.1746E+01  0.6890E+02
     63.587  0.1879E+01  0.6940E+02
     63.855  0.1518E+01  0.6981E+02
     64.123  0.1528E+01  0.7022E+02
     64.391  0.1369E+01  0.7059E+02
     64.659  0.1691E+01  0.7104E+02
     64.927  0.1970E+01  0.7157E+02
     65.195  0.1318E+01  0.7192E+02
     65.463  0.8523E+00  0.7215E+02
     65.730  0.1770E+01  0.7262E+02
     65.998  0.1596E+01  0.7305E+02
     66.266  0.1695E+01  0.7350E+02
     66.534  0.1804E+01  0.7399E+02
     66.802  0.1690E+01  0.7444E+02
     67.070  0.1742E+01  0.7491E+02
     67.338  0.1622E+01  0.7534E+02
     67.606  0.1593E+01  0.7577E+02
     67.874  0.1614E+01  0.7620E+02
     68.142  0.1841E+01  0.7669E+02
     68.410  0.1583E+01  0.7712E+02
     68.678  0.9198E+00  0.7736E+02
     68.945  0.1728E+01  0.7783E+02
     69.213  0.1708E+01  0.7829E+02
     69.481  0.1576E+01  0.7871E+02
     69.749  0.1260E+01  0.7905E+02
     70.017  0.9172E+00  0.7929E+02
     70.285  0.9762E+00  0.7955E+02
     70.553  0.1116E+01  0.7985E+02
     70.821  0.3823E+00  0.7995E+02
     71.089  0.1113E+00  0.7998E+02
     71.357  0.3002E-02  0.7998E+02
     71.625  0.5803E-01  0.8000E+02
     71.893  0.1222E-03  0.8000E+02
     72.161 -0.2754E-03  0.8000E+02
     72.428 -0.2370E-06  0.8000E+02
     72.696 -0.4390E-11  0.8000E+02
     72.964  0.0000E+00  0.8000E+02
     73.232  0.0000E+00  0.8000E+02
     73.500  0.0000E+00  0.8000E+02
     73.768  0.0000E+00  0.8000E+02
     74.036  0.0000E+00  0.8000E+02
     74.304  0.0000E+00  0.8000E+02
     74.572  0.0000E+00  0.8000E+02
     74.840  0.0000E+00  0.8000E+02
     75.108  0.0000E+00  0.8000E+02
