    2    2    1    1
  0.9533046E+01  0.2353300E-09  0.2353300E-09  0.3975360E-09  0.5000000E-15
  1.000000000000000E-004
  CAR 
 unknown system                          
     16     96     40
 
  0.0000000E+00  0.0000000E+00  0.0000000E+00  0.7513148E-03
    1       -1.614177   1.000000
    2        2.326383   1.000000
    3        5.541785   1.000000
    4        5.915578   1.000000
    5        5.915672   1.000000
    6        6.318801   1.000000
    7        6.318914   1.000000
    8        7.103418   1.000418
    9        7.103444   1.000418
   10        7.401033   1.035456
   11        8.473071  -0.000000
   12        8.473098  -0.000000
   13       16.194606   0.000000
   14       31.064967   0.000000
   15       33.116329   0.000000
   16       34.497494   0.000000
   17       36.648765   0.000000
   18       36.648829   0.000000
   19       37.470695   0.000000
   20       37.470870   0.000000
   21       40.538252   0.000000
   22       40.538277   0.000000
   23       40.554075   0.000000
   24       41.675366   0.000000
   25       44.659085   0.000000
   26       44.659096   0.000000
   27       46.325046   0.000000
   28       48.532078   0.000000
   29       48.532459   0.000000
   30       50.491119   0.000000
   31       50.491254   0.000000
   32       53.772501   0.000000
   33       62.017965   0.000000
   34       63.424978   0.000000
   35       63.513670   0.000000
   36       63.514722   0.000000
   37       64.948094   0.000000
   38       66.418799   0.000000
   39       66.420114   0.000000
   40       68.841744   0.000000
 
  0.9090909E-01  0.1320064E-16  0.0000000E+00  0.4507889E-02
    1       -1.276085   1.000000
    2        2.567444   1.000000
    3        5.415255   1.000000
    4        5.976598   1.000000
    5        6.115370   1.000000
    6        6.211596   1.000000
    7        6.270119   1.000000
    8        6.501473   1.000000
    9        6.977694   1.000012
   10        7.005361   1.000028
   11        8.518953  -0.000000
   12        9.839056  -0.000000
   13       16.210623   0.000000
   14       29.903458   0.000000
   15       32.712046   0.000000
   16       33.352411   0.000000
   17       33.808316   0.000000
   18       36.293619   0.000000
   19       36.580799   0.000000
   20       40.075622   0.000000
   21       40.267766   0.000000
   22       40.392213   0.000000
   23       41.224650   0.000000
   24       41.797857   0.000000
   25       45.721094   0.000000
   26       45.984006   0.000000
   27       46.012196   0.000000
   28       46.220779   0.000000
   29       50.052927   0.000000
   30       52.036076   0.000000
   31       52.834811   0.000000
   32       55.424020   0.000000
   33       60.900848   0.000000
   34       62.563139   0.000000
   35       63.056490   0.000000
   36       63.425002   0.000000
   37       63.461942   0.000000
   38       66.990028   0.000000
   39       68.420462   0.000000
   40       68.770786   0.000000
 
  0.1818182E+00  0.1959700E-16  0.0000000E+00  0.4507889E-02
    1       -0.321287   1.000000
    2        3.131251   1.000000
    3        5.030036   1.000000
    4        5.056794   1.000000
    5        5.827990   1.000000
    6        6.466686   1.000000
    7        6.680623   1.000000
    8        6.682281   1.000000
    9        6.696476   1.000000
   10        7.012171   1.000034
   11        8.606667  -0.000000
   12       11.840816  -0.000000
   13       16.289957   0.000000
   14       26.271818   0.000000
   15       30.930964   0.000000
   16       31.501242   0.000000
   17       32.281427   0.000000
   18       33.912577   0.000000
   19       37.223103   0.000000
   20       39.231286   0.000000
   21       39.357199   0.000000
   22       39.843830   0.000000
   23       41.882006   0.000000
   24       43.567985   0.000000
   25       45.461310   0.000000
   26       46.471756   0.000000
   27       48.266322   0.000000
   28       50.656315   0.000000
   29       53.111341   0.000000
   30       55.271562   0.000000
   31       55.768764   0.000000
   32       58.666855   0.000000
   33       59.255428   0.000000
   34       60.727823   0.000000
   35       60.993204   0.000000
   36       62.384550   0.000000
   37       64.198420   0.000000
   38       67.839561   0.000000
   39       68.721746   0.000000
   40       70.018571   0.000000
 
  0.2727273E+00  0.9529451E-17  0.0000000E+00  0.4507889E-02
    1        1.027908   1.000000
    2        3.407696   1.000000
    3        4.068004   1.000000
    4        4.924206   1.000000
    5        5.677816   1.000000
    6        6.306447   1.000000
    7        6.347060   1.000000
    8        7.246569   1.007982
    9        7.480097   0.997984
   10        7.722988   0.201658
   11        8.671427  -0.000000
   12       14.047975   0.000000
   13       16.440738   0.000000
   14       22.321411   0.000000
   15       28.432731   0.000000
   16       28.675299   0.000000
   17       30.068984   0.000000
   18       33.310862   0.000000
   19       35.616148   0.000000
   20       38.799471   0.000000
   21       39.632439   0.000000
   22       39.767044   0.000000
   23       40.163344   0.000000
   24       44.130209   0.000000
   25       48.871058   0.000000
   26       50.768356   0.000000
   27       51.705628   0.000000
   28       53.770788   0.000000
   29       55.110642   0.000000
   30       56.262150   0.000000
   31       57.571051   0.000000
   32       59.031164   0.000000
   33       60.183201   0.000000
   34       61.227034   0.000000
   35       61.249207   0.000000
   36       62.803203   0.000000
   37       64.324830   0.000000
   38       68.309145   0.000000
   39       68.441498   0.000000
   40       69.421166   0.000000
 
  0.3636364E+00  0.2721748E-16  0.0000000E+00  0.4507889E-02
    1        2.233098   1.000000
    2        3.149065   1.000000
    3        3.418691   1.000000
    4        5.162570   1.000000
    5        5.962321   1.000000
    6        5.995693   1.000000
    7        6.069327   1.000000
    8        8.283512  -0.000032
    9        8.446785  -0.000000
   10        8.491521  -0.000000
   11        8.701485  -0.000000
   12       15.999554   0.000000
   13       16.373827   0.000000
   14       19.694868   0.000000
   15       25.450366   0.000000
   16       26.519457   0.000000
   17       27.511966   0.000000
   18       32.255067   0.000000
   19       34.357337   0.000000
   20       37.595234   0.000000
   21       38.413296   0.000000
   22       40.778546   0.000000
   23       42.336176   0.000000
   24       44.710800   0.000000
   25       52.590348   0.000000
   26       52.758543   0.000000
   27       52.953505   0.000000
   28       55.869958   0.000000
   29       56.461055   0.000000
   30       57.398106   0.000000
   31       59.593000   0.000000
   32       60.301355   0.000000
   33       60.542690   0.000000
   34       61.147824   0.000000
   35       62.709713   0.000000
   36       64.467835   0.000000
   37       67.733653   0.000000
   38       67.972646   0.000000
   39       68.181016   0.000000
   40       68.284235   0.000000
 
  0.4545455E+00  0.4055273E-16  0.0000000E+00  0.4507889E-02
    1        2.695042   1.000000
    2        2.939019   1.000000
    3        3.092360   1.000000
    4        5.681729   1.000000
    5        5.763569   1.000000
    6        5.916237   1.000000
    7        6.255187   1.000000
    8        8.711604  -0.000000
    9        8.778732  -0.000000
   10        8.940461  -0.000000
   11       10.195560  -0.000000
   12       13.773821   0.000000
   13       18.552484   0.000000
   14       19.915448   0.000000
   15       22.843061   0.000000
   16       24.960352   0.000000
   17       25.444068   0.000000
   18       31.581344   0.000000
   19       33.962912   0.000000
   20       36.454332   0.000000
   21       38.257489   0.000000
   22       41.507098   0.000000
   23       44.458004   0.000000
   24       45.185675   0.000000
   25       49.408953   0.000000
   26       53.958107   0.000000
   27       54.852373   0.000000
   28       58.018600   0.000000
   29       59.036668   0.000000
   30       59.569225   0.000000
   31       60.509064   0.000000
   32       61.414089   0.000000
   33       61.486192   0.000000
   34       63.633924   0.000000
   35       63.894423   0.000000
   36       65.320155   0.000000
   37       66.616196   0.000000
   38       66.865109   0.000000
   39       67.781650   0.000000
   40       68.203020   0.000000
 
  0.9090909E-01  0.9090909E-01  0.0000000E+00  0.4507889E-02
    1       -0.626890   1.000000
    2        2.987446   1.000000
    3        5.121543   1.000000
    4        5.359446   1.000000
    5        6.001110   1.000000
    6        6.169101   1.000000
    7        6.528360   1.000000
    8        6.564181   1.000000
    9        6.901849   1.000001
   10        6.992114   1.000019
   11        8.556897  -0.000000
   12       11.287522  -0.000000
   13       16.262629   0.000000
   14       27.939399   0.000000
   15       29.363713   0.000000
   16       33.517740   0.000000
   17       33.773175   0.000000
   18       34.862539   0.000000
   19       35.398428   0.000000
   20       38.030402   0.000000
   21       39.645591   0.000000
   22       42.598674   0.000000
   23       43.139379   0.000000
   24       43.800159   0.000000
   25       44.723394   0.000000
   26       44.739685   0.000000
   27       45.000217   0.000000
   28       50.960022   0.000000
   29       53.527291   0.000000
   30       53.955377   0.000000
   31       53.977827   0.000000
   32       57.888765   0.000000
   33       59.631336   0.000000
   34       61.564169   0.000000
   35       61.751968   0.000000
   36       62.369167   0.000000
   37       63.454896   0.000000
   38       68.017559   0.000000
   39       68.596098   0.000000
   40       69.886679   0.000000
 
  0.1818182E+00  0.9090909E-01  0.0000000E+00  0.9015778E-02
    1        0.550414   1.000000
    2        3.518535   1.000000
    3        4.419194   1.000000
    4        4.731465   1.000000
    5        5.751381   1.000000
    6        6.145334   1.000000
    7        6.623204   1.000000
    8        6.743881   1.000000
    9        7.263782   1.010436
   10        7.642284   0.518552
   11        8.590794  -0.000000
   12       13.273299   0.000000
   13       16.427360   0.000000
   14       24.317064   0.000000
   15       26.923782   0.000000
   16       30.409258   0.000000
   17       32.788402   0.000000
   18       32.892654   0.000000
   19       36.126307   0.000000
   20       37.784801   0.000000
   21       37.980951   0.000000
   22       42.656692   0.000000
   23       42.917740   0.000000
   24       43.309787   0.000000
   25       46.480430   0.000000
   26       47.459345   0.000000
   27       49.066105   0.000000
   28       54.084028   0.000000
   29       55.665154   0.000000
   30       56.714877   0.000000
   31       57.171236   0.000000
   32       59.147727   0.000000
   33       59.735290   0.000000
   34       60.357809   0.000000
   35       61.229398   0.000000
   36       61.417914   0.000000
   37       63.850930   0.000000
   38       68.301472   0.000000
   39       68.454198   0.000000
   40       69.623551   0.000000
 
  0.2727273E+00  0.9090909E-01  0.0000000E+00  0.9015778E-02
    1        1.915469   1.000000
    2        3.472799   1.000000
    3        3.699711   1.000000
    4        4.773972   1.000000
    5        5.826869   1.000000
    6        5.833553   1.000000
    7        6.366911   1.000000
    8        7.381608   1.034104
    9        8.082033  -0.004334
   10        8.612622  -0.000000
   11        8.614747  -0.000000
   12       15.506648   0.000000
   13       16.612099   0.000000
   14       20.733204   0.000000
   15       25.163225   0.000000
   16       27.142079   0.000000
   17       29.788512   0.000000
   18       31.499758   0.000000
   19       35.587869   0.000000
   20       36.622405   0.000000
   21       38.949238   0.000000
   22       42.633211   0.000000
   23       42.672361   0.000000
   24       44.887246   0.000000
   25       48.581628   0.000000
   26       51.293058   0.000000
   27       53.313748   0.000000
   28       54.577885   0.000000
   29       54.754174   0.000000
   30       57.958020   0.000000
   31       59.216218   0.000000
   32       60.066853   0.000000
   33       60.839355   0.000000
   34       60.842935   0.000000
   35       62.362576   0.000000
   36       63.920896   0.000000
   37       65.898226   0.000000
   38       67.651005   0.000000
   39       67.955695   0.000000
   40       69.860089   0.000000
 
  0.3636364E+00  0.9090909E-01  0.0000000E+00  0.9015778E-02
    1        2.773664   1.000000
    2        3.170237   1.000000
    3        3.257693   1.000000
    4        5.204513   1.000000
    5        5.689347   1.000000
    6        6.003918   1.000000
    7        6.170255   1.000000
    8        8.274163  -0.000042
    9        8.617945  -0.000000
   10        8.667345  -0.000000
   11        9.872028  -0.000000
   12       15.269404   0.000000
   13       17.829307   0.000000
   14       19.664403   0.000000
   15       23.811841   0.000000
   16       24.185777   0.000000
   17       26.644058   0.000000
   18       30.550554   0.000000
   19       34.613448   0.000000
   20       36.017490   0.000000
   21       39.542692   0.000000
   22       43.064003   0.000000
   23       44.291486   0.000000
   24       45.120821   0.000000
   25       51.317783   0.000000
   26       51.387379   0.000000
   27       54.071659   0.000000
   28       55.297588   0.000000
   29       57.099122   0.000000
   30       59.162942   0.000000
   31       59.275042   0.000000
   32       60.721980   0.000000
   33       61.598566   0.000000
   34       63.584540   0.000000
   35       64.341695   0.000000
   36       65.514055   0.000000
   37       65.625450   0.000000
   38       67.794698   0.000000
   39       68.991976   0.000000
   40       68.995074   0.000000
 
  0.4545455E+00  0.9090909E-01  0.0000000E+00  0.4507889E-02
    1        2.898315   1.000000
    2        3.104541   1.000000
    3        3.109501   1.000000
    4        5.556425   1.000000
    5        5.715442   1.000000
    6        5.794908   1.000000
    7        6.309233   1.000000
    8        8.618483  -0.000000
    9        8.771771  -0.000000
   10        8.779768  -0.000000
   11       11.135981  -0.000000
   12       13.415923   0.000000
   13       19.397579   0.000000
   14       20.354505   0.000000
   15       22.414256   0.000000
   16       23.105712   0.000000
   17       25.112307   0.000000
   18       30.230804   0.000000
   19       34.206055   0.000000
   20       35.833933   0.000000
   21       39.644608   0.000000
   22       43.664527   0.000000
   23       44.448524   0.000000
   24       46.219107   0.000000
   25       49.006673   0.000000
   26       53.636287   0.000000
   27       53.909996   0.000000
   28       56.917036   0.000000
   29       58.102461   0.000000
   30       58.308881   0.000000
   31       61.594063   0.000000
   32       61.675443   0.000000
   33       61.722624   0.000000
   34       61.771768   0.000000
   35       65.097355   0.000000
   36       67.062455   0.000000
   37       67.323356   0.000000
   38       67.568233   0.000000
   39       67.694710   0.000000
   40       69.814614   0.000000
 
  0.1818182E+00  0.1818182E+00  0.0000000E+00  0.4507889E-02
    1        1.817599   1.000000
    2        3.862421   1.000000
    3        3.940489   1.000000
    4        4.255576   1.000000
    5        5.699203   1.000000
    6        5.818523   1.000000
    7        6.538391   1.000000
    8        6.890672   1.000001
    9        8.060500  -0.006353
   10        8.522345  -0.000000
   11        8.671096  -0.000000
   12       15.226463   0.000000
   13       16.824394   0.000000
   14       22.286704   0.000000
   15       23.163440   0.000000
   16       28.514336   0.000000
   17       30.184856   0.000000
   18       32.102184   0.000000
   19       32.956824   0.000000
   20       38.868831   0.000000
   21       39.385459   0.000000
   22       43.172353   0.000000
   23       44.010232   0.000000
   24       46.096473   0.000000
   25       46.543813   0.000000
   26       48.613609   0.000000
   27       50.385940   0.000000
   28       55.489976   0.000000
   29       56.228679   0.000000
   30       57.793534   0.000000
   31       58.046968   0.000000
   32       60.236447   0.000000
   33       60.437131   0.000000
   34       62.816785   0.000000
   35       62.894988   0.000000
   36       63.231175   0.000000
   37       63.395167   0.000000
   38       67.577062   0.000000
   39       67.844319   0.000000
   40       70.905259   0.000000
 
  0.2727273E+00  0.1818182E+00  0.0000000E+00  0.9015778E-02
    1        3.018332   1.000000
    2        3.472384   1.000000
    3        3.696042   1.000000
    4        4.428045   1.000000
    5        5.468098   1.000000
    6        6.105300   1.000000
    7        6.153144   1.000000
    8        7.451543   1.022410
    9        8.462170  -0.000000
   10        8.630494  -0.000000
   11        9.978900  -0.000000
   12       16.986319   0.000000
   13       17.475224   0.000000
   14       19.647820   0.000000
   15       21.538329   0.000000
   16       26.017793   0.000000
   17       28.504219   0.000000
   18       28.748260   0.000000
   19       31.618576   0.000000
   20       39.843079   0.000000
   21       40.795730   0.000000
   22       44.021538   0.000000
   23       45.895019   0.000000
   24       46.389172   0.000000
   25       48.463930   0.000000
   26       49.995686   0.000000
   27       51.724043   0.000000
   28       53.921250   0.000000
   29       56.890349   0.000000
   30       57.366178   0.000000
   31       58.808228   0.000000
   32       60.513526   0.000000
   33       61.877203   0.000000
   34       62.963698   0.000000
   35       65.064826   0.000000
   36       65.260047   0.000000
   37       66.628876   0.000000
   38       68.091307   0.000000
   39       68.957104   0.000000
   40       69.976187   0.000000
 
  0.3636364E+00  0.1818182E+00  0.0000000E+00  0.9015778E-02
    1        3.276134   1.000000
    2        3.392631   1.000000
    3        3.521823   1.000000
    4        4.925633   1.000000
    5        5.489874   1.000000
    6        5.759606   1.000000
    7        6.379934   1.000000
    8        8.142472  -0.001271
    9        8.427249  -0.000000
   10        8.702694  -0.000000
   11       11.611268  -0.000000
   12       14.793621   0.000000
   13       19.757045   0.000000
   14       19.949954   0.000000
   15       20.950703   0.000000
   16       23.406676   0.000000
   17       25.888593   0.000000
   18       27.838706   0.000000
   19       30.956554   0.000000
   20       39.675795   0.000000
   21       42.187780   0.000000
   22       44.656921   0.000000
   23       46.414409   0.000000
   24       46.853582   0.000000
   25       50.441358   0.000000
   26       51.033127   0.000000
   27       52.881523   0.000000
   28       52.891528   0.000000
   29       56.617768   0.000000
   30       57.714803   0.000000
   31       58.054416   0.000000
   32       61.175472   0.000000
   33       61.572794   0.000000
   34       62.069344   0.000000
   35       66.192102   0.000000
   36       66.697133   0.000000
   37       68.188395   0.000000
   38       68.766293   0.000000
   39       69.260104   0.000000
   40       70.260737   0.000000
 
  0.2727273E+00  0.2727273E+00  0.0000000E+00  0.4507889E-02
    1        3.391318   1.000000
    2        3.764171   1.000000
    3        4.112904   1.000000
    4        4.133148   1.000000
    5        5.322430   1.000000
    6        5.785967   1.000000
    7        6.434286   1.000000
    8        7.731435   0.174556
    9        8.329407  -0.000008
   10        8.682974  -0.000000
   11       11.736506  -0.000000
   12       16.948843   0.000000
   13       17.396724   0.000000
   14       19.784571   0.000000
   15       20.976567   0.000000
   16       25.281446   0.000000
   17       25.576534   0.000000
   18       27.533960   0.000000
   19       28.475586   0.000000
   20       42.225719   0.000000
   21       43.353844   0.000000
   22       45.791765   0.000000
   23       46.968574   0.000000
   24       48.563518   0.000000
   25       48.702119   0.000000
   26       48.761420   0.000000
   27       51.449772   0.000000
   28       54.079019   0.000000
   29       54.528182   0.000000
   30       56.703743   0.000000
   31       58.116466   0.000000
   32       60.616388   0.000000
   33       61.453392   0.000000
   34       62.231983   0.000000
   35       65.848214   0.000000
   36       67.014454   0.000000
   37       67.285975   0.000000
   38       69.186016   0.000000
   39       70.307775   0.000000
   40       70.443493   0.000000
 
  0.3636364E+00  0.2727273E+00  0.0000000E+00  0.4507889E-02
    1        3.380526   1.000000
    2        3.917239   1.000000
    3        3.955852   1.000000
    4        4.480710   1.000000
    5        5.390113   1.000000
    6        5.508474   1.000000
    7        6.593811   1.000000
    8        8.100958  -0.003023
    9        8.278586  -0.000037
   10        8.401648  -0.000001
   11       13.496630   0.000000
   12       14.879797   0.000000
   13       17.014994   0.000000
   14       21.791818   0.000000
   15       21.927701   0.000000
   16       23.225072   0.000000
   17       25.166644   0.000000
   18       25.963846   0.000000
   19       27.849139   0.000000
   20       42.701776   0.000000
   21       45.305601   0.000000
   22       46.295132   0.000000
   23       47.315827   0.000000
   24       47.922509   0.000000
   25       49.603583   0.000000
   26       49.709524   0.000000
   27       52.264887   0.000000
   28       52.876790   0.000000
   29       53.047996   0.000000
   30       56.488328   0.000000
   31       58.084982   0.000000
   32       58.477332   0.000000
   33       61.573696   0.000000
   34       61.916659   0.000000
   35       66.543082   0.000000
   36       67.236220   0.000000
   37       69.002252   0.000000
   38       69.355874   0.000000
   39       69.718402   0.000000
   40       70.116078   0.000000
 
  0.0000000E+00  0.0000000E+00  0.9090909E-01  0.1502630E-02
    1       -1.524772   1.000000
    2        2.307657   1.000000
    3        5.515048   1.000000
    4        5.897423   1.000000
    5        5.897515   1.000000
    6        6.293315   1.000000
    7        6.293427   1.000000
    8        7.143315   1.001074
    9        7.160090   1.001555
   10        7.160118   1.001556
   11        8.465883  -0.000000
   12        8.465911  -0.000000
   13       16.613922   0.000000
   14       30.922367   0.000000
   15       32.751064   0.000000
   16       34.298158   0.000000
   17       36.702945   0.000000
   18       36.703002   0.000000
   19       37.482436   0.000000
   20       37.482605   0.000000
   21       40.446811   0.000000
   22       40.446831   0.000000
   23       40.933193   0.000000
   24       41.965835   0.000000
   25       44.294678   0.000000
   26       44.294694   0.000000
   27       46.671532   0.000000
   28       48.818913   0.000000
   29       48.819274   0.000000
   30       50.947347   0.000000
   31       50.947473   0.000000
   32       53.679549   0.000000
   33       61.177579   0.000000
   34       63.307753   0.000000
   35       63.308757   0.000000
   36       63.595449   0.000000
   37       65.218686   0.000000
   38       65.219443   0.000000
   39       65.992164   0.000000
   40       69.851390   0.000000
 
  0.9090909E-01  0.1320064E-16  0.9090909E-01  0.9015778E-02
    1       -1.188892   1.000000
    2        2.553793   1.000000
    3        5.414004   1.000000
    4        5.912532   1.000000
    5        6.004071   1.000000
    6        6.091179   1.000000
    7        6.353645   1.000000
    8        6.472914   1.000000
    9        7.046484   1.000093
   10        7.060873   1.000138
   11        8.508071  -0.000000
   12        9.652445  -0.000000
   13       16.660980   0.000000
   14       29.896895   0.000000
   15       32.478696   0.000000
   16       33.046896   0.000000
   17       33.890460   0.000000
   18       35.611383   0.000000
   19       37.200673   0.000000
   20       39.726667   0.000000
   21       40.198791   0.000000
   22       40.529267   0.000000
   23       41.244928   0.000000
   24       42.244327   0.000000
   25       45.318162   0.000000
   26       45.735696   0.000000
   27       46.725254   0.000000
   28       46.799954   0.000000
   29       49.958320   0.000000
   30       52.371138   0.000000
   31       53.202622   0.000000
   32       55.359375   0.000000
   33       59.796161   0.000000
   34       62.161990   0.000000
   35       62.972647   0.000000
   36       63.295278   0.000000
   37       64.612561   0.000000
   38       66.036521   0.000000
   39       67.234771   0.000000
   40       69.651144   0.000000
 
  0.1818182E+00  0.1959700E-16  0.9090909E-01  0.9015778E-02
    1       -0.242962   1.000000
    2        3.133732   1.000000
    3        4.925926   1.000000
    4        5.079439   1.000000
    5        5.790006   1.000000
    6        6.333639   1.000000
    7        6.544501   1.000000
    8        6.830119   1.000000
    9        6.870627   1.000000
   10        7.016090   1.000039
   11        8.585348  -0.000000
   12       11.460825  -0.000000
   13       16.858448   0.000000
   14       26.330275   0.000000
   15       31.029932   0.000000
   16       31.080042   0.000000
   17       32.480408   0.000000
   18       33.424668   0.000000
   19       37.249594   0.000000
   20       38.793708   0.000000
   21       38.798151   0.000000
   22       40.317412   0.000000
   23       42.216372   0.000000
   24       44.303023   0.000000
   25       45.788037   0.000000
   26       46.515807   0.000000
   27       48.026465   0.000000
   28       50.695561   0.000000
   29       53.007345   0.000000
   30       55.351151   0.000000
   31       56.091628   0.000000
   32       57.806338   0.000000
   33       58.507002   0.000000
   34       60.519107   0.000000
   35       61.777371   0.000000
   36       62.520903   0.000000
   37       64.170495   0.000000
   38       67.062496   0.000000
   39       69.133932   0.000000
   40       69.584040   0.000000
 
  0.2727273E+00  0.9529451E-17  0.9090909E-01  0.9015778E-02
    1        1.081109   1.000000
    2        3.424018   1.000000
    3        4.030819   1.000000
    4        4.939362   1.000000
    5        5.610001   1.000000
    6        6.339529   1.000000
    7        6.369648   1.000000
    8        7.282404   1.013625
    9        7.494953   0.978679
   10        7.699916   0.283304
   11        8.644694  -0.000000
   12       13.325392   0.000000
   13       17.297239   0.000000
   14       22.394009   0.000000
   15       28.148582   0.000000
   16       28.552846   0.000000
   17       30.479692   0.000000
   18       33.138631   0.000000
   19       35.651742   0.000000
   20       37.660630   0.000000
   21       38.668195   0.000000
   22       40.743346   0.000000
   23       40.791317   0.000000
   24       45.157254   0.000000
   25       48.998281   0.000000
   26       50.709209   0.000000
   27       51.349125   0.000000
   28       52.428678   0.000000
   29       55.557253   0.000000
   30       56.634649   0.000000
   31       57.912692   0.000000
   32       59.463989   0.000000
   33       59.818230   0.000000
   34       60.193035   0.000000
   35       61.993089   0.000000
   36       62.710991   0.000000
   37       64.533474   0.000000
   38       67.620330   0.000000
   39       68.272143   0.000000
   40       69.348101   0.000000
 
  0.3636364E+00  0.2721748E-16  0.9090909E-01  0.9015778E-02
    1        2.216869   1.000000
    2        3.128596   1.000000
    3        3.515053   1.000000
    4        4.970202   1.000000
    5        5.984273   1.000000
    6        6.110709   1.000000
    7        6.221278   1.000000
    8        8.291378  -0.000025
    9        8.386968  -0.000001
   10        8.451924  -0.000000
   11        8.695235  -0.000000
   12       14.731708   0.000000
   13       17.575679   0.000000
   14       19.886801   0.000000
   15       24.993255   0.000000
   16       26.654514   0.000000
   17       28.002126   0.000000
   18       32.223719   0.000000
   19       34.365979   0.000000
   20       36.397968   0.000000
   21       39.660348   0.000000
   22       39.836312   0.000000
   23       42.188477   0.000000
   24       46.027323   0.000000
   25       50.833733   0.000000
   26       52.556317   0.000000
   27       54.418848   0.000000
   28       55.007770   0.000000
   29       56.601021   0.000000
   30       58.149305   0.000000
   31       59.450331   0.000000
   32       60.063433   0.000000
   33       61.028419   0.000000
   34       61.040105   0.000000
   35       62.835231   0.000000
   36       64.414230   0.000000
   37       67.243322   0.000000
   38       67.442991   0.000000
   39       68.237201   0.000000
   40       68.869683   0.000000
 
  0.4545455E+00  0.4055273E-16  0.9090909E-01  0.9015778E-02
    1        2.610922   1.000000
    2        2.808015   1.000000
    3        3.386343   1.000000
    4        5.072556   1.000000
    5        5.961544   1.000000
    6        6.246679   1.000000
    7        6.459687   1.000000
    8        8.623284  -0.000000
    9        8.790385  -0.000000
   10        8.945312  -0.000000
   11       10.100649  -0.000000
   12       13.595646   0.000000
   13       18.310960   0.000000
   14       19.986755   0.000000
   15       22.969010   0.000000
   16       25.398843   0.000000
   17       25.589630   0.000000
   18       31.583096   0.000000
   19       33.955775   0.000000
   20       35.518664   0.000000
   21       39.213531   0.000000