 vasp.6.2.0 18Jan21 (build Mar 17 2021 09:06:54) complex                        
  
 executed on             LinuxIFC date 2021.09.09  12:05:15
 serial version


--------------------------------------------------------------------------------------------------------


 INCAR:
   ENCUT = 280.000000
   SIGMA = 0.200000
   EDIFF = 1.00e-06
   GGA = PE
   PREC = normal
   IBRION = 1
   ICHARG = 1
   ISIF = 2
   ISMEAR = 1
   KPAR = 1
   NBANDS = 40
   NSW = 0
   NCORE = 1
   LCHARG = .TRUE.

 POTCAR:    PAW_PBE Fe 06Sep2000                  
 POTCAR:    PAW_PBE Fe 06Sep2000                  
   SHA256 =  cd5a22d9368cc8b5cc476bea79732366149640da08ac9009b0e1b7fc627eea28 Fe/POTCAR             
   COPYR  = (c) Copyright 06Sep2000 Georg Kresse                                                    
   COPYR  = This file is part of the software VASP. Any use, copying, and all other rights are regul
   COPYR  = If you do not have a valid VASP license, you may not use, copy or distribute this file. 
   VRHFIN =Fe:  d7 s1                                                                               
   LEXCH  = PE                                                                                      
   EATOM  =   594.3153 eV,   43.6809 Ry                                                             
                                                                                                    
   TITEL  = PAW_PBE Fe 06Sep2000                                                                    
   LULTRA =        F    use ultrasoft PP ?                                                          
   IUNSCR =        1    unscreen: 0-lin 1-nonlin 2-no                                               
   RPACOR =    2.000    partial core radius                                                         
   POMASS =   55.847; ZVAL   =    8.000    mass and valenz                                          
   RCORE  =    2.300    outmost cutoff radius                                                       
   RWIGS  =    2.460; RWIGS  =    1.302    wigner-seitz radius (au A)                               
   ENMAX  =  267.882; ENMIN  =  200.911 eV                                                          
   RCLOC  =    1.701    cutoff for local pot                                                        
   LCOR   =        T    correct aug charges                                                         
   LPAW   =        T    paw PP                                                                      
   EAUG   =  511.368                                                                                
   DEXC   =    0.000                                                                                
   RMAX   =    2.356    core radius for proj-oper                                                   
   RAUG   =    1.300    factor for augmentation sphere                                              
   RDEP   =    2.442    radius for radial grids                                                     
   RDEPT  =    1.890    core radius for aug-charge                                                  
                                                                                                    
   Atomic configuration                                                                             
    9 entries                                                                                       
     n  l   j            E        occ.                                                              
     1  0  0.50     -6993.8440   2.0000                                                             
     2  0  0.50      -814.6047   2.0000                                                             
     2  1  1.50      -693.3689   6.0000                                                             
     3  0  0.50       -89.4732   2.0000                                                             
     3  1  1.50       -55.6373   6.0000                                                             
     3  2  2.50        -3.8151   7.0000                                                             
     4  0  0.50        -4.2551   1.0000                                                             
     4  1  1.50        -3.4015   0.0000                                                             
     4  3  2.50        -1.3606   0.0000                                                             
   Description                                                                                      
     l       E           TYP  RCUT    TYP  RCUT                                                     
     2     -3.8151135     23  2.300                                                                 
     2     -5.1756961     23  2.300                                                                 
     0     -4.2550963     23  2.300                                                                 
     0      7.2035603     23  2.300                                                                 
     1     -2.7211652     23  2.300                                                                 
     1     18.4316424     23  2.300                                                                 
  local pseudopotential read in
  partial core-charges read in
  partial kinetic energy density read in
  atomic valenz-charges read in
  non local Contribution for L=           2  read in
    real space projection operators read in
  non local Contribution for L=           2  read in
    real space projection operators read in
  non local Contribution for L=           0  read in
    real space projection operators read in
  non local Contribution for L=           0  read in
    real space projection operators read in
  non local Contribution for L=           1  read in
    real space projection operators read in
  non local Contribution for L=           1  read in
    real space projection operators read in
    PAW grid and wavefunctions read in
 
   number of l-projection  operators is LMAX  =           6
   number of lm-projection operators is LMMAX =          18
 
  PAW_PBE Fe 06Sep2000                  :
 energy of atom  1       EATOM= -594.3153
 kinetic energy error for atom=    0.0278 (will be added to EATOM!!)
 
 
 POSCAR: Fe
  positions in cartesian coordinates
  No initial velocities read in
 exchange correlation table for  LEXCH =        8
   RHO(1)=    0.500       N(1)  =     2000
   RHO(2)=  100.500       N(2)  =     4000
 


--------------------------------------------------------------------------------------------------------


 ion  position               nearest neighbor table
   1  0.000  0.000  0.000-   2 2.41   2 2.41   2 2.41   2 2.41   2 2.41   2 2.41
   2  0.333  0.667  0.500-   1 2.41   1 2.41   1 2.41   1 2.41   1 2.41   1 2.41
 
  LATTYP: Found a hexagonal cell.
 ALAT       =     2.3533000000
 C/A-ratio  =     1.6892703863
  
  Lattice vectors:
  
 A1 = (   2.3533000000,   0.0000000000,   0.0000000000)
 A2 = (  -1.1766500000,   2.0380175827,   0.0000000000)
 A3 = (   0.0000000000,   0.0000000000,   3.9753600000)


Analysis of symmetry for initial positions (statically):
=====================================================================
 Subroutine PRICEL returns:
 Original cell was already a primitive cell.
 

 Routine SETGRP: Setting up the symmetry group for a 
 hexagonal supercell.


 Subroutine GETGRP returns: Found 24 space group operations
 (whereof 12 operations were pure point group operations)
 out of a pool of 24 trial point group operations.


The static configuration has the point symmetry D_3h.
 The point group associated with its full space group is D_6h.


Analysis of symmetry for dynamics (positions and initial velocities):
=====================================================================
 Subroutine PRICEL returns:
 Original cell was already a primitive cell.
 

 Routine SETGRP: Setting up the symmetry group for a 
 hexagonal supercell.


 Subroutine GETGRP returns: Found 24 space group operations
 (whereof 12 operations were pure point group operations)
 out of a pool of 24 trial point group operations.


The dynamic configuration has the point symmetry D_3h.
 The point group associated with its full space group is D_6h.


 Subroutine INISYM returns: Found 24 space group operations
 (whereof 12 operations are pure point group operations),
 and found     1 'primitive' translations


----------------------------------------------------------------------------------------

                                     Primitive cell                                     

  volume of cell :      19.0661

  direct lattice vectors                    reciprocal lattice vectors
     2.353300000  0.000000000  0.000000000     0.424935197  0.245336451  0.000000000
    -1.176650000  2.038017583  0.000000000     0.000000000  0.490672901  0.000000000
     0.000000000  0.000000000  3.975360000     0.000000000  0.000000000  0.251549545

  length of vectors
     2.353300000  2.353300000  3.975360000     0.490672901  0.490672901  0.251549545

  position of ions in fractional coordinates (direct lattice)
     0.000000000  0.000000000  0.000000000
     0.333333333  0.666666667  0.500000000

  ion indices of the primitive-cell ions
   primitive index   ion index
                 1           1
                 2           2

----------------------------------------------------------------------------------------

 
 
 KPOINTS: KPOINTS created by Atomic Simulation Env

Automatic generation of k-mesh.
 Grid dimensions read from file:
 generate k-points for:   11   11   11

 Generating k-lattice:

  Cartesian coordinates                     Fractional coordinates (reciprocal lattice)
     0.038630472  0.022303314  0.000000000     0.090909091 -0.000000000  0.000000000
     0.000000000  0.044606627  0.000000000     0.000000000  0.090909091  0.000000000
     0.000000000  0.000000000  0.022868140     0.000000000  0.000000000  0.090909091

  Length of vectors
     0.044606627  0.044606627  0.022868140

  Shift w.r.t. Gamma in fractional coordinates (k-lattice)
     0.000000000  0.000000000  0.000000000

 
 Subroutine IBZKPT returns following result:
 ===========================================
 
 Found     96 irreducible k-points:
 
 Following reciprocal coordinates:
            Coordinates               Weight
  0.000000  0.000000  0.000000      1.000000
  0.090909  0.000000  0.000000      6.000000
  0.181818  0.000000  0.000000      6.000000
  0.272727  0.000000  0.000000      6.000000
  0.363636  0.000000  0.000000      6.000000
  0.454545  0.000000  0.000000      6.000000
  0.090909  0.090909  0.000000      6.000000
  0.181818  0.090909  0.000000     12.000000
  0.272727  0.090909  0.000000     12.000000
  0.363636  0.090909  0.000000     12.000000
  0.454545  0.090909  0.000000      6.000000
  0.181818  0.181818  0.000000      6.000000
  0.272727  0.181818  0.000000     12.000000
  0.363636  0.181818  0.000000     12.000000
  0.272727  0.272727  0.000000      6.000000
  0.363636  0.272727  0.000000      6.000000
  0.000000  0.000000  0.090909      2.000000
  0.090909  0.000000  0.090909     12.000000
  0.181818  0.000000  0.090909     12.000000
  0.272727  0.000000  0.090909     12.000000
  0.363636  0.000000  0.090909     12.000000
  0.454545  0.000000  0.090909     12.000000
  0.090909  0.090909  0.090909     12.000000
  0.181818  0.090909  0.090909     24.000000
  0.272727  0.090909  0.090909     24.000000
  0.363636  0.090909  0.090909     24.000000
  0.454545  0.090909  0.090909     12.000000
  0.181818  0.181818  0.090909     12.000000
  0.272727  0.181818  0.090909     24.000000
  0.363636  0.181818  0.090909     24.000000
  0.272727  0.272727  0.090909     12.000000
  0.363636  0.272727  0.090909     12.000000
  0.000000  0.000000  0.181818      2.000000
  0.090909  0.000000  0.181818     12.000000
  0.181818  0.000000  0.181818     12.000000
  0.272727  0.000000  0.181818     12.000000
  0.363636  0.000000  0.181818     12.000000
  0.454545  0.000000  0.181818     12.000000
  0.090909  0.090909  0.181818     12.000000
  0.181818  0.090909  0.181818     24.000000
  0.272727  0.090909  0.181818     24.000000
  0.363636  0.090909  0.181818     24.000000
  0.454545  0.090909  0.181818     12.000000
  0.181818  0.181818  0.181818     12.000000
  0.272727  0.181818  0.181818     24.000000
  0.363636  0.181818  0.181818     24.000000
  0.272727  0.272727  0.181818     12.000000
  0.363636  0.272727  0.181818     12.000000
  0.000000  0.000000  0.272727      2.000000
  0.090909  0.000000  0.272727     12.000000
  0.181818  0.000000  0.272727     12.000000
  0.272727  0.000000  0.272727     12.000000
  0.363636  0.000000  0.272727     12.000000
  0.454545  0.000000  0.272727     12.000000
  0.090909  0.090909  0.272727     12.000000
  0.181818  0.090909  0.272727     24.000000
  0.272727  0.090909  0.272727     24.000000
  0.363636  0.090909  0.272727     24.000000
  0.454545  0.090909  0.272727     12.000000
  0.181818  0.181818  0.272727     12.000000
  0.272727  0.181818  0.272727     24.000000
  0.363636  0.181818  0.272727     24.000000
  0.272727  0.272727  0.272727     12.000000
  0.363636  0.272727  0.272727     12.000000
  0.000000  0.000000  0.363636      2.000000
  0.090909  0.000000  0.363636     12.000000
  0.181818  0.000000  0.363636     12.000000
  0.272727  0.000000  0.363636     12.000000
  0.363636  0.000000  0.363636     12.000000
  0.454545  0.000000  0.363636     12.000000
  0.090909  0.090909  0.363636     12.000000
  0.181818  0.090909  0.363636     24.000000
  0.272727  0.090909  0.363636     24.000000
  0.363636  0.090909  0.363636     24.000000
  0.454545  0.090909  0.363636     12.000000
  0.181818  0.181818  0.363636     12.000000
  0.272727  0.181818  0.363636     24.000000
  0.363636  0.181818  0.363636     24.000000
  0.272727  0.272727  0.363636     12.000000
  0.363636  0.272727  0.363636     12.000000
  0.000000  0.000000  0.454545      2.000000
  0.090909  0.000000  0.454545     12.000000
  0.181818  0.000000  0.454545     12.000000
  0.272727  0.000000  0.454545     12.000000
  0.363636  0.000000  0.454545     12.000000
  0.454545  0.000000  0.454545     12.000000
  0.090909  0.090909  0.454545     12.000000
  0.181818  0.090909  0.454545     24.000000
  0.272727  0.090909  0.454545     24.000000
  0.363636  0.090909  0.454545     24.000000
  0.454545  0.090909  0.454545     12.000000
  0.181818  0.181818  0.454545     12.000000
  0.272727  0.181818  0.454545     24.000000
  0.363636  0.181818  0.454545     24.000000
  0.272727  0.272727  0.454545     12.000000
  0.363636  0.272727  0.454545     12.000000
 
 Following cartesian coordinates:
            Coordinates               Weight
  0.000000  0.000000  0.000000      1.000000
  0.038630  0.022303  0.000000      6.000000
  0.077261  0.044607  0.000000      6.000000
  0.115891  0.066910  0.000000      6.000000
  0.154522  0.089213  0.000000      6.000000
  0.193152  0.111517  0.000000      6.000000
  0.038630  0.066910  0.000000      6.000000
  0.077261  0.089213  0.000000     12.000000
  0.115891  0.111517  0.000000     12.000000
  0.154522  0.133820  0.000000     12.000000
  0.193152  0.156123  0.000000      6.000000
  0.077261  0.133820  0.000000      6.000000
  0.115891  0.156123  0.000000     12.000000
  0.154522  0.178427  0.000000     12.000000
  0.115891  0.200730  0.000000      6.000000
  0.154522  0.223033  0.000000      6.000000
  0.000000  0.000000  0.022868      2.000000
  0.038630  0.022303  0.022868     12.000000
  0.077261  0.044607  0.022868     12.000000
  0.115891  0.066910  0.022868     12.000000
  0.154522  0.089213  0.022868     12.000000
  0.193152  0.111517  0.022868     12.000000
  0.038630  0.066910  0.022868     12.000000
  0.077261  0.089213  0.022868     24.000000
  0.115891  0.111517  0.022868     24.000000
  0.154522  0.133820  0.022868     24.000000
  0.193152  0.156123  0.022868     12.000000
  0.077261  0.133820  0.022868     12.000000
  0.115891  0.156123  0.022868     24.000000
  0.154522  0.178427  0.022868     24.000000
  0.115891  0.200730  0.022868     12.000000
  0.154522  0.223033  0.022868     12.000000
  0.000000  0.000000  0.045736      2.000000
  0.038630  0.022303  0.045736     12.000000
  0.077261  0.044607  0.045736     12.000000
  0.115891  0.066910  0.045736     12.000000
  0.154522  0.089213  0.045736     12.000000
  0.193152  0.111517  0.045736     12.000000
  0.038630  0.066910  0.045736     12.000000
  0.077261  0.089213  0.045736     24.000000
  0.115891  0.111517  0.045736     24.000000
  0.154522  0.133820  0.045736     24.000000
  0.193152  0.156123  0.045736     12.000000
  0.077261  0.133820  0.045736     12.000000
  0.115891  0.156123  0.045736     24.000000
  0.154522  0.178427  0.045736     24.000000
  0.115891  0.200730  0.045736     12.000000
  0.154522  0.223033  0.045736     12.000000
  0.000000  0.000000  0.068604      2.000000
  0.038630  0.022303  0.068604     12.000000
  0.077261  0.044607  0.068604     12.000000
  0.115891  0.066910  0.068604     12.000000
  0.154522  0.089213  0.068604     12.000000
  0.193152  0.111517  0.068604     12.000000
  0.038630  0.066910  0.068604     12.000000
  0.077261  0.089213  0.068604     24.000000
  0.115891  0.111517  0.068604     24.000000
  0.154522  0.133820  0.068604     24.000000
  0.193152  0.156123  0.068604     12.000000
  0.077261  0.133820  0.068604     12.000000
  0.115891  0.156123  0.068604     24.000000
  0.154522  0.178427  0.068604     24.000000
  0.115891  0.200730  0.068604     12.000000
  0.154522  0.223033  0.068604     12.000000
  0.000000  0.000000  0.091473      2.000000
  0.038630  0.022303  0.091473     12.000000
  0.077261  0.044607  0.091473     12.000000
  0.115891  0.066910  0.091473     12.000000
  0.154522  0.089213  0.091473     12.000000
  0.193152  0.111517  0.091473     12.000000
  0.038630  0.066910  0.091473     12.000000
  0.077261  0.089213  0.091473     24.000000
  0.115891  0.111517  0.091473     24.000000
  0.154522  0.133820  0.091473     24.000000
  0.193152  0.156123  0.091473     12.000000
  0.077261  0.133820  0.091473     12.000000
  0.115891  0.156123  0.091473     24.000000
  0.154522  0.178427  0.091473     24.000000
  0.115891  0.200730  0.091473     12.000000
  0.154522  0.223033  0.091473     12.000000
  0.000000  0.000000  0.114341      2.000000
  0.038630  0.022303  0.114341     12.000000
  0.077261  0.044607  0.114341     12.000000
  0.115891  0.066910  0.114341     12.000000
  0.154522  0.089213  0.114341     12.000000
  0.193152  0.111517  0.114341     12.000000
  0.038630  0.066910  0.114341     12.000000
  0.077261  0.089213  0.114341     24.000000
  0.115891  0.111517  0.114341     24.000000
  0.154522  0.133820  0.114341     24.000000
  0.193152  0.156123  0.114341     12.000000
  0.077261  0.133820  0.114341     12.000000
  0.115891  0.156123  0.114341     24.000000
  0.154522  0.178427  0.114341     24.000000
  0.115891  0.200730  0.114341     12.000000
  0.154522  0.223033  0.114341     12.000000
 


--------------------------------------------------------------------------------------------------------




 Dimension of arrays:
   k-points           NKPTS =     96   k-points in BZ     NKDIM =     96   number of bands    NBANDS=     40
   number of dos      NEDOS =    301   number of ions     NIONS =      2
   non local maximal  LDIM  =      6   non local SUM 2l+1 LMDIM =     18
   total plane-waves  NPLWV =   1600
   max r-space proj   IRMAX =      1   max aug-charges    IRDMAX=   3188
   dimension x,y,z NGX =    10 NGY =   10 NGZ =   16
   dimension x,y,z NGXF=    20 NGYF=   20 NGZF=   32
   support grid    NGXF=    20 NGYF=   20 NGZF=   32
   ions per type =               2
   NGX,Y,Z   is equivalent  to a cutoff of   7.06,  7.06,  6.69 a.u.
   NGXF,Y,Z  is equivalent  to a cutoff of  14.13, 14.13, 13.38 a.u.

 SYSTEM =  unknown system                          
 POSCAR =  Fe                                      

 Startparameter for this run:
   NWRITE =      2    write-flag & timer
   PREC   = normal    normal or accurate (medium, high low for compatibility)
   ISTART =      0    job   : 0-new  1-cont  2-samecut
   ICHARG =      1    charge: 1-file 2-atom 10-const
   ISPIN  =      1    spin polarized calculation?
   LNONCOLLINEAR =      F non collinear calculations
   LSORBIT =      F    spin-orbit coupling
   INIWAV =      1    electr: 0-lowe 1-rand  2-diag
   LASPH  =      F    aspherical Exc in radial PAW
   METAGGA=      F    non-selfconsistent MetaGGA calc.

 Electronic Relaxation 1
   ENCUT  =  280.0 eV  20.58 Ry    4.54 a.u.   3.21  3.21  5.42*2*pi/ulx,y,z
   ENINI  =  280.0     initial cutoff
   ENAUG  =  511.4 eV  augmentation charge cutoff
   NELM   =     60;   NELMIN=  2; NELMDL= -5     # of ELM steps 
   EDIFF  = 0.1E-05   stopping-criterion for ELM
   LREAL  =      F    real-space projection
   NLSPLINE    = F    spline interpolate recip. space projectors
   LCOMPAT=      F    compatible to vasp.4.4
   GGA_COMPAT  = T    GGA compatible to vasp.4.4-vasp.4.6
   LMAXPAW     = -100 max onsite density
   LMAXMIX     =    2 max onsite mixed and CHGCAR
   VOSKOWN=      0    Vosko Wilk Nusair interpolation
   ROPT   =    0.00000
 Ionic relaxation
   EDIFFG = 0.1E-04   stopping-criterion for IOM
   NSW    =      0    number of steps for IOM
   NBLOCK =      1;   KBLOCK =      1    inner block; outer block 
   IBRION =     -1    ionic relax: 0-MD 1-quasi-New 2-CG
   NFREE  =      0    steps in history (QN), initial steepest desc. (CG)
   ISIF   =      2    stress and relaxation
   IWAVPR =      0    prediction:  0-non 1-charg 2-wave 3-comb
   ISYM   =      2    0-nonsym 1-usesym 2-fastsym
   LCORR  =      T    Harris-Foulkes like correction to forces

   POTIM  = 0.5000    time-step for ionic-motion
   TEIN   =    0.0    initial temperature
   TEBEG  =    0.0;   TEEND  =   0.0 temperature during run
   SMASS  =  -3.00    Nose mass-parameter (am)
   estimated Nose-frequenzy (Omega)   =  0.10E-29 period in steps = 0.13E+47 mass=  -0.127E-27a.u.
   SCALEE = 1.0000    scale energy and forces
   NPACO  =    256;   APACO  = 16.0  distance and # of slots for P.C.
   PSTRESS=    0.0 pullay stress

  Mass of Ions in am
   POMASS =  55.85
  Ionic Valenz
   ZVAL   =   8.00
  Atomic Wigner-Seitz radii
   RWIGS  =  -1.00
  virtual crystal weights 
   VCA    =   1.00
   NELECT =      16.0000    total number of electrons
   NUPDOWN=      -1.0000    fix difference up-down

 DOS related values:
   EMIN   =  10.00;   EMAX   =-10.00  energy-range for DOS
   EFERMI =   0.00
   ISMEAR =     1;   SIGMA  =   0.20  broadening in eV -4-tet -1-fermi 0-gaus

 Electronic relaxation 2 (details)
   IALGO  =     38    algorithm
   LDIAG  =      T    sub-space diagonalisation (order eigenvalues)
   LSUBROT=      F    optimize rotation matrix (better conditioning)
   TURBO    =      0    0=normal 1=particle mesh
   IRESTART =      0    0=no restart 2=restart with 2 vectors
   NREBOOT  =      0    no. of reboots
   NMIN     =      0    reboot dimension
   EREF     =   0.00    reference energy to select bands
   IMIX   =      4    mixing-type and parameters
     AMIX     =   0.40;   BMIX     =  1.00
     AMIX_MAG =   1.60;   BMIX_MAG =  1.00
     AMIN     =   0.10
     WC   =   100.;   INIMIX=   1;  MIXPRE=   1;  MAXMIX= -45

 Intra band minimization:
   WEIMIN = 0.0000     energy-eigenvalue tresh-hold
   EBREAK =  0.62E-08  absolut break condition
   DEPER  =   0.30     relativ break condition  

   TIME   =   0.40     timestep for ELM

  volume/ion in A,a.u.               =       9.53        64.33
  Fermi-wavevector in a.u.,A,eV,Ry     =   1.544167  2.918052 32.442435  2.384452
  Thomas-Fermi vector in A             =   2.649726
 
 Write flags
   LWAVE        =      T    write WAVECAR
   LDOWNSAMPLE  =      F    k-point downsampling of WAVECAR
   LCHARG       =      T    write CHGCAR
   LVTOT        =      F    write LOCPOT, total local potential
   LVHAR        =      F    write LOCPOT, Hartree potential only
   LELF         =      F    write electronic localiz. function (ELF)
   LORBIT       =      0    0 simple, 1 ext, 2 COOP (PROOUT), +10 PAW based schemes


 Dipole corrections
   LMONO  =      F    monopole corrections only (constant potential shift)
   LDIPOL =      F    correct potential (dipole corrections)
   IDIPOL =      0    1-x, 2-y, 3-z, 4-all directions 
   EPSILON=  1.0000000 bulk dielectric constant

 Exchange correlation treatment:
   GGA     =    PE    GGA type
   LEXCH   =     8    internal setting for exchange type
   VOSKOWN=      0    Vosko Wilk Nusair interpolation
   LHFCALC =     F    Hartree Fock is set to
   LHFONE  =     F    Hartree Fock one center treatment
   AEXX    =    0.0000 exact exchange contribution

 Linear response parameters
   LEPSILON=     F    determine dielectric tensor
   LRPA    =     F    only Hartree local field effects (RPA)
   LNABLA  =     F    use nabla operator in PAW spheres
   LVEL    =     F    velocity operator in full k-point grid
   LINTERFAST=   F  fast interpolation
   KINTER  =     0    interpolate to denser k-point grid
   CSHIFT  =0.1000    complex shift for real part using Kramers Kronig
   OMEGAMAX=  -1.0    maximum frequency
   DEG_THRESHOLD= 0.2000000E-02 threshold for treating states as degnerate
   RTIME   =   -0.100 relaxation time in fs
  (WPLASMAI=    0.000 imaginary part of plasma frequency in eV, 0.658/RTIME)
   DFIELD  = 0.0000000 0.0000000 0.0000000 field for delta impulse in time
 
 Orbital magnetization related:
   ORBITALMAG=     F  switch on orbital magnetization
   LCHIMAG   =     F  perturbation theory with respect to B field
   DQ        =  0.001000  dq finite difference perturbation B field
   LLRAUG    =     F  two centre corrections for induced B field



--------------------------------------------------------------------------------------------------------


 Static calculation
 charge density and potential will be updated during run
 non-spin polarized calculation
 Variant of blocked Davidson
 Davidson routine will perform the subspace rotation
 perform sub-space diagonalisation
    after iterative eigenvector-optimisation
 modified Broyden-mixing scheme, WC =      100.0
 initial mixing is a Kerker type mixing with AMIX =  0.4000 and BMIX =      1.0000
 Hartree-type preconditioning will be used
 using additional bands           32
 reciprocal scheme for non local part
 use partial core corrections
 calculate Harris-corrections to forces 
   (improved forces if not selfconsistent)
 use gradient corrections 
 use of overlap-Matrix (Vanderbilt PP)
 Methfessel and Paxton  Order N= 1 SIGMA  =   0.20


--------------------------------------------------------------------------------------------------------


  energy-cutoff  :      280.00
  volume of cell :       19.07
      direct lattice vectors                 reciprocal lattice vectors
     2.353300000  0.000000000  0.000000000     0.424935197  0.245336451  0.000000000
    -1.176650000  2.038017583  0.000000000     0.000000000  0.490672901  0.000000000
     0.000000000  0.000000000  3.975360000     0.000000000  0.000000000  0.251549545

  length of vectors
     2.353300000  2.353300000  3.975360000     0.490672901  0.490672901  0.251549545


 
 k-points in units of 2pi/SCALE and weight: KPOINTS created by Atomic Simulation Env
   0.00000000  0.00000000  0.00000000       0.001
   0.03863047  0.02230331  0.00000000       0.005
   0.07726094  0.04460663  0.00000000       0.005
   0.11589142  0.06690994  0.00000000       0.005
   0.15452189  0.08921325  0.00000000       0.005
   0.19315236  0.11151657  0.00000000       0.005
   0.03863047  0.06690994  0.00000000       0.005
   0.07726094  0.08921325  0.00000000       0.009
   0.11589142  0.11151657  0.00000000       0.009
   0.15452189  0.13381988  0.00000000       0.009
   0.19315236  0.15612320  0.00000000       0.005
   0.07726094  0.13381988  0.00000000       0.005
   0.11589142  0.15612320  0.00000000       0.009
   0.15452189  0.17842651  0.00000000       0.009
   0.11589142  0.20072982  0.00000000       0.005
   0.15452189  0.22303314  0.00000000       0.005
   0.00000000  0.00000000  0.02286814       0.002
   0.03863047  0.02230331  0.02286814       0.009
   0.07726094  0.04460663  0.02286814       0.009
   0.11589142  0.06690994  0.02286814       0.009
   0.15452189  0.08921325  0.02286814       0.009
   0.19315236  0.11151657  0.02286814       0.009
   0.03863047  0.06690994  0.02286814       0.009
   0.07726094  0.08921325  0.02286814       0.018
   0.11589142  0.11151657  0.02286814       0.018
   0.15452189  0.13381988  0.02286814       0.018
   0.19315236  0.15612320  0.02286814       0.009
   0.07726094  0.13381988  0.02286814       0.009
   0.11589142  0.15612320  0.02286814       0.018
   0.15452189  0.17842651  0.02286814       0.018
   0.11589142  0.20072982  0.02286814       0.009
   0.15452189  0.22303314  0.02286814       0.009
   0.00000000  0.00000000  0.04573628       0.002
   0.03863047  0.02230331  0.04573628       0.009
   0.07726094  0.04460663  0.04573628       0.009
   0.11589142  0.06690994  0.04573628       0.009
   0.15452189  0.08921325  0.04573628       0.009
   0.19315236  0.11151657  0.04573628       0.009
   0.03863047  0.06690994  0.04573628       0.009
   0.07726094  0.08921325  0.04573628       0.018
   0.11589142  0.11151657  0.04573628       0.018
   0.15452189  0.13381988  0.04573628       0.018
   0.19315236  0.15612320  0.04573628       0.009
   0.07726094  0.13381988  0.04573628       0.009
   0.11589142  0.15612320  0.04573628       0.018
   0.15452189  0.17842651  0.04573628       0.018
   0.11589142  0.20072982  0.04573628       0.009
   0.15452189  0.22303314  0.04573628       0.009
   0.00000000  0.00000000  0.06860442       0.002
   0.03863047  0.02230331  0.06860442       0.009
   0.07726094  0.04460663  0.06860442       0.009
   0.11589142  0.06690994  0.06860442       0.009
   0.15452189  0.08921325  0.06860442       0.009
   0.19315236  0.11151657  0.06860442       0.009
   0.03863047  0.06690994  0.06860442       0.009
   0.07726094  0.08921325  0.06860442       0.018
   0.11589142  0.11151657  0.06860442       0.018
   0.15452189  0.13381988  0.06860442       0.018
   0.19315236  0.15612320  0.06860442       0.009
   0.07726094  0.13381988  0.06860442       0.009
   0.11589142  0.15612320  0.06860442       0.018
   0.15452189  0.17842651  0.06860442       0.018
   0.11589142  0.20072982  0.06860442       0.009
   0.15452189  0.22303314  0.06860442       0.009
   0.00000000  0.00000000  0.09147256       0.002
   0.03863047  0.02230331  0.09147256       0.009
   0.07726094  0.04460663  0.09147256       0.009
   0.11589142  0.06690994  0.09147256       0.009
   0.15452189  0.08921325  0.09147256       0.009
   0.19315236  0.11151657  0.09147256       0.009
   0.03863047  0.06690994  0.09147256       0.009
   0.07726094  0.08921325  0.09147256       0.018
   0.11589142  0.11151657  0.09147256       0.018
   0.15452189  0.13381988  0.09147256       0.018
   0.19315236  0.15612320  0.09147256       0.009
   0.07726094  0.13381988  0.09147256       0.009
   0.11589142  0.15612320  0.09147256       0.018
   0.15452189  0.17842651  0.09147256       0.018
   0.11589142  0.20072982  0.09147256       0.009
   0.15452189  0.22303314  0.09147256       0.009
   0.00000000  0.00000000  0.11434070       0.002
   0.03863047  0.02230331  0.11434070       0.009
   0.07726094  0.04460663  0.11434070       0.009
   0.11589142  0.06690994  0.11434070       0.009
   0.15452189  0.08921325  0.11434070       0.009
   0.19315236  0.11151657  0.11434070       0.009
   0.03863047  0.06690994  0.11434070       0.009
   0.07726094  0.08921325  0.11434070       0.018
   0.11589142  0.11151657  0.11434070       0.018
   0.15452189  0.13381988  0.11434070       0.018
   0.19315236  0.15612320  0.11434070       0.009
   0.07726094  0.13381988  0.11434070       0.009
   0.11589142  0.15612320  0.11434070       0.018
   0.15452189  0.17842651  0.11434070       0.018
   0.11589142  0.20072982  0.11434070       0.009
   0.15452189  0.22303314  0.11434070       0.009
 
 k-points in reciprocal lattice and weights: KPOINTS created by Atomic Simulation Env
   0.00000000  0.00000000  0.00000000       0.001
   0.09090909  0.00000000  0.00000000       0.005
   0.18181818  0.00000000  0.00000000       0.005
   0.27272727  0.00000000  0.00000000       0.005
   0.36363636  0.00000000  0.00000000       0.005
   0.45454545  0.00000000  0.00000000       0.005
   0.09090909  0.09090909  0.00000000       0.005
   0.18181818  0.09090909  0.00000000       0.009
   0.27272727  0.09090909  0.00000000       0.009
   0.36363636  0.09090909  0.00000000       0.009
   0.45454545  0.09090909  0.00000000       0.005
   0.18181818  0.18181818  0.00000000       0.005
   0.27272727  0.18181818  0.00000000       0.009
   0.36363636  0.18181818  0.00000000       0.009
   0.27272727  0.27272727  0.00000000       0.005
   0.36363636  0.27272727  0.00000000       0.005
   0.00000000  0.00000000  0.09090909       0.002
   0.09090909  0.00000000  0.09090909       0.009
   0.18181818  0.00000000  0.09090909       0.009
   0.27272727  0.00000000  0.09090909       0.009
   0.36363636  0.00000000  0.09090909       0.009
   0.45454545  0.00000000  0.09090909       0.009
   0.09090909  0.09090909  0.09090909       0.009
   0.18181818  0.09090909  0.09090909       0.018
   0.27272727  0.09090909  0.09090909       0.018
   0.36363636  0.09090909  0.09090909       0.018
   0.45454545  0.09090909  0.09090909       0.009
   0.18181818  0.18181818  0.09090909       0.009
   0.27272727  0.18181818  0.09090909       0.018
   0.36363636  0.18181818  0.09090909       0.018
   0.27272727  0.27272727  0.09090909       0.009
   0.36363636  0.27272727  0.09090909       0.009
   0.00000000  0.00000000  0.18181818       0.002
   0.09090909  0.00000000  0.18181818       0.009
   0.18181818  0.00000000  0.18181818       0.009
   0.27272727  0.00000000  0.18181818       0.009
   0.36363636  0.00000000  0.18181818       0.009
   0.45454545  0.00000000  0.18181818       0.009
   0.09090909  0.09090909  0.18181818       0.009
   0.18181818  0.09090909  0.18181818       0.018
   0.27272727  0.09090909  0.18181818       0.018
   0.36363636  0.09090909  0.18181818       0.018
   0.45454545  0.09090909  0.18181818       0.009
   0.18181818  0.18181818  0.18181818       0.009
   0.27272727  0.18181818  0.18181818       0.018
   0.36363636  0.18181818  0.18181818       0.018
   0.27272727  0.27272727  0.18181818       0.009
   0.36363636  0.27272727  0.18181818       0.009
   0.00000000  0.00000000  0.27272727       0.002
   0.09090909  0.00000000  0.27272727       0.009
   0.18181818  0.00000000  0.27272727       0.009
   0.27272727  0.00000000  0.27272727       0.009
   0.36363636  0.00000000  0.27272727       0.009
   0.45454545  0.00000000  0.27272727       0.009
   0.09090909  0.09090909  0.27272727       0.009
   0.18181818  0.09090909  0.27272727       0.018
   0.27272727  0.09090909  0.27272727       0.018
   0.36363636  0.09090909  0.27272727       0.018
   0.45454545  0.09090909  0.27272727       0.009
   0.18181818  0.18181818  0.27272727       0.009
   0.27272727  0.18181818  0.27272727       0.018
   0.36363636  0.18181818  0.27272727       0.018
   0.27272727  0.27272727  0.27272727       0.009
   0.36363636  0.27272727  0.27272727       0.009
   0.00000000  0.00000000  0.36363636       0.002
   0.09090909  0.00000000  0.36363636       0.009
   0.18181818  0.00000000  0.36363636       0.009
   0.27272727  0.00000000  0.36363636       0.009
   0.36363636  0.00000000  0.36363636       0.009
   0.45454545  0.00000000  0.36363636       0.009
   0.09090909  0.09090909  0.36363636       0.009
   0.18181818  0.09090909  0.36363636       0.018
   0.27272727  0.09090909  0.36363636       0.018
   0.36363636  0.09090909  0.36363636       0.018
   0.45454545  0.09090909  0.36363636       0.009
   0.18181818  0.18181818  0.36363636       0.009
   0.27272727  0.18181818  0.36363636       0.018
   0.36363636  0.18181818  0.36363636       0.018
   0.27272727  0.27272727  0.36363636       0.009
   0.36363636  0.27272727  0.36363636       0.009
   0.00000000  0.00000000  0.45454545       0.002
   0.09090909  0.00000000  0.45454545       0.009
   0.18181818  0.00000000  0.45454545       0.009
   0.27272727  0.00000000  0.45454545       0.009
   0.36363636  0.00000000  0.45454545       0.009
   0.45454545  0.00000000  0.45454545       0.009
   0.09090909  0.09090909  0.45454545       0.009
   0.18181818  0.09090909  0.45454545       0.018
   0.27272727  0.09090909  0.45454545       0.018
   0.36363636  0.09090909  0.45454545       0.018
   0.45454545  0.09090909  0.45454545       0.009
   0.18181818  0.18181818  0.45454545       0.009
   0.27272727  0.18181818  0.45454545       0.018
   0.36363636  0.18181818  0.45454545       0.018
   0.27272727  0.27272727  0.45454545       0.009
   0.36363636  0.27272727  0.45454545       0.009
 
 position of ions in fractional coordinates (direct lattice) 
   0.00000000  0.00000000  0.00000000
   0.33333333  0.66666667  0.50000000
 
 position of ions in cartesian coordinates  (Angst):
   0.00000000  0.00000000  0.00000000
   0.00000000  1.35867839  1.98768000
 


--------------------------------------------------------------------------------------------------------


 k-point   1 :   0.0000 0.0000 0.0000  plane waves:     209
 k-point   2 :   0.0909 0.0000 0.0000  plane waves:     215
 k-point   3 :   0.1818 0.0000 0.0000  plane waves:     197
 k-point   4 :   0.2727 0.0000 0.0000  plane waves:     200
 k-point   5 :   0.3636 0.0000 0.0000  plane waves:     202
 k-point   6 :   0.4545 0.0000 0.0000  plane waves:     204
 k-point   7 :   0.0909 0.0909 0.0000  plane waves:     205
 k-point   8 :   0.1818 0.0909 0.0000  plane waves:     203
 k-point   9 :   0.2727 0.0909 0.0000  plane waves:     199
 k-point  10 :   0.3636 0.0909 0.0000  plane waves:     206
 k-point  11 :   0.4545 0.0909 0.0000  plane waves:     206
 k-point  12 :   0.1818 0.1818 0.0000  plane waves:     205
 k-point  13 :   0.2727 0.1818 0.0000  plane waves:     200
 k-point  14 :   0.3636 0.1818 0.0000  plane waves:     204
 k-point  15 :   0.2727 0.2727 0.0000  plane waves:     199
 k-point  16 :   0.3636 0.2727 0.0000  plane waves:     205
 k-point  17 :   0.0000 0.0000 0.0909  plane waves:     203
 k-point  18 :   0.0909 0.0000 0.0909  plane waves:     211
 k-point  19 :   0.1818 0.0000 0.0909  plane waves:     204
 k-point  20 :   0.2727 0.0000 0.0909  plane waves:     203
 k-point  21 :   0.3636 0.0000 0.0909  plane waves:     202
 k-point  22 :   0.4545 0.0000 0.0909  plane waves:     208
 k-point  23 :   0.0909 0.0909 0.0909  plane waves:     206
 k-point  24 :   0.1818 0.0909 0.0909  plane waves:     202
 k-point  25 :   0.2727 0.0909 0.0909  plane waves:     200
 k-point  26 :   0.3636 0.0909 0.0909  plane waves:     204
 k-point  27 :   0.4545 0.0909 0.0909  plane waves:     208
 k-point  28 :   0.1818 0.1818 0.0909  plane waves:     205
 k-point  29 :   0.2727 0.1818 0.0909  plane waves:     203
 k-point  30 :   0.3636 0.1818 0.0909  plane waves:     202
 k-point  31 :   0.2727 0.2727 0.0909  plane waves:     203
 k-point  32 :   0.3636 0.2727 0.0909  plane waves:     208
 k-point  33 :   0.0000 0.0000 0.1818  plane waves:     203
 k-point  34 :   0.0909 0.0000 0.1818  plane waves:     204
 k-point  35 :   0.1818 0.0000 0.1818  plane waves:     203
 k-point  36 :   0.2727 0.0000 0.1818  plane waves:     205
 k-point  37 :   0.3636 0.0000 0.1818  plane waves:     203
 k-point  38 :   0.4545 0.0000 0.1818  plane waves:     200
 k-point  39 :   0.0909 0.0909 0.1818  plane waves:     202
 k-point  40 :   0.1818 0.0909 0.1818  plane waves:     202
 k-point  41 :   0.2727 0.0909 0.1818  plane waves:     202
 k-point  42 :   0.3636 0.0909 0.1818  plane waves:     205
 k-point  43 :   0.4545 0.0909 0.1818  plane waves:     211
 k-point  44 :   0.1818 0.1818 0.1818  plane waves:     201
 k-point  45 :   0.2727 0.1818 0.1818  plane waves:     204
 k-point  46 :   0.3636 0.1818 0.1818  plane waves:     205
 k-point  47 :   0.2727 0.2727 0.1818  plane waves:     206
 k-point  48 :   0.3636 0.2727 0.1818  plane waves:     205
 k-point  49 :   0.0000 0.0000 0.2727  plane waves:     203
 k-point  50 :   0.0909 0.0000 0.2727  plane waves:     204
 k-point  51 :   0.1818 0.0000 0.2727  plane waves:     200
 k-point  52 :   0.2727 0.0000 0.2727  plane waves:     201
 k-point  53 :   0.3636 0.0000 0.2727  plane waves:     203
 k-point  54 :   0.4545 0.0000 0.2727  plane waves:     201
 k-point  55 :   0.0909 0.0909 0.2727  plane waves:     204
 k-point  56 :   0.1818 0.0909 0.2727  plane waves:     199
 k-point  57 :   0.2727 0.0909 0.2727  plane waves:     201
 k-point  58 :   0.3636 0.0909 0.2727  plane waves:     204
 k-point  59 :   0.4545 0.0909 0.2727  plane waves:     204
 k-point  60 :   0.1818 0.1818 0.2727  plane waves:     199
 k-point  61 :   0.2727 0.1818 0.2727  plane waves:     205
 k-point  62 :   0.3636 0.1818 0.2727  plane waves:     206
 k-point  63 :   0.2727 0.2727 0.2727  plane waves:     206
 k-point  64 :   0.3636 0.2727 0.2727  plane waves:     205
 k-point  65 :   0.0000 0.0000 0.3636  plane waves:     215
 k-point  66 :   0.0909 0.0000 0.3636  plane waves:     204
 k-point  67 :   0.1818 0.0000 0.3636  plane waves:     197
 k-point  68 :   0.2727 0.0000 0.3636  plane waves:     201
 k-point  69 :   0.3636 0.0000 0.3636  plane waves:     206
 k-point  70 :   0.4545 0.0000 0.3636  plane waves:     199
 k-point  71 :   0.0909 0.0909 0.3636  plane waves:     200
 k-point  72 :   0.1818 0.0909 0.3636  plane waves:     200
 k-point  73 :   0.2727 0.0909 0.3636  plane waves:     202
 k-point  74 :   0.3636 0.0909 0.3636  plane waves:     203
 k-point  75 :   0.4545 0.0909 0.3636  plane waves:     201
 k-point  76 :   0.1818 0.1818 0.3636  plane waves:     203
 k-point  77 :   0.2727 0.1818 0.3636  plane waves:     206
 k-point  78 :   0.3636 0.1818 0.3636  plane waves:     203
 k-point  79 :   0.2727 0.2727 0.3636  plane waves:     206
 k-point  80 :   0.3636 0.2727 0.3636  plane waves:     202
 k-point  81 :   0.0000 0.0000 0.4545  plane waves:     214
 k-point  82 :   0.0909 0.0000 0.4545  plane waves:     206
 k-point  83 :   0.1818 0.0000 0.4545  plane waves:     196
 k-point  84 :   0.2727 0.0000 0.4545  plane waves:     202
 k-point  85 :   0.3636 0.0000 0.4545  plane waves:     204
 k-point  86 :   0.4545 0.0000 0.4545  plane waves:     201
 k-point  87 :   0.0909 0.0909 0.4545  plane waves:     197
 k-point  88 :   0.1818 0.0909 0.4545  plane waves:     196
 k-point  89 :   0.2727 0.0909 0.4545  plane waves:     200
 k-point  90 :   0.3636 0.0909 0.4545  plane waves:     203
 k-point  91 :   0.4545 0.0909 0.4545  plane waves:     199
 k-point  92 :   0.1818 0.1818 0.4545  plane waves:     204
 k-point  93 :   0.2727 0.1818 0.4545  plane waves:     204
 k-point  94 :   0.3636 0.1818 0.4545  plane waves:     207
 k-point  95 :   0.2727 0.2727 0.4545  plane waves:     204
 k-point  96 :   0.3636 0.2727 0.4545  plane waves:     206

 maximum number of plane-waves:       215
 maximum index in each direction: 
   IXMAX=    3   IYMAX=    3   IZMAX=    5
   IXMIN=   -3   IYMIN=   -3   IZMIN=   -5


 total amount of memory used by VASP MPI-rank0    49152. kBytes
=======================================================================

   base      :      30000. kBytes
   nonl-proj :       2979. kBytes
   grid      :        721. kBytes
   one-center:         31. kBytes
   wavefun   :      15421. kBytes
 
     INWAV:  cpu time    0.0000: real time    0.0000
 Broyden mixing: mesh for mixing (old mesh)
   NGX =  7   NGY =  7   NGZ = 11
  (NGX  = 20   NGY  = 20   NGZ  = 32)
  gives a total of    539 points

 initial charge density was supplied:
 charge density of overlapping atoms calculated
 number of electron      16.0000000 magnetization 
 keeping initial charge density in first step


--------------------------------------------------------------------------------------------------------


 Maximum index for augmentation-charges         2892 (set IRDMAX)


--------------------------------------------------------------------------------------------------------


 First call to EWALD:  gamma=   0.663
 Maximum number of real-space cells 3x 3x 2
 Maximum number of reciprocal cells 2x 2x 4

    FEWALD:  cpu time    0.0008: real time    0.0008


--------------------------------------- Iteration      1(   1)  ---------------------------------------


    POTLOK:  cpu time    0.0032: real time    0.0032
    SETDIJ:  cpu time    0.0022: real time    0.0022
     EDDAV:  cpu time    0.7396: real time    0.7592
       DOS:  cpu time    0.0057: real time    0.0057
    --------------------------------------------
      LOOP:  cpu time    0.7506: real time    0.7703

 eigenvalue-minimisations  :  9424
 total energy-change (2. order) : 0.5974957E+02  (-0.2608398E+03)
 number of electron      16.0000000 magnetization 
 augmentation part       16.0000000 magnetization 

 Free energy of the ion-electron system (eV)
  ---------------------------------------------------
  alpha Z        PSCENC =       144.99830571
  Ewald energy   TEWEN  =     -1255.11009809
  -Hartree energ DENC   =      -197.10120259
  -exchange      EXHF   =         0.00000000
  -V(xc)+E(xc)   XCENC  =         8.91975542
  PAW double counting   =      1109.69170683    -1125.09647265
  entropy T*S    EENTRO =        -0.00223912
  eigenvalues    EBANDS =       184.87490157
  atomic energy  EATOM  =      1188.57490811
  Solvation  Ediel_sol  =         0.00000000
  ---------------------------------------------------
  free energy    TOTEN  =        59.74956518 eV

  energy without entropy =       59.75180430  energy(sigma->0) =       59.75031155


--------------------------------------------------------------------------------------------------------




--------------------------------------- Iteration      1(   2)  ---------------------------------------


     EDDAV:  cpu time    0.6308: real time    0.6308
       DOS:  cpu time    0.0059: real time    0.0059
    --------------------------------------------
      LOOP:  cpu time    0.6367: real time    0.6367

 eigenvalue-minimisations  :  7888
 total energy-change (2. order) :-0.7468423E+02  (-0.6375444E+02)
 number of electron      16.0000000 magnetization 
 augmentation part       16.0000000 magnetization 

 Free energy of the ion-electron system (eV)
  ---------------------------------------------------
  alpha Z        PSCENC =       144.99830571
  Ewald energy   TEWEN  =     -1255.11009809
  -Hartree energ DENC   =      -197.10120259
  -exchange      EXHF   =         0.00000000
  -V(xc)+E(xc)   XCENC  =         8.91975542
  PAW double counting   =      1109.69170683    -1125.09647265
  entropy T*S    EENTRO =         0.00382346
  eigenvalues    EBANDS =       110.18460550
  atomic energy  EATOM  =      1188.57490811
  Solvation  Ediel_sol  =         0.00000000
  ---------------------------------------------------
  free energy    TOTEN  =       -14.93466831 eV

  energy without entropy =      -14.93849177  energy(sigma->0) =      -14.93594279


--------------------------------------------------------------------------------------------------------




--------------------------------------- Iteration      1(   3)  ---------------------------------------


     EDDAV:  cpu time    0.7494: real time    0.7494
       DOS:  cpu time    0.0065: real time    0.0065
    --------------------------------------------
      LOOP:  cpu time    0.7559: real time    0.7559

 eigenvalue-minimisations  :  9544
 total energy-change (2. order) :-0.4205144E+01  (-0.4031055E+01)
 number of electron      16.0000000 magnetization 
 augmentation part       16.0000000 magnetization 

 Free energy of the ion-electron system (eV)
  ---------------------------------------------------
  alpha Z        PSCENC =       144.99830571
  Ewald energy   TEWEN  =     -1255.11009809
  -Hartree energ DENC   =      -197.10120259
  -exchange      EXHF   =         0.00000000
  -V(xc)+E(xc)   XCENC  =         8.91975542
  PAW double counting   =      1109.69170683    -1125.09647265
  entropy T*S    EENTRO =        -0.00155662
  eigenvalues    EBANDS =       105.98484179
  atomic energy  EATOM  =      1188.57490811
  Solvation  Ediel_sol  =         0.00000000
  ---------------------------------------------------
  free energy    TOTEN  =       -19.13981209 eV

  energy without entropy =      -19.13825547  energy(sigma->0) =      -19.13929322


--------------------------------------------------------------------------------------------------------




--------------------------------------- Iteration      1(   4)  ---------------------------------------


     EDDAV:  cpu time    0.7151: real time    0.7151
       DOS:  cpu time    0.0065: real time    0.0065
    --------------------------------------------
      LOOP:  cpu time    0.7216: real time    0.7216

 eigenvalue-minimisations  :  8992
 total energy-change (2. order) :-0.1702267E-01  (-0.1701427E-01)
 number of electron      16.0000000 magnetization 
 augmentation part       16.0000000 magnetization 

 Free energy of the ion-electron system (eV)
  ---------------------------------------------------
  alpha Z        PSCENC =       144.99830571
  Ewald energy   TEWEN  =     -1255.11009809
  -Hartree energ DENC   =      -197.10120259
  -exchange      EXHF   =         0.00000000
  -V(xc)+E(xc)   XCENC  =         8.91975542
  PAW double counting   =      1109.69170683    -1125.09647265
  entropy T*S    EENTRO =        -0.00159175
  eigenvalues    EBANDS =       105.96785425
  atomic energy  EATOM  =      1188.57490811
  Solvation  Ediel_sol  =         0.00000000
  ---------------------------------------------------
  free energy    TOTEN  =       -19.15683476 eV

  energy without entropy =      -19.15524301  energy(sigma->0) =      -19.15630418


--------------------------------------------------------------------------------------------------------




--------------------------------------- Iteration      1(   5)  ---------------------------------------


     EDDAV:  cpu time    0.7016: real time    0.7016
       DOS:  cpu time    0.0066: real time    0.0066
    CHARGE:  cpu time    0.0177: real time    0.0177
    MIXING:  cpu time    0.0001: real time    0.0001
    --------------------------------------------
      LOOP:  cpu time    0.7260: real time    0.7261

 eigenvalue-minimisations  :  9184
 total energy-change (2. order) :-0.1432090E-04  (-0.1431904E-04)
 number of electron      16.0000082 magnetization 
 augmentation part        7.1170324 magnetization 

 Broyden mixing:
  rms(total) = 0.18195E+01    rms(broyden)= 0.18194E+01
  rms(prec ) = 0.30113E+01
  weight for this iteration     100.00

 Free energy of the ion-electron system (eV)
  ---------------------------------------------------
  alpha Z        PSCENC =       144.99830571
  Ewald energy   TEWEN  =     -1255.11009809
  -Hartree energ DENC   =      -197.10120259
  -exchange      EXHF   =         0.00000000
  -V(xc)+E(xc)   XCENC  =         8.91975542
  PAW double counting   =      1109.69170683    -1125.09647265
  entropy T*S    EENTRO =        -0.00159176
  eigenvalues    EBANDS =       105.96783995
  atomic energy  EATOM  =      1188.57490811
  Solvation  Ediel_sol  =         0.00000000
  ---------------------------------------------------
  free energy    TOTEN  =       -19.15684908 eV

  energy without entropy =      -19.15525732  energy(sigma->0) =      -19.15631849


--------------------------------------------------------------------------------------------------------




--------------------------------------- Iteration      1(   6)  ---------------------------------------


    POTLOK:  cpu time    0.0030: real time    0.0030
    SETDIJ:  cpu time    0.0021: real time    0.0021
     EDDAV:  cpu time    0.8412: real time    0.8412
       DOS:  cpu time    0.0063: real time    0.0063
    CHARGE:  cpu time    0.0171: real time    0.0171
    MIXING:  cpu time    0.0002: real time    0.0002
    --------------------------------------------
      LOOP:  cpu time    0.8699: real time    0.8699

 eigenvalue-minimisations  : 11192
 total energy-change (2. order) : 0.2821456E+01  (-0.1537667E+00)
 number of electron      16.0000104 magnetization 
 augmentation part        8.3968397 magnetization 

 Broyden mixing:
  rms(total) = 0.16778E+00    rms(broyden)= 0.16770E+00
  rms(prec ) = 0.28119E+00
  weight for this iteration     100.00

 eigenvalues of (default mixing * dielectric matrix)
  average eigenvalue GAMMA=   0.9679
  0.9679

 Free energy of the ion-electron system (eV)
  ---------------------------------------------------
  alpha Z        PSCENC =       144.99830571
  Ewald energy   TEWEN  =     -1255.11009809
  -Hartree energ DENC   =      -164.40079879
  -exchange      EXHF   =         0.00000000
  -V(xc)+E(xc)   XCENC  =         7.31549544
  PAW double counting   =      1294.00423859    -1305.52236633
  entropy T*S    EENTRO =         0.00028902
  eigenvalues    EBANDS =        73.80463313
  atomic energy  EATOM  =      1188.57490811
  Solvation  Ediel_sol  =         0.00000000
  ---------------------------------------------------
  free energy    TOTEN  =       -16.33539320 eV

  energy without entropy =      -16.33568223  energy(sigma->0) =      -16.33548954


--------------------------------------------------------------------------------------------------------




--------------------------------------- Iteration      1(   7)  ---------------------------------------


    POTLOK:  cpu time    0.0030: real time    0.0030
    SETDIJ:  cpu time    0.0021: real time    0.0021
     EDDAV:  cpu time    0.7600: real time    0.7601
       DOS:  cpu time    0.0065: real time    0.0065
    CHARGE:  cpu time    0.0171: real time    0.0171
    MIXING:  cpu time    0.0002: real time    0.0002
    --------------------------------------------
      LOOP:  cpu time    0.7889: real time    0.7889

 eigenvalue-minimisations  : 10024
 total energy-change (2. order) : 0.1469847E+00  (-0.8663867E-02)
 number of electron      16.0000100 magnetization 
 augmentation part        8.1727614 magnetization 

 Broyden mixing:
  rms(total) = 0.11693E+00    rms(broyden)= 0.11693E+00
  rms(prec ) = 0.20519E+00
  weight for this iteration     100.00

 eigenvalues of (default mixing * dielectric matrix)
  average eigenvalue GAMMA=   1.0292
  1.2832  0.7751

 Free energy of the ion-electron system (eV)
  ---------------------------------------------------
  alpha Z        PSCENC =       144.99830571
  Ewald energy   TEWEN  =     -1255.11009809
  -Hartree energ DENC   =      -167.01934619
  -exchange      EXHF   =         0.00000000
  -V(xc)+E(xc)   XCENC  =         7.47298672
  PAW double counting   =      1385.01844134    -1399.98419697
  entropy T*S    EENTRO =         0.00007614
  eigenvalues    EBANDS =        79.86051474
  atomic energy  EATOM  =      1188.57490811
  Solvation  Ediel_sol  =         0.00000000
  ---------------------------------------------------
  free energy    TOTEN  =       -16.18840849 eV

  energy without entropy =      -16.18848463  energy(sigma->0) =      -16.18843387


--------------------------------------------------------------------------------------------------------




--------------------------------------- Iteration      1(   8)  ---------------------------------------


    POTLOK:  cpu time    0.0028: real time    0.0028
    SETDIJ:  cpu time    0.0021: real time    0.0021
     EDDAV:  cpu time    0.7544: real time    0.7544
       DOS:  cpu time    0.0063: real time    0.0063
    CHARGE:  cpu time    0.0178: real time    0.0178
    MIXING:  cpu time    0.0002: real time    0.0002
    --------------------------------------------
      LOOP:  cpu time    0.7836: real time    0.7837

 eigenvalue-minimisations  :  9976
 total energy-change (2. order) : 0.2985779E-01  (-0.2514670E-03)
 number of electron      16.0000101 magnetization 
 augmentation part        8.1972817 magnetization 

 Broyden mixing:
  rms(total) = 0.53422E-01    rms(broyden)= 0.53422E-01
  rms(prec ) = 0.91424E-01
  weight for this iteration     100.00

 eigenvalues of (default mixing * dielectric matrix)
  average eigenvalue GAMMA=   1.4970
  1.0455  0.8235  2.6221

 Free energy of the ion-electron system (eV)
  ---------------------------------------------------
  alpha Z        PSCENC =       144.99830571
  Ewald energy   TEWEN  =     -1255.11009809
  -Hartree energ DENC   =      -164.92014033
  -exchange      EXHF   =         0.00000000
  -V(xc)+E(xc)   XCENC  =         7.38926622
  PAW double counting   =      1461.52427487    -1478.01183788
  entropy T*S    EENTRO =         0.00011345
  eigenvalues    EBANDS =        79.39665723
  atomic energy  EATOM  =      1188.57490811
  Solvation  Ediel_sol  =         0.00000000
  ---------------------------------------------------
  free energy    TOTEN  =       -16.15855070 eV

  energy without entropy =      -16.15866415  energy(sigma->0) =      -16.15858852


--------------------------------------------------------------------------------------------------------




--------------------------------------- Iteration      1(   9)  ---------------------------------------


    POTLOK:  cpu time    0.0030: real time    0.0030
    SETDIJ:  cpu time    0.0021: real time    0.0021
     EDDAV:  cpu time    0.8095: real time    0.8095
       DOS:  cpu time    0.0067: real time    0.0067
    CHARGE:  cpu time    0.0173: real time    0.0173
    MIXING:  cpu time    0.0002: real time    0.0002
    --------------------------------------------
      LOOP:  cpu time    0.8389: real time    0.8389

 eigenvalue-minimisations  : 10768
 total energy-change (2. order) : 0.1038788E-01  (-0.9470135E-04)
 number of electron      16.0000101 magnetization 
 augmentation part        8.2104617 magnetization 

 Broyden mixing:
  rms(total) = 0.60595E-02    rms(broyden)= 0.60588E-02
  rms(prec ) = 0.77071E-02
  weight for this iteration     100.00

 eigenvalues of (default mixing * dielectric matrix)
  average eigenvalue GAMMA=   1.6238
  0.8251  1.0006  2.6132  2.0561

 Free energy of the ion-electron system (eV)
  ---------------------------------------------------
  alpha Z        PSCENC =       144.99830571
  Ewald energy   TEWEN  =     -1255.11009809
  -Hartree energ DENC   =      -162.93073292
  -exchange      EXHF   =         0.00000000
  -V(xc)+E(xc)   XCENC  =         7.31474573
  PAW double counting   =      1552.63445127    -1570.87314430
  entropy T*S    EENTRO =         0.00012059
  eigenvalues    EBANDS =        79.24328107
  atomic energy  EATOM  =      1188.57490811
  Solvation  Ediel_sol  =         0.00000000
  ---------------------------------------------------
  free energy    TOTEN  =       -16.14816282 eV

  energy without entropy =      -16.14828341  energy(sigma->0) =      -16.14820302


--------------------------------------------------------------------------------------------------------




--------------------------------------- Iteration      1(  10)  ---------------------------------------


    POTLOK:  cpu time    0.0030: real time    0.0030
    SETDIJ:  cpu time    0.0021: real time    0.0021
     EDDAV:  cpu time    0.6707: real time    0.6708
       DOS:  cpu time    0.0063: real time    0.0063
    CHARGE:  cpu time    0.0174: real time    0.0174
    MIXING:  cpu time    0.0002: real time    0.0002
    --------------------------------------------
      LOOP:  cpu time    0.6997: real time    0.6997

 eigenvalue-minimisations  :  8656
 total energy-change (2. order) :-0.7906048E-05  (-0.3164169E-05)
 number of electron      16.0000101 magnetization 
 augmentation part        8.2102757 magnetization 

 Broyden mixing:
  rms(total) = 0.19837E-02    rms(broyden)= 0.19833E-02
  rms(prec ) = 0.28465E-02
  weight for this iteration     100.00

 eigenvalues of (default mixing * dielectric matrix)
  average eigenvalue GAMMA=   1.6290
  2.5542  2.5542  0.8248  1.0014  1.2103

 Free energy of the ion-electron system (eV)
  ---------------------------------------------------
  alpha Z        PSCENC =       144.99830571
  Ewald energy   TEWEN  =     -1255.11009809
  -Hartree energ DENC   =      -163.01410068
  -exchange      EXHF   =         0.00000000
  -V(xc)+E(xc)   XCENC  =         7.31917895
  PAW double counting   =      1553.34222396    -1571.49515679
  entropy T*S    EENTRO =         0.00011686
  eigenvalues    EBANDS =        79.23645125
  atomic energy  EATOM  =      1188.57490811
  Solvation  Ediel_sol  =         0.00000000
  ---------------------------------------------------
  free energy    TOTEN  =       -16.14817072 eV

  energy without entropy =      -16.14828759  energy(sigma->0) =      -16.14820968


--------------------------------------------------------------------------------------------------------




--------------------------------------- Iteration      1(  11)  ---------------------------------------


    POTLOK:  cpu time    0.0029: real time    0.0029
    SETDIJ:  cpu time    0.0021: real time    0.0021
     EDDAV:  cpu time    0.6476: real time    0.6476
       DOS:  cpu time    0.0066: real time    0.0066
    CHARGE:  cpu time    0.0170: real time    0.0170
    MIXING:  cpu time    0.0002: real time    0.0002
    --------------------------------------------
      LOOP:  cpu time    0.6764: real time    0.6764

 eigenvalue-minimisations  :  7976
 total energy-change (2. order) : 0.9810615E-05  (-0.1223983E-07)
 number of electron      16.0000101 magnetization 
 augmentation part        8.2099977 magnetization 

 Broyden mixing:
  rms(total) = 0.16515E-03    rms(broyden)= 0.16508E-03
  rms(prec ) = 0.20126E-03
  weight for this iteration     100.00

 eigenvalues of (default mixing * dielectric matrix)
  average eigenvalue GAMMA=   1.5669
  2.5762  2.5762  0.8246  1.0074  1.0074  1.4095

 Free energy of the ion-electron system (eV)
  ---------------------------------------------------
  alpha Z        PSCENC =       144.99830571
  Ewald energy   TEWEN  =     -1255.11009809
  -Hartree energ DENC   =      -163.07057783
  -exchange      EXHF   =         0.00000000
  -V(xc)+E(xc)   XCENC  =         7.32185619
  PAW double counting   =      1552.93331753    -1571.03282701
  entropy T*S    EENTRO =         0.00011675
  eigenvalues    EBANDS =        79.23683772
  atomic energy  EATOM  =      1188.57490811
  Solvation  Ediel_sol  =         0.00000000
  ---------------------------------------------------
  free energy    TOTEN  =       -16.14816091 eV

  energy without entropy =      -16.14827766  energy(sigma->0) =      -16.14819983


--------------------------------------------------------------------------------------------------------




--------------------------------------- Iteration      1(  12)  ---------------------------------------


    POTLOK:  cpu time    0.0028: real time    0.0028
    SETDIJ:  cpu time    0.0021: real time    0.0021
     EDDAV:  cpu time    0.5170: real time    0.5170
       DOS:  cpu time    0.0065: real time    0.0065
    --------------------------------------------
      LOOP:  cpu time    0.5283: real time    0.5283

 eigenvalue-minimisations  :  5824
 total energy-change (2. order) : 0.2938016E-06  (-0.6254838E-08)
 number of electron      16.0000101 magnetization 
 augmentation part        8.2099977 magnetization 

 Free energy of the ion-electron system (eV)
  ---------------------------------------------------
  alpha Z        PSCENC =       144.99830571
  Ewald energy   TEWEN  =     -1255.11009809
  -Hartree energ DENC   =      -163.07309125
  -exchange      EXHF   =         0.00000000
  -V(xc)+E(xc)   XCENC  =         7.32197320
  PAW double counting   =      1553.00987533    -1571.10677453
  entropy T*S    EENTRO =         0.00011697
  eigenvalues    EBANDS =        79.23662392
  atomic energy  EATOM  =      1188.57490811
  Solvation  Ediel_sol  =         0.00000000
  ---------------------------------------------------
  free energy    TOTEN  =       -16.14816062 eV

  energy without entropy =      -16.14827759  energy(sigma->0) =      -16.14819961


--------------------------------------------------------------------------------------------------------




 average (electrostatic) potential at core
  the test charge radii are     1.0103
  (the norm of the test charge is              1.0000)
       1 -41.9376       2 -41.9375
 
 
 
 E-fermi :   7.6467     XC(G=0): -14.1885     alpha+bet :-16.2597

 Fermi energy:         7.6466691232

 k-point     1 :       0.0000    0.0000    0.0000
  band No.  band energies     occupation 
      1      -1.6142      2.00000
      2       2.3264      2.00000
      3       5.5418      2.00000
      4       5.9156      2.00000
      5       5.9157      2.00000
      6       6.3188      2.00000
      7       6.3189      2.00000
      8       7.1034      2.00084
      9       7.1034      2.00084
     10       7.4010      2.07091
     11       8.4731     -0.00000
     12       8.4731     -0.00000
     13      16.1946      0.00000
     14      31.0650      0.00000
     15      33.1163      0.00000
     16      34.4975      0.00000
     17      36.6488      0.00000
     18      36.6488      0.00000
     19      37.4707      0.00000
     20      37.4709      0.00000
     21      40.5383      0.00000
     22      40.5383      0.00000
     23      40.5541      0.00000
     24      41.6754      0.00000
     25      44.6591      0.00000
     26      44.6591      0.00000
     27      46.3250      0.00000
     28      48.5321      0.00000
     29      48.5325      0.00000
     30      50.4911      0.00000
     31      50.4913      0.00000
     32      53.7725      0.00000
     33      62.0180      0.00000
     34      63.4250      0.00000
     35      63.5137      0.00000
     36      63.5147      0.00000
     37      64.9481      0.00000
     38      66.4188      0.00000
     39      66.4201      0.00000
     40      68.8417      0.00000

 k-point     2 :       0.0909    0.0000    0.0000
  band No.  band energies     occupation 
      1      -1.2761      2.00000
      2       2.5674      2.00000
      3       5.4153      2.00000
      4       5.9766      2.00000
      5       6.1154      2.00000
      6       6.2116      2.00000
      7       6.2701      2.00000
      8       6.5015      2.00000
      9       6.9777      2.00002
     10       7.0054      2.00006
     11       8.5190     -0.00000
     12       9.8391     -0.00000
     13      16.2106      0.00000
     14      29.9035      0.00000
     15      32.7120      0.00000
     16      33.3524      0.00000
     17      33.8083      0.00000
     18      36.2936      0.00000
     19      36.5808      0.00000
     20      40.0756      0.00000
     21      40.2678      0.00000
     22      40.3922      0.00000
     23      41.2246      0.00000
     24      41.7979      0.00000
     25      45.7211      0.00000
     26      45.9840      0.00000
     27      46.0122      0.00000
     28      46.2208      0.00000
     29      50.0529      0.00000
     30      52.0361      0.00000
     31      52.8348      0.00000
     32      55.4240      0.00000
     33      60.9008      0.00000
     34      62.5631      0.00000
     35      63.0565      0.00000
     36      63.4250      0.00000
     37      63.4619      0.00000
     38      66.9900      0.00000
     39      68.4205      0.00000
     40      68.7708      0.00000

 k-point     3 :       0.1818    0.0000    0.0000
  band No.  band energies     occupation 
      1      -0.3213      2.00000
      2       3.1313      2.00000
      3       5.0300      2.00000
      4       5.0568      2.00000
      5       5.8280      2.00000
      6       6.4667      2.00000
      7       6.6806      2.00000
      8       6.6823      2.00000
      9       6.6965      2.00000
     10       7.0122      2.00007
     11       8.6067     -0.00000
     12      11.8408     -0.00000
     13      16.2900      0.00000
     14      26.2718      0.00000
     15      30.9310      0.00000
     16      31.5012      0.00000
     17      32.2814      0.00000
     18      33.9126      0.00000
     19      37.2231      0.00000
     20      39.2313      0.00000
     21      39.3572      0.00000
     22      39.8438      0.00000
     23      41.8820      0.00000
     24      43.5680      0.00000
     25      45.4613      0.00000
     26      46.4718      0.00000
     27      48.2663      0.00000
     28      50.6563      0.00000
     29      53.1113      0.00000
     30      55.2716      0.00000
     31      55.7688      0.00000
     32      58.6669      0.00000
     33      59.2554      0.00000
     34      60.7278      0.00000
     35      60.9932      0.00000
     36      62.3845      0.00000
     37      64.1984      0.00000
     38      67.8396      0.00000
     39      68.7217      0.00000
     40      70.0186      0.00000

 k-point     4 :       0.2727    0.0000    0.0000
  band No.  band energies     occupation 
      1       1.0279      2.00000
      2       3.4077      2.00000
      3       4.0680      2.00000
      4       4.9242      2.00000
      5       5.6778      2.00000
      6       6.3064      2.00000
      7       6.3471      2.00000
      8       7.2466      2.01596
      9       7.4801      1.99597
     10       7.7230      0.40332
     11       8.6714     -0.00000
     12      14.0480      0.00000
     13      16.4407      0.00000
     14      22.3214      0.00000
     15      28.4327      0.00000
     16      28.6753      0.00000
     17      30.0690      0.00000
     18      33.3109      0.00000
     19      35.6161      0.00000
     20      38.7995      0.00000
     21      39.6324      0.00000
     22      39.7670      0.00000
     23      40.1633      0.00000
     24      44.1302      0.00000
     25      48.8711      0.00000
     26      50.7684      0.00000
     27      51.7056      0.00000
     28      53.7708      0.00000
     29      55.1106      0.00000
     30      56.2621      0.00000
     31      57.5711      0.00000
     32      59.0312      0.00000
     33      60.1832      0.00000
     34      61.2270      0.00000
     35      61.2492      0.00000
     36      62.8032      0.00000
     37      64.3248      0.00000
     38      68.3091      0.00000
     39      68.4415      0.00000
     40      69.4212      0.00000

 k-point     5 :       0.3636    0.0000    0.0000
  band No.  band energies     occupation 
      1       2.2331      2.00000
      2       3.1491      2.00000
      3       3.4187      2.00000
      4       5.1626      2.00000
      5       5.9623      2.00000
      6       5.9957      2.00000
      7       6.0693      2.00000
      8       8.2835     -0.00006
      9       8.4468     -0.00000
     10       8.4915     -0.00000
     11       8.7015     -0.00000
     12      15.9996      0.00000
     13      16.3738      0.00000
     14      19.6949      0.00000
     15      25.4504      0.00000
     16      26.5195      0.00000
     17      27.5120      0.00000
     18      32.2551      0.00000
     19      34.3573      0.00000
     20      37.5952      0.00000
     21      38.4133      0.00000
     22      40.7785      0.00000
     23      42.3362      0.00000
     24      44.7108      0.00000
     25      52.5903      0.00000
     26      52.7585      0.00000
     27      52.9535      0.00000
     28      55.8700      0.00000
     29      56.4611      0.00000
     30      57.3981      0.00000
     31      59.5930      0.00000
     32      60.3014      0.00000
     33      60.5427      0.00000
     34      61.1478      0.00000
     35      62.7097      0.00000
     36      64.4678      0.00000
     37      67.7337      0.00000
     38      67.9726      0.00000
     39      68.1810      0.00000
     40      68.2842      0.00000

 k-point     6 :       0.4545    0.0000    0.0000
  band No.  band energies     occupation 
      1       2.6950      2.00000
      2       2.9390      2.00000
      3       3.0924      2.00000
      4       5.6817      2.00000
      5       5.7636      2.00000
      6       5.9162      2.00000
      7       6.2552      2.00000
      8       8.7116     -0.00000
      9       8.7787     -0.00000
     10       8.9405     -0.00000
     11      10.1956     -0.00000
     12      13.7738      0.00000
     13      18.5525      0.00000
     14      19.9154      0.00000
     15      22.8431      0.00000
     16      24.9604      0.00000
     17      25.4441      0.00000
     18      31.5813      0.00000
     19      33.9629      0.00000
     20      36.4543      0.00000
     21      38.2575      0.00000
     22      41.5071      0.00000
     23      44.4580      0.00000
     24      45.1857      0.00000
     25      49.4090      0.00000
     26      53.9581      0.00000
     27      54.8524      0.00000
     28      58.0186      0.00000
     29      59.0367      0.00000
     30      59.5692      0.00000
     31      60.5091      0.00000
     32      61.4141      0.00000
     33      61.4862      0.00000
     34      63.6339      0.00000
     35      63.8944      0.00000
     36      65.3202      0.00000
     37      66.6162      0.00000
     38      66.8651      0.00000
     39      67.7816      0.00000
     40      68.2030      0.00000

 k-point     7 :       0.0909    0.0909    0.0000
  band No.  band energies     occupation 
      1      -0.6269      2.00000
      2       2.9874      2.00000
      3       5.1215      2.00000
      4       5.3594      2.00000
      5       6.0011      2.00000
      6       6.1691      2.00000
      7       6.5284      2.00000
      8       6.5642      2.00000
      9       6.9018      2.00000
     10       6.9921      2.00004
     11       8.5569     -0.00000
     12      11.2875     -0.00000
     13      16.2626      0.00000
     14      27.9394      0.00000
     15      29.3637      0.00000
     16      33.5177      0.00000
     17      33.7732      0.00000
     18      34.8625      0.00000
     19      35.3984      0.00000
     20      38.0304      0.00000
     21      39.6456      0.00000
     22      42.5987      0.00000
     23      43.1394      0.00000
     24      43.8002      0.00000
     25      44.7234      0.00000
     26      44.7397      0.00000
     27      45.0002      0.00000
     28      50.9600      0.00000
     29      53.5273      0.00000
     30      53.9554      0.00000
     31      53.9778      0.00000
     32      57.8888      0.00000
     33      59.6313      0.00000
     34      61.5642      0.00000
     35      61.7520      0.00000
     36      62.3692      0.00000
     37      63.4549      0.00000
     38      68.0176      0.00000
     39      68.5961      0.00000
     40      69.8867      0.00000

 k-point     8 :       0.1818    0.0909    0.0000
  band No.  band energies     occupation 
      1       0.5504      2.00000
      2       3.5185      2.00000
      3       4.4192      2.00000
      4       4.7315      2.00000
      5       5.7514      2.00000
      6       6.1453      2.00000
      7       6.6232      2.00000
      8       6.7439      2.00000
      9       7.2638      2.02087
     10       7.6423      1.03710
     11       8.5908     -0.00000
     12      13.2733      0.00000
     13      16.4274      0.00000
     14      24.3171      0.00000
     15      26.9238      0.00000
     16      30.4093      0.00000
     17      32.7884      0.00000
     18      32.8927      0.00000
     19      36.1263      0.00000
     20      37.7848      0.00000
     21      37.9810      0.00000
     22      42.6567      0.00000
     23      42.9177      0.00000
     24      43.3098      0.00000
     25      46.4804      0.00000
     26      47.4593      0.00000
     27      49.0661      0.00000
     28      54.0840      0.00000
     29      55.6652      0.00000
     30      56.7149      0.00000
     31      57.1712      0.00000
     32      59.1477      0.00000
     33      59.7353      0.00000
     34      60.3578      0.00000
     35      61.2294      0.00000
     36      61.4179      0.00000
     37      63.8509      0.00000
     38      68.3015      0.00000
     39      68.4542      0.00000
     40      69.6236      0.00000

 k-point     9 :       0.2727    0.0909    0.0000
  band No.  band energies     occupation 
      1       1.9155      2.00000
      2       3.4728      2.00000
      3       3.6997      2.00000
      4       4.7740      2.00000
      5       5.8269      2.00000
      6       5.8336      2.00000
      7       6.3669      2.00000
      8       7.3816      2.06821
      9       8.0820     -0.00867
     10       8.6126     -0.00000
     11       8.6147     -0.00000
     12      15.5066      0.00000
     13      16.6121      0.00000
     14      20.7332      0.00000
     15      25.1632      0.00000
     16      27.1421      0.00000
     17      29.7885      0.00000
     18      31.4998      0.00000
     19      35.5879      0.00000
     20      36.6224      0.00000
     21      38.9492      0.00000
     22      42.6332      0.00000
     23      42.6724      0.00000
     24      44.8872      0.00000
     25      48.5816      0.00000
     26      51.2931      0.00000
     27      53.3137      0.00000
     28      54.5779      0.00000
     29      54.7542      0.00000
     30      57.9580      0.00000
     31      59.2162      0.00000
     32      60.0669      0.00000
     33      60.8394      0.00000
     34      60.8429      0.00000
     35      62.3626      0.00000
     36      63.9209      0.00000
     37      65.8982      0.00000
     38      67.6510      0.00000
     39      67.9557      0.00000
     40      69.8601      0.00000

 k-point    10 :       0.3636    0.0909    0.0000
  band No.  band energies     occupation 
      1       2.7737      2.00000
      2       3.1702      2.00000
      3       3.2577      2.00000
      4       5.2045      2.00000
      5       5.6893      2.00000
      6       6.0039      2.00000
      7       6.1703      2.00000
      8       8.2742     -0.00008
      9       8.6179     -0.00000
     10       8.6673     -0.00000
     11       9.8720     -0.00000
     12      15.2694      0.00000
     13      17.8293      0.00000
     14      19.6644      0.00000
     15      23.8118      0.00000
     16      24.1858      0.00000
     17      26.6441      0.00000
     18      30.5506      0.00000
     19      34.6134      0.00000
     20      36.0175      0.00000
     21      39.5427      0.00000
     22      43.0640      0.00000
     23      44.2915      0.00000
     24      45.1208      0.00000
     25      51.3178      0.00000
     26      51.3874      0.00000
     27      54.0717      0.00000
     28      55.2976      0.00000
     29      57.0991      0.00000
     30      59.1629      0.00000
     31      59.2750      0.00000
     32      60.7220      0.00000
     33      61.5986      0.00000
     34      63.5845      0.00000
     35      64.3417      0.00000
     36      65.5141      0.00000
     37      65.6255      0.00000
     38      67.7947      0.00000
     39      68.9920      0.00000
     40      68.9951      0.00000

 k-point    11 :       0.4545    0.0909    0.0000
  band No.  band energies     occupation 
      1       2.8983      2.00000
      2       3.1045      2.00000
      3       3.1095      2.00000
      4       5.5564      2.00000
      5       5.7154      2.00000
      6       5.7949      2.00000
      7       6.3092      2.00000
      8       8.6185     -0.00000
      9       8.7718     -0.00000
     10       8.7798     -0.00000
     11      11.1360     -0.00000
     12      13.4159      0.00000
     13      19.3976      0.00000
     14      20.3545      0.00000
     15      22.4143      0.00000
     16      23.1057      0.00000
     17      25.1123      0.00000
     18      30.2308      0.00000
     19      34.2061      0.00000
[...]
     17      27.7304      0.00000
     18      29.1811      0.00000
     19      34.0233      0.00000
     20      34.6590      0.00000
     21      38.4750      0.00000
     22      39.3298      0.00000
     23      43.9564      0.00000
     24      45.1715      0.00000
     25      51.0558      0.00000
     26      52.8449      0.00000
     27      54.4663      0.00000
     28      55.1902      0.00000
     29      58.9328      0.00000
     30      60.0037      0.00000
     31      60.9254      0.00000
     32      61.6018      0.00000
     33      63.7329      0.00000
     34      63.9506      0.00000
     35      64.0977      0.00000
     36      64.6064      0.00000
     37      66.3824      0.00000
     38      67.6941      0.00000
     39      68.8507      0.00000
     40      69.3792      0.00000

 k-point    91 :       0.4545    0.0909    0.4545
  band No.  band energies     occupation 
      1       2.5541      2.00000
      2       2.7233      2.00000
      3       4.0848      2.00000
      4       4.2300      2.00000
      5       6.4231      2.00000
      6       6.8912      2.00000
      7       7.5786      1.54085
      8       7.8955     -0.07080
      9       8.6762     -0.00000
     10       8.6979     -0.00000
     11      11.0412     -0.00000
     12      11.5818     -0.00000
     13      17.8362      0.00000
     14      17.8636      0.00000
     15      25.9974      0.00000
     16      26.8396      0.00000
     17      28.6459      0.00000
     18      29.1993      0.00000
     19      33.9028      0.00000
     20      33.9746      0.00000
     21      37.7934      0.00000
     22      38.1671      0.00000
     23      44.1174      0.00000
     24      45.3646      0.00000
     25      51.3088      0.00000
     26      53.1951      0.00000
     27      57.5954      0.00000
     28      58.2062      0.00000
     29      58.4325      0.00000
     30      59.0307      0.00000
     31      60.6151      0.00000
     32      61.3494      0.00000
     33      64.6676      0.00000
     34      64.7899      0.00000
     35      65.1195      0.00000
     36      66.0281      0.00000
     37      67.0228      0.00000
     38      67.4433      0.00000
     39      69.1759      0.00000
     40      69.4429      0.00000

 k-point    92 :       0.1818    0.1818    0.4545
  band No.  band energies     occupation 
      1       2.6780      2.00000
      2       2.9675      2.00000
      3       4.6393      2.00000
      4       4.7163      2.00000
      5       5.2145      2.00000
      6       5.2952      2.00000
      7       6.7794      2.00000
      8       7.0547      2.00023
      9       8.4851     -0.00000
     10       8.5706     -0.00000
     11       9.1220     -0.00000
     12       9.7523     -0.00000
     13      23.9321      0.00000
     14      24.4059      0.00000
     15      24.7267      0.00000
     16      25.8054      0.00000
     17      26.5152      0.00000
     18      28.2101      0.00000
     19      38.0802      0.00000
     20      39.1288      0.00000
     21      39.6058      0.00000
     22      40.6961      0.00000
     23      42.8955      0.00000
     24      42.9630      0.00000
     25      49.1722      0.00000
     26      49.6714      0.00000
     27      53.7326      0.00000
     28      53.9127      0.00000
     29      56.2330      0.00000
     30      57.7205      0.00000
     31      58.7800      0.00000
     32      59.2653      0.00000
     33      60.8601      0.00000
     34      60.9839      0.00000
     35      63.0701      0.00000
     36      63.0981      0.00000
     37      66.1459      0.00000
     38      67.3993      0.00000
     39      68.3269      0.00000
     40      68.4335      0.00000

 k-point    93 :       0.2727    0.1818    0.4545
  band No.  band energies     occupation 
      1       3.0037      2.00000
      2       3.1246      2.00000
      3       4.4656      2.00000
      4       4.7051      2.00000
      5       5.4738      2.00000
      6       5.6616      2.00000
      7       6.7554      2.00000
      8       7.0214      2.00009
      9       8.5968     -0.00000
     10       8.8418     -0.00000
     11      10.6277     -0.00000
     12      11.2232     -0.00000
     13      20.7613      0.00000
     14      21.3878      0.00000
     15      23.5682      0.00000
     16      24.3542      0.00000
     17      27.4544      0.00000
     18      29.3433      0.00000
     19      36.1029      0.00000
     20      37.5890      0.00000
     21      38.9777      0.00000
     22      40.3825      0.00000
     23      43.0477      0.00000
     24      43.5784      0.00000
     25      50.3564      0.00000
     26      50.8988      0.00000
     27      55.0306      0.00000
     28      56.6879      0.00000
     29      58.8104      0.00000
     30      60.2510      0.00000
     31      60.8861      0.00000
     32      61.2496      0.00000
     33      62.1621      0.00000
     34      62.3231      0.00000
     35      62.9839      0.00000
     36      63.1428      0.00000
     37      66.7394      0.00000
     38      67.9976      0.00000
     39      68.3479      0.00000
     40      69.1995      0.00000

 k-point    94 :       0.3636    0.1818    0.4545
  band No.  band energies     occupation 
      1       3.0215      2.00000
      2       3.1920      2.00000
      3       4.3379      2.00000
      4       4.5782      2.00000
      5       5.5843      2.00000
      6       5.9608      2.00000
      7       7.1243      2.00138
      8       7.2666      2.02176
      9       8.5494     -0.00000
     10       8.7266     -0.00000
     11      12.3495     -0.00000
     12      12.8191     -0.00000
     13      18.2140      0.00000
     14      18.6114      0.00000
     15      22.9187      0.00000
     16      23.7181      0.00000
     17      29.0504      0.00000
     18      30.2521      0.00000
     19      34.6936      0.00000
     20      35.7908      0.00000
     21      37.8036      0.00000
     22      39.3229      0.00000
     23      43.9926      0.00000
     24      44.3571      0.00000
     25      53.4088      0.00000
     26      54.0202      0.00000
     27      55.3212      0.00000
     28      57.0219      0.00000
     29      58.0400      0.00000
     30      58.5822      0.00000
     31      60.8648      0.00000
     32      61.8567      0.00000
     33      63.4070      0.00000
     34      63.8459      0.00000
     35      65.1253      0.00000
     36      65.7357      0.00000
     37      67.0991      0.00000
     38      67.2345      0.00000
     39      67.9987      0.00000
     40      69.3678      0.00000

 k-point    95 :       0.2727    0.2727    0.4545
  band No.  band energies     occupation 
      1       3.4376      2.00000
      2       3.4934      2.00000
      3       4.5233      2.00000
      4       4.7649      2.00000
      5       5.1651      2.00000
      6       5.4064      2.00000
      7       6.7214      2.00000
      8       6.9464      2.00001
      9       8.5631     -0.00000
     10       8.7539     -0.00000
     11      12.8080     -0.00000
     12      13.3758      0.00000
     13      19.1690      0.00000
     14      19.6381      0.00000
     15      21.1874      0.00000
     16      21.6165      0.00000
     17      29.2321      0.00000
     18      30.9810      0.00000
     19      34.7330      0.00000
     20      36.2795      0.00000
     21      37.6788      0.00000
     22      38.9095      0.00000
     23      45.7410      0.00000
     24      46.1609      0.00000
     25      50.5464      0.00000
     26      50.6626      0.00000
     27      57.5552      0.00000
     28      58.1907      0.00000
     29      58.6473      0.00000
     30      59.8882      0.00000
     31      61.5332      0.00000
     32      61.6909      0.00000
     33      61.8820      0.00000
     34      62.1685      0.00000
     35      65.2873      0.00000
     36      65.5224      0.00000
     37      66.1303      0.00000
     38      66.4986      0.00000
     39      67.4698      0.00000
     40      69.1331      0.00000

 k-point    96 :       0.3636    0.2727    0.4545
  band No.  band energies     occupation 
      1       3.6435      2.00000
      2       3.7880      2.00000
      3       4.4150      2.00000
      4       4.4906      2.00000
      5       5.2206      2.00000
      6       5.3386      2.00000
      7       6.8089      2.00000
      8       6.9819      2.00003
      9       8.5260     -0.00000
     10       8.5973     -0.00000
     11      14.6488      0.00000
     12      14.7822      0.00000
     13      17.5150      0.00000
     14      17.8984      0.00000
     15      20.5471      0.00000
     16      21.0024      0.00000
     17      30.8668      0.00000
     18      31.7818      0.00000
     19      33.9799      0.00000
     20      34.2361      0.00000
     21      37.4780      0.00000
     22      38.3682      0.00000
     23      47.0406      0.00000
     24      47.7230      0.00000
     25      51.6909      0.00000
     26      52.0837      0.00000
     27      54.9291      0.00000
     28      55.2802      0.00000
     29      59.4395      0.00000
     30      60.9976      0.00000
     31      61.7621      0.00000
     32      62.1933      0.00000
     33      63.0456      0.00000
     34      63.2644      0.00000
     35      63.4358      0.00000
     36      64.8774      0.00000
     37      66.8388      0.00000
     38      68.9769      0.00000
     39      69.1087      0.00000
     40      69.5168      0.00000


--------------------------------------------------------------------------------------------------------


 soft charge-density along one line, spin component           1
         0         1         2         3         4         5         6         7         8         9
x     7.7900    0.0000    0.1000   -0.1732   -0.0592   -0.1025    0.0186   -0.0000    0.0015   -0.0026
x     0.0000    0.0000
y     7.7900    0.0000    0.1000    0.1732   -0.0592    0.1025    0.0186    0.0000    0.0015    0.0026
y     0.0000    0.0000
z     7.7900    0.0000    0.0000   -0.0000    0.3072    0.0000    0.0000    0.0000   -0.1497    0.0000
z     0.0000   -0.0000    0.0222   -0.0000    0.0000    0.0000    0.0000    0.0000
 total charge-density along one line
x    16.0000    0.0000    1.4774   -2.5589    0.2966    0.5137    0.0263    0.0000    0.0010   -0.0018
x     0.0001    0.0002   -0.0003    0.0000    0.0000   -0.0001   -0.0000   -0.0000    0.0001   -0.0000
x    -0.0000    0.0000
y    16.0000    0.0000    1.4774    2.5589    0.2966   -0.5137    0.0263   -0.0000    0.0010    0.0018
y     0.0001   -0.0002   -0.0003   -0.0000    0.0000    0.0001   -0.0000    0.0000    0.0001    0.0000
y    -0.0000   -0.0000
z    16.0000    0.0000   -0.0000    0.0000    5.7068    0.0000    0.0000    0.0000    1.1302    0.0000
z    -0.0000    0.0000    0.0130   -0.0000   -0.0000   -0.0000    0.0033    0.0000    0.0000   -0.0000
z    -0.0010   -0.0000    0.0000    0.0000    0.0005   -0.0000    0.0000   -0.0000   -0.0003    0.0000
z    -0.0000   -0.0000    0.0003    0.0000
 
 pseudopotential strength for first ion, spin component:           1
 -3.992  -0.000  -0.000   0.000  -0.000  -4.568  -0.000  -0.000
 -0.000  -3.990   0.000  -0.000  -0.000  -0.000  -4.566   0.000
 -0.000   0.000  -3.999  -0.000  -0.000  -0.000   0.000  -4.575
  0.000  -0.000  -0.000  -3.990  -0.000   0.000  -0.000  -0.000
 -0.000  -0.000  -0.000  -0.000  -3.992  -0.000  -0.000  -0.000
 -4.568  -0.000  -0.000   0.000  -0.000  -5.101  -0.000  -0.000
 -0.000  -4.566   0.000  -0.000  -0.000  -0.000  -5.099   0.000
 -0.000   0.000  -4.575  -0.000  -0.000  -0.000   0.000  -5.108
  0.000  -0.000  -0.000  -4.566  -0.000   0.000  -0.000  -0.000
 -0.000  -0.000  -0.000  -0.000  -4.568  -0.000  -0.000  -0.000
  0.000  -0.000   0.001   0.000  -0.000   0.000  -0.000   0.001
  0.000  -0.000   0.003   0.000  -0.000   0.000  -0.000   0.002
 -0.000   0.000   0.000   0.000  -0.001  -0.000   0.000   0.000
  0.000  -0.000   0.000  -0.000  -0.000   0.000  -0.000   0.000
 -0.001   0.000   0.000   0.000  -0.000  -0.001   0.000   0.000
 -0.000   0.000   0.000   0.000  -0.001  -0.000   0.000   0.000
  0.000  -0.000   0.000  -0.000  -0.000   0.000  -0.000   0.000
 -0.001   0.000   0.000   0.000  -0.000  -0.001   0.000   0.000
 total augmentation occupancy for first ion, spin component:           1
  1.734   0.000   0.000   0.000   0.000  -1.162   0.000  -0.000   0.000  -0.000   0.000  -0.000   0.000  -0.000   0.038  -0.000
  0.000   2.031   0.000  -0.000   0.000   0.000  -1.309  -0.000   0.000   0.000   0.000  -0.000   0.000  -0.000  -0.000   0.000
  0.000   0.000   1.437   0.000  -0.000  -0.000   0.000  -0.956  -0.000   0.000  -0.007  -0.005  -0.000   0.000   0.000   0.000
  0.000  -0.000   0.000   2.031  -0.000   0.000   0.000   0.000  -1.309   0.000   0.000   0.000   0.000  -0.000   0.000   0.000
  0.000   0.000  -0.000  -0.000   1.734  -0.000   0.000   0.000   0.000  -1.162   0.000  -0.000   0.038   0.000  -0.000  -0.002
 -1.162   0.000  -0.000   0.000  -0.000   1.959   0.000   0.000   0.000  -0.000   0.000   0.000  -0.000  -0.000  -0.056   0.000
  0.000  -1.309  -0.000   0.000  -0.000  -0.000   1.935  -0.000  -0.000   0.000  -0.000   0.000   0.000   0.000   0.000  -0.000
 -0.000   0.000  -0.956  -0.000   0.000   0.000   0.000   1.832   0.000  -0.000  -0.034   0.004   0.000   0.000  -0.000  -0.000
  0.000   0.000   0.000  -1.309  -0.000   0.000  -0.000  -0.000   1.935   0.000  -0.000   0.000   0.000   0.000   0.000   0.000
 -0.000  -0.000   0.000  -0.000  -1.162   0.000   0.000  -0.000  -0.000   1.959   0.000  -0.000  -0.056  -0.000   0.000   0.003
 -0.000   0.000  -0.007   0.000   0.000   0.000   0.000  -0.034   0.000   0.000   2.872  -0.339   0.000   0.000   0.000   0.000
 -0.000  -0.000  -0.005   0.000   0.000   0.000  -0.000   0.004   0.000   0.000  -0.339   0.045  -0.000   0.000   0.000  -0.000
  0.000  -0.000  -0.000   0.000   0.038  -0.000  -0.000   0.000  -0.000  -0.056   0.000   0.000   0.384  -0.000  -0.000  -0.031
  0.000  -0.000   0.000  -0.000   0.000   0.000   0.000   0.000   0.000  -0.000   0.000   0.000  -0.000   0.377  -0.000   0.000
  0.038  -0.000   0.000   0.000  -0.000  -0.056  -0.000  -0.000   0.000   0.000  -0.000   0.000  -0.000   0.000   0.384   0.000
 -0.000   0.000   0.000   0.000  -0.002   0.000  -0.000  -0.000   0.000   0.003   0.000   0.000  -0.031  -0.000   0.000   0.003
  0.000   0.000   0.000   0.000   0.000   0.000   0.000   0.000   0.000   0.000   0.000   0.000   0.000  -0.032   0.000  -0.000
 -0.002   0.000  -0.000  -0.000   0.000   0.003   0.000   0.000   0.000  -0.000  -0.000   0.000   0.000   0.000  -0.031  -0.000


------------------------ aborting loop because EDIFF is reached ----------------------------------------


    CHARGE:  cpu time    0.0178: real time    0.0178
    FORLOC:  cpu time    0.0002: real time    0.0002
    FORNL :  cpu time    0.0907: real time    0.0908
    STRESS:  cpu time    0.1401: real time    0.1401
    FORCOR:  cpu time    0.0030: real time    0.0030
    FORHAR:  cpu time    0.0006: real time    0.0006
    MIXING:  cpu time    0.0002: real time    0.0002

  FORCE on cell =-STRESS in cart. coord.  units (eV):
  Direction    XX          YY          ZZ          XY          YZ          ZX
  --------------------------------------------------------------------------------------
  Alpha Z   144.99831   144.99831   144.99831
  Ewald    -412.32430  -412.32430  -430.46196     0.00000    -0.00000    -0.00000
  Hartree    56.53040    56.53040    50.01077    -0.00000    -0.00000    -0.00000
  E(xc)     -79.24143   -79.24147   -79.10648     0.00023     0.00000    -0.00000
  Local     117.44960   117.44982   141.11718    -0.00087    -0.00000    -0.00000
  n-local   -51.41845   -50.99189   -52.61869    -3.96666     1.56638     1.10232
  augment    75.54813    75.54758    75.56390     0.00109    -0.00000     0.00000
  Kinetic   155.06550   149.10301   150.14292     0.86668    -1.09508     0.04829
  Fock        0.00000     0.00000     0.00000     0.00000     0.00000     0.00000
  -------------------------------------------------------------------------------------
  Total       3.83961     3.83961    -0.35406    -0.00000     0.00000     0.00000
  in kB     322.65359   322.65359   -29.75258    -0.00000     0.00000     0.00000
  external pressure =      205.18 kB  Pullay stress =        0.00 kB


 VOLUME and BASIS-vectors are now :
 -----------------------------------------------------------------------------
  energy-cutoff  :      280.00
  volume of cell :       19.07
      direct lattice vectors                 reciprocal lattice vectors
     2.353300000  0.000000000  0.000000000     0.424935197  0.245336451  0.000000000
    -1.176650000  2.038017583  0.000000000     0.000000000  0.490672901  0.000000000
     0.000000000  0.000000000  3.975360000     0.000000000  0.000000000  0.251549545

  length of vectors
     2.353300000  2.353300000  3.975360000     0.490672901  0.490672901  0.251549545


 FORCES acting on ions
    electron-ion (+dipol)            ewald-force                    non-local-force                 convergence-correction
 -----------------------------------------------------------------------------------------------
   -.145E-06 -.114E-05 0.498E-14   0.725E-12 -.481E-12 -.265E-13   0.210E-16 0.356E-18 0.536E-20   -.119E-07 0.675E-08 -.385E-13
   -.606E-05 0.102E-04 0.702E-13   -.732E-12 0.481E-12 0.264E-13   -.191E-16 -.299E-19 0.750E-20   0.121E-07 -.688E-08 0.213E-13
 -----------------------------------------------------------------------------------------------
   -.621E-05 0.904E-05 0.752E-13   -.639E-14 0.545E-16 -.212E-16   0.196E-17 0.326E-18 0.129E-19   0.204E-09 -.131E-09 -.172E-13
 
 
 POSITION                                       TOTAL-FORCE (eV/Angst)
 -----------------------------------------------------------------------------------
      0.00000      0.00000      0.00000         0.000000     -0.000000     -0.000000
      0.00000      1.35868      1.98768        -0.000000      0.000000      0.000000
 -----------------------------------------------------------------------------------
    total drift:                               -0.000006      0.000009      0.000000


--------------------------------------------------------------------------------------------------------



  FREE ENERGIE OF THE ION-ELECTRON SYSTEM (eV)
  ---------------------------------------------------
  free  energy   TOTEN  =       -16.14816062 eV

  energy  without entropy=      -16.14827759  energy(sigma->0) =      -16.14819961
 


--------------------------------------------------------------------------------------------------------


    POTLOK:  cpu time    0.0050: real time    0.0050


--------------------------------------------------------------------------------------------------------


 writing wavefunctions
     LOOP+:  cpu time    9.0729: real time    9.0927
    4ORBIT:  cpu time    0.0000: real time    0.0000

 total amount of memory used by VASP MPI-rank0    49152. kBytes
=======================================================================

   base      :      30000. kBytes
   nonl-proj :       2979. kBytes
   grid      :        721. kBytes
   one-center:         31. kBytes
   wavefun   :      15421. kBytes
 
  
  
 General timing and accounting informations for this job:
 ========================================================
  
                  Total CPU time used (sec):        9.231
                            User time (sec):        9.171
                          System time (sec):        0.060
                         Elapsed time (sec):        9.243
  
                   Maximum memory used (kb):       54572.
                   Average memory used (kb):          N/A
  
                          Minor page faults:         7092
                          Major page faults:            0
                 Voluntary context switches:           26
