<?xml version="1.0" encoding="ISO-8859-1"?>
<modeling>
 <generator>
  <i name="program" type="string">vasp </i>
  <i name="version" type="string">6.2.0  </i>
  <i name="subversion" type="string">18Jan21 (build Mar 17 2021 09:06:54) complex                          serial </i>
  <i name="platform" type="string">LinuxIFC </i>
  <i name="date" type="string">2021 09 09 </i>
  <i name="time" type="string">12:05:15 </i>
 </generator>
 <incar>
  <i type="string" name="PREC">normal</i>
  <i type="int" name="ICHARG">     1</i>
  <i type="int" name="IBRION">     1</i>
  <i name="EDIFF">      0.00000100</i>
  <i type="int" name="NSW">     0</i>
  <i type="int" name="ISIF">     2</i>
  <i name="ENCUT">    280.00000000</i>
  <i type="int" name="NBANDS">    40</i>
  <i type="int" name="ISMEAR">     1</i>
  <i name="SIGMA">      0.20000000</i>
  <i type="logical" name="LCHARG"> T  </i>
  <i type="int" name="KPAR">     1</i>
  <i type="int" name="NCORE">     1</i>
  <i type="string" name="GGA">PE</i>
 </incar>
 <primitive_cell>
  <structure name="primitive_cell" >
   <crystal>
    <varray name="basis" >
     <v>       2.35330000       0.00000000       0.00000000 </v>
     <v>      -1.17665000       2.03801758       0.00000000 </v>
     <v>       0.00000000       0.00000000       3.97536000 </v>
    </varray>
    <i name="volume">     19.06609202 </i>
    <varray name="rec_basis" >
     <v>       0.42493520       0.24533645       0.00000000 </v>
     <v>       0.00000000       0.49067290       0.00000000 </v>
     <v>       0.00000000       0.00000000       0.25154955 </v>
    </varray>
   </crystal>
   <varray name="positions" >
    <v>       0.00000000       0.00000000       0.00000000 </v>
    <v>       0.33333333       0.66666667       0.50000000 </v>
   </varray>
  </structure>
  <varray name="primitive_index" >
   <v type="int" >        1 </v>
   <v type="int" >        2 </v>
  </varray>
 </primitive_cell>
 <kpoints>
  <generation param="Monkhorst-Pack">
   <v type="int" name="divisions">      11       11       11 </v>
   <v name="usershift">      0.00000000       0.00000000       0.00000000 </v>
   <v name="genvec1">      0.09090909      -0.00000000       0.00000000 </v>
   <v name="genvec2">      0.00000000       0.09090909       0.00000000 </v>
   <v name="genvec3">      0.00000000       0.00000000       0.09090909 </v>
   <v name="shift">      0.00000000       0.00000000       0.00000000 </v>
  </generation>
  <varray name="kpointlist" >
   <v>       0.00000000       0.00000000       0.00000000 </v>
   <v>       0.09090909       0.00000000       0.00000000 </v>
   <v>       0.18181818       0.00000000       0.00000000 </v>
   <v>       0.27272727       0.00000000       0.00000000 </v>
   <v>       0.36363636       0.00000000       0.00000000 </v>
   <v>       0.45454545       0.00000000       0.00000000 </v>
   <v>       0.09090909       0.09090909       0.00000000 </v>
   <v>       0.18181818       0.09090909       0.00000000 </v>
   <v>       0.27272727       0.09090909       0.00000000 </v>
   <v>       0.36363636       0.09090909       0.00000000 </v>
   <v>       0.45454545       0.09090909       0.00000000 </v>
   <v>       0.18181818       0.18181818       0.00000000 </v>
   <v>       0.27272727       0.18181818       0.00000000 </v>
   <v>       0.36363636       0.18181818       0.00000000 </v>
   <v>       0.27272727       0.27272727       0.00000000 </v>
   <v>       0.36363636       0.27272727       0.00000000 </v>
   <v>       0.00000000       0.00000000       0.09090909 </v>
   <v>       0.09090909       0.00000000       0.09090909 </v>
   <v>       0.18181818       0.00000000       0.09090909 </v>
   <v>       0.27272727       0.00000000       0.09090909 </v>
   <v>       0.36363636       0.00000000       0.09090909 </v>
   <v>       0.45454545       0.00000000       0.09090909 </v>
   <v>       0.09090909       0.09090909       0.09090909 </v>
   <v>       0.18181818       0.09090909       0.09090909 </v>
   <v>       0.27272727       0.09090909       0.09090909 </v>
   <v>       0.36363636       0.09090909       0.09090909 </v>
   <v>       0.45454545       0.09090909       0.09090909 </v>
   <v>       0.18181818       0.18181818       0.09090909 </v>
   <v>       0.27272727       0.18181818       0.09090909 </v>
   <v>       0.36363636       0.18181818       0.09090909 </v>
   <v>       0.27272727       0.27272727       0.09090909 </v>
   <v>       0.36363636       0.27272727       0.09090909 </v>
   <v>       0.00000000       0.00000000       0.18181818 </v>
   <v>       0.09090909       0.00000000       0.18181818 </v>
   <v>       0.18181818       0.00000000       0.18181818 </v>
   <v>       0.27272727       0.00000000       0.18181818 </v>
   <v>       0.36363636       0.00000000       0.18181818 </v>
   <v>       0.45454545       0.00000000       0.18181818 </v>
   <v>       0.09090909       0.09090909       0.18181818 </v>
   <v>       0.18181818       0.09090909       0.18181818 </v>
   <v>       0.27272727       0.09090909       0.18181818 </v>
   <v>       0.36363636       0.09090909       0.18181818 </v>
   <v>       0.45454545       0.09090909       0.18181818 </v>
   <v>       0.18181818       0.18181818       0.18181818 </v>
   <v>       0.27272727       0.18181818       0.18181818 </v>
   <v>       0.36363636       0.18181818       0.18181818 </v>
   <v>       0.27272727       0.27272727       0.18181818 </v>
   <v>       0.36363636       0.27272727       0.18181818 </v>
   <v>       0.00000000       0.00000000       0.27272727 </v>
   <v>       0.09090909       0.00000000       0.27272727 </v>
   <v>       0.18181818       0.00000000       0.27272727 </v>
   <v>       0.27272727       0.00000000       0.27272727 </v>
   <v>       0.36363636       0.00000000       0.27272727 </v>
   <v>       0.45454545       0.00000000       0.27272727 </v>
   <v>       0.09090909       0.09090909       0.27272727 </v>
   <v>       0.18181818       0.09090909       0.27272727 </v>
   <v>       0.27272727       0.09090909       0.27272727 </v>
   <v>       0.36363636       0.09090909       0.27272727 </v>
   <v>       0.45454545       0.09090909       0.27272727 </v>
   <v>       0.18181818       0.18181818       0.27272727 </v>
   <v>       0.27272727       0.18181818       0.27272727 </v>
   <v>       0.36363636       0.18181818       0.27272727 </v>
   <v>       0.27272727       0.27272727       0.27272727 </v>
   <v>       0.36363636       0.27272727       0.27272727 </v>
   <v>       0.00000000       0.00000000       0.36363636 </v>
   <v>       0.09090909       0.00000000       0.36363636 </v>
   <v>       0.18181818       0.00000000       0.36363636 </v>
   <v>       0.27272727       0.00000000       0.36363636 </v>
   <v>       0.36363636       0.00000000       0.36363636 </v>
   <v>       0.45454545       0.00000000       0.36363636 </v>
   <v>       0.09090909       0.09090909       0.36363636 </v>
   <v>       0.18181818       0.09090909       0.36363636 </v>
   <v>       0.27272727       0.09090909       0.36363636 </v>
   <v>       0.36363636       0.09090909       0.36363636 </v>
   <v>       0.45454545       0.09090909       0.36363636 </v>
   <v>       0.18181818       0.18181818       0.36363636 </v>
   <v>       0.27272727       0.18181818       0.36363636 </v>
   <v>       0.36363636       0.18181818       0.36363636 </v>
   <v>       0.27272727       0.27272727       0.36363636 </v>
   <v>       0.36363636       0.27272727       0.36363636 </v>
   <v>       0.00000000       0.00000000       0.45454545 </v>
   <v>       0.09090909       0.00000000       0.45454545 </v>
   <v>       0.18181818       0.00000000       0.45454545 </v>
   <v>       0.27272727       0.00000000       0.45454545 </v>
   <v>       0.36363636       0.00000000       0.45454545 </v>
   <v>       0.45454545       0.00000000       0.45454545 </v>
   <v>       0.09090909       0.09090909       0.45454545 </v>
   <v>       0.18181818       0.09090909       0.45454545 </v>
   <v>       0.27272727       0.09090909       0.45454545 </v>
   <v>       0.36363636       0.09090909       0.45454545 </v>
   <v>       0.45454545       0.09090909       0.45454545 </v>
   <v>       0.18181818       0.18181818       0.45454545 </v>
   <v>       0.27272727       0.18181818       0.45454545 </v>
   <v>       0.36363636       0.18181818       0.45454545 </v>
   <v>       0.27272727       0.27272727       0.45454545 </v>
   <v>       0.36363636       0.27272727       0.45454545 </v>
  </varray>
  <varray name="weights" >
   <v>       0.00075131 </v>
   <v>       0.00450789 </v>
   <v>       0.00450789 </v>
   <v>       0.00450789 </v>
   <v>       0.00450789 </v>
   <v>       0.00450789 </v>
   <v>       0.00450789 </v>
   <v>       0.00901578 </v>
   <v>       0.00901578 </v>
   <v>       0.00901578 </v>
   <v>       0.00450789 </v>
   <v>       0.00450789 </v>
   <v>       0.00901578 </v>
   <v>       0.00901578 </v>
   <v>       0.00450789 </v>
   <v>       0.00450789 </v>
   <v>       0.00150263 </v>
   <v>       0.00901578 </v>
   <v>       0.00901578 </v>
   <v>       0.00901578 </v>
   <v>       0.00901578 </v>
   <v>       0.00901578 </v>
   <v>       0.00901578 </v>
   <v>       0.01803156 </v>
   <v>       0.01803156 </v>
   <v>       0.01803156 </v>
   <v>       0.00901578 </v>
   <v>       0.00901578 </v>
   <v>       0.01803156 </v>
   <v>       0.01803156 </v>
   <v>       0.00901578 </v>
   <v>       0.00901578 </v>
   <v>       0.00150263 </v>
   <v>       0.00901578 </v>
   <v>       0.00901578 </v>
   <v>       0.00901578 </v>
   <v>       0.00901578 </v>
   <v>       0.00901578 </v>
   <v>       0.00901578 </v>
   <v>       0.01803156 </v>
   <v>       0.01803156 </v>
   <v>       0.01803156 </v>
   <v>       0.00901578 </v>
   <v>       0.00901578 </v>
   <v>       0.01803156 </v>
   <v>       0.01803156 </v>
   <v>       0.00901578 </v>
   <v>       0.00901578 </v>
   <v>       0.00150263 </v>
   <v>       0.00901578 </v>
   <v>       0.00901578 </v>
   <v>       0.00901578 </v>
   <v>       0.00901578 </v>
   <v>       0.00901578 </v>
   <v>       0.00901578 </v>
   <v>       0.01803156 </v>
   <v>       0.01803156 </v>
   <v>       0.01803156 </v>
   <v>       0.00901578 </v>
   <v>       0.00901578 </v>
   <v>       0.01803156 </v>
   <v>       0.01803156 </v>
   <v>       0.00901578 </v>
   <v>       0.00901578 </v>
   <v>       0.00150263 </v>
   <v>       0.00901578 </v>
   <v>       0.00901578 </v>
   <v>       0.00901578 </v>
   <v>       0.00901578 </v>
   <v>       0.00901578 </v>
   <v>       0.00901578 </v>
   <v>       0.01803156 </v>
   <v>       0.01803156 </v>
   <v>       0.01803156 </v>
   <v>       0.00901578 </v>
   <v>       0.00901578 </v>
   <v>       0.01803156 </v>
   <v>       0.01803156 </v>
   <v>       0.00901578 </v>
   <v>       0.00901578 </v>
   <v>       0.00150263 </v>
   <v>       0.00901578 </v>
   <v>       0.00901578 </v>
   <v>       0.00901578 </v>
   <v>       0.00901578 </v>
   <v>       0.00901578 </v>
   <v>       0.00901578 </v>
   <v>       0.01803156 </v>
   <v>       0.01803156 </v>
   <v>       0.01803156 </v>
   <v>       0.00901578 </v>
   <v>       0.00901578 </v>
   <v>       0.01803156 </v>
   <v>       0.01803156 </v>
   <v>       0.00901578 </v>
   <v>       0.00901578 </v>
  </varray>
 </kpoints>
 <parameters>
  <separator name="general" >
   <i type="string" name="SYSTEM">unknown system</i>
   <i type="logical" name="LCOMPAT"> F  </i>
  </separator>
  <separator name="electronic" >
   <i type="string" name="PREC">normal</i>
   <i name="ENMAX">    280.00000000</i>
   <i name="ENAUG">    511.36800000</i>
   <i name="EDIFF">      0.00000100</i>
   <i type="int" name="IALGO">    38</i>
   <i type="int" name="IWAVPR">     0</i>
   <i type="int" name="NBANDS">    40</i>
   <i type="int" name="NBANDSLOW">    -1</i>
   <i type="int" name="NBANDSHIGH">    -1</i>
   <i name="NELECT">     16.00000000</i>
   <i type="int" name="TURBO">     0</i>
   <i type="int" name="IRESTART">     0</i>
   <i type="int" name="NREBOOT">     0</i>
   <i type="int" name="NMIN">     0</i>
   <i name="EREF">      0.00000000</i>
   <separator name="electronic smearing" >
    <i type="int" name="ISMEAR">     1</i>
    <i name="SIGMA">      0.20000000</i>
    <i name="KSPACING">      0.50000000</i>
    <i type="logical" name="KGAMMA"> T  </i>
    <i type="logical" name="KBLOWUP"> T  </i>
   </separator>
   <separator name="electronic projectors" >
    <i type="logical" name="LREAL"> F  </i>
    <v name="ROPT">      0.00000000</v>
    <i type="int" name="LMAXPAW">  -100</i>
    <i type="int" name="LMAXMIX">     2</i>
    <i type="logical" name="NLSPLINE"> F  </i>
   </separator>
   <separator name="electronic startup" >
    <i type="int" name="ISTART">     0</i>
    <i type="int" name="ICHARG">     1</i>
    <i type="int" name="INIWAV">     1</i>
   </separator>
   <separator name="electronic spin" >
    <i type="int" name="ISPIN">     1</i>
    <i type="logical" name="LNONCOLLINEAR"> F  </i>
    <v name="MAGMOM">      1.00000000      1.00000000</v>
    <i name="NUPDOWN">     -1.00000000</i>
    <i type="logical" name="LSORBIT"> F  </i>
    <v name="SAXIS">      0.00000000      0.00000000      1.00000000</v>
    <i type="logical" name="LSPIRAL"> F  </i>
    <v name="QSPIRAL">      0.00000000      0.00000000      0.00000000</v>
    <i type="logical" name="LZEROZ"> F  </i>
   </separator>
   <separator name="electronic exchange-correlation" >
    <i type="logical" name="LASPH"> F  </i>
    <i type="logical" name="LMETAGGA"> F  </i>
   </separator>
   <separator name="electronic convergence" >
    <i type="int" name="NELM">    60</i>
    <i type="int" name="NELMDL">    -5</i>
    <i type="int" name="NELMIN">     2</i>
    <i name="ENINI">    280.00000000</i>
    <separator name="electronic convergence detail" >
     <i type="logical" name="LDIAG"> T  </i>
     <i type="logical" name="LSUBROT"> F  </i>
     <i name="WEIMIN">      0.00000000</i>
     <i name="EBREAK">      0.00000001</i>
     <i name="DEPER">      0.30000000</i>
     <i type="int" name="NRMM">     4</i>
     <i name="TIME">      0.40000000</i>
    </separator>
   </separator>
   <separator name="electronic mixer" >
    <i name="AMIX">      0.40000000</i>
    <i name="BMIX">      1.00000000</i>
    <i name="AMIN">      0.10000000</i>
    <i name="AMIX_MAG">      1.60000000</i>
    <i name="BMIX_MAG">      1.00000000</i>
    <separator name="electronic mixer details" >
     <i type="int" name="IMIX">     4</i>
     <i type="logical" name="MIXFIRST"> F  </i>
     <i type="int" name="MAXMIX">   -45</i>
     <i name="WC">    100.00000000</i>
     <i type="int" name="INIMIX">     1</i>
     <i type="int" name="MIXPRE">     1</i>
     <i type="int" name="MREMOVE">     5</i>
    </separator>
   </separator>
   <separator name="electronic dipolcorrection" >
    <i type="logical" name="LDIPOL"> F  </i>
    <i type="logical" name="LMONO"> F  </i>
    <i type="int" name="IDIPOL">     0</i>
    <i name="EPSILON">      1.00000000</i>
    <v name="DIPOL">   -100.00000000   -100.00000000   -100.00000000</v>
    <i name="EFIELD">      0.00000000</i>
   </separator>
  </separator>
  <separator name="grids" >
   <i type="int" name="NGX">    10</i>
   <i type="int" name="NGY">    10</i>
   <i type="int" name="NGZ">    16</i>
   <i type="int" name="NGXF">    20</i>
   <i type="int" name="NGYF">    20</i>
   <i type="int" name="NGZF">    32</i>
   <i type="logical" name="ADDGRID"> F  </i>
  </separator>
  <separator name="ionic" >
   <i type="int" name="NSW">     0</i>
   <i type="int" name="IBRION">    -1</i>
   <i type="int" name="MDALGO">     0</i>
   <i type="int" name="ISIF">     2</i>
   <i name="PSTRESS">      0.00000000</i>
   <i name="EDIFFG">      0.00001000</i>
   <i type="int" name="NFREE">     0</i>
   <i name="POTIM">      0.50000000</i>
   <i name="SMASS">     -3.00000000</i>
   <i name="SCALEE">      1.00000000</i>
  </separator>
  <separator name="ionic md" >
   <i name="TEBEG">      0.00010000</i>
   <i name="TEEND">      0.00010000</i>
   <i type="int" name="NBLOCK">     1</i>
   <i type="int" name="KBLOCK">     1</i>
   <i type="int" name="NPACO">   256</i>
   <i name="APACO">     16.00000000</i>
  </separator>
  <separator name="symmetry" >
   <i type="int" name="ISYM">     2</i>
   <i name="SYMPREC">      0.00001000</i>
  </separator>
  <separator name="dos" >
   <i type="int" name="LORBIT">     0</i>
   <v name="RWIGS">     -1.00000000</v>
   <i type="int" name="NEDOS">   301</i>
   <i name="EMIN">     10.00000000</i>
   <i name="EMAX">    -10.00000000</i>
   <i name="EFERMI">      0.00000000</i>
  </separator>
  <separator name="writing" >
   <i type="int" name="NWRITE">     2</i>
   <i type="logical" name="LWAVE"> T  </i>
   <i type="logical" name="LDOWNSAMPLE"> F  </i>
   <i type="logical" name="LCHARG"> T  </i>
   <i type="logical" name="LPARD"> F  </i>
   <i type="logical" name="LVTOT"> F  </i>
   <i type="logical" name="LVHAR"> F  </i>
   <i type="logical" name="LELF"> F  </i>
   <i type="logical" name="LOPTICS"> F  </i>
   <v name="STM">      0.00000000      0.00000000      0.00000000      0.00000000      0.00000000      0.00000000      0.00000000</v>
  </separator>
  <separator name="performance" >
   <i type="int" name="NPAR">     1</i>
   <i type="int" name="NSIM">     4</i>
   <i type="int" name="NBLK">    -1</i>
   <i type="logical" name="LPLANE"> T  </i>
   <i type="logical" name="LSCALAPACK"> F  </i>
   <i type="logical" name="LSCAAWARE"> F  </i>
   <i type="logical" name="LSCALU"> F  </i>
   <i type="logical" name="LASYNC"> F  </i>
   <i type="logical" name="LORBITALREAL"> F  </i>
  </separator>
  <separator name="miscellaneous" >
   <i type="int" name="IDIOT">     3</i>
   <i type="int" name="PHON_NSTRUCT">    -1</i>
   <i type="logical" name="LMUSIC"> F  </i>
   <v name="POMASS">     55.84700000</v>
   <v name="DARWINR">      0.00000000</v>
   <v name="DARWINV">      1.00000000</v>
   <i type="logical" name="LCORR"> T  </i>
  </separator>
  <i type="logical" name="GGA_COMPAT"> T  </i>
  <i type="logical" name="LBERRY"> F  </i>
  <i type="int" name="ICORELEVEL">     0</i>
  <i type="logical" name="LDAU"> F  </i>
  <i type="int" name="I_CONSTRAINED_M">     0</i>
  <separator name="electronic exchange-correlation" >
   <i type="string" name="GGA">PE</i>
   <i type="int" name="VOSKOWN">     0</i>
   <i type="logical" name="LHFCALC"> F  </i>
   <i type="string" name="PRECFOCK"></i>
   <i type="logical" name="LSYMGRAD"> F  </i>
   <i type="logical" name="LHFONE"> F  </i>
   <i type="logical" name="LRHFCALC"> F  </i>
   <i type="logical" name="LTHOMAS"> F  </i>
   <i type="logical" name="LMODELHF"> F  </i>
   <i type="logical" name="LFOCKACE"> F  </i>
   <i name="ENCUT4O">     -1.00000000</i>
   <i type="int" name="EXXOEP">     0</i>
   <i type="int" name="FOURORBIT">     0</i>
   <i name="AEXX">      0.00000000</i>
   <i name="HFALPHA">      0.00000000</i>
   <i name="MCALPHA">      0.00000000</i>
   <i name="ALDAX">      1.00000000</i>
   <i name="AGGAX">      1.00000000</i>
   <i name="ALDAC">      1.00000000</i>
   <i name="AGGAC">      1.00000000</i>
   <i type="int" name="NKREDX">     1</i>
   <i type="int" name="NKREDY">     1</i>
   <i type="int" name="NKREDZ">     1</i>
   <i type="logical" name="SHIFTRED"> F  </i>
   <i type="logical" name="ODDONLY"> F  </i>
   <i type="logical" name="EVENONLY"> F  </i>
   <i type="int" name="LMAXFOCK">     0</i>
   <i type="int" name="NMAXFOCKAE">     0</i>
   <i type="logical" name="LFOCKAEDFT"> F  </i>
   <i name="HFSCREEN">      0.00000000</i>
   <i name="HFSCREENC">      0.00000000</i>
   <i type="int" name="NBANDSGWLOW">     0</i>
  </separator>
  <separator name="vdW DFT" >
   <i type="logical" name="LUSE_VDW"> F  </i>
   <i name="Zab_VDW">     -0.84910000</i>
   <i name="PARAM1">      0.12340000</i>
   <i name="PARAM2">      1.00000000</i>
   <i name="PARAM3">      0.00000000</i>
  </separator>
  <separator name="model GW" >
   <i type="int" name="MODEL_GW">     0</i>
   <i name="MODEL_EPS0">      5.71982761</i>
   <i name="MODEL_ALPHA">      1.00000000</i>
  </separator>
  <separator name="linear response parameters" >
   <i type="logical" name="LEPSILON"> F  </i>
   <i type="logical" name="LRPA"> F  </i>
   <i type="logical" name="LNABLA"> F  </i>
   <i type="logical" name="LVEL"> F  </i>
   <i type="int" name="KINTER">     0</i>
   <i name="CSHIFT">      0.10000000</i>
   <i name="OMEGAMAX">     -1.00000000</i>
   <i name="DEG_THRESHOLD">      0.00200000</i>
   <i name="RTIME">     -0.10000000</i>
   <i name="WPLASMAI">      0.00000000</i>
   <v name="DFIELD">      0.00000000      0.00000000      0.00000000</v>
   <v name="WPLASMA">      0.00000000      0.00000000      0.00000000      0.00000000      0.00000000      0.00000000      0.00000000      0.00000000      0.00000000</v>
  </separator>
  <separator name="orbital magnetization" >
   <i type="logical" name="NUCIND"> F  </i>
   <v name="MAGPOS">      0.00000000      0.00000000      0.00000000</v>
   <i type="logical" name="LNICSALL"> T  </i>
   <i type="logical" name="ORBITALMAG"> F  </i>
   <i type="logical" name="LMAGBLOCH"> F  </i>
   <i type="logical" name="LCHIMAG"> F  </i>
   <i type="logical" name="LGAUGE"> T  </i>
   <i type="int" name="MAGATOM">     0</i>
   <v name="MAGDIPOL">      0.00000000      0.00000000      0.00000000</v>
   <v name="AVECCONST">      0.00000000      0.00000000      0.00000000</v>
  </separator>
  <separator name="response functions" >
   <i type="logical" name="LFINITE_TEMPERATURE"> F  </i>
   <i type="logical" name="LADDER"> F  </i>
   <i type="logical" name="LRPAFORCE"> F  </i>
   <i type="logical" name="LFXC"> F  </i>
   <i type="logical" name="LHARTREE"> T  </i>
   <i type="int" name="IBSE">     0</i>
   <v type="int" name="KPOINT">    -1     0     0     0</v>
   <i type="logical" name="LTCTC"> F  </i>
   <i type="logical" name="LTCTE"> F  </i>
   <i type="logical" name="LTETE"> F  </i>
   <i type="logical" name="LTRIPLET"> F  </i>
   <i type="logical" name="LFXCEPS"> F  </i>
   <i type="logical" name="LFXHEG"> F  </i>
   <i type="int" name="NATURALO">     2</i>
   <i type="logical" name="LHOLEGF"> F  </i>
   <i type="logical" name="L2ORDER"> F  </i>
   <i type="logical" name="LDMP1"> F  </i>
   <i type="logical" name="LMP2LT"> F  </i>
   <i type="logical" name="LSMP2LT"> F  </i>
   <i type="logical" name="LGWLF"> F  </i>
   <i name="ENCUTGW">     -2.00000000</i>
   <i name="ENCUTGWSOFT">     -2.00000000</i>
   <i name="ENCUTLF">     -1.00000000</i>
   <i type="logical" name="LESF_SPLINES"> F  </i>
   <i type="int" name="LMAXMP2">    -1</i>
   <i name="SCISSOR">      0.00000000</i>
   <i type="int" name="NOMEGA">     0</i>
   <i type="int" name="NOMEGAR">     0</i>
   <i type="int" name="NBANDSGW">    -1</i>
   <i type="int" name="NBANDSO">    -1</i>
   <i type="int" name="NBANDSV">    -1</i>
   <i type="int" name="NELM">     1</i>
   <i type="int" name="NELMHF">     1</i>
   <i type="int" name="DIM">     3</i>
   <i type="int" name="IESPILON">     4</i>
   <i type="int" name="ANTIRES">     0</i>
   <i name="OMEGAMAX">    -30.00000000</i>
   <i name="OMEGAMIN">    -30.00000000</i>
   <i name="OMEGATL">   -200.00000000</i>
   <i type="int" name="OMEGAGRID">     0</i>
   <i name="CSHIFT">     -0.10000000</i>
   <i type="logical" name="LSELFENERGY"> F  </i>
   <i type="logical" name="LSPECTRAL"> F  </i>
   <i type="logical" name="LSPECTRALGW"> F  </i>
   <i type="logical" name="LSINGLES"> F  </i>
   <i type="logical" name="LFERMIGW"> F  </i>
   <i type="logical" name="ODDONLYGW"> F  </i>
   <i type="logical" name="EVENONLYGW"> F  </i>
   <i type="int" name="NKREDLFX">     1</i>
   <i type="int" name="NKREDLFY">     1</i>
   <i type="int" name="NKREDLFZ">     1</i>
   <i type="int" name="MAXMEM">  2800</i>
   <i type="int" name="TELESCOPE">     0</i>
   <i type="int" name="NTAUPAR">    -1</i>
   <i type="int" name="NOMEGAPAR">    -1</i>
   <i name="DAMP_NEWTON">      0.80000001</i>
   <i name="LAMBDA">      1.00000000</i>
  </separator>
  <separator name="External order field" >
   <i name="OFIELD_KAPPA">      0.00000000</i>
   <v name="OFIELD_K">      0.00000000      0.00000000      0.00000000</v>
   <i name="OFIELD_Q6_NEAR">      0.00000000</i>
   <i name="OFIELD_Q6_FAR">      0.00000000</i>
   <i name="OFIELD_A">      0.00000000</i>
  </separator>
 </parameters>
 <atominfo>
  <atoms>       2 </atoms>
  <types>       1 </types>
  <array name="atoms" >
   <dimension dim="1">ion</dimension>
   <field type="string">element</field>
   <field type="int">atomtype</field>
   <set>
    <rc><c>Fe</c><c>   1</c></rc>
    <rc><c>Fe</c><c>   1</c></rc>
   </set>
  </array>
  <array name="atomtypes" >
   <dimension dim="1">type</dimension>
   <field type="int">atomspertype</field>
   <field type="string">element</field>
   <field>mass</field>
   <field>valence</field>
   <field type="string">pseudopotential</field>
   <set>
    <rc><c>   2</c><c>Fe</c><c>     55.84700000</c><c>      8.00000000</c><c>  PAW_PBE Fe 06Sep2000                  </c></rc>
   </set>
  </array>
 </atominfo>
 <structure name="initialpos" >
  <crystal>
   <varray name="basis" >
    <v>       2.35330000       0.00000000       0.00000000 </v>
    <v>      -1.17665000       2.03801758       0.00000000 </v>
    <v>       0.00000000       0.00000000       3.97536000 </v>
   </varray>
   <i name="volume">     19.06609202 </i>
   <varray name="rec_basis" >
    <v>       0.42493520       0.24533645       0.00000000 </v>
    <v>       0.00000000       0.49067290       0.00000000 </v>
    <v>       0.00000000       0.00000000       0.25154955 </v>
   </varray>
  </crystal>
  <varray name="positions" >
   <v>       0.00000000       0.00000000       0.00000000 </v>
   <v>       0.33333333       0.66666667       0.50000000 </v>
  </varray>
 </structure>
 <calculation>
  <scstep>
   <time name="dav">    0.74    0.76</time>
   <time name="total">    0.75    0.77</time>
   <energy>
    <i name="alphaZ">    144.99830571 </i>
    <i name="ewald">  -1255.11009809 </i>
    <i name="hartreedc">   -197.10120259 </i>
    <i name="XCdc">      8.91975542 </i>
    <i name="pawpsdc">   1109.69170683 </i>
    <i name="pawaedc">  -1125.09647265 </i>
    <i name="eentropy">     -0.00223912 </i>
    <i name="bandstr">    184.87490157 </i>
    <i name="atom">   1188.57490811 </i>
    <i name="e_fr_energy">     59.74956518 </i>
    <i name="e_wo_entrp">     59.75180430 </i>
    <i name="e_0_energy">     59.75031155 </i>
   </energy>
  </scstep>
  <scstep>
   <time name="dav">    0.63    0.63</time>
   <time name="total">    0.64    0.64</time>
   <energy>
    <i name="e_fr_energy">    -14.93466831 </i>
    <i name="e_wo_entrp">    -14.93849177 </i>
    <i name="e_0_energy">    -14.93594279 </i>
   </energy>
  </scstep>
  <scstep>
   <time name="dav">    0.75    0.75</time>
   <time name="total">    0.76    0.76</time>
   <energy>
    <i name="e_fr_energy">    -19.13981209 </i>
    <i name="e_wo_entrp">    -19.13825547 </i>
    <i name="e_0_energy">    -19.13929322 </i>
   </energy>
  </scstep>
  <scstep>
   <time name="dav">    0.72    0.72</time>
   <time name="total">    0.72    0.72</time>
   <energy>
    <i name="e_fr_energy">    -19.15683476 </i>
    <i name="e_wo_entrp">    -19.15524301 </i>
    <i name="e_0_energy">    -19.15630418 </i>
   </energy>
  </scstep>
  <scstep>
   <time name="dav">    0.70    0.70</time>
   <time name="total">    0.73    0.73</time>
   <energy>
    <i name="e_fr_energy">    -19.15684908 </i>
    <i name="e_wo_entrp">    -19.15525732 </i>
    <i name="e_0_energy">    -19.15631849 </i>
   </energy>
  </scstep>
  <scstep>
   <time name="dav">    0.84    0.84</time>
   <time name="total">    0.87    0.87</time>
   <energy>
    <i name="e_fr_energy">    -16.33539320 </i>
    <i name="e_wo_entrp">    -16.33568223 </i>
    <i name="e_0_energy">    -16.33548954 </i>
   </energy>
  </scstep>
  <scstep>
   <time name="dav">    0.76    0.76</time>
   <time name="total">    0.79    0.79</time>
   <energy>
    <i name="e_fr_energy">    -16.18840849 </i>
    <i name="e_wo_entrp">    -16.18848463 </i>
    <i name="e_0_energy">    -16.18843387 </i>
   </energy>
  </scstep>
  <scstep>
   <time name="dav">    0.75    0.75</time>
   <time name="total">    0.78    0.78</time>
   <energy>
    <i name="e_fr_energy">    -16.15855070 </i>
    <i name="e_wo_entrp">    -16.15866415 </i>
    <i name="e_0_energy">    -16.15858852 </i>
   </energy>
  </scstep>
  <scstep>
   <time name="dav">    0.81    0.81</time>
   <time name="total">    0.84    0.84</time>
   <energy>
    <i name="e_fr_energy">    -16.14816282 </i>
    <i name="e_wo_entrp">    -16.14828341 </i>
    <i name="e_0_energy">    -16.14820302 </i>
   </energy>
  </scstep>
  <scstep>
   <time name="dav">    0.67    0.67</time>
   <time name="total">    0.70    0.70</time>
   <energy>
    <i name="e_fr_energy">    -16.14817072 </i>
    <i name="e_wo_entrp">    -16.14828759 </i>
    <i name="e_0_energy">    -16.14820968 </i>
   </energy>
  </scstep>
  <scstep>
   <time name="dav">    0.65    0.65</time>
   <time name="total">    0.68    0.68</time>
   <energy>
    <i name="e_fr_energy">    -16.14816091 </i>
    <i name="e_wo_entrp">    -16.14827766 </i>
    <i name="e_0_energy">    -16.14819983 </i>
   </energy>
  </scstep>
  <scstep>
   <time name="dav">    0.52    0.52</time>
   <time name="total">    0.53    0.53</time>
   <energy>
    <i name="alphaZ">    144.99830571 </i>
    <i name="ewald">  -1255.11009809 </i>
    <i name="hartreedc">   -163.07309125 </i>
    <i name="XCdc">      7.32197320 </i>
    <i name="pawpsdc">   1553.00987533 </i>
    <i name="pawaedc">  -1571.10677453 </i>
    <i name="eentropy">      0.00011697 </i>
    <i name="bandstr">     79.23662392 </i>
    <i name="atom">   1188.57490811 </i>
    <i name="e_fr_energy">    -16.14816062 </i>
    <i name="e_wo_entrp">    -16.14827759 </i>
    <i name="e_0_energy">    -16.14819961 </i>
   </energy>
  </scstep>
  <structure>
   <crystal>
    <varray name="basis" >
     <v>       2.35330000       0.00000000       0.00000000 </v>
     <v>      -1.17665000       2.03801758       0.00000000 </v>
     <v>       0.00000000       0.00000000       3.97536000 </v>
    </varray>
    <i name="volume">     19.06609202 </i>
    <varray name="rec_basis" >
     <v>       0.42493520       0.24533645       0.00000000 </v>
     <v>       0.00000000       0.49067290       0.00000000 </v>
     <v>       0.00000000       0.00000000       0.25154955 </v>
    </varray>
   </crystal>
   <varray name="positions" >
    <v>       0.00000000       0.00000000       0.00000000 </v>
    <v>       0.33333333       0.66666667       0.50000000 </v>
   </varray>
  </structure>
  <varray name="forces" >
   <v>       0.00000000      -0.00000000      -0.00000000 </v>
   <v>      -0.00000000       0.00000000       0.00000000 </v>
  </varray>
  <varray name="stress" >
   <v>     322.65358854      -0.00000000       0.00000000 </v>
   <v>      -0.00000000     322.65358854      -0.00000000 </v>
   <v>       0.00000000       0.00000000     -29.75257708 </v>
  </varray>
  <energy>
   <i name="e_fr_energy">    -16.14816062 </i>
   <i name="e_wo_entrp">    -16.14827759 </i>
   <i name="e_0_energy">    -16.14819961 </i>
  </energy>
  <time name="totalsc">    9.07    9.09</time>
  <eigenvalues>
   <array>
    <dimension dim="1">band</dimension>
    <dimension dim="2">kpoint</dimension>
    <dimension dim="3">spin</dimension>
    <field>eigene</field>
    <field>occ</field>
    <set>
     <set comment="spin 1">
      <set comment="kpoint 1">
       <r>   -1.6142    1.0000 </r>
       <r>    2.3264    1.0000 </r>
       <r>    5.5418    1.0000 </r>
       <r>    5.9156    1.0000 </r>
       <r>    5.9157    1.0000 </r>
       <r>    6.3188    1.0000 </r>
       <r>    6.3189    1.0000 </r>
       <r>    7.1034    1.0004 </r>
       <r>    7.1034    1.0004 </r>
       <r>    7.4010    1.0355 </r>
       <r>    8.4731   -0.0000 </r>
       <r>    8.4731   -0.0000 </r>
       <r>   16.1946    0.0000 </r>
       <r>   31.0650    0.0000 </r>
       <r>   33.1163    0.0000 </r>
       <r>   34.4975    0.0000 </r>
       <r>   36.6488    0.0000 </r>
       <r>   36.6488    0.0000 </r>
       <r>   37.4707    0.0000 </r>
       <r>   37.4709    0.0000 </r>
       <r>   40.5383    0.0000 </r>
       <r>   40.5383    0.0000 </r>
       <r>   40.5541    0.0000 </r>
       <r>   41.6754    0.0000 </r>
       <r>   44.6591    0.0000 </r>
       <r>   44.6591    0.0000 </r>
       <r>   46.3250    0.0000 </r>
       <r>   48.5321    0.0000 </r>
       <r>   48.5325    0.0000 </r>
       <r>   50.4911    0.0000 </r>
       <r>   50.4913    0.0000 </r>
       <r>   53.7725    0.0000 </r>
       <r>   62.0180    0.0000 </r>
       <r>   63.4250    0.0000 </r>
       <r>   63.5137    0.0000 </r>
       <r>   63.5147    0.0000 </r>
       <r>   64.9481    0.0000 </r>
       <r>   66.4188    0.0000 </r>
       <r>   66.4201    0.0000 </r>
       <r>   68.8417    0.0000 </r>
      </set>
      <set comment="kpoint 2">
       <r>   -1.2761    1.0000 </r>
       <r>    2.5674    1.0000 </r>
       <r>    5.4153    1.0000 </r>
       <r>    5.9766    1.0000 </r>
       <r>    6.1154    1.0000 </r>
       <r>    6.2116    1.0000 </r>
       <r>    6.2701    1.0000 </r>
       <r>    6.5015    1.0000 </r>
       <r>    6.9777    1.0000 </r>
       <r>    7.0054    1.0000 </r>
       <r>    8.5190   -0.0000 </r>
       <r>    9.8391   -0.0000 </r>
       <r>   16.2106    0.0000 </r>
       <r>   29.9035    0.0000 </r>
       <r>   32.7120    0.0000 </r>
       <r>   33.3524    0.0000 </r>
       <r>   33.8083    0.0000 </r>
       <r>   36.2936    0.0000 </r>
       <r>   36.5808    0.0000 </r>
       <r>   40.0756    0.0000 </r>
       <r>   40.2678    0.0000 </r>
       <r>   40.3922    0.0000 </r>
       <r>   41.2246    0.0000 </r>
       <r>   41.7979    0.0000 </r>
       <r>   45.7211    0.0000 </r>
       <r>   45.9840    0.0000 </r>
       <r>   46.0122    0.0000 </r>
       <r>   46.2208    0.0000 </r>
       <r>   50.0529    0.0000 </r>
       <r>   52.0361    0.0000 </r>
       <r>   52.8348    0.0000 </r>
       <r>   55.4240    0.0000 </r>
       <r>   60.9008    0.0000 </r>
       <r>   62.5631    0.0000 </r>
       <r>   63.0565    0.0000 </r>
       <r>   63.4250    0.0000 </r>
       <r>   63.4619    0.0000 </r>
       <r>   66.9900    0.0000 </r>
       <r>   68.4205    0.0000 </r>
       <r>   68.7708    0.0000 </r>
      </set>
      <set comment="kpoint 3">
       <r>   -0.3213    1.0000 </r>
       <r>    3.1313    1.0000 </r>
       <r>    5.0300    1.0000 </r>
       <r>    5.0568    1.0000 </r>
       <r>    5.8280    1.0000 </r>
       <r>    6.4667    1.0000 </r>
       <r>    6.6806    1.0000 </r>
       <r>    6.6823    1.0000 </r>
       <r>    6.6965    1.0000 </r>
       <r>    7.0122    1.0000 </r>
       <r>    8.6067   -0.0000 </r>
       <r>   11.8408   -0.0000 </r>
       <r>   16.2900    0.0000 </r>
       <r>   26.2718    0.0000 </r>
       <r>   30.9310    0.0000 </r>
       <r>   31.5012    0.0000 </r>
       <r>   32.2814    0.0000 </r>
       <r>   33.9126    0.0000 </r>
       <r>   37.2231    0.0000 </r>
       <r>   39.2313    0.0000 </r>
       <r>   39.3572    0.0000 </r>
       <r>   39.8438    0.0000 </r>
       <r>   41.8820    0.0000 </r>
       <r>   43.5680    0.0000 </r>
       <r>   45.4613    0.0000 </r>
       <r>   46.4718    0.0000 </r>
       <r>   48.2663    0.0000 </r>
       <r>   50.6563    0.0000 </r>
       <r>   53.1113    0.0000 </r>
       <r>   55.2716    0.0000 </r>
       <r>   55.7688    0.0000 </r>
       <r>   58.6669    0.0000 </r>
       <r>   59.2554    0.0000 </r>
       <r>   60.7278    0.0000 </r>
       <r>   60.9932    0.0000 </r>
       <r>   62.3845    0.0000 </r>
       <r>   64.1984    0.0000 </r>
       <r>   67.8396    0.0000 </r>
       <r>   68.7217    0.0000 </r>
       <r>   70.0186    0.0000 </r>
      </set>
      <set comment="kpoint 4">
       <r>    1.0279    1.0000 </r>
       <r>    3.4077    1.0000 </r>
       <r>    4.0680    1.0000 </r>
       <r>    4.9242    1.0000 </r>
       <r>    5.6778    1.0000 </r>
       <r>    6.3064    1.0000 </r>
       <r>    6.3471    1.0000 </r>
       <r>    7.2466    1.0080 </r>
       <r>    7.4801    0.9980 </r>
       <r>    7.7230    0.2017 </r>
       <r>    8.6714   -0.0000 </r>
       <r>   14.0480    0.0000 </r>
       <r>   16.4407    0.0000 </r>
       <r>   22.3214    0.0000 </r>
       <r>   28.4327    0.0000 </r>
       <r>   28.6753    0.0000 </r>
       <r>   30.0690    0.0000 </r>
       <r>   33.3109    0.0000 </r>
       <r>   35.6161    0.0000 </r>
       <r>   38.7995    0.0000 </r>
       <r>   39.6324    0.0000 </r>
       <r>   39.7670    0.0000 </r>
       <r>   40.1633    0.0000 </r>
       <r>   44.1302    0.0000 </r>
       <r>   48.8711    0.0000 </r>
       <r>   50.7684    0.0000 </r>
       <r>   51.7056    0.0000 </r>
       <r>   53.7708    0.0000 </r>
       <r>   55.1106    0.0000 </r>
       <r>   56.2621    0.0000 </r>
       <r>   57.5711    0.0000 </r>
       <r>   59.0312    0.0000 </r>
       <r>   60.1832    0.0000 </r>
       <r>   61.2270    0.0000 </r>
       <r>   61.2492    0.0000 </r>
       <r>   62.8032    0.0000 </r>
       <r>   64.3248    0.0000 </r>
       <r>   68.3091    0.0000 </r>
       <r>   68.4415    0.0000 </r>
       <r>   69.4212    0.0000 </r>
      </set>
      <set comment="kpoint 5">
       <r>    2.2331    1.0000 </r>
       <r>    3.1491    1.0000 </r>
       <r>    3.4187    1.0000 </r>
       <r>    5.1626    1.0000 </r>
       <r>    5.9623    1.0000 </r>
       <r>    5.9957    1.0000 </r>
       <r>    6.0693    1.0000 </r>
       <r>    8.2835   -0.0000 </r>
       <r>    8.4468   -0.0000 </r>
       <r>    8.4915   -0.0000 </r>
       <r>    8.7015   -0.0000 </r>
       <r>   15.9996    0.0000 </r>
       <r>   16.3738    0.0000 </r>
       <r>   19.6949    0.0000 </r>
       <r>   25.4504    0.0000 </r>
       <r>   26.5195    0.0000 </r>
       <r>   27.5120    0.0000 </r>
       <r>   32.2551    0.0000 </r>
       <r>   34.3573    0.0000 </r>
       <r>   37.5952    0.0000 </r>
       <r>   38.4133    0.0000 </r>
       <r>   40.7785    0.0000 </r>
       <r>   42.3362    0.0000 </r>
       <r>   44.7108    0.0000 </r>
       <r>   52.5903    0.0000 </r>
       <r>   52.7585    0.0000 </r>
       <r>   52.9535    0.0000 </r>
       <r>   55.8700    0.0000 </r>
       <r>   56.4611    0.0000 </r>
       <r>   57.3981    0.0000 </r>
       <r>   59.5930    0.0000 </r>
       <r>   60.3014    0.0000 </r>
       <r>   60.5427    0.0000 </r>
       <r>   61.1478    0.0000 </r>
       <r>   62.7097    0.0000 </r>
       <r>   64.4678    0.0000 </r>
       <r>   67.7337    0.0000 </r>
       <r>   67.9726    0.0000 </r>
       <r>   68.1810    0.0000 </r>
       <r>   68.2842    0.0000 </r>
      </set>
      <set comment="kpoint 6">
       <r>    2.6950    1.0000 </r>
       <r>    2.9390    1.0000 </r>
       <r>    3.0924    1.0000 </r>
       <r>    5.6817    1.0000 </r>
       <r>    5.7636    1.0000 </r>
       <r>    5.9162    1.0000 </r>
       <r>    6.2552    1.0000 </r>
       <r>    8.7116   -0.0000 </r>
       <r>    8.7787   -0.0000 </r>
       <r>    8.9405   -0.0000 </r>
       <r>   10.1956   -0.0000 </r>
       <r>   13.7738    0.0000 </r>
       <r>   18.5525    0.0000 </r>
       <r>   19.9154    0.0000 </r>
       <r>   22.8431    0.0000 </r>
       <r>   24.9604    0.0000 </r>
       <r>   25.4441    0.0000 </r>
       <r>   31.5813    0.0000 </r>
       <r>   33.9629    0.0000 </r>
       <r>   36.4543    0.0000 </r>
       <r>   38.2575    0.0000 </r>
       <r>   41.5071    0.0000 </r>
       <r>   44.4580    0.0000 </r>
       <r>   45.1857    0.0000 </r>
       <r>   49.4090    0.0000 </r>
       <r>   53.9581    0.0000 </r>
       <r>   54.8524    0.0000 </r>
       <r>   58.0186    0.0000 </r>
       <r>   59.0367    0.0000 </r>
       <r>   59.5692    0.0000 </r>
       <r>   60.5091    0.0000 </r>
       <r>   61.4141    0.0000 </r>
       <r>   61.4862    0.0000 </r>
       <r>   63.6339    0.0000 </r>
       <r>   63.8944    0.0000 </r>
       <r>   65.3202    0.0000 </r>
       <r>   66.6162    0.0000 </r>
       <r>   66.8651    0.0000 </r>
       <r>   67.7816    0.0000 </r>
       <r>   68.2030    0.0000 </r>
      </set>
      <set comment="kpoint 7">
       <r>   -0.6269    1.0000 </r>
       <r>    2.9874    1.0000 </r>
       <r>    5.1215    1.0000 </r>
       <r>    5.3594    1.0000 </r>
       <r>    6.0011    1.0000 </r>
       <r>    6.1691    1.0000 </r>
       <r>    6.5284    1.0000 </r>
       <r>    6.5642    1.0000 </r>
       <r>    6.9018    1.0000 </r>
       <r>    6.9921    1.0000 </r>
       <r>    8.5569   -0.0000 </r>
       <r>   11.2875   -0.0000 </r>
       <r>   16.2626    0.0000 </r>
       <r>   27.9394    0.0000 </r>
       <r>   29.3637    0.0000 </r>
       <r>   33.5177    0.0000 </r>
       <r>   33.7732    0.0000 </r>
       <r>   34.8625    0.0000 </r>
       <r>   35.3984    0.0000 </r>
       <r>   38.0304    0.0000 </r>
       <r>   39.6456    0.0000 </r>
       <r>   42.5987    0.0000 </r>
       <r>   43.1394    0.0000 </r>
       <r>   43.8002    0.0000 </r>
       <r>   44.7234    0.0000 </r>
       <r>   44.7397    0.0000 </r>
       <r>   45.0002    0.0000 </r>
       <r>   50.9600    0.0000 </r>
       <r>   53.5273    0.0000 </r>
       <r>   53.9554    0.0000 </r>
       <r>   53.9778    0.0000 </r>
       <r>   57.8888    0.0000 </r>
       <r>   59.6313    0.0000 </r>
       <r>   61.5642    0.0000 </r>
       <r>   61.7520    0.0000 </r>
       <r>   62.3692    0.0000 </r>
       <r>   63.4549    0.0000 </r>
       <r>   68.0176    0.0000 </r>
       <r>   68.5961    0.0000 </r>
       <r>   69.8867    0.0000 </r>
      </set>
      <set comment="kpoint 8">
       <r>    0.5504    1.0000 </r>
       <r>    3.5185    1.0000 </r>
       <r>    4.4192    1.0000 </r>
       <r>    4.7315    1.0000 </r>
       <r>    5.7514    1.0000 </r>
       <r>    6.1453    1.0000 </r>
       <r>    6.6232    1.0000 </r>
       <r>    6.7439    1.0000 </r>
       <r>    7.2638    1.0104 </r>
       <r>    7.6423    0.5186 </r>
       <r>    8.5908   -0.0000 </r>
       <r>   13.2733    0.0000 </r>
       <r>   16.4274    0.0000 </r>
       <r>   24.3171    0.0000 </r>
       <r>   26.9238    0.0000 </r>
       <r>   30.4093    0.0000 </r>
       <r>   32.7884    0.0000 </r>
       <r>   32.8927    0.0000 </r>
       <r>   36.1263    0.0000 </r>
       <r>   37.7848    0.0000 </r>
       <r>   37.9810    0.0000 </r>
       <r>   42.6567    0.0000 </r>
       <r>   42.9177    0.0000 </r>
       <r>   43.3098    0.0000 </r>
       <r>   46.4804    0.0000 </r>
       <r>   47.4593    0.0000 </r>
       <r>   49.0661    0.0000 </r>
       <r>   54.0840    0.0000 </r>
       <r>   55.6652    0.0000 </r>
       <r>   56.7149    0.0000 </r>
       <r>   57.1712    0.0000 </r>
       <r>   59.1477    0.0000 </r>
       <r>   59.7353    0.0000 </r>
       <r>   60.3578    0.0000 </r>
       <r>   61.2294    0.0000 </r>
       <r>   61.4179    0.0000 </r>
       <r>   63.8509    0.0000 </r>
       <r>   68.3015    0.0000 </r>
       <r>   68.4542    0.0000 </r>
       <r>   69.6236    0.0000 </r>
      </set>
      <set comment="kpoint 9">
       <r>    1.9155    1.0000 </r>
       <r>    3.4728    1.0000 </r>
       <r>    3.6997    1.0000 </r>
       <r>    4.7740    1.0000 </r>
       <r>    5.8269    1.0000 </r>
       <r>    5.8336    1.0000 </r>
       <r>    6.3669    1.0000 </r>
       <r>    7.3816    1.0341 </r>
       <r>    8.0820   -0.0043 </r>
       <r>    8.6126   -0.0000 </r>
       <r>    8.6147   -0.0000 </r>
       <r>   15.5066    0.0000 </r>
       <r>   16.6121    0.0000 </r>
       <r>   20.7332    0.0000 </r>
       <r>   25.1632    0.0000 </r>
       <r>   27.1421    0.0000 </r>
       <r>   29.7885    0.0000 </r>
       <r>   31.4998    0.0000 </r>
       <r>   35.5879    0.0000 </r>
       <r>   36.6224    0.0000 </r>
       <r>   38.9492    0.0000 </r>
       <r>   42.6332    0.0000 </r>
       <r>   42.6724    0.0000 </r>
       <r>   44.8872    0.0000 </r>
       <r>   48.5816    0.0000 </r>
       <r>   51.2931    0.0000 </r>
       <r>   53.3137    0.0000 </r>
       <r>   54.5779    0.0000 </r>
       <r>   54.7542    0.0000 </r>
       <r>   57.9580    0.0000 </r>
       <r>   59.2162    0.0000 </r>
       <r>   60.0669    0.0000 </r>
       <r>   60.8394    0.0000 </r>
       <r>   60.8429    0.0000 </r>
       <r>   62.3626    0.0000 </r>
       <r>   63.9209    0.0000 </r>
       <r>   65.8982    0.0000 </r>
       <r>   67.6510    0.0000 </r>
       <r>   67.9557    0.0000 </r>
       <r>   69.8601    0.0000 </r>
      </set>
      <set comment="kpoint 10">
       <r>    2.7737    1.0000 </r>
       <r>    3.1702    1.0000 </r>
       <r>    3.2577    1.0000 </r>
       <r>    5.2045    1.0000 </r>
       <r>    5.6893    1.0000 </r>
       <r>    6.0039    1.0000 </r>
       <r>    6.1703    1.0000 </r>
       <r>    8.2742   -0.0000 </r>
       <r>    8.6179   -0.0000 </r>
       <r>    8.6673   -0.0000 </r>
       <r>    9.8720   -0.0000 </r>
       <r>   15.2694    0.0000 </r>
       <r>   17.8293    0.0000 </r>
       <r>   19.6644    0.0000 </r>
       <r>   23.8118    0.0000 </r>
       <r>   24.1858    0.0000 </r>
       <r>   26.6441    0.0000 </r>
       <r>   30.5506    0.0000 </r>
       <r>   34.6134    0.0000 </r>
       <r>   36.0175    0.0000 </r>
       <r>   39.5427    0.0000 </r>
       <r>   43.0640    0.0000 </r>
       <r>   44.2915    0.0000 </r>
       <r>   45.1208    0.0000 </r>
       <r>   51.3178    0.0000 </r>
       <r>   51.3874    0.0000 </r>
       <r>   54.0717    0.0000 </r>
       <r>   55.2976    0.0000 </r>
       <r>   57.0991    0.0000 </r>
       <r>   59.1629    0.0000 </r>
       <r>   59.2750    0.0000 </r>
       <r>   60.7220    0.0000 </r>
       <r>   61.5986    0.0000 </r>
       <r>   63.5845    0.0000 </r>
       <r>   64.3417    0.0000 </r>
       <r>   65.5141    0.0000 </r>
       <r>   65.6255    0.0000 </r>
       <r>   67.7947    0.0000 </r>
       <r>   68.9920    0.0000 </r>
       <r>   68.9951    0.0000 </r>
      </set>
      <set comment="kpoint 11">
       <r>    2.8983    1.0000 </r>
       <r>    3.1045    1.0000 </r>
       <r>    3.1095    1.0000 </r>
       <r>    5.5564    1.0000 </r>
       <r>    5.7154    1.0000 </r>
       <r>    5.7949    1.0000 </r>
       <r>    6.3092    1.0000 </r>
       <r>    8.6185   -0.0000 </r>
       <r>    8.7718   -0.0000 </r>
       <r>    8.7798   -0.0000 </r>
       <r>   11.1360   -0.0000 </r>
       <r>   13.4159    0.0000 </r>
       <r>   19.3976    0.0000 </r>
       <r>   20.3545    0.0000 </r>
       <r>   22.4143    0.0000 </r>
       <r>   23.1057    0.0000 </r>
       <r>   25.1123    0.0000 </r>
       <r>   30.2308    0.0000 </r>
       <r>   34.2061    0.0000 </r>
       <r>   35.8339    0.0000 </r>
       <r>   39.6446    0.0000 </r>
       <r>   43.6645    0.0000 </r>
       <r>   44.4485    0.0000 </r>
       <r>   46.2191    0.0000 </r>
       <r>   49.0067    0.0000 </r>
       <r>   53.6363    0.0000 </r>
       <r>   53.9100    0.0000 </r>
       <r>   56.9170    0.0000 </r>
       <r>   58.1025    0.0000 </r>
       <r>   58.3089    0.0000 </r>
       <r>   61.5941    0.0000 </r>
       <r>   61.6754    0.0000 </r>
       <r>   61.7226    0.0000 </r>
       <r>   61.7718    0.0000 </r>
       <r>   65.0974    0.0000 </r>
       <r>   67.0625    0.0000 </r>
       <r>   67.3234    0.0000 </r>
       <r>   67.5682    0.0000 </r>
       <r>   67.6947    0.0000 </r>
       <r>   69.8146    0.0000 </r>
      </set>
      <set comment="kpoint 12">
       <r>    1.8176    1.0000 </r>
       <r>    3.8624    1.0000 </r>
       <r>    3.9405    1.0000 </r>
       <r>    4.2556    1.0000 </r>
       <r>    5.6992    1.0000 </r>
       <r>    5.8185    1.0000 </r>
       <r>    6.5384    1.0000 </r>
       <r>    6.8907    1.0000 </r>
       <r>    8.0605   -0.0064 </r>
       <r>    8.5223   -0.0000 </r>
       <r>    8.6711   -0.0000 </r>
       <r>   15.2265    0.0000 </r>
       <r>   16.8244    0.0000 </r>
       <r>   22.2867    0.0000 </r>
       <r>   23.1634    0.0000 </r>
       <r>   28.5143    0.0000 </r>
       <r>   30.1849    0.0000 </r>
       <r>   32.1022    0.0000 </r>
       <r>   32.9568    0.0000 </r>
       <r>   38.8688    0.0000 </r>
       <r>   39.3855    0.0000 </r>
       <r>   43.1724    0.0000 </r>
       <r>   44.0102    0.0000 </r>
       <r>   46.0965    0.0000 </r>
       <r>   46.5438    0.0000 </r>
       <r>   48.6136    0.0000 </r>
       <r>   50.3859    0.0000 </r>
       <r>   55.4900    0.0000 </r>
       <r>   56.2287    0.0000 </r>
       <r>   57.7935    0.0000 </r>
       <r>   58.0470    0.0000 </r>
       <r>   60.2364    0.0000 </r>
       <r>   60.4371    0.0000 </r>
       <r>   62.8168    0.0000 </r>
       <r>   62.8950    0.0000 </r>
       <r>   63.2312    0.0000 </r>
       <r>   63.3952    0.0000 </r>
       <r>   67.5771    0.0000 </r>
       <r>   67.8443    0.0000 </r>
       <r>   70.9053    0.0000 </r>
      </set>
      <set comment="kpoint 13">
       <r>    3.0183    1.0000 </r>
       <r>    3.4724    1.0000 </r>
       <r>    3.6960    1.0000 </r>
       <r>    4.4280    1.0000 </r>
       <r>    5.4681    1.0000 </r>
       <r>    6.1053    1.0000 </r>
       <r>    6.1531    1.0000 </r>
       <r>    7.4515    1.0224 </r>
       <r>    8.4622   -0.0000 </r>
       <r>    8.6305   -0.0000 </r>
       <r>    9.9789   -0.0000 </r>
       <r>   16.9863    0.0000 </r>
       <r>   17.4752    0.0000 </r>
       <r>   19.6478    0.0000 </r>
       <r>   21.5383    0.0000 </r>
       <r>   26.0178    0.0000 </r>
       <r>   28.5042    0.0000 </r>
       <r>   28.7483    0.0000 </r>
       <r>   31.6186    0.0000 </r>
       <r>   39.8431    0.0000 </r>
       <r>   40.7957    0.0000 </r>
       <r>   44.0215    0.0000 </r>
       <r>   45.8950    0.0000 </r>
       <r>   46.3892    0.0000 </r>
       <r>   48.4639    0.0000 </r>
       <r>   49.9957    0.0000 </r>
       <r>   51.7240    0.0000 </r>
       <r>   53.9213    0.0000 </r>
       <r>   56.8903    0.0000 </r>
       <r>   57.3662    0.0000 </r>
       <r>   58.8082    0.0000 </r>
       <r>   60.5135    0.0000 </r>
       <r>   61.8772    0.0000 </r>
       <r>   62.9637    0.0000 </r>
       <r>   65.0648    0.0000 </r>
       <r>   65.2600    0.0000 </r>
       <r>   66.6289    0.0000 </r>
       <r>   68.0913    0.0000 </r>
       <r>   68.9571    0.0000 </r>
       <r>   69.9762    0.0000 </r>
      </set>
      <set comment="kpoint 14">
       <r>    3.2761    1.0000 </r>
       <r>    3.3926    1.0000 </r>
       <r>    3.5218    1.0000 </r>
       <r>    4.9256    1.0000 </r>
       <r>    5.4899    1.0000 </r>
       <r>    5.7596    1.0000 </r>
       <r>    6.3799    1.0000 </r>
       <r>    8.1425   -0.0013 </r>
       <r>    8.4272   -0.0000 </r>
       <r>    8.7027   -0.0000 </r>
       <r>   11.6113   -0.0000 </r>
       <r>   14.7936    0.0000 </r>
       <r>   19.7570    0.0000 </r>
       <r>   19.9500    0.0000 </r>
       <r>   20.9507    0.0000 </r>
       <r>   23.4067    0.0000 </r>
       <r>   25.8886    0.0000 </r>
       <r>   27.8387    0.0000 </r>
       <r>   30.9566    0.0000 </r>
       <r>   39.6758    0.0000 </r>
       <r>   42.1878    0.0000 </r>
       <r>   44.6569    0.0000 </r>
       <r>   46.4144    0.0000 </r>
       <r>   46.8536    0.0000 </r>
       <r>   50.4414    0.0000 </r>
       <r>   51.0331    0.0000 </r>
       <r>   52.8815    0.0000 </r>
       <r>   52.8915    0.0000 </r>
       <r>   56.6178    0.0000 </r>
       <r>   57.7148    0.0000 </r>
       <r>   58.0544    0.0000 </r>
       <r>   61.1755    0.0000 </r>
       <r>   61.5728    0.0000 </r>
       <r>   62.0693    0.0000 </r>
       <r>   66.1921    0.0000 </r>
       <r>   66.6971    0.0000 </r>
       <r>   68.1884    0.0000 </r>
       <r>   68.7663    0.0000 </r>
       <r>   69.2601    0.0000 </r>
       <r>   70.2607    0.0000 </r>
      </set>
      <set comment="kpoint 15">
       <r>    3.3913    1.0000 </r>
       <r>    3.7642    1.0000 </r>
       <r>    4.1129    1.0000 </r>
       <r>    4.1331    1.0000 </r>
       <r>    5.3224    1.0000 </r>
       <r>    5.7860    1.0000 </r>
       <r>    6.4343    1.0000 </r>
       <r>    7.7314    0.1746 </r>
       <r>    8.3294   -0.0000 </r>
       <r>    8.6830   -0.0000 </r>
       <r>   11.7365   -0.0000 </r>
       <r>   16.9488    0.0000 </r>
       <r>   17.3967    0.0000 </r>
       <r>   19.7846    0.0000 </r>
       <r>   20.9766    0.0000 </r>
       <r>   25.2814    0.0000 </r>
       <r>   25.5765    0.0000 </r>
       <r>   27.5340    0.0000 </r>
       <r>   28.4756    0.0000 </r>
       <r>   42.2257    0.0000 </r>
       <r>   43.3538    0.0000 </r>
       <r>   45.7918    0.0000 </r>
       <r>   46.9686    0.0000 </r>
       <r>   48.5635    0.0000 </r>
       <r>   48.7021    0.0000 </r>
       <r>   48.7614    0.0000 </r>
       <r>   51.4498    0.0000 </r>
       <r>   54.0790    0.0000 </r>
       <r>   54.5282    0.0000 </r>
       <r>   56.7037    0.0000 </r>
       <r>   58.1165    0.0000 </r>
       <r>   60.6164    0.0000 </r>
       <r>   61.4534    0.0000 </r>
       <r>   62.2320    0.0000 </r>
       <r>   65.8482    0.0000 </r>
       <r>   67.0145    0.0000 </r>
       <r>   67.2860    0.0000 </r>
       <r>   69.1860    0.0000 </r>
       <r>   70.3078    0.0000 </r>
       <r>   70.4435    0.0000 </r>
      </set>
      <set comment="kpoint 16">
       <r>    3.3805    1.0000 </r>
       <r>    3.9172    1.0000 </r>
       <r>    3.9559    1.0000 </r>
       <r>    4.4807    1.0000 </r>
       <r>    5.3901    1.0000 </r>
       <r>    5.5085    1.0000 </r>
       <r>    6.5938    1.0000 </r>
       <r>    8.1010   -0.0030 </r>
       <r>    8.2786   -0.0000 </r>
       <r>    8.4016   -0.0000 </r>
       <r>   13.4966    0.0000 </r>
       <r>   14.8798    0.0000 </r>
       <r>   17.0150    0.0000 </r>
       <r>   21.7918    0.0000 </r>
       <r>   21.9277    0.0000 </r>
       <r>   23.2251    0.0000 </r>
       <r>   25.1666    0.0000 </r>
       <r>   25.9638    0.0000 </r>
       <r>   27.8491    0.0000 </r>
       <r>   42.7018    0.0000 </r>
       <r>   45.3056    0.0000 </r>
       <r>   46.2951    0.0000 </r>
       <r>   47.3158    0.0000 </r>
       <r>   47.9225    0.0000 </r>
       <r>   49.6036    0.0000 </r>
       <r>   49.7095    0.0000 </r>
       <r>   52.2649    0.0000 </r>
       <r>   52.8768    0.0000 </r>
       <r>   53.0480    0.0000 </r>
       <r>   56.4883    0.0000 </r>
       <r>   58.0850    0.0000 </r>
       <r>   58.4773    0.0000 </r>
       <r>   61.5737    0.0000 </r>
       <r>   61.9167    0.0000 </r>
       <r>   66.5431    0.0000 </r>
       <r>   67.2362    0.0000 </r>
       <r>   69.0023    0.0000 </r>
       <r>   69.3559    0.0000 </r>
       <r>   69.7184    0.0000 </r>
       <r>   70.1161    0.0000 </r>
      </set>
      <set comment="kpoint 17">
       <r>   -1.5248    1.0000 </r>
       <r>    2.3077    1.0000 </r>
       <r>    5.5150    1.0000 </r>
       <r>    5.8974    1.0000 </r>
       <r>    5.8975    1.0000 </r>
       <r>    6.2933    1.0000 </r>
       <r>    6.2934    1.0000 </r>
       <r>    7.1433    1.0011 </r>
       <r>    7.1601    1.0016 </r>
       <r>    7.1601    1.0016 </r>
       <r>    8.4659   -0.0000 </r>
       <r>    8.4659   -0.0000 </r>
       <r>   16.6139    0.0000 </r>
       <r>   30.9224    0.0000 </r>
       <r>   32.7511    0.0000 </r>
       <r>   34.2982    0.0000 </r>
       <r>   36.7029    0.0000 </r>
       <r>   36.7030    0.0000 </r>
       <r>   37.4824    0.0000 </r>
       <r>   37.4826    0.0000 </r>
       <r>   40.4468    0.0000 </r>
       <r>   40.4468    0.0000 </r>
       <r>   40.9332    0.0000 </r>
       <r>   41.9658    0.0000 </r>
       <r>   44.2947    0.0000 </r>
       <r>   44.2947    0.0000 </r>
       <r>   46.6715    0.0000 </r>
       <r>   48.8189    0.0000 </r>
       <r>   48.8193    0.0000 </r>
       <r>   50.9473    0.0000 </r>
       <r>   50.9475    0.0000 </r>
       <r>   53.6795    0.0000 </r>
       <r>   61.1776    0.0000 </r>
       <r>   63.3078    0.0000 </r>
       <r>   63.3088    0.0000 </r>
       <r>   63.5954    0.0000 </r>
       <r>   65.2187    0.0000 </r>
       <r>   65.2194    0.0000 </r>
       <r>   65.9922    0.0000 </r>
       <r>   69.8514    0.0000 </r>
      </set>
      <set comment="kpoint 18">
       <r>   -1.1889    1.0000 </r>
       <r>    2.5538    1.0000 </r>
       <r>    5.4140    1.0000 </r>
       <r>    5.9125    1.0000 </r>
       <r>    6.0041    1.0000 </r>
       <r>    6.0912    1.0000 </r>
       <r>    6.3536    1.0000 </r>
       <r>    6.4729    1.0000 </r>
       <r>    7.0465    1.0001 </r>
       <r>    7.0609    1.0001 </r>
       <r>    8.5081   -0.0000 </r>
       <r>    9.6524   -0.0000 </r>
       <r>   16.6610    0.0000 </r>
       <r>   29.8969    0.0000 </r>
       <r>   32.4787    0.0000 </r>
       <r>   33.0469    0.0000 </r>
       <r>   33.8905    0.0000 </r>
       <r>   35.6114    0.0000 </r>
       <r>   37.2007    0.0000 </r>
       <r>   39.7267    0.0000 </r>
       <r>   40.1988    0.0000 </r>
       <r>   40.5293    0.0000 </r>
       <r>   41.2449    0.0000 </r>
       <r>   42.2443    0.0000 </r>
       <r>   45.3182    0.0000 </r>
       <r>   45.7357    0.0000 </r>
       <r>   46.7253    0.0000 </r>
       <r>   46.8000    0.0000 </r>
       <r>   49.9583    0.0000 </r>
       <r>   52.3711    0.0000 </r>
       <r>   53.2026    0.0000 </r>
       <r>   55.3594    0.0000 </r>
       <r>   59.7962    0.0000 </r>
       <r>   62.1620    0.0000 </r>
       <r>   62.9726    0.0000 </r>
       <r>   63.2953    0.0000 </r>
       <r>   64.6126    0.0000 </r>
       <r>   66.0365    0.0000 </r>
       <r>   67.2348    0.0000 </r>
       <r>   69.6511    0.0000 </r>
      </set>
      <set comment="kpoint 19">
       <r>   -0.2430    1.0000 </r>
       <r>    3.1337    1.0000 </r>
       <r>    4.9259    1.0000 </r>
       <r>    5.0794    1.0000 </r>
       <r>    5.7900    1.0000 </r>
       <r>    6.3336    1.0000 </r>
       <r>    6.5445    1.0000 </r>
       <r>    6.8301    1.0000 </r>
       <r>    6.8706    1.0000 </r>
       <r>    7.0161    1.0000 </r>
       <r>    8.5853   -0.0000 </r>
       <r>   11.4608   -0.0000 </r>
       <r>   16.8584    0.0000 </r>
       <r>   26.3303    0.0000 </r>
       <r>   31.0299    0.0000 </r>
       <r>   31.0800    0.0000 </r>
       <r>   32.4804    0.0000 </r>
       <r>   33.4247    0.0000 </r>
       <r>   37.2496    0.0000 </r>
       <r>   38.7937    0.0000 </r>
       <r>   38.7982    0.0000 </r>
       <r>   40.3174    0.0000 </r>
       <r>   42.2164    0.0000 </r>
       <r>   44.3030    0.0000 </r>
       <r>   45.7880    0.0000 </r>
       <r>   46.5158    0.0000 </r>
       <r>   48.0265    0.0000 </r>
       <r>   50.6956    0.0000 </r>
       <r>   53.0073    0.0000 </r>
       <r>   55.3512    0.0000 </r>
       <r>   56.0916    0.0000 </r>
       <r>   57.8063    0.0000 </r>
       <r>   58.5070    0.0000 </r>
       <r>   60.5191    0.0000 </r>
       <r>   61.7774    0.0000 </r>
       <r>   62.5209    0.0000 </r>
       <r>   64.1705    0.0000 </r>
       <r>   67.0625    0.0000 </r>
       <r>   69.1339    0.0000 </r>
       <r>   69.5840    0.0000 </r>
      </set>
      <set comment="kpoint 20">
       <r>    1.0811    1.0000 </r>
       <r>    3.4240    1.0000 </r>
       <r>    4.0308    1.0000 </r>
       <r>    4.9394    1.0000 </r>
       <r>    5.6100    1.0000 </r>
       <r>    6.3395    1.0000 </r>
       <r>    6.3696    1.0000 </r>
       <r>    7.2824    1.0136 </r>
       <r>    7.4950    0.9787 </r>
       <r>    7.6999    0.2833 </r>
       <r>    8.6447   -0.0000 </r>
       <r>   13.3254    0.0000 </r>
       <r>   17.2972    0.0000 </r>
       <r>   22.3940    0.0000 </r>
       <r>   28.1486    0.0000 </r>
       <r>   28.5528    0.0000 </r>
       <r>   30.4797    0.0000 </r>
       <r>   33.1386    0.0000 </r>
       <r>   35.6517    0.0000 </r>
       <r>   37.6606    0.0000 </r>
       <r>   38.6682    0.0000 </r>
       <r>   40.7433    0.0000 </r>
       <r>   40.7913    0.0000 </r>
       <r>   45.1573    0.0000 </r>
       <r>   48.9983    0.0000 </r>
       <r>   50.7092    0.0000 </r>
       <r>   51.3491    0.0000 </r>
       <r>   52.4287    0.0000 </r>
       <r>   55.5573    0.0000 </r>
       <r>   56.6346    0.0000 </r>
       <r>   57.9127    0.0000 </r>
       <r>   59.4640    0.0000 </r>
       <r>   59.8182    0.0000 </r>
       <r>   60.1930    0.0000 </r>
       <r>   61.9931    0.0000 </r>
       <r>   62.7110    0.0000 </r>
       <r>   64.5335    0.0000 </r>
       <r>   67.6203    0.0000 </r>
       <r>   68.2721    0.0000 </r>
       <r>   69.3481    0.0000 </r>
      </set>
      <set comment="kpoint 21">
       <r>    2.2169    1.0000 </r>
       <r>    3.1286    1.0000 </r>
       <r>    3.5151    1.0000 </r>
       <r>    4.9702    1.0000 </r>
       <r>    5.9843    1.0000 </r>
       <r>    6.1107    1.0000 </r>
       <r>    6.2213    1.0000 </r>
       <r>    8.2914   -0.0000 </r>
       <r>    8.3870   -0.0000 </r>
       <r>    8.4519   -0.0000 </r>
       <r>    8.6952   -0.0000 </r>
       <r>   14.7317    0.0000 </r>
       <r>   17.5757    0.0000 </r>
       <r>   19.8868    0.0000 </r>
       <r>   24.9933    0.0000 </r>
       <r>   26.6545    0.0000 </r>
       <r>   28.0021    0.0000 </r>
       <r>   32.2237    0.0000 </r>
       <r>   34.3660    0.0000 </r>
       <r>   36.3980    0.0000 </r>
       <r>   39.6603    0.0000 </r>
       <r>   39.8363    0.0000 </r>
       <r>   42.1885    0.0000 </r>
       <r>   46.0273    0.0000 </r>
       <r>   50.8337    0.0000 </r>
       <r>   52.5563    0.0000 </r>
       <r>   54.4188    0.0000 </r>
       <r>   55.0078    0.0000 </r>
       <r>   56.6010    0.0000 </r>
       <r>   58.1493    0.0000 </r>
       <r>   59.4503    0.0000 </r>
       <r>   60.0634    0.0000 </r>
       <r>   61.0284    0.0000 </r>
       <r>   61.0401    0.0000 </r>
       <r>   62.8352    0.0000 </r>
       <r>   64.4142    0.0000 </r>
       <r>   67.2433    0.0000 </r>
       <r>   67.4430    0.0000 </r>
       <r>   68.2372    0.0000 </r>
       <r>   68.8697    0.0000 </r>
      </set>
      <set comment="kpoint 22">
       <r>    2.6109    1.0000 </r>
       <r>    2.8080    1.0000 </r>
       <r>    3.3863    1.0000 </r>
       <r>    5.0726    1.0000 </r>
       <r>    5.9615    1.0000 </r>
       <r>    6.2467    1.0000 </r>
       <r>    6.4597    1.0000 </r>
       <r>    8.6233   -0.0000 </r>
       <r>    8.7904   -0.0000 </r>
       <r>    8.9453   -0.0000 </r>
       <r>   10.1006   -0.0000 </r>
       <r>   13.5956    0.0000 </r>
       <r>   18.3110    0.0000 </r>
       <r>   19.9868    0.0000 </r>
       <r>   22.9690    0.0000 </r>
       <r>   25.3988    0.0000 </r>
       <r>   25.5896    0.0000 </r>
       <r>   31.5831    0.0000 </r>
       <r>   33.9558    0.0000 </r>
       <r>   35.5187    0.0000 </r>
       <r>   39.2135    0.0000 </r>
       <r>   41.2607    0.0000 </r>
       <r>   42.5969    0.0000 </r>
       <r>   47.0124    0.0000 </r>
       <r>   49.1022    0.0000 </r>
       <r>   54.3262    0.0000 </r>
       <r>   54.8618    0.0000 </r>
       <r>   57.7861    0.0000 </r>
       <r>   58.3003    0.0000 </r>
       <r>   59.4596    0.0000 </r>
       <r>   61.1234    0.0000 </r>
       <r>   61.2433    0.0000 </r>
       <r>   61.4271    0.0000 </r>
       <r>   63.5207    0.0000 </r>
       <r>   64.5755    0.0000 </r>
       <r>   65.4570    0.0000 </r>
       <r>   66.1356    0.0000 </r>
       <r>   67.6654    0.0000 </r>
       <r>   67.9381    0.0000 </r>
       <r>   68.1677    0.0000 </r>
      </set>
      <set comment="kpoint 23">
       <r>   -0.5451    1.0000 </r>
       <r>    2.9848    1.0000 </r>
       <r>    5.1370    1.0000 </r>
       <r>    5.2298    1.0000 </r>
       <r>    6.0150    1.0000 </r>
       <r>    6.0457    1.0000 </r>
       <r>    6.4751    1.0000 </r>
       <r>    6.6727    1.0000 </r>
       <r>    6.9268    1.0000 </r>
       <r>    7.0616    1.0001 </r>
       <r>    8.5405   -0.0000 </r>
       <r>   10.9700   -0.0000 </r>
       <r>   16.7891    0.0000 </r>
       <r>   27.9803    0.0000 </r>
       <r>   29.4252    0.0000 </r>
       <r>   32.8955    0.0000 </r>
       <r>   33.2628    0.0000 </r>
       <r>   35.1445    0.0000 </r>
       <r>   35.9074    0.0000 </r>
       <r>   37.2686    0.0000 </r>
       <r>   39.9715    0.0000 </r>
       <r>   42.6936    0.0000 </r>
       <r>   43.3637    0.0000 </r>
       <r>   43.6274    0.0000 </r>
       <r>   44.0131    0.0000 </r>
       <r>   45.5437    0.0000 </r>
       <r>   45.8522    0.0000 </r>
       <r>   50.8022    0.0000 </r>
       <r>   53.1911    0.0000 </r>
       <r>   54.1405    0.0000 </r>
       <r>   54.4576    0.0000 </r>
       <r>   57.7033    0.0000 </r>
       <r>   58.2983    0.0000 </r>
       <r>   61.2761    0.0000 </r>
       <r>   62.2654    0.0000 </r>
       <r>   62.6781    0.0000 </r>
       <r>   63.6524    0.0000 </r>
       <r>   67.3081    0.0000 </r>
       <r>   68.6882    0.0000 </r>
       <r>   69.2247    0.0000 </r>
      </set>
      <set comment="kpoint 24">
       <r>    0.6169    1.0000 </r>
       <r>    3.5381    1.0000 </r>
       <r>    4.3434    1.0000 </r>
       <r>    4.7576    1.0000 </r>
       <r>    5.7131    1.0000 </r>
       <r>    6.1009    1.0000 </r>
       <r>    6.6378    1.0000 </r>
       <r>    6.7743    1.0000 </r>
       <r>    7.3327    1.0245 </r>
       <r>    7.6197    0.6129 </r>
       <r>    8.5751   -0.0000 </r>
       <r>   12.7075   -0.0000 </r>
       <r>   17.1514    0.0000 </r>
       <r>   24.3870    0.0000 </r>
       <r>   26.9982    0.0000 </r>
       <r>   30.0101    0.0000 </r>
       <r>   32.3025    0.0000 </r>
       <r>   33.3887    0.0000 </r>
       <r>   36.5237    0.0000 </r>
       <r>   36.6029    0.0000 </r>
       <r>   38.3892    0.0000 </r>
       <r>   41.8367    0.0000 </r>
       <r>   43.7340    0.0000 </r>
       <r>   44.1072    0.0000 </r>
       <r>   46.6238    0.0000 </r>
       <r>   47.3623    0.0000 </r>
       <r>   49.3382    0.0000 </r>
       <r>   53.6054    0.0000 </r>
       <r>   55.2277    0.0000 </r>
       <r>   56.9676    0.0000 </r>
       <r>   57.2163    0.0000 </r>
       <r>   58.7237    0.0000 </r>
       <r>   58.9782    0.0000 </r>
       <r>   61.0381    0.0000 </r>
       <r>   61.1708    0.0000 </r>
       <r>   62.0682    0.0000 </r>
       <r>   63.9411    0.0000 </r>
       <r>   68.0881    0.0000 </r>
       <r>   68.8588    0.0000 </r>
       <r>   69.0032    0.0000 </r>
      </set>
      <set comment="kpoint 25">
       <r>    1.9398    1.0000 </r>
       <r>    3.4869    1.0000 </r>
       <r>    3.6997    1.0000 </r>
       <r>    4.7672    1.0000 </r>
       <r>    5.6780    1.0000 </r>
       <r>    6.0300    1.0000 </r>
       <r>    6.3617    1.0000 </r>
       <r>    7.3901    1.0350 </r>
       <r>    8.1116   -0.0024 </r>
       <r>    8.4322   -0.0000 </r>
       <r>    8.7326   -0.0000 </r>
       <r>   14.4366    0.0000 </r>
       <r>   17.7728    0.0000 </r>
       <r>   20.8226    0.0000 </r>
       <r>   25.2349    0.0000 </r>
       <r>   26.7336    0.0000 </r>
       <r>   30.1964    0.0000 </r>
       <r>   31.2804    0.0000 </r>
       <r>   35.8930    0.0000 </r>
       <r>   36.5241    0.0000 </r>
       <r>   38.1535    0.0000 </r>
       <r>   41.6901    0.0000 </r>
       <r>   43.8081    0.0000 </r>
       <r>   45.8116    0.0000 </r>
       <r>   48.5583    0.0000 </r>
       <r>   50.4810    0.0000 </r>
       <r>   52.8487    0.0000 </r>
       <r>   54.2824    0.0000 </r>
       <r>   55.9300    0.0000 </r>
       <r>   57.4219    0.0000 </r>
       <r>   59.7219    0.0000 </r>
       <r>   60.0976    0.0000 </r>
       <r>   60.2865    0.0000 </r>
       <r>   61.1608    0.0000 </r>
       <r>   62.7105    0.0000 </r>
       <r>   63.7133    0.0000 </r>
       <r>   65.9880    0.0000 </r>
       <r>   67.5259    0.0000 </r>
       <r>   68.3648    0.0000 </r>
       <r>   68.7566    0.0000 </r>
      </set>
      <set comment="kpoint 26">
       <r>    2.6882    1.0000 </r>
       <r>    3.1050    1.0000 </r>
       <r>    3.4810    1.0000 </r>
       <r>    4.9202    1.0000 </r>
       <r>    5.8350    1.0000 </r>
       <r>    6.1495    1.0000 </r>
       <r>    6.2351    1.0000 </r>
       <r>    8.2566   -0.0001 </r>
       <r>    8.5421   -0.0000 </r>
       <r>    8.6871   -0.0000 </r>
       <r>    9.8545   -0.0000 </r>
       <r>   14.8332    0.0000 </r>
       <r>   17.8752    0.0000 </r>
       <r>   20.0734    0.0000 </r>
       <r>   23.5914    0.0000 </r>
       <r>   24.2461    0.0000 </r>
       <r>   27.1384    0.0000 </r>
       <r>   30.3188    0.0000 </r>
       <r>   34.8362    0.0000 </r>
       <r>   36.0155    0.0000 </r>
       <r>   39.0601    0.0000 </r>
       <r>   42.0096    0.0000 </r>
       <r>   44.3174    0.0000 </r>
       <r>   46.6673    0.0000 </r>
       <r>   49.9963    0.0000 </r>
       <r>   51.8616    0.0000 </r>
       <r>   53.8788    0.0000 </r>
       <r>   55.8799    0.0000 </r>
       <r>   57.6142    0.0000 </r>
       <r>   59.0640    0.0000 </r>
       <r>   59.1715    0.0000 </r>
       <r>   60.6346    0.0000 </r>
       <r>   61.5864    0.0000 </r>
       <r>   63.4230    0.0000 </r>
       <r>   64.6091    0.0000 </r>
       <r>   65.6501    0.0000 </r>
       <r>   65.7872    0.0000 </r>
       <r>   67.5419    0.0000 </r>
       <r>   68.1145    0.0000 </r>
       <r>   70.0224    0.0000 </r>
      </set>
      <set comment="kpoint 27">
       <r>    2.7977    1.0000 </r>
       <r>    2.9201    1.0000 </r>
       <r>    3.4841    1.0000 </r>
       <r>    5.0259    1.0000 </r>
       <r>    5.7786    1.0000 </r>
       <r>    6.2797    1.0000 </r>
       <r>    6.3627    1.0000 </r>
       <r>    8.5339   -0.0000 </r>
       <r>    8.7667   -0.0000 </r>
       <r>    8.7927   -0.0000 </r>
       <r>   11.0704   -0.0000 </r>
       <r>   13.3358    0.0000 </r>
       <r>   19.1868    0.0000 </r>
       <r>   19.8811    0.0000 </r>
       <r>   23.0530    0.0000 </r>
       <r>   23.3063    0.0000 </r>
       <r>   25.4325    0.0000 </r>
       <r>   29.9875    0.0000 </r>
       <r>   34.4095    0.0000 </r>
       <r>   35.8382    0.0000 </r>
       <r>   39.3572    0.0000 </r>
       <r>   42.5586    0.0000 </r>
       <r>   43.9690    0.0000 </r>
       <r>   48.2448    0.0000 </r>
       <r>   48.4047    0.0000 </r>
       <r>   52.8070    0.0000 </r>
       <r>   54.6358    0.0000 </r>
       <r>   57.0128    0.0000 </r>
       <r>   58.2248    0.0000 </r>
       <r>   58.7296    0.0000 </r>
       <r>   60.8796    0.0000 </r>
       <r>   61.3853    0.0000 </r>
       <r>   61.9891    0.0000 </r>
       <r>   62.3775    0.0000 </r>
       <r>   64.5999    0.0000 </r>
       <r>   66.8973    0.0000 </r>
       <r>   67.0726    0.0000 </r>
       <r>   67.9302    0.0000 </r>
       <r>   68.2661    0.0000 </r>
       <r>   69.7483    0.0000 </r>
      </set>
      <set comment="kpoint 28">
       <r>    1.8578    1.0000 </r>
       <r>    3.8005    1.0000 </r>
       <r>    3.9991    1.0000 </r>
       <r>    4.2788    1.0000 </r>
       <r>    5.6832    1.0000 </r>
       <r>    5.8161    1.0000 </r>
       <r>    6.4961    1.0000 </r>
       <r>    6.9433    1.0000 </r>
       <r>    8.1073   -0.0027 </r>
       <r>    8.3715   -0.0000 </r>
       <r>    8.7679   -0.0000 </r>
       <r>   14.3047    0.0000 </r>
       <r>   17.8670    0.0000 </r>
       <r>   22.3670    0.0000 </r>
       <r>   23.2533    0.0000 </r>
       <r>   28.1496    0.0000 </r>
       <r>   29.6910    0.0000 </r>
       <r>   32.5846    0.0000 </r>
       <r>   33.4320    0.0000 </r>
       <r>   37.6891    0.0000 </r>
       <r>   39.7092    0.0000 </r>
       <r>   43.1192    0.0000 </r>
       <r>   44.7251    0.0000 </r>
       <r>   45.8882    0.0000 </r>
       <r>   46.1825    0.0000 </r>
       <r>   49.3296    0.0000 </r>
       <r>   50.4047    0.0000 </r>
       <r>   54.7042    0.0000 </r>
       <r>   55.9986    0.0000 </r>
       <r>   57.1568    0.0000 </r>
       <r>   59.5676    0.0000 </r>
       <r>   60.2862    0.0000 </r>
       <r>   60.5312    0.0000 </r>
       <r>   62.0415    0.0000 </r>
       <r>   62.3677    0.0000 </r>
       <r>   63.8081    0.0000 </r>
       <r>   64.0895    0.0000 </r>
       <r>   67.8871    0.0000 </r>
       <r>   67.9823    0.0000 </r>
       <r>   69.6562    0.0000 </r>
      </set>
      <set comment="kpoint 29">
       <r>    2.9844    1.0000 </r>
       <r>    3.4949    1.0000 </r>
       <r>    3.7299    1.0000 </r>
       <r>    4.4381    1.0000 </r>
       <r>    5.5050    1.0000 </r>
       <r>    6.0426    1.0000 </r>
       <r>    6.2007    1.0000 </r>
       <r>    7.4701    1.0083 </r>
       <r>    8.3728   -0.0000 </r>
       <r>    8.6661   -0.0000 </r>
       <r>   10.0049   -0.0000 </r>
       <r>   15.8063    0.0000 </r>
       <r>   18.4885    0.0000 </r>
       <r>   19.9541    0.0000 </r>
       <r>   21.6317    0.0000 </r>
       <r>   25.5935    0.0000 </r>
       <r>   28.0369    0.0000 </r>
       <r>   29.3251    0.0000 </r>
       <r>   32.1494    0.0000 </r>
       <r>   39.1078    0.0000 </r>
       <r>   40.4990    0.0000 </r>
       <r>   43.9409    0.0000 </r>
       <r>   45.9684    0.0000 </r>
       <r>   46.7640    0.0000 </r>
       <r>   48.4585    0.0000 </r>
       <r>   49.4101    0.0000 </r>
       <r>   52.4275    0.0000 </r>
       <r>   53.8550    0.0000 </r>
       <r>   56.2165    0.0000 </r>
       <r>   58.2747    0.0000 </r>
       <r>   59.2112    0.0000 </r>
       <r>   60.5232    0.0000 </r>
       <r>   61.8127    0.0000 </r>
       <r>   62.9074    0.0000 </r>
       <r>   64.8869    0.0000 </r>
       <r>   65.4360    0.0000 </r>
       <r>   66.5824    0.0000 </r>
       <r>   68.1170    0.0000 </r>
       <r>   68.9285    0.0000 </r>
       <r>   69.9969    0.0000 </r>
      </set>
      <set comment="kpoint 30">
       <r>    3.1286    1.0000 </r>
       <r>    3.4321    1.0000 </r>
       <r>    3.7186    1.0000 </r>
       <r>    4.7432    1.0000 </r>
       <r>    5.5249    1.0000 </r>
       <r>    5.8427    1.0000 </r>
       <r>    6.4363    1.0000 </r>
       <r>    8.1451   -0.0012 </r>
       <r>    8.3386   -0.0000 </r>
       <r>    8.7261   -0.0000 </r>
       <r>   11.6335   -0.0000 </r>
       <r>   14.7088    0.0000 </r>
       <r>   19.0313    0.0000 </r>
       <r>   20.5019    0.0000 </r>
       <r>   20.9280    0.0000 </r>
       <r>   23.5726    0.0000 </r>
       <r>   26.3943    0.0000 </r>
       <r>   27.3956    0.0000 </r>
       <r>   31.5250    0.0000 </r>
       <r>   39.5442    0.0000 </r>
       <r>   41.4224    0.0000 </r>
       <r>   43.3760    0.0000 </r>
       <r>   47.0030    0.0000 </r>
       <r>   47.8112    0.0000 </r>
       <r>   49.9480    0.0000 </r>
       <r>   50.7740    0.0000 </r>
       <r>   52.3722    0.0000 </r>
       <r>   54.3925    0.0000 </r>
       <r>   56.9746    0.0000 </r>
       <r>   57.6580    0.0000 </r>
       <r>   58.3598    0.0000 </r>
       <r>   61.0236    0.0000 </r>
       <r>   61.4231    0.0000 </r>
       <r>   62.4577    0.0000 </r>
       <r>   66.1490    0.0000 </r>
       <r>   66.5782    0.0000 </r>
       <r>   68.0446    0.0000 </r>
       <r>   68.4097    0.0000 </r>
       <r>   69.2648    0.0000 </r>
       <r>   70.3176    0.0000 </r>
      </set>
      <set comment="kpoint 31">
       <r>    3.3868    1.0000 </r>
       <r>    3.7733    1.0000 </r>
       <r>    4.0939    1.0000 </r>
       <r>    4.1710    1.0000 </r>
       <r>    5.3842    1.0000 </r>
       <r>    5.7190    1.0000 </r>
       <r>    6.4428    1.0000 </r>
       <r>    7.7575    0.1016 </r>
       <r>    8.2368   -0.0001 </r>
       <r>    8.7112   -0.0000 </r>
       <r>   11.7836   -0.0000 </r>
       <r>   16.6532    0.0000 </r>
       <r>   17.4808    0.0000 </r>
       <r>   19.5266    0.0000 </r>
       <r>   21.5360    0.0000 </r>
       <r>   24.9350    0.0000 </r>
       <r>   25.0725    0.0000 </r>
       <r>   28.1791    0.0000 </r>
       <r>   29.0860    0.0000 </r>
       <r>   41.0238    0.0000 </r>
       <r>   43.5165    0.0000 </r>
       <r>   45.5106    0.0000 </r>
       <r>   46.0984    0.0000 </r>
       <r>   47.8379    0.0000 </r>
       <r>   48.8299    0.0000 </r>
       <r>   50.4588    0.0000 </r>
       <r>   52.0653    0.0000 </r>
       <r>   53.9879    0.0000 </r>
       <r>   54.5351    0.0000 </r>
       <r>   56.8438    0.0000 </r>
       <r>   58.6029    0.0000 </r>
       <r>   60.7626    0.0000 </r>
       <r>   61.0418    0.0000 </r>
       <r>   62.5933    0.0000 </r>
       <r>   65.8468    0.0000 </r>
       <r>   66.9688    0.0000 </r>
       <r>   67.1374    0.0000 </r>
       <r>   69.2168    0.0000 </r>
       <r>   70.2488    0.0000 </r>
       <r>   70.3408    0.0000 </r>
      </set>
      <set comment="kpoint 32">
       <r>    3.3880    1.0000 </r>
       <r>    3.9431    1.0000 </r>
       <r>    3.9939    1.0000 </r>
       <r>    4.4350    1.0000 </r>
       <r>    5.3740    1.0000 </r>
       <r>    5.5126    1.0000 </r>
       <r>    6.5999    1.0000 </r>
       <r>    8.1230   -0.0019 </r>
       <r>    8.1817   -0.0005 </r>
       <r>    8.4286   -0.0000 </r>
       <r>   13.5842    0.0000 </r>
       <r>   14.8774    0.0000 </r>
       <r>   17.0375    0.0000 </r>
       <r>   21.2167    0.0000 </r>
       <r>   21.4997    0.0000 </r>
       <r>   23.7303    0.0000 </r>
       <r>   25.0044    0.0000 </r>
       <r>   26.4609    0.0000 </r>
       <r>   28.4812    0.0000 </r>
       <r>   41.9467    0.0000 </r>
       <r>   44.1652    0.0000 </r>
       <r>   45.4918    0.0000 </r>
       <r>   46.8117    0.0000 </r>
       <r>   48.7414    0.0000 </r>
       <r>   49.9192    0.0000 </r>
       <r>   50.9080    0.0000 </r>
       <r>   52.4224    0.0000 </r>
       <r>   52.7793    0.0000 </r>
       <r>   53.8966    0.0000 </r>
       <r>   56.2722    0.0000 </r>
       <r>   57.8722    0.0000 </r>
       <r>   58.8162    0.0000 </r>
       <r>   61.7094    0.0000 </r>
       <r>   61.9993    0.0000 </r>
       <r>   66.4996    0.0000 </r>
       <r>   67.2115    0.0000 </r>
       <r>   68.9694    0.0000 </r>
       <r>   69.0167    0.0000 </r>
       <r>   69.9370    0.0000 </r>
       <r>   70.5101    0.0000 </r>
      </set>
      <set comment="kpoint 33">
       <r>   -1.2607    1.0000 </r>
       <r>    2.2303    1.0000 </r>
       <r>    5.4333    1.0000 </r>
       <r>    5.8589    1.0000 </r>
       <r>    5.8590    1.0000 </r>
       <r>    6.2234    1.0000 </r>
       <r>    6.2235    1.0000 </r>
       <r>    6.5275    1.0000 </r>
       <r>    7.3083    1.0189 </r>
       <r>    7.3084    1.0189 </r>
       <r>    8.4381   -0.0000 </r>
       <r>    8.4381   -0.0000 </r>
       <r>   17.7213    0.0000 </r>
       <r>   30.2977    0.0000 </r>
       <r>   32.0405    0.0000 </r>
       <r>   33.7971    0.0000 </r>
       <r>   36.8598    0.0000 </r>
       <r>   36.8598    0.0000 </r>
       <r>   37.5158    0.0000 </r>
       <r>   37.5160    0.0000 </r>
       <r>   40.2261    0.0000 </r>
[...]
       <r>   22.9187    0.0000 </r>
       <r>   23.7181    0.0000 </r>
       <r>   29.0504    0.0000 </r>
       <r>   30.2521    0.0000 </r>
       <r>   34.6936    0.0000 </r>
       <r>   35.7908    0.0000 </r>
       <r>   37.8036    0.0000 </r>
       <r>   39.3229    0.0000 </r>
       <r>   43.9926    0.0000 </r>
       <r>   44.3571    0.0000 </r>
       <r>   53.4088    0.0000 </r>
       <r>   54.0202    0.0000 </r>
       <r>   55.3212    0.0000 </r>
       <r>   57.0219    0.0000 </r>
       <r>   58.0400    0.0000 </r>
       <r>   58.5822    0.0000 </r>
       <r>   60.8648    0.0000 </r>
       <r>   61.8567    0.0000 </r>
       <r>   63.4070    0.0000 </r>
       <r>   63.8459    0.0000 </r>
       <r>   65.1253    0.0000 </r>
       <r>   65.7357    0.0000 </r>
       <r>   67.0991    0.0000 </r>
       <r>   67.2345    0.0000 </r>
       <r>   67.9987    0.0000 </r>
       <r>   69.3678    0.0000 </r>
      </set>
      <set comment="kpoint 95">
       <r>    3.4376    1.0000 </r>
       <r>    3.4934    1.0000 </r>
       <r>    4.5233    1.0000 </r>
       <r>    4.7649    1.0000 </r>
       <r>    5.1651    1.0000 </r>
       <r>    5.4064    1.0000 </r>
       <r>    6.7214    1.0000 </r>
       <r>    6.9464    1.0000 </r>
       <r>    8.5631   -0.0000 </r>
       <r>    8.7539   -0.0000 </r>
       <r>   12.8080   -0.0000 </r>
       <r>   13.3758    0.0000 </r>
       <r>   19.1690    0.0000 </r>
       <r>   19.6381    0.0000 </r>
       <r>   21.1874    0.0000 </r>
       <r>   21.6165    0.0000 </r>
       <r>   29.2321    0.0000 </r>
       <r>   30.9810    0.0000 </r>
       <r>   34.7330    0.0000 </r>
       <r>   36.2795    0.0000 </r>
       <r>   37.6788    0.0000 </r>
       <r>   38.9095    0.0000 </r>
       <r>   45.7410    0.0000 </r>
       <r>   46.1609    0.0000 </r>
       <r>   50.5464    0.0000 </r>
       <r>   50.6626    0.0000 </r>
       <r>   57.5552    0.0000 </r>
       <r>   58.1907    0.0000 </r>
       <r>   58.6473    0.0000 </r>
       <r>   59.8882    0.0000 </r>
       <r>   61.5332    0.0000 </r>
       <r>   61.6909    0.0000 </r>
       <r>   61.8820    0.0000 </r>
       <r>   62.1685    0.0000 </r>
       <r>   65.2873    0.0000 </r>
       <r>   65.5224    0.0000 </r>
       <r>   66.1303    0.0000 </r>
       <r>   66.4986    0.0000 </r>
       <r>   67.4698    0.0000 </r>
       <r>   69.1331    0.0000 </r>
      </set>
      <set comment="kpoint 96">
       <r>    3.6435    1.0000 </r>
       <r>    3.7880    1.0000 </r>
       <r>    4.4150    1.0000 </r>
       <r>    4.4906    1.0000 </r>
       <r>    5.2206    1.0000 </r>
       <r>    5.3386    1.0000 </r>
       <r>    6.8089    1.0000 </r>
       <r>    6.9819    1.0000 </r>
       <r>    8.5260   -0.0000 </r>
       <r>    8.5973   -0.0000 </r>
       <r>   14.6488    0.0000 </r>
       <r>   14.7822    0.0000 </r>
       <r>   17.5150    0.0000 </r>
       <r>   17.8984    0.0000 </r>
       <r>   20.5471    0.0000 </r>
       <r>   21.0024    0.0000 </r>
       <r>   30.8668    0.0000 </r>
       <r>   31.7818    0.0000 </r>
       <r>   33.9799    0.0000 </r>
       <r>   34.2361    0.0000 </r>
       <r>   37.4780    0.0000 </r>
       <r>   38.3682    0.0000 </r>
       <r>   47.0406    0.0000 </r>
       <r>   47.7230    0.0000 </r>
       <r>   51.6909    0.0000 </r>
       <r>   52.0837    0.0000 </r>
       <r>   54.9291    0.0000 </r>
       <r>   55.2802    0.0000 </r>
       <r>   59.4395    0.0000 </r>
       <r>   60.9976    0.0000 </r>
       <r>   61.7621    0.0000 </r>
       <r>   62.1933    0.0000 </r>
       <r>   63.0456    0.0000 </r>
       <r>   63.2644    0.0000 </r>
       <r>   63.4358    0.0000 </r>
       <r>   64.8774    0.0000 </r>
       <r>   66.8388    0.0000 </r>
       <r>   68.9769    0.0000 </r>
       <r>   69.1087    0.0000 </r>
       <r>   69.5168    0.0000 </r>
      </set>
     </set>
    </set>
   </array>
  </eigenvalues>
  <separator name="orbital magnetization" >
   <v name="MAGDIPOLOUT">      0.00000000      0.00000000      0.00000000</v>
  </separator>
  <dos>
   <i name="efermi">      7.64666912 </i>
   <total>
    <array>
     <dimension dim="1">gridpoints</dimension>
     <dimension dim="2">spin</dimension>
     <field>energy</field>
     <field>total</field>
     <field>integrated</field>
     <set>
      <set comment="spin 1">
       <r>    -5.2676     0.0000     0.0000 </r>
       <r>    -4.9997     0.0000     0.0000 </r>
       <r>    -4.7318     0.0000     0.0000 </r>
       <r>    -4.4638     0.0000     0.0000 </r>
       <r>    -4.1959     0.0000     0.0000 </r>
       <r>    -3.9280     0.0000     0.0000 </r>
       <r>    -3.6601     0.0000     0.0000 </r>
       <r>    -3.3922    -0.0000    -0.0000 </r>
       <r>    -3.1243    -0.0000    -0.0000 </r>
       <r>    -2.8563    -0.0000    -0.0000 </r>
       <r>    -2.5884    -0.0000    -0.0000 </r>
       <r>    -2.3205    -0.0000    -0.0000 </r>
       <r>    -2.0526    -0.0000    -0.0000 </r>
       <r>    -1.7847    -0.0004    -0.0001 </r>
       <r>    -1.5168     0.0083     0.0021 </r>
       <r>    -1.2488     0.0520     0.0160 </r>
       <r>    -0.9809     0.0918     0.0406 </r>
       <r>    -0.7130     0.0606     0.0569 </r>
       <r>    -0.4451     0.1433     0.0952 </r>
       <r>    -0.1772     0.1747     0.1420 </r>
       <r>     0.0908     0.1675     0.1869 </r>
       <r>     0.3587     0.0909     0.2113 </r>
       <r>     0.6266     0.2314     0.2733 </r>
       <r>     0.8945     0.3096     0.3562 </r>
       <r>     1.1624     0.2614     0.4262 </r>
       <r>     1.4303     0.2930     0.5047 </r>
       <r>     1.6983     0.2121     0.5616 </r>
       <r>     1.9662     0.5084     0.6978 </r>
       <r>     2.2341     0.8453     0.9243 </r>
       <r>     2.5020     1.3173     1.2772 </r>
       <r>     2.7699     1.6645     1.7231 </r>
       <r>     3.0378     2.6215     2.4255 </r>
       <r>     3.3058     2.2242     3.0214 </r>
       <r>     3.5737     2.9618     3.8149 </r>
       <r>     3.8416     1.9672     4.3420 </r>
       <r>     4.1095     2.5974     5.0378 </r>
       <r>     4.3774     2.8949     5.8134 </r>
       <r>     4.6453     2.9924     6.6152 </r>
       <r>     4.9133     2.6290     7.3195 </r>
       <r>     5.1812     1.7782     7.7959 </r>
       <r>     5.4491     2.8795     8.5674 </r>
       <r>     5.7170     3.7689     9.5771 </r>
       <r>     5.9849     3.7019    10.5689 </r>
       <r>     6.2528     3.8530    11.6012 </r>
       <r>     6.5208     4.2085    12.7287 </r>
       <r>     6.7887     3.4679    13.6578 </r>
       <r>     7.0566     2.6355    14.3639 </r>
       <r>     7.3245     2.6114    15.0636 </r>
       <r>     7.5924     2.9724    15.8599 </r>
       <r>     7.8604     2.0838    16.4182 </r>
       <r>     8.1283     2.7548    17.1563 </r>
       <r>     8.3962     4.5149    18.3659 </r>
       <r>     8.6641     5.0345    19.7147 </r>
       <r>     8.9320     4.5441    20.9322 </r>
       <r>     9.1999     1.0689    21.2186 </r>
       <r>     9.4679     0.1277    21.2528 </r>
       <r>     9.7358     0.4312    21.3683 </r>
       <r>    10.0037     1.1504    21.6765 </r>
       <r>    10.2716     0.6305    21.8454 </r>
       <r>    10.5395     0.2203    21.9044 </r>
       <r>    10.8074     0.6984    22.0916 </r>
       <r>    11.0754     0.4698    22.2174 </r>
       <r>    11.3433     0.2361    22.2807 </r>
       <r>    11.6112     0.3259    22.3680 </r>
       <r>    11.8791     0.9075    22.6111 </r>
       <r>    12.1470     0.5193    22.7503 </r>
       <r>    12.4149     0.3434    22.8423 </r>
       <r>    12.6829     0.1907    22.8934 </r>
       <r>    12.9508     0.4514    23.0143 </r>
       <r>    13.2187     0.4143    23.1253 </r>
       <r>    13.4866     0.5388    23.2697 </r>
       <r>    13.7545     0.2081    23.3254 </r>
       <r>    14.0225     0.3212    23.4115 </r>
       <r>    14.2904     0.2237    23.4714 </r>
       <r>    14.5583     0.4524    23.5926 </r>
       <r>    14.8262     0.5468    23.7391 </r>
       <r>    15.0941     0.4154    23.8504 </r>
       <r>    15.3620     0.0785    23.8714 </r>
       <r>    15.6300     0.0687    23.8898 </r>
       <r>    15.8979     0.1563    23.9317 </r>
       <r>    16.1658     0.1058    23.9600 </r>
       <r>    16.4337     0.1571    24.0021 </r>
       <r>    16.7016     0.2354    24.0652 </r>
       <r>    16.9695     0.2798    24.1402 </r>
       <r>    17.2375     0.3882    24.2442 </r>
       <r>    17.5054     0.2961    24.3235 </r>
       <r>    17.7733     0.3877    24.4274 </r>
       <r>    18.0412     1.0929    24.7202 </r>
       <r>    18.3091     0.7714    24.9269 </r>
       <r>    18.5770     0.6978    25.1138 </r>
       <r>    18.8450     0.5557    25.2627 </r>
       <r>    19.1129     0.4023    25.3705 </r>
       <r>    19.3808     0.7303    25.5662 </r>
       <r>    19.6487     0.6840    25.7494 </r>
       <r>    19.9166     0.9215    25.9963 </r>
       <r>    20.1845     0.6079    26.1592 </r>
       <r>    20.4525     0.5321    26.3017 </r>
       <r>    20.7204     0.7716    26.5085 </r>
       <r>    20.9883     0.8441    26.7346 </r>
       <r>    21.2562     0.6003    26.8954 </r>
       <r>    21.5241     0.6825    27.0783 </r>
       <r>    21.7921     0.6894    27.2630 </r>
       <r>    22.0600     0.6155    27.4279 </r>
       <r>    22.3279     0.6271    27.5959 </r>
       <r>    22.5958     0.4958    27.7287 </r>
       <r>    22.8637     0.4045    27.8371 </r>
       <r>    23.1316     0.5963    27.9968 </r>
       <r>    23.3996     0.5283    28.1384 </r>
       <r>    23.6675     0.7918    28.3505 </r>
       <r>    23.9354     0.6015    28.5117 </r>
       <r>    24.2033     0.4349    28.6282 </r>
       <r>    24.4712     1.0171    28.9007 </r>
       <r>    24.7391     0.8148    29.1190 </r>
       <r>    25.0071     0.7336    29.3155 </r>
       <r>    25.2750     0.9198    29.5620 </r>
       <r>    25.5429     0.8661    29.7940 </r>
       <r>    25.8108     0.5540    29.9424 </r>
       <r>    26.0787     0.9314    30.1919 </r>
       <r>    26.3466     1.0400    30.4706 </r>
       <r>    26.6146     0.8324    30.6936 </r>
       <r>    26.8825     0.6051    30.8557 </r>
       <r>    27.1504     0.9862    31.1199 </r>
       <r>    27.4183     1.0412    31.3989 </r>
       <r>    27.6862     1.0644    31.6840 </r>
       <r>    27.9542     0.7371    31.8815 </r>
       <r>    28.2221     0.8047    32.0971 </r>
       <r>    28.4900     0.5202    32.2365 </r>
       <r>    28.7579     1.1694    32.5498 </r>
       <r>    29.0258     0.7561    32.7523 </r>
       <r>    29.2937     1.0531    33.0345 </r>
       <r>    29.5617     0.9516    33.2894 </r>
       <r>    29.8296     0.6976    33.4763 </r>
       <r>    30.0975     0.8669    33.7086 </r>
       <r>    30.3654     1.0229    33.9826 </r>
       <r>    30.6333     0.7547    34.1848 </r>
       <r>    30.9012     0.3852    34.2880 </r>
       <r>    31.1692     0.6663    34.4665 </r>
       <r>    31.4371     0.7816    34.6759 </r>
       <r>    31.7050     1.1389    34.9811 </r>
       <r>    31.9729     0.5086    35.1173 </r>
       <r>    32.2408     0.6735    35.2978 </r>
       <r>    32.5087     0.8085    35.5144 </r>
       <r>    32.7767     0.7927    35.7268 </r>
       <r>    33.0446     0.5644    35.8780 </r>
       <r>    33.3125     0.6406    36.0496 </r>
       <r>    33.5804     0.6141    36.2142 </r>
       <r>    33.8483     0.3966    36.3204 </r>
       <r>    34.1162     1.1134    36.6187 </r>
       <r>    34.3842     0.8900    36.8572 </r>
       <r>    34.6521     0.6090    37.0203 </r>
       <r>    34.9200     1.0624    37.3050 </r>
       <r>    35.1879     0.9400    37.5568 </r>
       <r>    35.4558     0.5842    37.7134 </r>
       <r>    35.7238     0.8470    37.9403 </r>
       <r>    35.9917     0.9698    38.2001 </r>
       <r>    36.2596     0.7200    38.3930 </r>
       <r>    36.5275     1.2264    38.7216 </r>
       <r>    36.7954     0.7727    38.9286 </r>
       <r>    37.0633     0.5293    39.0704 </r>
       <r>    37.3313     0.8495    39.2980 </r>
       <r>    37.5992     1.0811    39.5876 </r>
       <r>    37.8671     1.0331    39.8644 </r>
       <r>    38.1350     0.7946    40.0773 </r>
       <r>    38.4029     0.6722    40.2574 </r>
       <r>    38.6708     0.7242    40.4514 </r>
       <r>    38.9388     0.7366    40.6488 </r>
       <r>    39.2067     0.9886    40.9136 </r>
       <r>    39.4746     0.6516    41.0882 </r>
       <r>    39.7425     0.6702    41.2678 </r>
       <r>    40.0104     0.9053    41.5103 </r>
       <r>    40.2783     0.8243    41.7311 </r>
       <r>    40.5463     1.1523    42.0399 </r>
       <r>    40.8142     0.9113    42.2840 </r>
       <r>    41.0821     0.8702    42.5172 </r>
       <r>    41.3500     0.9171    42.7629 </r>
       <r>    41.6179     0.5606    42.9131 </r>
       <r>    41.8858     1.2526    43.2487 </r>
       <r>    42.1538     0.8884    43.4867 </r>
       <r>    42.4217     0.5557    43.6356 </r>
       <r>    42.6896     0.6623    43.8130 </r>
       <r>    42.9575     0.7259    44.0075 </r>
       <r>    43.2254     0.8350    44.2312 </r>
       <r>    43.4934     0.8120    44.4487 </r>
       <r>    43.7613     0.8111    44.6661 </r>
       <r>    44.0292     1.1013    44.9611 </r>
       <r>    44.2971     1.1521    45.2698 </r>
       <r>    44.5650     1.4041    45.6460 </r>
       <r>    44.8329     0.8819    45.8823 </r>
       <r>    45.1009     0.9256    46.1303 </r>
       <r>    45.3688     0.9109    46.3743 </r>
       <r>    45.6367     0.8735    46.6083 </r>
       <r>    45.9046     1.2889    46.9536 </r>
       <r>    46.1725     1.1545    47.2629 </r>
       <r>    46.4404     0.8237    47.4836 </r>
       <r>    46.7084     1.1823    47.8004 </r>
       <r>    46.9763     1.1449    48.1071 </r>
       <r>    47.2442     1.1715    48.4210 </r>
       <r>    47.5121     0.7676    48.6266 </r>
       <r>    47.7800     0.7267    48.8213 </r>
       <r>    48.0479     0.7381    49.0191 </r>
       <r>    48.3159     0.5697    49.1717 </r>
       <r>    48.5838     0.9695    49.4315 </r>
       <r>    48.8517     0.8700    49.6645 </r>
       <r>    49.1196     0.5578    49.8140 </r>
       <r>    49.3875     0.8085    50.0306 </r>
       <r>    49.6555     0.8555    50.2598 </r>
       <r>    49.9234     0.9549    50.5156 </r>
       <r>    50.1913     1.4059    50.8923 </r>
       <r>    50.4592     0.8056    51.1081 </r>
       <r>    50.7271     1.0927    51.4009 </r>
       <r>    50.9950     1.6772    51.8502 </r>
       <r>    51.2630     1.0044    52.1193 </r>
       <r>    51.5309     1.0154    52.3914 </r>
       <r>    51.7988     0.6110    52.5551 </r>
       <r>    52.0667     0.6988    52.7423 </r>
       <r>    52.3346     1.0451    53.0223 </r>
       <r>    52.6025     1.2285    53.3514 </r>
       <r>    52.8705     1.1655    53.6637 </r>
       <r>    53.1384     1.0448    53.9436 </r>
       <r>    53.4063     1.0682    54.2298 </r>
       <r>    53.6742     1.0756    54.5180 </r>
       <r>    53.9421     1.1226    54.8188 </r>
       <r>    54.2100     1.3353    55.1765 </r>
       <r>    54.4780     1.2601    55.5141 </r>
       <r>    54.7459     1.3595    55.8783 </r>
       <r>    55.0138     0.8615    56.1091 </r>
       <r>    55.2817     1.4370    56.4941 </r>
       <r>    55.5496     1.0722    56.7814 </r>
       <r>    55.8175     0.9113    57.0256 </r>
       <r>    56.0855     1.0355    57.3030 </r>
       <r>    56.3534     0.8353    57.5268 </r>
       <r>    56.6213     1.2555    57.8631 </r>
       <r>    56.8892     1.3686    58.2298 </r>
       <r>    57.1571     1.7175    58.6900 </r>
       <r>    57.4251     1.2713    59.0306 </r>
       <r>    57.6930     0.8829    59.2671 </r>
       <r>    57.9609     1.2772    59.6093 </r>
       <r>    58.2288     1.5843    60.0338 </r>
       <r>    58.4967     1.4484    60.4218 </r>
       <r>    58.7646     1.6943    60.8757 </r>
       <r>    59.0326     1.6457    61.3167 </r>
       <r>    59.3005     1.9379    61.8359 </r>
       <r>    59.5684     1.4154    62.2151 </r>
       <r>    59.8363     1.3909    62.5877 </r>
       <r>    60.1042     1.4851    62.9856 </r>
       <r>    60.3721     1.7271    63.4483 </r>
       <r>    60.6401     1.7568    63.9190 </r>
       <r>    60.9080     2.2160    64.5127 </r>
       <r>    61.1759     2.5339    65.1916 </r>
       <r>    61.4438     2.0127    65.7308 </r>
       <r>    61.7117     2.2376    66.3303 </r>
       <r>    61.9796     1.9071    66.8412 </r>
       <r>    62.2476     1.5372    67.2531 </r>
       <r>    62.5155     1.3523    67.6154 </r>
       <r>    62.7834     1.5346    68.0265 </r>
       <r>    63.0513     1.5149    68.4324 </r>
       <r>    63.3192     1.7459    68.9002 </r>
       <r>    63.5872     1.8788    69.4035 </r>
       <r>    63.8551     1.5178    69.8102 </r>
       <r>    64.1230     1.5280    70.2195 </r>
       <r>    64.3909     1.3688    70.5863 </r>
       <r>    64.6588     1.6910    71.0393 </r>
       <r>    64.9267     1.9703    71.5672 </r>
       <r>    65.1947     1.3181    71.9203 </r>
       <r>    65.4626     0.8523    72.1486 </r>
       <r>    65.7305     1.7697    72.6228 </r>
       <r>    65.9984     1.5958    73.0503 </r>
       <r>    66.2663     1.6955    73.5046 </r>
       <r>    66.5342     1.8039    73.9879 </r>
       <r>    66.8022     1.6905    74.4408 </r>
       <r>    67.0701     1.7422    74.9075 </r>
       <r>    67.3380     1.6224    75.3422 </r>
       <r>    67.6059     1.5925    75.7689 </r>
       <r>    67.8738     1.6138    76.2012 </r>
       <r>    68.1417     1.8406    76.6944 </r>
       <r>    68.4097     1.5825    77.1183 </r>
       <r>    68.6776     0.9198    77.3648 </r>
       <r>    68.9455     1.7278    77.8277 </r>
       <r>    69.2134     1.7083    78.2854 </r>
       <r>    69.4813     1.5760    78.7076 </r>
       <r>    69.7492     1.2602    79.0452 </r>
       <r>    70.0172     0.9172    79.2910 </r>
       <r>    70.2851     0.9762    79.5525 </r>
       <r>    70.5530     1.1158    79.8514 </r>
       <r>    70.8209     0.3823    79.9539 </r>
       <r>    71.0888     0.1113    79.9837 </r>
       <r>    71.3568     0.0030    79.9845 </r>
       <r>    71.6247     0.0580    80.0000 </r>
       <r>    71.8926     0.0001    80.0001 </r>
       <r>    72.1605    -0.0003    80.0000 </r>
       <r>    72.4284    -0.0000    80.0000 </r>
       <r>    72.6963    -0.0000    80.0000 </r>
       <r>    72.9643     0.0000    80.0000 </r>
       <r>    73.2322     0.0000    80.0000 </r>
       <r>    73.5001     0.0000    80.0000 </r>
       <r>    73.7680     0.0000    80.0000 </r>
       <r>    74.0359     0.0000    80.0000 </r>
       <r>    74.3038     0.0000    80.0000 </r>
       <r>    74.5718     0.0000    80.0000 </r>
       <r>    74.8397     0.0000    80.0000 </r>
       <r>    75.1076     0.0000    80.0000 </r>
      </set>
     </set>
    </array>
   </total>
  </dos>
 </calculation>
 <structure name="finalpos" >
  <crystal>
   <varray name="basis" >
    <v>       2.35330000       0.00000000       0.00000000 </v>
    <v>      -1.17665000       2.03801758       0.00000000 </v>
    <v>       0.00000000       0.00000000       3.97536000 </v>
   </varray>
   <i name="volume">     19.06609202 </i>
   <varray name="rec_basis" >
    <v>       0.42493520       0.24533645       0.00000000 </v>
    <v>       0.00000000       0.49067290       0.00000000 </v>
    <v>       0.00000000       0.00000000       0.25154955 </v>
   </varray>
  </crystal>
  <varray name="positions" >
   <v>       0.00000000       0.00000000       0.00000000 </v>
   <v>       0.33333333       0.66666667       0.50000000 </v>
  </varray>
 </structure>
</modeling>
