unknown system                          
   1.00000000000000     
     3.556291    0.000000    0.000000
     0.000000    3.556291    0.000000
     0.000000    0.000000    3.556291
   Fe
     4
Direct
  0.000000  0.000000  0.000000
  0.500000  0.500000  0.000000
  0.500000  0.000000  0.500000
  0.000000  0.500000  0.500000
 
   32   32   32
 0.37870883069E+03 0.36052144707E+03 0.31126281944E+03 0.24401530228E+03 0.17354912320E+03
 0.11146945944E+03 0.64595466610E+02 0.35124931320E+02 0.20834013718E+02 0.15697494882E+02
 0.13022353291E+02 0.11207213328E+02 0.10088397401E+02 0.94307809311E+01 0.90208691633E+01
 0.87520422293E+01 0.86496340311E+01 0.87520422293E+01 0.90208691633E+01 0.94307809311E+01
 0.10088397401E+02 0.11207213328E+02 0.13022353291E+02 0.15697494882E+02 0.20834013718E+02
 0.35124931320E+02 0.64595466610E+02 0.11146945944E+03 0.17354912320E+03 0.24401530228E+03
 0.31126281944E+03 0.36052144707E+03 0.36052144707E+03 0.34319831936E+03 0.29626074050E+03
 0.23214688286E+03 0.16496199659E+03 0.10585819447E+03 0.61410654382E+02 0.33682419445E+02
 0.20398463405E+02 0.15616518342E+02 0.13009292470E+02 0.11245698931E+02 0.10157969875E+02
 0.95161075854E+01 0.91146569636E+01 0.88518563663E+01 0.87520422293E+01 0.88518563663E+01
 0.91146569636E+01 0.95161075854E+01 0.10157969875E+02 0.11245698931E+02 0.13009292470E+02
 0.15616518342E+02 0.20398463405E+02 0.33682419445E+02 0.61410654382E+02 0.10585819447E+03
 0.16496199659E+03 0.23214688286E+03 0.29626074050E+03 0.34319831936E+03 0.31126281944E+03
 0.29626074050E+03 0.25557355090E+03 0.19994207021E+03 0.14169676822E+03 0.90741656362E+02
 0.52937650248E+02 0.29936398503E+02 0.19315084786E+02 0.15388288495E+02 0.12973416886E+02
 0.11352726294E+02 0.10348228784E+02 0.97459476705E+01 0.93638469200E+01 0.91146569636E+01
 0.90208691633E+01 0.91146569636E+01 0.93638469200E+01 0.97459476705E+01 0.10348228784E+02
 0.11352726294E+02 0.12973416886E+02 0.15388288495E+02 0.19315084786E+02 0.29936398503E+02
 0.52937650248E+02 0.90741656362E+02 0.14169676822E+03 0.19994207021E+03 0.25557355090E+03
 0.29626074050E+03 0.24401530228E+03 0.23214688286E+03 0.19994207021E+03 0.15593117041E+03
 0.11006742829E+03 0.70476453804E+02 0.41897444225E+02 0.25308505053E+02 0.18082053401E+02
 0.15051526152E+02 0.12935128508E+02 0.11527011088E+02 0.10644395454E+02 0.10099932483E+02
 0.97459476705E+01 0.95161075854E+01 0.94307809311E+01 0.95161075854E+01 0.97459476705E+01
 0.10099932483E+02 0.10644395454E+02 0.11527011088E+02 0.12935128508E+02 0.15051526152E+02
 0.18082053401E+02 0.25308505053E+02 0.41897444225E+02 0.70476453804E+02 0.11006742829E+03
 0.15593117041E+03 0.19994207021E+03 0.23214688286E+03 0.17354912320E+03 0.16496199659E+03
 0.14169676822E+03 0.11006742829E+03 0.77534765503E+02 0.50201144890E+02 0.31405791768E+02
 0.21291336875E+02 0.17072114440E+02 0.14677009034E+02 0.12946557105E+02 0.11810107932E+02
 0.11094228206E+02 0.10644395454E+02 0.10348228784E+02 0.10157969875E+02 0.10088397401E+02
 0.10157969875E+02 0.10348228784E+02 0.10644395454E+02 0.11094228206E+02 0.11810107932E+02
 0.12946557105E+02 0.14677009034E+02 0.17072114440E+02 0.21291336875E+02 0.31405791768E+02
 0.50201144890E+02 0.77534765503E+02 0.11006742829E+03 0.14169676822E+03 0.16496199659E+03
 0.11146945944E+03 0.10585819447E+03 0.90741656362E+02 0.70476453804E+02 0.50201144890E+02
 0.33985439057E+02 0.23694723983E+02 0.18670573342E+02 0.16208999636E+02 0.14361873677E+02
 0.13090429885E+02 0.12289938546E+02 0.11810107932E+02 0.11527011088E+02 0.11352726294E+02
 0.11245698931E+02 0.11207213328E+02 0.11245698931E+02 0.11352726294E+02 0.11527011088E+02
 0.11810107932E+02 0.12289938546E+02 0.13090429885E+02 0.14361873677E+02 0.16208999636E+02
 0.18670573342E+02 0.23694723983E+02 0.33985439057E+02 0.50201144890E+02 0.70476453804E+02
 0.90741656362E+02 0.10585819447E+03 0.64595466610E+02 0.61410654382E+02 0.52937650248E+02
 0.41897444225E+02 0.31405791768E+02 0.23694723983E+02 0.19331082289E+02 0.17112643163E+02
 0.15434226214E+02 0.14218837117E+02 0.13473011297E+02 0.13090429885E+02 0.12946557105E+02
 0.12935128508E+02 0.12973416886E+02 0.13009292470E+02 0.13022353291E+02 0.13009292470E+02
 0.12973416886E+02 0.12935128508E+02 0.12946557105E+02 0.13090429885E+02 0.13473011297E+02
 0.14218837117E+02 0.15434226214E+02 0.17112643163E+02 0.19331082289E+02 0.23694723983E+02
 0.31405791768E+02 0.41897444225E+02 0.52937650248E+02 0.61410654382E+02 0.35124931320E+02
 0.33682419445E+02 0.29936398503E+02 0.25308505053E+02 0.21291336875E+02 0.18670573342E+02
 0.17112643163E+02 0.15837921463E+02 0.14893858755E+02 0.14364142889E+02 0.14218837117E+02
 0.14361873677E+02 0.14677009034E+02 0.15051526152E+02 0.15388288495E+02 0.15616518342E+02
 0.15697494882E+02 0.15616518342E+02 0.15388288495E+02 0.15051526152E+02 0.14677009034E+02
 0.14361873677E+02 0.14218837117E+02 0.14364142889E+02 0.14893858755E+02 0.15837921463E+02
 0.17112643163E+02 0.18670573342E+02 0.21291336875E+02 0.25308505053E+02 0.29936398503E+02
 0.33682419445E+02 0.20834013718E+02 0.20398463405E+02 0.19315084786E+02 0.18082053401E+02
 0.17072114440E+02 0.16208999636E+02 0.15434226214E+02 0.14893858755E+02 0.14699933692E+02
 0.14893858755E+02 0.15434226214E+02 0.16208999636E+02 0.17072114440E+02 0.18082053401E+02
 0.19315084786E+02 0.20398463405E+02 0.20834013718E+02 0.20398463405E+02 0.19315084786E+02
 0.18082053401E+02 0.17072114440E+02 0.16208999636E+02 0.15434226214E+02 0.14893858755E+02
 0.14699933692E+02 0.14893858755E+02 0.15434226214E+02 0.16208999636E+02 0.17072114440E+02
 0.18082053401E+02 0.19315084786E+02 0.20398463405E+02 0.15697494882E+02 0.15616518342E+02
 0.15388288495E+02 0.15051526152E+02 0.14677009034E+02 0.14361873677E+02 0.14218837117E+02
 0.14364142889E+02 0.14893858755E+02 0.15837921463E+02 0.17112643163E+02 0.18670573342E+02
 0.21291336875E+02 0.25308505053E+02 0.29936398503E+02 0.33682419445E+02 0.35124931320E+02
 0.33682419445E+02 0.29936398503E+02 0.25308505053E+02 0.21291336875E+02 0.18670573342E+02
 0.17112643163E+02 0.15837921463E+02 0.14893858755E+02 0.14364142889E+02 0.14218837117E+02
 0.14361873677E+02 0.14677009034E+02 0.15051526152E+02 0.15388288495E+02 0.15616518342E+02
 0.13022353291E+02 0.13009292470E+02 0.12973416886E+02 0.12935128508E+02 0.12946557105E+02
 0.13090429885E+02 0.13473011297E+02 0.14218837117E+02 0.15434226214E+02 0.17112643163E+02
 0.19331082289E+02 0.23694723983E+02 0.31405791768E+02 0.41897444225E+02 0.52937650248E+02
 0.61410654382E+02 0.64595466610E+02 0.61410654382E+02 0.52937650248E+02 0.41897444225E+02
 0.31405791768E+02 0.23694723983E+02 0.19331082289E+02 0.17112643163E+02 0.15434226214E+02
 0.14218837117E+02 0.13473011297E+02 0.13090429885E+02 0.12946557105E+02 0.12935128508E+02
 0.12973416886E+02 0.13009292470E+02 0.11207213328E+02 0.11245698931E+02 0.11352726294E+02
 0.11527011088E+02 0.11810107932E+02 0.12289938546E+02 0.13090429885E+02 0.14361873677E+02
 0.16208999636E+02 0.18670573342E+02 0.23694723983E+02 0.33985439057E+02 0.50201144890E+02
 0.70476453804E+02 0.90741656362E+02 0.10585819447E+03 0.11146945944E+03 0.10585819447E+03
 0.90741656362E+02 0.70476453804E+02 0.50201144890E+02 0.33985439057E+02 0.23694723983E+02
 0.18670573342E+02 0.16208999636E+02 0.14361873677E+02 0.13090429885E+02 0.12289938546E+02
 0.11810107932E+02 0.11527011088E+02 0.11352726294E+02 0.11245698931E+02 0.10088397401E+02
 0.10157969875E+02 0.10348228784E+02 0.10644395454E+02 0.11094228206E+02 0.11810107932E+02
 0.12946557105E+02 0.14677009034E+02 0.17072114440E+02 0.21291336875E+02 0.31405791768E+02
 0.50201144890E+02 0.77534765503E+02 0.11006742829E+03 0.14169676822E+03 0.16496199659E+03
 0.17354912320E+03 0.16496199659E+03 0.14169676822E+03 0.11006742829E+03 0.77534765503E+02
 0.50201144890E+02 0.31405791768E+02 0.21291336875E+02 0.17072114440E+02 0.14677009034E+02
 0.12946557105E+02 0.11810107932E+02 0.11094228206E+02 0.10644395454E+02 0.10348228784E+02
 0.10157969875E+02 0.94307809311E+01 0.95161075854E+01 0.97459476705E+01 0.10099932483E+02
 0.10644395454E+02 0.11527011088E+02 0.12935128508E+02 0.15051526152E+02 0.18082053401E+02
 0.25308505053E+02 0.41897444225E+02 0.70476453804E+02 0.11006742829E+03 0.15593117041E+03
 0.19994207021E+03 0.23214688286E+03 0.24401530228E+03 0.23214688286E+03 0.19994207021E+03
 0.15593117041E+03 0.11006742829E+03 0.70476453804E+02 0.41897444225E+02 0.25308505053E+02
 0.18082053401E+02 0.15051526152E+02 0.12935128508E+02 0.11527011088E+02 0.10644395454E+02
 0.10099932483E+02 0.97459476705E+01 0.95161075854E+01 0.90208691633E+01 0.91146569636E+01
 0.93638469200E+01 0.97459476705E+01 0.10348228784E+02 0.11352726294E+02 0.12973416886E+02
 0.15388288495E+02 0.19315084786E+02 0.29936398503E+02 0.52937650248E+02 0.90741656362E+02
 0.14169676822E+03 0.19994207021E+03 0.25557355090E+03 0.29626074050E+03 0.31126281944E+03
 0.29626074050E+03 0.25557355090E+03 0.19994207021E+03 0.14169676822E+03 0.90741656362E+02
 0.52937650248E+02 0.29936398503E+02 0.19315084786E+02 0.15388288495E+02 0.12973416886E+02
 0.11352726294E+02 0.10348228784E+02 0.97459476705E+01 0.93638469200E+01 0.91146569636E+01
 0.87520422293E+01 0.88518563663E+01 0.91146569636E+01 0.95161075854E+01 0.10157969875E+02
 0.11245698931E+02 0.13009292470E+02 0.15616518342E+02 0.20398463405E+02 0.33682419445E+02
 0.61410654382E+02 0.10585819447E+03 0.16496199659E+03 0.23214688286E+03 0.29626074050E+03
 0.34319831936E+03 0.36052144707E+03 0.34319831936E+03 0.29626074050E+03 0.23214688286E+03
 0.16496199659E+03 0.10585819447E+03 0.61410654382E+02 0.33682419445E+02 0.20398463405E+02
 0.15616518342E+02 0.13009292470E+02 0.11245698931E+02 0.10157969875E+02 0.95161075854E+01
 0.91146569636E+01 0.88518563663E+01 0.86496340311E+01 0.87520422293E+01 0.90208691633E+01
 0.94307809311E+01 0.10088397401E+02 0.11207213328E+02 0.13022353291E+02 0.15697494882E+02
 0.20834013718E+02 0.35124931320E+02 0.64595466610E+02 0.11146945944E+03 0.17354912320E+03
 0.24401530228E+03 0.31126281944E+03 0.36052144707E+03 0.37870883069E+03 0.36052144707E+03
 0.31126281944E+03 0.24401530228E+03 0.17354912320E+03 0.11146945944E+03 0.64595466610E+02
 0.35124931320E+02 0.20834013718E+02 0.15697494882E+02 0.13022353291E+02 0.11207213328E+02
 0.10088397401E+02 0.94307809311E+01 0.90208691633E+01 0.87520422293E+01 0.87520422293E+01
 0.88518563663E+01 0.91146569636E+01 0.95161075854E+01 0.10157969875E+02 0.11245698931E+02
 0.13009292470E+02 0.15616518342E+02 0.20398463405E+02 0.33682419445E+02 0.61410654382E+02
 0.10585819447E+03 0.16496199659E+03 0.23214688286E+03 0.29626074050E+03 0.34319831936E+03
 0.36052144707E+03 0.34319831936E+03 0.29626074050E+03 0.23214688286E+03 0.16496199659E+03
 0.10585819447E+03 0.61410654382E+02 0.33682419445E+02 0.20398463405E+02 0.15616518342E+02
 0.13009292470E+02 0.11245698931E+02 0.10157969875E+02 0.95161075854E+01 0.91146569636E+01
 0.88518563663E+01 0.90208691633E+01 0.91146569636E+01 0.93638469200E+01 0.97459476705E+01
 0.10348228784E+02 0.11352726294E+02 0.12973416886E+02 0.15388288495E+02 0.19315084786E+02
 0.29936398503E+02 0.52937650248E+02 0.90741656362E+02 0.14169676822E+03 0.19994207021E+03
 0.25557355090E+03 0.29626074050E+03 0.31126281944E+03 0.29626074050E+03 0.25557355090E+03
 0.19994207021E+03 0.14169676822E+03 0.90741656362E+02 0.52937650248E+02 0.29936398503E+02
 0.19315084786E+02 0.15388288495E+02 0.12973416886E+02 0.11352726294E+02 0.10348228784E+02
 0.97459476705E+01 0.93638469200E+01 0.91146569636E+01 0.94307809311E+01 0.95161075854E+01
 0.97459476705E+01 0.10099932483E+02 0.10644395454E+02 0.11527011088E+02 0.12935128508E+02
 0.15051526152E+02 0.18082053401E+02 0.25308505053E+02 0.41897444225E+02 0.70476453804E+02
 0.11006742829E+03 0.15593117041E+03 0.19994207021E+03 0.23214688286E+03 0.24401530228E+03
 0.23214688286E+03 0.19994207021E+03 0.15593117041E+03 0.11006742829E+03 0.70476453804E+02
 0.41897444225E+02 0.25308505053E+02 0.18082053401E+02 0.15051526152E+02 0.12935128508E+02
 0.11527011088E+02 0.10644395454E+02 0.10099932483E+02 0.97459476705E+01 0.95161075854E+01
 0.10088397401E+02 0.10157969875E+02 0.10348228784E+02 0.10644395454E+02 0.11094228206E+02
 0.11810107932E+02 0.12946557105E+02 0.14677009034E+02 0.17072114440E+02 0.21291336875E+02
 0.31405791768E+02 0.50201144890E+02 0.77534765503E+02 0.11006742829E+03 0.14169676822E+03
 0.16496199659E+03 0.17354912320E+03 0.16496199659E+03 0.14169676822E+03 0.11006742829E+03
 0.77534765503E+02 0.50201144890E+02 0.31405791768E+02 0.21291336875E+02 0.17072114440E+02
 0.14677009034E+02 0.12946557105E+02 0.11810107932E+02 0.11094228206E+02 0.10644395454E+02
 0.10348228784E+02 0.10157969875E+02 0.11207213328E+02 0.11245698931E+02 0.11352726294E+02
 0.11527011088E+02 0.11810107932E+02 0.12289938546E+02 0.13090429885E+02 0.14361873677E+02
 0.16208999636E+02 0.18670573342E+02 0.23694723983E+02 0.33985439057E+02 0.50201144890E+02
 0.70476453804E+02 0.90741656362E+02 0.10585819447E+03 0.11146945944E+03 0.10585819447E+03
 0.90741656362E+02 0.70476453804E+02 0.50201144890E+02 0.33985439057E+02 0.23694723983E+02
 0.18670573342E+02 0.16208999636E+02 0.14361873677E+02 0.13090429885E+02 0.12289938546E+02
 0.11810107932E+02 0.11527011088E+02 0.11352726294E+02 0.11245698931E+02 0.13022353291E+02
 0.13009292470E+02 0.12973416886E+02 0.12935128508E+02 0.12946557105E+02 0.13090429885E+02
 0.13473011297E+02 0.14218837117E+02 0.15434226214E+02 0.17112643163E+02 0.19331082289E+02
 0.23694723983E+02 0.31405791768E+02 0.41897444225E+02 0.52937650248E+02 0.61410654382E+02
 0.64595466610E+02 0.61410654382E+02 0.52937650248E+02 0.41897444225E+02 0.31405791768E+02
 0.23694723983E+02 0.19331082289E+02 0.17112643163E+02 0.15434226214E+02 0.14218837117E+02
 0.13473011297E+02 0.13090429885E+02 0.12946557105E+02 0.12935128508E+02 0.12973416886E+02
 0.13009292470E+02 0.15697494882E+02 0.15616518342E+02 0.15388288495E+02 0.15051526152E+02
 0.14677009034E+02 0.14361873677E+02 0.14218837117E+02 0.14364142889E+02 0.14893858755E+02
 0.15837921463E+02 0.17112643163E+02 0.18670573342E+02 0.21291336875E+02 0.25308505053E+02
 0.29936398503E+02 0.33682419445E+02 0.35124931320E+02 0.33682419445E+02 0.29936398503E+02
 0.25308505053E+02 0.21291336875E+02 0.18670573342E+02 0.17112643163E+02 0.15837921463E+02
 0.14893858755E+02 0.14364142889E+02 0.14218837117E+02 0.14361873677E+02 0.14677009034E+02
 0.15051526152E+02 0.15388288495E+02 0.15616518342E+02 0.20834013718E+02 0.20398463405E+02
 0.19315084786E+02 0.18082053401E+02 0.17072114440E+02 0.16208999636E+02 0.15434226214E+02
 0.14893858755E+02 0.14699933692E+02 0.14893858755E+02 0.15434226214E+02 0.16208999636E+02
 0.17072114440E+02 0.18082053401E+02 0.19315084786E+02 0.20398463405E+02 0.20834013718E+02
 0.20398463405E+02 0.19315084786E+02 0.18082053401E+02 0.17072114440E+02 0.16208999636E+02
 0.15434226214E+02 0.14893858755E+02 0.14699933692E+02 0.14893858755E+02 0.15434226214E+02
 0.16208999636E+02 0.17072114440E+02 0.18082053401E+02 0.19315084786E+02 0.20398463405E+02
 0.35124931320E+02 0.33682419445E+02 0.29936398503E+02 0.25308505053E+02 0.21291336875E+02
 0.18670573342E+02 0.17112643163E+02 0.15837921463E+02 0.14893858755E+02 0.14364142889E+02
 0.14218837117E+02 0.14361873677E+02 0.14677009034E+02 0.15051526152E+02 0.15388288495E+02
 0.15616518342E+02 0.15697494882E+02 0.15616518342E+02 0.15388288495E+02 0.15051526152E+02
 0.14677009034E+02 0.14361873677E+02 0.14218837117E+02 0.14364142889E+02 0.14893858755E+02
 0.15837921463E+02 0.17112643163E+02 0.18670573342E+02 0.21291336875E+02 0.25308505053E+02
 0.29936398503E+02 0.33682419445E+02 0.64595466610E+02 0.61410654382E+02 0.52937650248E+02
 0.41897444225E+02 0.31405791768E+02 0.23694723983E+02 0.19331082289E+02 0.17112643163E+02
 0.15434226214E+02 0.14218837117E+02 0.13473011297E+02 0.13090429885E+02 0.12946557105E+02
 0.12935128508E+02 0.12973416886E+02 0.13009292470E+02 0.13022353291E+02 0.13009292470E+02
 0.12973416886E+02 0.12935128508E+02 0.12946557105E+02 0.13090429885E+02 0.13473011297E+02
 0.14218837117E+02 0.15434226214E+02 0.17112643163E+02 0.19331082289E+02 0.23694723983E+02
 0.31405791768E+02 0.41897444225E+02 0.52937650248E+02 0.61410654382E+02 0.11146945944E+03
 0.10585819447E+03 0.90741656362E+02 0.70476453804E+02 0.50201144890E+02 0.33985439057E+02
 0.23694723983E+02 0.18670573342E+02 0.16208999636E+02 0.14361873677E+02 0.13090429885E+02
 0.12289938546E+02 0.11810107932E+02 0.11527011088E+02 0.11352726294E+02 0.11245698931E+02
 0.11207213328E+02 0.11245698931E+02 0.11352726294E+02 0.11527011088E+02 0.11810107932E+02
 0.12289938546E+02 0.13090429885E+02 0.14361873677E+02 0.16208999636E+02 0.18670573342E+02
 0.23694723983E+02 0.33985439057E+02 0.50201144890E+02 0.70476453804E+02 0.90741656362E+02
 0.10585819447E+03 0.17354912320E+03 0.16496199659E+03 0.14169676822E+03 0.11006742829E+03
 0.77534765503E+02 0.50201144890E+02 0.31405791768E+02 0.21291336875E+02 0.17072114440E+02
 0.14677009034E+02 0.12946557105E+02 0.11810107932E+02 0.11094228206E+02 0.10644395454E+02
 0.10348228784E+02 0.10157969875E+02 0.10088397401E+02 0.10157969875E+02 0.10348228784E+02
 0.10644395454E+02 0.11094228206E+02 0.11810107932E+02 0.12946557105E+02 0.14677009034E+02
 0.17072114440E+02 0.21291336875E+02 0.31405791768E+02 0.50201144890E+02 0.77534765503E+02
 0.11006742829E+03 0.14169676822E+03 0.16496199659E+03 0.24401530228E+03 0.23214688286E+03
 0.19994207021E+03 0.15593117041E+03 0.11006742829E+03 0.70476453804E+02 0.41897444225E+02
 0.25308505053E+02 0.18082053401E+02 0.15051526152E+02 0.12935128508E+02 0.11527011088E+02
 0.10644395454E+02 0.10099932483E+02 0.97459476705E+01 0.95161075854E+01 0.94307809311E+01
 0.95161075854E+01 0.97459476705E+01 0.10099932483E+02 0.10644395454E+02 0.11527011088E+02
 0.12935128508E+02 0.15051526152E+02 0.18082053401E+02 0.25308505053E+02 0.41897444225E+02
 0.70476453804E+02 0.11006742829E+03 0.15593117041E+03 0.19994207021E+03 0.23214688286E+03
 0.31126281944E+03 0.29626074050E+03 0.25557355090E+03 0.19994207021E+03 0.14169676822E+03
 0.90741656362E+02 0.52937650248E+02 0.29936398503E+02 0.19315084786E+02 0.15388288495E+02
 0.12973416886E+02 0.11352726294E+02 0.10348228784E+02 0.97459476705E+01 0.93638469200E+01
 0.91146569636E+01 0.90208691633E+01 0.91146569636E+01 0.93638469200E+01 0.97459476705E+01
 0.10348228784E+02 0.11352726294E+02 0.12973416886E+02 0.15388288495E+02 0.19315084786E+02
 0.29936398503E+02 0.52937650248E+02 0.90741656362E+02 0.14169676822E+03 0.19994207021E+03
 0.25557355090E+03 0.29626074050E+03 0.36052144707E+03 0.34319831936E+03 0.29626074050E+03
 0.23214688286E+03 0.16496199659E+03 0.10585819447E+03 0.61410654382E+02 0.33682419445E+02
 0.20398463405E+02 0.15616518342E+02 0.13009292470E+02 0.11245698931E+02 0.10157969875E+02
 0.95161075854E+01 0.91146569636E+01 0.88518563663E+01 0.87520422293E+01 0.88518563663E+01
 0.91146569636E+01 0.95161075854E+01 0.10157969875E+02 0.11245698931E+02 0.13009292470E+02
 0.15616518342E+02 0.20398463405E+02 0.33682419445E+02 0.61410654382E+02 0.10585819447E+03
 0.16496199659E+03 0.23214688286E+03 0.29626074050E+03 0.34319831936E+03 0.36052144707E+03
 0.34319831936E+03 0.29626074050E+03 0.23214688286E+03 0.16496199659E+03 0.10585819447E+03
 0.61410654382E+02 0.33682419445E+02 0.20398463405E+02 0.15616518342E+02 0.13009292470E+02
 0.11245698931E+02 0.10157969875E+02 0.95161075854E+01 0.91146569636E+01 0.88518563663E+01
 0.87520422293E+01 0.88518563663E+01 0.91146569636E+01 0.95161075854E+01 0.10157969875E+02
 0.11245698931E+02 0.13009292470E+02 0.15616518342E+02 0.20398463405E+02 0.33682419445E+02
 0.61410654382E+02 0.10585819447E+03 0.16496199659E+03 0.23214688286E+03 0.29626074050E+03
 0.34319831936E+03 0.34319831936E+03 0.32669559175E+03 0.28196403110E+03 0.22083550802E+03
 0.15678548081E+03 0.10053048006E+03 0.58404468272E+02 0.32335115266E+02 0.19998026477E+02
 0.15535442389E+02 0.12995090617E+02 0.11282324118E+02 0.10225219496E+02 0.95989761037E+01
 0.92059639567E+01 0.89491244689E+01 0.88518563663E+01 0.89491244689E+01 0.92059639567E+01
 0.95989761037E+01 0.10225219496E+02 0.11282324118E+02 0.12995090617E+02 0.15535442389E+02
 0.19998026477E+02 0.32335115266E+02 0.58404468272E+02 0.10053048006E+03 0.15678548081E+03
 0.22083550802E+03 0.28196403110E+03 0.32669559175E+03 0.29626074050E+03 0.28196403110E+03
 0.24318031624E+03 0.19014151529E+03 0.13463905401E+03 0.86187495263E+02 0.50416128566E+02
 0.28842925013E+02 0.19003081310E+02 0.15305338963E+02 0.12956401608E+02 0.11384500223E+02
 0.10409488316E+02 0.98226784345E+01 0.94491921499E+01 0.92059639567E+01 0.91146569636E+01
 0.92059639567E+01 0.94491921499E+01 0.98226784345E+01 0.10409488316E+02 0.11384500223E+02
 0.12956401608E+02 0.15305338963E+02 0.19003081310E+02 0.28842925013E+02 0.50416128566E+02
 0.86187495263E+02 0.13463905401E+03 0.19014151529E+03 0.24318031624E+03 0.28196403110E+03
 0.23214688286E+03 0.22083550802E+03 0.19014151529E+03 0.14820632833E+03 0.10455718664E+03
 0.66991228030E+02 0.40035562535E+02 0.24546024782E+02 0.17869044076E+02 0.14967539832E+02
 0.12914342777E+02 0.11551558115E+02 0.10696700760E+02 0.10167605206E+02 0.98226784345E+01
 0.95989761037E+01 0.95161075854E+01 0.95989761037E+01 0.98226784345E+01 0.10167605206E+02
 0.10696700760E+02 0.11551558115E+02 0.12914342777E+02 0.14967539832E+02 0.17869044076E+02
 0.24546024782E+02 0.40035562535E+02 0.66991228030E+02 0.10455718664E+03 0.14820632833E+03
 0.19014151529E+03 0.22083550802E+03 0.16496199659E+03 0.15678548081E+03 0.13463905401E+03
 0.10455718664E+03 0.73680871796E+02 0.47848506577E+02 0.30219241826E+02 0.20838755128E+02
 0.16919323378E+02 0.14593618072E+02 0.12920143784E+02 0.11823379092E+02 0.11132145247E+02
 0.10696700760E+02 0.10409488316E+02 0.10225219496E+02 0.10157969875E+02 0.10225219496E+02
 0.10409488316E+02 0.10696700760E+02 0.11132145247E+02 0.11823379092E+02 0.12920143784E+02
 0.14593618072E+02 0.16919323378E+02 0.20838755128E+02 0.30219241826E+02 0.47848506577E+02
 0.73680871796E+02 0.10455718664E+03 0.13463905401E+03 0.15678548081E+03 0.10585819447E+03
 0.10053048006E+03 0.86187495263E+02 0.66991228030E+02 0.47848506577E+02 0.32628815700E+02
 0.23060964794E+02 0.18425534869E+02 0.16067443855E+02 0.14279223199E+02 0.13053830695E+02
 0.12284220570E+02 0.11823379092E+02 0.11551558115E+02 0.11384500223E+02 0.11282324118E+02
 0.11245698931E+02 0.11282324118E+02 0.11384500223E+02 0.11551558115E+02 0.11823379092E+02
 0.12284220570E+02 0.13053830695E+02 0.14279223199E+02 0.16067443855E+02 0.18425534869E+02
 0.23060964794E+02 0.32628815700E+02 0.47848506577E+02 0.66991228030E+02 0.86187495263E+02
 0.10053048006E+03 0.61410654382E+02 0.58404468272E+02 0.50416128566E+02 0.40035562535E+02
 0.30219241826E+02 0.23060964794E+02 0.19040055258E+02 0.16935634419E+02 0.15305997652E+02
 0.14133622890E+02 0.13418023090E+02 0.13053830695E+02 0.12920143784E+02 0.12914342777E+02
 0.12956401608E+02 0.12995090617E+02 0.13009292470E+02 0.12995090617E+02 0.12956401608E+02
 0.12914342777E+02 0.12920143784E+02 0.13053830695E+02 0.13418023090E+02 0.14133622890E+02
 0.15305997652E+02 0.16935634419E+02 0.19040055258E+02 0.23060964794E+02 0.30219241826E+02
 0.40035562535E+02 0.50416128566E+02 0.58404468272E+02 0.33682419445E+02 0.32335115266E+02
 0.28842925013E+02 0.24546024782E+02 0.20838755128E+02 0.18425534869E+02 0.16935634419E+02
 0.15691934126E+02 0.14777754227E+02 0.14268777245E+02 0.14133622890E+02 0.14279223199E+02
 0.14593618072E+02 0.14967539832E+02 0.15305338963E+02 0.15535442389E+02 0.15616518342E+02
 0.15535442389E+02 0.15305338963E+02 0.14967539832E+02 0.14593618072E+02 0.14279223199E+02
 0.14133622890E+02 0.14268777245E+02 0.14777754227E+02 0.15691934126E+02 0.16935634419E+02
 0.18425534869E+02 0.20838755128E+02 0.24546024782E+02 0.28842925013E+02 0.32335115266E+02
 0.20398463405E+02 0.19998026477E+02 0.19003081310E+02 0.17869044076E+02 0.16919323378E+02
 0.16067443855E+02 0.15305997652E+02 0.14777754227E+02 0.14588691777E+02 0.14777754227E+02
 0.15305997652E+02 0.16067443855E+02 0.16919323378E+02 0.17869044076E+02 0.19003081310E+02
 0.19998026477E+02 0.20398463405E+02 0.19998026477E+02 0.19003081310E+02 0.17869044076E+02
 0.16919323378E+02 0.16067443855E+02 0.15305997652E+02 0.14777754227E+02 0.14588691777E+02
 0.14777754227E+02 0.15305997652E+02 0.16067443855E+02 0.16919323378E+02 0.17869044076E+02
 0.19003081310E+02 0.19998026477E+02 0.15616518342E+02 0.15535442389E+02 0.15305338963E+02
 0.14967539832E+02 0.14593618072E+02 0.14279223199E+02 0.14133622890E+02 0.14268777245E+02
 0.14777754227E+02 0.15691934126E+02 0.16935634419E+02 0.18425534869E+02 0.20838755128E+02
 0.24546024782E+02 0.28842925013E+02 0.32335115266E+02 0.33682419445E+02 0.32335115266E+02
 0.28842925013E+02 0.24546024782E+02 0.20838755128E+02 0.18425534869E+02 0.16935634419E+02
 0.15691934126E+02 0.14777754227E+02 0.14268777245E+02 0.14133622890E+02 0.14279223199E+02
 0.14593618072E+02 0.14967539832E+02 0.15305338963E+02 0.15535442389E+02 0.13009292470E+02
 0.12995090617E+02 0.12956401608E+02 0.12914342777E+02 0.12920143784E+02 0.13053830695E+02
 0.13418023090E+02 0.14133622890E+02 0.15305997652E+02 0.16935634419E+02 0.19040055258E+02
 0.23060964794E+02 0.30219241826E+02 0.40035562535E+02 0.50416128566E+02 0.58404468272E+02
 0.61410654382E+02 0.58404468272E+02 0.50416128566E+02 0.40035562535E+02 0.30219241826E+02
 0.23060964794E+02 0.19040055258E+02 0.16935634419E+02 0.15305997652E+02 0.14133622890E+02
 0.13418023090E+02 0.13053830695E+02 0.12920143784E+02 0.12914342777E+02 0.12956401608E+02
 0.12995090617E+02 0.11245698931E+02 0.11282324118E+02 0.11384500223E+02 0.11551558115E+02
 0.11823379092E+02 0.12284220570E+02 0.13053830695E+02 0.14279223199E+02 0.16067443855E+02
 0.18425534869E+02 0.23060964794E+02 0.32628815700E+02 0.47848506577E+02 0.66991228030E+02
 0.86187495263E+02 0.10053048006E+03 0.10585819447E+03 0.10053048006E+03 0.86187495263E+02
 0.66991228030E+02 0.47848506577E+02 0.32628815700E+02 0.23060964794E+02 0.18425534869E+02
 0.16067443855E+02 0.14279223199E+02 0.13053830695E+02 0.12284220570E+02 0.11823379092E+02
 0.11551558115E+02 0.11384500223E+02 0.11282324118E+02 0.10157969875E+02 0.10225219496E+02
 0.10409488316E+02 0.10696700760E+02 0.11132145247E+02 0.11823379092E+02 0.12920143784E+02
 0.14593618072E+02 0.16919323378E+02 0.20838755128E+02 0.30219241826E+02 0.47848506577E+02
 0.73680871796E+02 0.10455718664E+03 0.13463905401E+03 0.15678548081E+03 0.16496199659E+03
 0.15678548081E+03 0.13463905401E+03 0.10455718664E+03 0.73680871796E+02 0.47848506577E+02
 0.30219241826E+02 0.20838755128E+02 0.16919323378E+02 0.14593618072E+02 0.12920143784E+02
 0.11823379092E+02 0.11132145247E+02 0.10696700760E+02 0.10409488316E+02 0.10225219496E+02
 0.95161075854E+01 0.95989761037E+01 0.98226784345E+01 0.10167605206E+02 0.10696700760E+02
 0.11551558115E+02 0.12914342777E+02 0.14967539832E+02 0.17869044076E+02 0.24546024782E+02
 0.40035562535E+02 0.66991228030E+02 0.10455718664E+03 0.14820632833E+03 0.19014151529E+03
 0.22083550802E+03 0.23214688286E+03 0.22083550802E+03 0.19014151529E+03 0.14820632833E+03
 0.10455718664E+03 0.66991228030E+02 0.40035562535E+02 0.24546024782E+02 0.17869044076E+02
 0.14967539832E+02 0.12914342777E+02 0.11551558115E+02 0.10696700760E+02 0.10167605206E+02
 0.98226784345E+01 0.95989761037E+01 0.91146569636E+01 0.92059639567E+01 0.94491921499E+01
 0.98226784345E+01 0.10409488316E+02 0.11384500223E+02 0.12956401608E+02 0.15305338963E+02
 0.19003081310E+02 0.28842925013E+02 0.50416128566E+02 0.86187495263E+02 0.13463905401E+03
 0.19014151529E+03 0.24318031624E+03 0.28196403110E+03 0.29626074050E+03 0.28196403110E+03
 0.24318031624E+03 0.19014151529E+03 0.13463905401E+03 0.86187495263E+02 0.50416128566E+02
 0.28842925013E+02 0.19003081310E+02 0.15305338963E+02 0.12956401608E+02 0.11384500223E+02
 0.10409488316E+02 0.98226784345E+01 0.94491921499E+01 0.92059639567E+01 0.88518563663E+01
 0.89491244689E+01 0.92059639567E+01 0.95989761037E+01 0.10225219496E+02 0.11282324118E+02
 0.12995090617E+02 0.15535442389E+02 0.19998026477E+02 0.32335115266E+02 0.58404468272E+02
 0.10053048006E+03 0.15678548081E+03 0.22083550802E+03 0.28196403110E+03 0.32669559175E+03
 0.34319831936E+03 0.32669559175E+03 0.28196403110E+03 0.22083550802E+03 0.15678548081E+03
 0.10053048006E+03 0.58404468272E+02 0.32335115266E+02 0.19998026477E+02 0.15535442389E+02
 0.12995090617E+02 0.11282324118E+02 0.10225219496E+02 0.95989761037E+01 0.92059639567E+01
 0.89491244689E+01 0.87520422293E+01 0.88518563663E+01 0.91146569636E+01 0.95161075854E+01
 0.10157969875E+02 0.11245698931E+02 0.13009292470E+02 0.15616518342E+02 0.20398463405E+02
 0.33682419445E+02 0.61410654382E+02 0.10585819447E+03 0.16496199659E+03 0.23214688286E+03
 0.29626074050E+03 0.34319831936E+03 0.36052144707E+03 0.34319831936E+03 0.29626074050E+03
 0.23214688286E+03 0.16496199659E+03 0.10585819447E+03 0.61410654382E+02 0.33682419445E+02
 0.20398463405E+02 0.15616518342E+02 0.13009292470E+02 0.11245698931E+02 0.10157969875E+02
 0.95161075854E+01 0.91146569636E+01 0.88518563663E+01 0.88518563663E+01 0.89491244689E+01
 0.92059639567E+01 0.95989761037E+01 0.10225219496E+02 0.11282324118E+02 0.12995090617E+02
 0.15535442389E+02 0.19998026477E+02 0.32335115266E+02 0.58404468272E+02 0.10053048006E+03
 0.15678548081E+03 0.22083550802E+03 0.28196403110E+03 0.32669559175E+03 0.34319831936E+03
 0.32669559175E+03 0.28196403110E+03 0.22083550802E+03 0.15678548081E+03 0.10053048006E+03
 0.58404468272E+02 0.32335115266E+02 0.19998026477E+02 0.15535442389E+02 0.12995090617E+02
 0.11282324118E+02 0.10225219496E+02 0.95989761037E+01 0.92059639567E+01 0.89491244689E+01
 0.91146569636E+01 0.92059639567E+01 0.94491921499E+01 0.98226784345E+01 0.10409488316E+02
 0.11384500223E+02 0.12956401608E+02 0.15305338963E+02 0.19003081310E+02 0.28842925013E+02
 0.50416128566E+02 0.86187495263E+02 0.13463905401E+03 0.19014151529E+03 0.24318031624E+03
 0.28196403110E+03 0.29626074050E+03 0.28196403110E+03 0.24318031624E+03 0.19014151529E+03
 0.13463905401E+03 0.86187495263E+02 0.50416128566E+02 0.28842925013E+02 0.19003081310E+02