   4   4   0   0
  0.1124428E+02  0.3556291E-09  0.3556291E-09  0.3556291E-09  0.5000000E-15
  1.000000000000000E-004
  CAR 
 unknown system                          
     36.33216903     -4.50839556  301      5.78591238      1.00000000
     -4.508  0.0000E+00  0.0000E+00
     -4.372  0.0000E+00  0.0000E+00
     -4.236 -0.1047E-33 -0.1425E-34
     -4.100 -0.7778E-29 -0.1059E-29
     -3.964 -0.2271E-24 -0.3091E-25
     -3.828 -0.2604E-20 -0.3545E-21
     -3.692 -0.1111E-16 -0.1512E-17
     -3.555 -0.1995E-13 -0.2718E-14
     -3.419 -0.1368E-10 -0.1865E-11
     -3.283 -0.3674E-08 -0.5020E-09
     -3.147 -0.3890E-06 -0.5346E-07
     -3.011 -0.1643E-04 -0.2290E-05
     -2.875 -0.2791E-03 -0.4029E-04
     -2.739 -0.1805E-02 -0.2860E-03
     -2.603 -0.1934E-02 -0.5492E-03
     -2.466  0.2218E-01  0.2470E-02
     -2.330  0.8460E-01  0.1399E-01
     -2.194  0.1220E+00  0.3060E-01
     -2.058  0.1489E+00  0.5087E-01
     -1.922  0.2432E+00  0.8397E-01
     -1.786  0.2253E+00  0.1146E+00
     -1.650  0.1746E+00  0.1384E+00
     -1.513  0.3017E+00  0.1795E+00
     -1.377  0.3554E+00  0.2279E+00
     -1.241  0.2977E+00  0.2684E+00
     -1.105  0.3640E+00  0.3179E+00
     -0.969  0.3529E+00  0.3660E+00
     -0.833  0.2976E+00  0.4065E+00
     -0.697  0.4771E+00  0.4714E+00
     -0.560  0.5301E+00  0.5436E+00
     -0.424  0.5465E+00  0.6180E+00
     -0.288  0.4502E+00  0.6793E+00
     -0.152  0.3165E+00  0.7224E+00
     -0.016  0.6071E+00  0.8050E+00
      0.120  0.8086E+00  0.9151E+00
      0.256  0.7196E+00  0.1013E+01
      0.392  0.5953E+00  0.1094E+01
      0.529  0.5773E+00  0.1173E+01
      0.665  0.8747E+00  0.1292E+01
      0.801  0.1085E+01  0.1439E+01
      0.937  0.9143E+00  0.1564E+01
      1.073  0.9006E+00  0.1687E+01
      1.209  0.1364E+01  0.1872E+01
      1.345  0.1706E+01  0.2104E+01
      1.482  0.2292E+01  0.2416E+01
      1.618  0.3457E+01  0.2887E+01
      1.754  0.4145E+01  0.3451E+01
      1.890  0.4177E+01  0.4020E+01
      2.026  0.4089E+01  0.4577E+01
      2.162  0.4573E+01  0.5199E+01
      2.298  0.5314E+01  0.5923E+01
      2.435  0.6088E+01  0.6751E+01
      2.571  0.6764E+01  0.7672E+01
      2.707  0.6654E+01  0.8578E+01
      2.843  0.6355E+01  0.9443E+01
      2.979  0.6134E+01  0.1028E+02
      3.115  0.5762E+01  0.1106E+02
      3.251  0.5558E+01  0.1182E+02
      3.387  0.5474E+01  0.1256E+02
      3.524  0.5518E+01  0.1332E+02
      3.660  0.6311E+01  0.1417E+02
      3.796  0.7822E+01  0.1524E+02
      3.932  0.7662E+01  0.1628E+02
      4.068  0.7545E+01  0.1731E+02
      4.204  0.9093E+01  0.1855E+02
      4.340  0.9611E+01  0.1986E+02
      4.477  0.9563E+01  0.2116E+02
      4.613  0.1060E+02  0.2260E+02
      4.749  0.1020E+02  0.2399E+02
      4.885  0.8198E+01  0.2511E+02
      5.021  0.6678E+01  0.2601E+02
      5.157  0.6175E+01  0.2686E+02
      5.293  0.6809E+01  0.2778E+02
      5.429  0.7776E+01  0.2884E+02
      5.566  0.8889E+01  0.3005E+02
      5.702  0.9264E+01  0.3131E+02
      5.838  0.7908E+01  0.3239E+02
      5.974  0.7434E+01  0.3340E+02
      6.110  0.7555E+01  0.3443E+02
      6.246  0.7411E+01  0.3544E+02
      6.382  0.8706E+01  0.3662E+02
      6.519  0.1143E+02  0.3818E+02
      6.655  0.1380E+02  0.4006E+02
      6.791  0.1023E+02  0.4145E+02
      6.927  0.4465E+01  0.4206E+02
      7.063  0.2251E+01  0.4237E+02
      7.199  0.1722E+01  0.4260E+02
      7.335  0.1102E+01  0.4275E+02
      7.472  0.1043E+01  0.4289E+02
      7.608  0.1254E+01  0.4306E+02
      7.744  0.1540E+01  0.4327E+02
      7.880  0.1539E+01  0.4348E+02
      8.016  0.9340E+00  0.4361E+02
      8.152  0.6376E+00  0.4370E+02
      8.288  0.1513E+01  0.4390E+02
      8.424  0.2007E+01  0.4418E+02
      8.561  0.1031E+01  0.4432E+02
      8.697  0.6325E+00  0.4440E+02
      8.833  0.1043E+01  0.4454E+02
      8.969  0.1323E+01  0.4472E+02
      9.105  0.1345E+01  0.4491E+02
      9.241  0.1091E+01  0.4506E+02
      9.377  0.8359E+00  0.4517E+02
      9.514  0.1041E+01  0.4531E+02
      9.650  0.1127E+01  0.4546E+02
      9.786  0.1162E+01  0.4562E+02
      9.922  0.1150E+01  0.4578E+02
     10.058  0.9882E+00  0.4591E+02
     10.194  0.1096E+01  0.4606E+02
     10.330  0.8607E+00  0.4618E+02
     10.466  0.3672E+00  0.4623E+02
     10.603  0.6174E+00  0.4631E+02
     10.739  0.1089E+01  0.4646E+02
     10.875  0.1212E+01  0.4663E+02
     11.011  0.1173E+01  0.4679E+02
     11.147  0.8123E+00  0.4690E+02
     11.283  0.3671E+00  0.4695E+02
     11.419  0.4605E+00  0.4701E+02
     11.556  0.9540E+00  0.4714E+02
     11.692  0.7443E+00  0.4724E+02
     11.828  0.2586E+00  0.4728E+02
     11.964  0.5020E+00  0.4734E+02
     12.100  0.7460E+00  0.4745E+02
     12.236  0.6507E+00  0.4754E+02
     12.372  0.6733E+00  0.4763E+02
     12.509  0.5225E+00  0.4770E+02
     12.645  0.2851E+00  0.4774E+02
     12.781  0.1781E+00  0.4776E+02
     12.917  0.2053E+00  0.4779E+02
     13.053  0.4069E+00  0.4784E+02
     13.189  0.4690E+00  0.4791E+02
     13.325  0.8252E+00  0.4802E+02
     13.461  0.1315E+01  0.4820E+02
     13.598  0.1400E+01  0.4839E+02
     13.734  0.1638E+01  0.4861E+02
     13.870  0.1607E+01  0.4883E+02
     14.006  0.1554E+01  0.4904E+02
     14.142  0.1569E+01  0.4926E+02
     14.278  0.1001E+01  0.4939E+02
     14.414  0.1039E+01  0.4953E+02
     14.551  0.1592E+01  0.4975E+02
     14.687  0.1156E+01  0.4991E+02
     14.823  0.7541E+00  0.5001E+02
     14.959  0.8505E+00  0.5013E+02
     15.095  0.8261E+00  0.5024E+02
     15.231  0.1161E+01  0.5040E+02
     15.367  0.1284E+01  0.5057E+02
     15.503  0.1195E+01  0.5074E+02
     15.640  0.1051E+01  0.5088E+02
     15.776  0.8689E+00  0.5100E+02
     15.912  0.7967E+00  0.5111E+02
     16.048  0.6763E+00  0.5120E+02
     16.184  0.6868E+00  0.5129E+02
     16.320  0.9749E+00  0.5142E+02
     16.456  0.1165E+01  0.5158E+02
     16.593  0.1518E+01  0.5179E+02
     16.729  0.1524E+01  0.5200E+02
     16.865  0.7559E+00  0.5210E+02
     17.001  0.4811E+00  0.5216E+02
     17.137  0.1736E+01  0.5240E+02
     17.273  0.2556E+01  0.5275E+02
     17.409  0.1687E+01  0.5298E+02
     17.546  0.9734E+00  0.5311E+02
     17.682  0.1012E+01  0.5325E+02
     17.818  0.1722E+01  0.5348E+02
     17.954  0.1848E+01  0.5373E+02
     18.090  0.1509E+01  0.5394E+02
     18.226  0.1394E+01  0.5413E+02
     18.362  0.1678E+01  0.5436E+02
     18.498  0.1733E+01  0.5459E+02
     18.635  0.1343E+01  0.5478E+02
     18.771  0.1364E+01  0.5496E+02
     18.907  0.1441E+01  0.5516E+02
     19.043  0.1479E+01  0.5536E+02
     19.179  0.1664E+01  0.5559E+02
     19.315  0.1887E+01  0.5584E+02
     19.451  0.2182E+01  0.5614E+02
     19.588  0.2062E+01  0.5642E+02
     19.724  0.1330E+01  0.5660E+02
     19.860  0.1078E+01  0.5675E+02
     19.996  0.1491E+01  0.5695E+02
     20.132  0.1631E+01  0.5717E+02
     20.268  0.1611E+01  0.5739E+02
     20.404  0.1609E+01  0.5761E+02
     20.540  0.1906E+01  0.5787E+02
     20.677  0.2281E+01  0.5818E+02
     20.813  0.1870E+01  0.5844E+02
     20.949  0.1405E+01  0.5863E+02
     21.085  0.1748E+01  0.5887E+02
     21.221  0.1960E+01  0.5913E+02
     21.357  0.1701E+01  0.5937E+02
     21.493  0.1956E+01  0.5963E+02
     21.630  0.2024E+01  0.5991E+02
     21.766  0.1733E+01  0.6014E+02
     21.902  0.1745E+01  0.6038E+02
     22.038  0.2074E+01  0.6066E+02
     22.174  0.2186E+01  0.6096E+02
     22.310  0.1826E+01  0.6121E+02
     22.446  0.1346E+01  0.6139E+02
     22.583  0.1258E+01  0.6156E+02
     22.719  0.1556E+01  0.6178E+02
     22.855  0.1766E+01  0.6202E+02
     22.991  0.2182E+01  0.6231E+02
     23.127  0.2548E+01  0.6266E+02
     23.263  0.1630E+01  0.6288E+02
     23.399  0.9199E+00  0.6301E+02
     23.535  0.1332E+01  0.6319E+02
     23.672  0.1228E+01  0.6336E+02
     23.808  0.1270E+01  0.6353E+02
     23.944  0.1985E+01  0.6380E+02
     24.080  0.2446E+01  0.6413E+02
     24.216  0.2067E+01  0.6441E+02
     24.352  0.1573E+01  0.6463E+02
     24.488  0.1490E+01  0.6483E+02
     24.625  0.1124E+01  0.6498E+02
     24.761  0.8574E+00  0.6510E+02
     24.897  0.1604E+01  0.6532E+02
     25.033  0.1786E+01  0.6556E+02
     25.169  0.1720E+01  0.6580E+02
     25.305  0.1519E+01  0.6600E+02
     25.441  0.1194E+01  0.6616E+02
     25.577  0.1140E+01  0.6632E+02
     25.714  0.8889E+00  0.6644E+02
     25.850  0.1261E+01  0.6661E+02
     25.986  0.2200E+01  0.6691E+02
     26.122  0.2008E+01  0.6719E+02
     26.258  0.1160E+01  0.6734E+02
     26.394  0.1063E+01  0.6749E+02
     26.530  0.1607E+01  0.6771E+02
     26.667  0.1907E+01  0.6797E+02
     26.803  0.1704E+01  0.6820E+02
     26.939  0.1823E+01  0.6845E+02
     27.075  0.1884E+01  0.6870E+02
     27.211  0.1311E+01  0.6888E+02
     27.347  0.7515E+00  0.6898E+02
     27.483  0.9382E+00  0.6911E+02
     27.620  0.1755E+01  0.6935E+02
     27.756  0.2316E+01  0.6967E+02
     27.892  0.2519E+01  0.7001E+02
     28.028  0.2249E+01  0.7031E+02
     28.164  0.2031E+01  0.7059E+02
     28.300  0.2074E+01  0.7087E+02
     28.436  0.1951E+01  0.7114E+02
     28.572  0.1762E+01  0.7138E+02
     28.709  0.1867E+01  0.7163E+02
     28.845  0.2356E+01  0.7195E+02
     28.981  0.2124E+01  0.7224E+02
     29.117  0.1638E+01  0.7247E+02
     29.253  0.1692E+01  0.7270E+02
     29.389  0.1747E+01  0.7293E+02
     29.525  0.2367E+01  0.7326E+02
     29.662  0.2709E+01  0.7363E+02
     29.798  0.2156E+01  0.7392E+02
     29.934  0.1820E+01  0.7417E+02
     30.070  0.1502E+01  0.7437E+02
     30.206  0.1583E+01  0.7459E+02
     30.342  0.2422E+01  0.7492E+02
     30.478  0.2446E+01  0.7525E+02
     30.614  0.1908E+01  0.7551E+02
     30.751  0.1792E+01  0.7575E+02
     30.887  0.2445E+01  0.7609E+02
     31.023  0.2646E+01  0.7645E+02
     31.159  0.1979E+01  0.7672E+02
     31.295  0.1725E+01  0.7695E+02
     31.431  0.1632E+01  0.7717E+02
     31.567  0.1474E+01  0.7737E+02
     31.704  0.1762E+01  0.7761E+02
     31.840  0.2024E+01  0.7789E+02
     31.976  0.1751E+01  0.7813E+02
     32.112  0.1257E+01  0.7830E+02
     32.248  0.1159E+01  0.7846E+02
     32.384  0.1022E+01  0.7859E+02
     32.520  0.9113E+00  0.7872E+02
     32.657  0.9563E+00  0.7885E+02
     32.793  0.1092E+01  0.7900E+02
     32.929  0.1099E+01  0.7915E+02
     33.065  0.8709E+00  0.7927E+02
     33.201  0.7361E+00  0.7937E+02
     33.337  0.1019E+01  0.7950E+02
     33.473  0.1208E+01  0.7967E+02
     33.609  0.9668E+00  0.7980E+02
     33.746  0.6031E+00  0.7988E+02
     33.882  0.2922E+00  0.7992E+02
     34.018  0.7670E-01  0.7993E+02
     34.154  0.1138E+00  0.7995E+02
     34.290  0.1926E+00  0.7998E+02
     34.426  0.1528E+00  0.8000E+02
     34.562  0.4135E-01  0.8000E+02
     34.699 -0.6981E-02  0.8000E+02
     34.835 -0.3287E-02  0.8000E+02
     34.971 -0.2832E-03  0.8000E+02
     35.107 -0.7990E-05  0.8000E+02
     35.243 -0.8194E-07  0.8000E+02
     35.379 -0.3171E-09  0.8000E+02
     35.515 -0.4712E-12  0.8000E+02
     35.651 -0.2941E-15  0.8000E+02
     35.788  0.0000E+00  0.8000E+02
     35.924  0.0000E+00  0.8000E+02
     36.060  0.0000E+00  0.8000E+02
     36.196  0.0000E+00  0.8000E+02
     36.332  0.0000E+00  0.8000E+02
