    4    4    1    1
  0.1124428E+02  0.3556291E-09  0.3556291E-09  0.3556291E-09  0.5000000E-15
  1.000000000000000E-004
  CAR 
 unknown system                          
     32     56     40
 
  0.0000000E+00  0.0000000E+00  0.0000000E+00  0.7513148E-03
    1       -2.508396   1.000000
    2        1.460894   1.000000
    3        1.460894   1.000000
    4        1.460894   1.000000
    5        2.130297   1.000000
    6        2.130297   1.000000
    7        2.130297   1.000000
    8        4.371698   1.000000
    9        4.371698   1.000000
   10        4.371698   1.000000
   11        5.724646   0.746246
   12        5.724646   0.746246
   13        6.625456  -0.000000
   14        6.625456  -0.000000
   15        6.625456  -0.000000
   16        6.886884  -0.000000
   17        6.886884  -0.000000
   18        6.886884  -0.000000
   19        6.886884  -0.000000
   20        6.886884  -0.000000
   21        6.886884  -0.000000
   22        8.819305  -0.000000
   23        8.819305  -0.000000
   24        8.819305  -0.000000
   25       16.527787   0.000000
   26       16.527787   0.000000
   27       16.527787   0.000000
   28       21.041623   0.000000
   29       21.041623   0.000000
   30       21.041623   0.000000
   31       21.041623   0.000000
   32       21.041623   0.000000
   33       21.041623   0.000000
   34       26.133795   0.000000
   35       26.133795   0.000000
   36       26.133795   0.000000
   37       28.324033   0.000000
   38       30.317807   0.000000
   39       30.317807   0.000000
   40       30.317807   0.000000
 
  0.9090909E-01  0.0000000E+00  0.0000000E+00  0.4507889E-02
    1       -2.399193   1.000000
    2        1.478835   1.000000
    3        1.525961   1.000000
    4        1.525961   1.000000
    5        2.170624   1.000000
    6        2.175635   1.000000
    7        2.175635   1.000000
    8        4.320237   1.000000
    9        4.409256   1.000000
   10        4.409256   1.000000
   11        5.677289   0.892854
   12        5.742152   0.680341
   13        6.492221  -0.000004
   14        6.492221  -0.000004
   15        6.562894  -0.000000
   16        6.562894  -0.000000
   17        6.606735  -0.000000
   18        6.815404  -0.000000
   19        6.815404  -0.000000
   20        6.887029  -0.000000
   21        6.887029  -0.000000
   22        8.351455  -0.000000
   23        9.294559  -0.000000
   24        9.294559  -0.000000
   25       16.534792   0.000000
   26       16.534792   0.000000
   27       17.154403   0.000000
   28       20.517128   0.000000
   29       20.517128   0.000000
   30       20.748828   0.000000
   31       20.748828   0.000000
   32       21.222291   0.000000
   33       21.222291   0.000000
   34       26.151956   0.000000
   35       26.757333   0.000000
   36       26.757333   0.000000
   37       28.206038   0.000000
   38       30.358515   0.000000
   39       30.867201   0.000000
   40       30.867201   0.000000
 
  0.1818182E+00  0.0000000E+00  0.0000000E+00  0.4507889E-02
    1       -2.076403   1.000000
    2        1.509714   1.000000
    3        1.710737   1.000000
    4        1.710737   1.000000
    5        2.289341   1.000000
    6        2.311893   1.000000
    7        2.311893   1.000000
    8        4.171730   1.000000
    9        4.521052   1.000000
   10        4.521052   1.000000
   11        5.541362   1.035457
   12        5.769847   0.567735
   13        5.769847   0.567735
   14        5.793418   0.468267
   15        6.383746  -0.000099
   16        6.383746  -0.000099
   17        6.551054  -0.000000
   18        6.611918  -0.000000
   19        6.611918  -0.000000
   20        6.887322  -0.000000
   21        6.887322  -0.000000
   22        7.298115  -0.000000
   23       10.255682  -0.000000
   24       10.255682  -0.000000
   25       16.557805   0.000000
   26       16.557805   0.000000
   27       18.686283   0.000000
   28       19.359640   0.000000
   29       19.359640   0.000000
   30       20.063899   0.000000
   31       20.063899   0.000000
   32       21.747913   0.000000
   33       21.747913   0.000000
   34       26.204371   0.000000
   35       27.911197   0.000000
   36       28.216923   0.000000
   37       28.216923   0.000000
   38       30.492644   0.000000
   39       31.055385   0.000000
   40       31.188397   0.000000
 
  0.2727273E+00  0.0000000E+00  0.0000000E+00  0.4507889E-02
    1       -1.555959   1.000000
    2        1.474722   1.000000
    3        1.980979   1.000000
    4        1.980979   1.000000
    5        2.479629   1.000000
    6        2.539603   1.000000
    7        2.539603   1.000000
    8        3.942609   1.000000
    9        4.703942   1.000000
   10        4.703942   1.000000
   11        5.037853   1.000001
   12        5.037853   1.000001
   13        5.338342   1.003444
   14        5.874727   0.162148
   15        6.118170  -0.020263
   16        6.118170  -0.020263
   17        6.175181  -0.009471
   18        6.314296  -0.000600
   19        6.314296  -0.000600
   20        6.464330  -0.000009
   21        6.887830  -0.000000
   22        6.887830  -0.000000
   23       11.384604   0.000000
   24       11.384604   0.000000
   25       16.603918   0.000000
   26       16.603918   0.000000
   27       18.007180   0.000000
   28       18.007180   0.000000
   29       19.306642   0.000000
   30       19.306642   0.000000
   31       20.653151   0.000000
   32       22.578303   0.000000
   33       22.578303   0.000000
   34       26.299885   0.000000
   35       27.546209   0.000000
   36       29.490314   0.000000
   37       29.490314   0.000000
   38       29.752658   0.000000
   39       30.082055   0.000000
   40       30.082055   0.000000
 
  0.3636364E+00  0.0000000E+00  0.0000000E+00  0.4507889E-02
    1       -0.870611   1.000000
    2        1.231698   1.000000
    3        2.269497   1.000000
    4        2.269497   1.000000
    5        2.729983   1.000000
    6        2.859352   1.000000
    7        2.859352   1.000000
    8        3.656598   1.000000
    9        4.366000   1.000000
   10        4.366000   1.000000
   11        4.952274   1.000000
   12        4.952274   1.000000
   13        5.110632   1.000010
   14        5.331965   1.003043
   15        5.830998   0.314496
   16        5.830998   0.314496
   17        5.964340  -0.010012
   18        5.964340  -0.010012
   19        5.980313  -0.021973
   20        6.354070  -0.000221
   21        6.888354  -0.000000
   22        6.888354  -0.000000
   23       12.607186   0.000000
   24       12.607186   0.000000
   25       16.615570   0.000000
   26       16.615570   0.000000
   27       16.669856   0.000000
   28       16.669856   0.000000
   29       18.687550   0.000000
   30       18.687550   0.000000
   31       22.765239   0.000000
   32       23.661463   0.000000
   33       23.661463   0.000000
   34       26.441466   0.000000
   35       27.197516   0.000000
   36       27.909650   0.000000
   37       27.909650   0.000000
   38       28.274278   0.000000
   39       31.330092   0.000000
   40       32.205348   0.000000
 
  0.4545455E+00  0.0000000E+00  0.0000000E+00  0.4507889E-02
    1       -0.084551   1.000000
    2        0.678379   1.000000
    3        2.468210   1.000000
    4        2.468210   1.000000
    5        3.024170   1.000000
    6        3.271329   1.000000
    7        3.271329   1.000000
    8        3.341327   1.000000
    9        3.774642   1.000000
   10        3.774642   1.000000
   11        4.934559   1.000000
   12        4.945210   1.000000
   13        5.256376   1.000584
   14        5.256376   1.000584
   15        5.601190   1.015277
   16        5.601190   1.015277
   17        5.631825   0.982093
   18        5.631825   0.982093
   19        6.101698  -0.024041
   20        6.229720  -0.003700
   21        6.888769  -0.000000
   22        6.888769  -0.000000
   23       13.897741   0.000000
   24       13.897741   0.000000
   25       15.237607   0.000000
   26       15.237607   0.000000
   27       16.729131   0.000000
   28       16.729131   0.000000
   29       18.333080   0.000000
   30       18.333080   0.000000
   31       24.812854   0.000000
   32       24.943140   0.000000
   33       24.943140   0.000000
   34       26.375307   0.000000
   35       26.375307   0.000000
   36       26.635442   0.000000
   37       26.661273   0.000000
   38       26.887260   0.000000
   39       32.275506   0.000000
   40       33.758181   0.000000
 
  0.9090909E-01  0.9090909E-01  0.0000000E+00  0.9015778E-02
    1       -2.290923   1.000000
    2        1.545046   1.000000
    3        1.545046   1.000000
    4        1.589358   1.000000
    5        2.215010   1.000000
    6        2.215010   1.000000
    7        2.219315   1.000000
    8        4.290023   1.000000
    9        4.427058   1.000000
   10        4.442103   1.000000
   11        5.663846   0.924596
   12        5.730720   0.723970
   13        6.240392  -0.003011
   14        6.361576  -0.000181
   15        6.361576  -0.000181
   16        6.504231  -0.000002
   17        6.573871  -0.000000
   18        6.573871  -0.000000
   19        6.814775  -0.000000
   20        6.814775  -0.000000
   21        6.842504  -0.000000
   22        8.843224  -0.000000
   23        8.843224  -0.000000
   24        9.672016  -0.000000
   25       16.534605   0.000000
   26       17.171490   0.000000
   27       17.171490   0.000000
   28       19.408294   0.000000
   29       20.684666   0.000000
   30       20.684666   0.000000
   31       20.922027   0.000000
   32       20.922027   0.000000
   33       21.394995   0.000000
   34       26.788477   0.000000
   35       26.788477   0.000000
   36       26.936184   0.000000
   37       28.002222   0.000000
   38       30.910679   0.000000
   39       30.910679   0.000000
   40       30.999492   0.000000
 
  0.1818182E+00  0.9090909E-01  0.0000000E+00  0.1803156E-01
    1       -1.970833   1.000000
    2        1.579291   1.000000
    3        1.733373   1.000000
    4        1.769658   1.000000
    5        2.330886   1.000000
    6        2.348342   1.000000
    7        2.349966   1.000000
    8        4.156758   1.000000
    9        4.527966   1.000000
   10        4.538480   1.000000
   11        5.547477   1.035287
   12        5.644693   0.961984
   13        5.644712   0.961951
   14        5.778751   0.530280
   15        6.046751  -0.034587
   16        6.334513  -0.000365
   17        6.389258  -0.000085
   18        6.523153  -0.000001
   19        6.611443  -0.000000
   20        6.814466  -0.000000
   21        6.817268  -0.000000
   22        7.884369  -0.000000
   23        9.769375  -0.000000
   24       10.532343  -0.000000
   25       16.505679   0.000000
   26       17.231853   0.000000
   27       18.136778   0.000000
   28       18.715265   0.000000
   29       19.512466   0.000000
   30       20.224565   0.000000
   31       21.168131   0.000000
   32       21.306345   0.000000
   33       21.432174   0.000000
   34       26.887517   0.000000
   35       27.488224   0.000000
   36       27.825230   0.000000
   37       28.267277   0.000000
   38       29.477223   0.000000
   39       31.056060   0.000000
   40       31.401108   0.000000
 
  0.2727273E+00  0.9090909E-01  0.0000000E+00  0.1803156E-01
    1       -1.454914   1.000000
    2        1.549179   1.000000
    3        2.010037   1.000000
    4        2.035292   1.000000
    5        2.516505   1.000000
    6        2.565394   1.000000
    7        2.570990   1.000000
    8        3.937308   1.000000
    9        4.685729   1.000000
   10        4.707500   1.000000
   11        4.927390   1.000000
   12        4.976455   1.000000
   13        5.368070   1.005929
   14        5.549468   1.035163
   15        5.872503   0.168916
   16        6.081952  -0.028525
   17        6.127185  -0.018271
   18        6.313501  -0.000612
   19        6.388351  -0.000087
   20        6.811237  -0.000000
   21        6.813930  -0.000000
   22        7.006287  -0.000000
   23       10.812023  -0.000000
   24       11.605589   0.000000
   25       16.208527   0.000000
   26       17.213833   0.000000
   27       17.331217   0.000000
   28       18.154311   0.000000
   29       19.468847   0.000000
   30       20.638980   0.000000
   31       20.646749   0.000000
   32       21.918489   0.000000
   33       22.276134   0.000000
   34       26.792172   0.000000
   35       27.067779   0.000000
   36       28.005704   0.000000
   37       29.447674   0.000000
   38       30.143619   0.000000
   39       30.315878   0.000000
   40       31.237852   0.000000
 
  0.3636364E+00  0.9090909E-01  0.0000000E+00  0.1803156E-01
    1       -0.775682   1.000000
    2        1.310385   1.000000
    3        2.308461   1.000000
    4        2.324314   1.000000
    5        2.760524   1.000000
    6        2.860368   1.000000
    7        2.883156   1.000000
    8        3.660959   1.000000
    9        4.275432   1.000000
   10        4.340697   1.000000
   11        4.815049   1.000000
   12        4.954211   1.000000
   13        5.023527   1.000000
   14        5.240751   1.000398
   15        5.808736   0.404118
   16        5.841324   0.275214
   17        5.963585  -0.009330
   18        5.996584  -0.029815
   19        6.095867  -0.025389
   20        6.526299  -0.000001
   21        6.810328  -0.000000
   22        6.813186  -0.000000
   23       11.904891   0.000000
   24       12.795703   0.000000
   25       15.258793   0.000000
   26       16.764080   0.000000
   27       17.071221   0.000000
   28       17.430129   0.000000
   29       18.914179   0.000000
   30       19.844521   0.000000
   31       22.502670   0.000000
   32       22.865190   0.000000
   33       23.594861   0.000000
   34       25.956341   0.000000
   35       26.600093   0.000000
   36       27.352589   0.000000
   37       29.260111   0.000000
   38       29.465755   0.000000
   39       31.493089   0.000000
   40       31.908115   0.000000
 
  0.4545455E+00  0.9090909E-01  0.0000000E+00  0.1803156E-01
    1        0.003467   1.000000
    2        0.760632   1.000000
    3        2.519400   1.000000
    4        2.526113   1.000000
    5        3.046908   1.000000
    6        3.236646   1.000000
    7        3.284316   1.000000
    8        3.355168   1.000000
    9        3.708216   1.000000
   10        3.772122   1.000000
   11        4.760142   1.000000
   12        4.771306   1.000000
   13        5.257031   1.000593
   14        5.386394   1.008057
   15        5.600937   1.015472
   16        5.623744   0.992770
   17        5.636392   0.975402
   18        5.710880   0.794074
   19        6.142670  -0.015062
   20        6.308094  -0.000696
   21        6.811101  -0.000000
   22        6.812258  -0.000000
   23       13.020179   0.000000
   24       14.065394   0.000000
   25       14.142889   0.000000
   26       15.393460   0.000000
   27       17.211224   0.000000
   28       17.393586   0.000000
   29       18.801266   0.000000
   30       19.174777   0.000000
   31       23.920497   0.000000
   32       23.934982   0.000000
   33       24.983852   0.000000
   34       25.252541   0.000000
   35       25.509681   0.000000
   36       27.548551   0.000000
   37       27.777982   0.000000
   38       28.400206   0.000000
   39       32.818659   0.000000
   40       33.781427   0.000000
 
  0.1818182E+00  0.1818182E+00  0.0000000E+00  0.9015778E-02
    1       -1.659030   1.000000
    2        1.778108   1.000000
    3        1.778108   1.000000
    4        1.937623   1.000000
    5        2.455507   1.000000
    6        2.455507   1.000000
    7        2.462986   1.000000
    8        4.076342   1.000000
    9        4.587998   1.000000
   10        4.588238   1.000000
   11        5.287003   1.001186
   12        5.323873   1.002592
   13        5.323873   1.002592
   14        5.505695   1.031732
   15        5.799852   0.441174
   16        6.191145  -0.007340
   17        6.359203  -0.000193
   18        6.359203  -0.000193
   19        6.610082  -0.000000
   20        6.610082  -0.000000
   21        6.709848  -0.000000
   22        8.756328  -0.000000
   23        8.756328  -0.000000
   24       11.241832  -0.000000
   25       16.019907   0.000000
   26       17.178002   0.000000
   27       18.789726   0.000000
   28       18.789726   0.000000
   29       19.951583   0.000000
   30       19.951583   0.000000
   31       20.725077   0.000000
   32       20.725077   0.000000
   33       22.400550   0.000000
   34       26.593482   0.000000
   35       27.520432   0.000000
   36       27.919263   0.000000
   37       28.420702   0.000000
   38       28.420702   0.000000
   39       31.836554   0.000000
   40       32.508215   0.000000
 
  0.2727273E+00  0.1818182E+00  0.0000000E+00  0.1803156E-01
    1       -1.156942   1.000000
    2        1.763059   1.000000
    3        2.073830   1.000000
    4        2.188975   1.000000
    5        2.626798   1.000000
    6        2.643188   1.000000
    7        2.663003   1.000000
    8        3.904181   1.000000
    9        4.650178   1.000000
   10        4.652311   1.000000
   11        4.738890   1.000000
   12        4.790080   1.000000
   13        4.906329   1.000000
   14        5.384913   1.007866
   15        5.919770   0.051309
   16        5.973641  -0.017532
   17        6.112807  -0.021480
   18        6.240981  -0.002977
   19        6.311542  -0.000641
   20        6.608089  -0.000000
   21        6.646590  -0.000000
   22        7.773555  -0.000000
   23        9.673082  -0.000000
   24       12.205395   0.000000
   25       14.857785   0.000000
   26       17.083012   0.000000
   27       18.577389   0.000000
   28       18.798016   0.000000
   29       20.094369   0.000000
   30       20.489649   0.000000
   31       20.629161   0.000000
   32       21.762473   0.000000
   33       22.489657   0.000000
   34       25.572874   0.000000
   35       26.474242   0.000000
   36       28.351796   0.000000
   37       28.687138   0.000000
   38       30.329549   0.000000
   39       31.651718   0.000000
   40       32.710418   0.000000
 
  0.3636364E+00  0.1818182E+00  0.0000000E+00  0.1803156E-01
    1       -0.496784   1.000000
    2        1.536751   1.000000
    3        2.402628   1.000000
    4        2.478345   1.000000
    5        2.851145   1.000000
    6        2.868166   1.000000
    7        2.952363   1.000000
    8        3.665486   1.000000
    9        4.050900   1.000000
   10        4.261247   1.000000
   11        4.558767   1.000000
   12        4.657784   1.000000
   13        4.970138   1.000000
   14        5.322238   1.002508
   15        5.736887   0.700694
   16        5.836524   0.293258
   17        5.962568  -0.008394
   18        6.013786  -0.034200
   19        6.102834  -0.023778
   20        6.606233  -0.000000
   21        6.618572  -0.000000
   22        7.064503  -0.000000
   23       10.611577  -0.000000
   24       13.322873   0.000000
   25       13.670415   0.000000
   26       17.191005   0.000000
   27       17.245428   0.000000
   28       18.468356   0.000000
   29       20.028187   0.000000
   30       21.483189   0.000000
   31       21.713656   0.000000
   32       21.866660   0.000000
   33       23.669870   0.000000
   34       24.525261   0.000000
   35       25.144838   0.000000
   36       29.079569   0.000000
   37       30.153933   0.000000
   38       30.562189   0.000000
   39       30.999513   0.000000
   40       32.476773   0.000000
 
  0.4545455E+00  0.1818182E+00  0.0000000E+00  0.1803156E-01
    1        0.260216   1.000000
    2        0.998249   1.000000
    3        2.655654   1.000000
    4        2.692184   1.000000
    5        3.112991   1.000000
    6        3.141667   1.000000
    7        3.320785   1.000000
    8        3.392452   1.000000
    9        3.539399   1.000000
   10        3.761695   1.000000
   11        4.451866   1.000000
   12        4.545134   1.000000
   13        5.264406   1.000707
   14        5.449472   1.019330
   15        5.586268   1.024942
   16        5.602810   1.013993
   17        5.624608   0.991697
   18        5.715149   0.779658
   19        6.332302  -0.000386
   20        6.605427  -0.000000
   21        6.607918  -0.000000
   22        6.625956  -0.000000
   23       11.572989   0.000000
   24       12.581808   0.000000
   25       14.542713   0.000000
   26       15.838745   0.000000
   27       17.544749   0.000000
   28       17.967452   0.000000
   29       20.447641   0.000000
   30       21.105965   0.000000
   31       22.449644   0.000000
   32       22.788661   0.000000
   33       23.476660   0.000000
   34       23.921707   0.000000
   35       25.953648   0.000000
   36       28.290306   0.000000
   37       29.603782   0.000000
   38       30.265080   0.000000
   39       32.374772   0.000000
   40       34.138408   0.000000
 
  0.2727273E+00  0.2727273E+00  0.0000000E+00  0.9015778E-02
    1       -0.678572   1.000000
    2        2.085593   1.000000
    3        2.085593   1.000000
    4        2.416886   1.000000
    5        2.767288   1.000000
    6        2.809153   1.000000
    7        2.809153   1.000000
    8        3.810322   1.000000
    9        4.326745   1.000000
   10        4.326745   1.000000
   11        4.490553   1.000000
   12        4.618641   1.000000
   13        4.839684   1.000000
   14        5.313112   1.002080
   15        5.802063   0.431906
   16        6.015296  -0.034422
   17        6.015296  -0.034422
   18        6.090302  -0.026663
   19        6.309811  -0.000668
   20        6.309811  -0.000668
   21        6.494993  -0.000003
   22        8.563332  -0.000000
   23        8.563332  -0.000000
   24       13.068542   0.000000
   25       13.461264   0.000000
   26       17.222535   0.000000
   27       19.231672   0.000000
   28       19.231672   0.000000
   29       19.884304   0.000000
   30       19.884304   0.000000
   31       21.715755   0.000000
   32       21.715755   0.000000
   33       23.937431   0.000000
   34       24.352686   0.000000
   35       25.063801   0.000000
   36       27.809758   0.000000
   37       30.643327   0.000000
   38       30.643327   0.000000
   39       32.669128   0.000000
   40       33.381757   0.000000
 
  0.3636364E+00  0.2727273E+00  0.0000000E+00  0.1803156E-01
    1       -0.052447   1.000000
    2        1.879146   1.000000
    3        2.456962   1.000000
    4        2.691372   1.000000
    5        2.900056   1.000000
    6        2.998558   1.000000
    7        3.060330   1.000000
    8        3.648389   1.000000
    9        3.818268   1.000000
   10        4.120983   1.000000
   11        4.131440   1.000000
   12        4.538261   1.000000
   13        5.028272   1.000001
   14        5.256731   1.000589
   15        5.609197   1.008449
   16        5.756926   0.621234
   17        5.815861   0.374837
   18        5.965151  -0.010733
   19        6.310982  -0.000650
   20        6.353271  -0.000226
   21        6.397090  -0.000068
   22        7.700651  -0.000000
   23        9.374664  -0.000000
   24       12.226542   0.000000
   25       14.106051   0.000000
   26       17.486143   0.000000
   27       17.850226   0.000000
   28       19.106167   0.000000
   29       20.062284   0.000000
   30       20.719964   0.000000
   31       22.072360   0.000000
   32       23.180604   0.000000
   33       23.787242   0.000000
   34       23.961491   0.000000
   35       24.049946   0.000000
   36       28.854565   0.000000
   37       31.083676   0.000000
   38       31.346097   0.000000
   39       32.768634   0.000000
   40       32.820262   0.000000
 
  0.4545455E+00  0.2727273E+00  0.0000000E+00  0.1803156E-01
    1        0.662636   1.000000
    2        1.361939   1.000000
    3        2.778104   1.000000
    4        2.926673   1.000000
    5        3.019841   1.000000
    6        3.215762   1.000000
    7        3.373431   1.000000
    8        3.382557   1.000000
    9        3.440691   1.000000
   10        3.735126   1.000000
   11        4.175277   1.000000
   12        4.362442   1.000000
   13        5.294114   1.001388
   14        5.344398   1.003864
   15        5.492271   1.029043
   16        5.548572   1.035223
   17        5.560415   1.033800
   18        5.615361   1.002340
   19        6.319722  -0.000526
   20        6.344255  -0.000285
   21        6.682389  -0.000000
   22        7.104330  -0.000000
   23       10.227738  -0.000000
   24       11.162744  -0.000000
   25       15.267775   0.000000
   26       16.522165   0.000000
   27       17.880387   0.000000
   28       18.418856   0.000000
   29       21.019047   0.000000
   30       21.626099   0.000000
   31       22.066185   0.000000
   32       22.645119   0.000000
   33       22.653681   0.000000
   34       23.377392   0.000000
   35       26.394197   0.000000
   36       28.888404   0.000000
   37       30.959115   0.000000
   38       31.639853   0.000000
   39       32.257713   0.000000
   40       33.302398   0.000000
 
  0.3636364E+00  0.3636364E+00  0.0000000E+00  0.9015778E-02
    1        0.521960   1.000000
    2        2.275059   1.000000
    3        2.275059   1.000000
    4        2.829523   1.000000
    5        3.034437   1.000000
    6        3.195788   1.000000
    7        3.195788   1.000000
    8        3.588069   1.000000
    9        3.772546   1.000000
   10        3.772546   1.000000
   11        3.921712   1.000000
   12        4.415645   1.000000
   13        5.158098   1.000042
   14        5.161233   1.000046
   15        5.449132   1.019254
   16        5.580643   1.027650
   17        5.580643   1.027650
   18        5.978110  -0.020591
   19        5.978110  -0.020591
   20        6.210741  -0.005245
   21        6.700353  -0.000000
   22        8.381758  -0.000000
   23        8.381758  -0.000000
   24       10.995900  -0.000000
   25       15.074412   0.000000
   26       17.839171   0.000000
   27       18.690386   0.000000
   28       18.690386   0.000000
   29       19.773989   0.000000
   30       19.773989   0.000000
   31       21.923211   0.000000
   32       22.567691   0.000000
   33       24.435158   0.000000
   34       24.435158   0.000000
   35       25.879145   0.000000
   36       28.185061   0.000000
   37       31.512524   0.000000
   38       32.988136   0.000000
   39       33.284927   0.000000
   40       33.284927   0.000000
 
  0.4545455E+00  0.3636364E+00  0.0000000E+00  0.1803156E-01
    1        1.168171   1.000000
    2        1.796569   1.000000
    3        2.621710   1.000000
    4        2.809579   1.000000
    5        3.254812   1.000000
    6        3.342807   1.000000
    7        3.430306   1.000000
    8        3.481010   1.000000
    9        3.487414   1.000000
   10        3.681671   1.000000
   11        3.956635   1.000000
   12        4.214259   1.000000
   13        5.186115   1.000094
   14        5.342548   1.003732
   15        5.355895   1.004779
   16        5.370150   1.006146
   17        5.390688   1.008629
   18        5.652211   0.948395
   19        6.012974  -0.034070
   20        6.084712  -0.027918
   21        7.121991  -0.000000
   22        7.654417  -0.000000
   23        9.123461  -0.000000
   24        9.974667  -0.000000
   25       16.179312   0.000000
   26       17.391318   0.000000
   27       18.326281   0.000000
   28       18.968920   0.000000
   29       19.666424   0.000000
   30       20.565034   0.000000
   31       20.750114   0.000000
   32       21.494531   0.000000
   33       25.077589   0.000000
   34       25.810082   0.000000
   35       26.935377   0.000000
   36       29.479520   0.000000
   37       29.692158   0.000000
   38       32.097610   0.000000
   39       33.006403   0.000000
   40       33.616076   0.000000
 
  0.4545455E+00  0.4545455E+00  0.0000000E+00  0.9015778E-02
    1        1.713116   1.000000
    2        2.221981   1.000000
    3        2.221981   1.000000
    4        2.564639   1.000000
    5        3.475912   1.000000
    6        3.475912   1.000000
    7        3.495158   1.000000
    8        3.541732   1.000000
    9        3.594099   1.000000
   10        3.768096   1.000000
   11        3.768096   1.000000
   12        4.032845   1.000000
   13        5.113677   1.000011
   14        5.205993   1.000162
   15        5.205993   1.000162
   16        5.208143   1.000172
   17        5.513946   1.033134
   18        5.732903   0.715803
   19        5.732903   0.715803
   20        5.875087   0.161061
   21        7.638634  -0.000000
   22        8.279733  -0.000000
   23        8.279733  -0.000000
   24        9.029413  -0.000000
   25       17.233637   0.000000
   26       18.402024   0.000000
   27       18.402024   0.000000
   28       18.913150   0.000000
   29       19.526616   0.000000
   30       19.657237   0.000000
   31       19.657237   0.000000
   32       20.497065   0.000000
   33       27.624746   0.000000
   34       27.624746   0.000000
   35       28.112211   0.000000
   36       28.857231   0.000000
   37       29.957971   0.000000
   38       30.546173   0.000000
   39       31.079395   0.000000
   40       31.079395   0.000000
 
  0.9090909E-01  0.9090909E-01  0.9090909E-01  0.6010518E-02
    1       -2.183599   1.000000
    2        1.609290   1.000000
    3        1.609290   1.000000
    4        1.609290   1.000000
    5        2.257793   1.000000
    6        2.257793   1.000000
    7        2.257793   1.000000
    8        4.262168   1.000000
    9        4.457225   1.000000
   10        4.457225   1.000000
   11        5.687424   0.865919
   12        5.687424   0.865919
   13        6.130388  -0.017583
   14        6.130388  -0.017583
   15        6.130388  -0.017583
   16        6.447565  -0.000015
   17        6.447565  -0.000015
   18        6.447565  -0.000015
   19        6.814085  -0.000000
   20        6.814085  -0.000000
   21        6.814085  -0.000000