unknown system                          
           1
     3.556291    0.000000    0.000000
     0.000000    3.556291    0.000000
     0.000000    0.000000    3.556291
   Fe
     4
Direct configuration=     1
   0.00000000  0.00000000  0.00000000
   0.50000000  0.50000000  0.00000000
   0.50000000  0.00000000  0.50000000
   0.00000000  0.50000000  0.50000000
