unknown system                          
   1.00000000000000     
     3.862764    0.000000    0.000000
     0.000000    3.862764    0.000000
     0.000000    0.000000    3.862764
   Pd   Ir   Pt   Cu
     1     1     1     1
Direct
  0.000000  0.000000  0.000000
  0.500000  0.500000  0.000000
  0.500000  0.000000  0.500000
  0.000000  0.500000  0.500000
 
   32   32   32
  358.52      342.12      300.03      247.21      194.69      145.47      100.19      62.610      37.451      24.381    
  17.432      13.260      10.997      9.9380      9.3674      8.8907      8.6663      8.8907      9.3674      9.9380    
  10.997      13.260      17.432      24.381      37.451      62.610      100.19      145.47      194.69      247.21    
  300.03      342.12      342.26      326.70      286.70      236.30      185.96      138.77      95.539      59.940    
  36.282      23.985      17.309      13.302      11.126      10.102      9.5476      9.0891      8.8747      9.0891    
  9.5476      10.102      11.126      13.302      17.309      23.985      36.282      59.940      95.539      138.77    
  185.96      236.30      286.70      326.70      299.92      286.49      251.74      207.47      162.80      120.96    
  83.265      52.966      33.264      22.937      16.996      13.445      11.514      10.593      10.092      9.6889    
  9.5036      9.6889      10.092      10.593      11.514      13.445      16.996      22.937      33.264      52.966    
  83.265      120.96      162.80      207.47      251.74      286.49      245.44      234.57      206.20      169.52    
  132.16      97.520      67.360      44.135      29.519      21.549      16.651      13.764      12.207      11.468    
  11.076      10.774      10.638      10.774      11.076      11.468      12.207      13.764      16.651      21.549    
  29.519      44.135      67.360      97.520      132.16      169.52      206.20      234.57      190.29      181.83    
  159.57      130.47      100.81      74.034      51.918      35.880      26.075      20.193      16.513      14.428    
  13.370      12.932      12.754      12.626      12.565      12.626      12.754      12.932      13.370      14.428    
  16.513      20.193      26.075      35.880      51.918      74.034      100.81      130.47      159.57      181.83    
  139.36      133.09      116.52      94.835      73.017      54.105      39.487      29.542      23.330      19.237    
  16.855      15.689      15.299      15.358      15.573      15.740      15.794      15.740      15.573      15.358    
  15.299      15.689      16.855      19.237      23.330      29.542      39.487      54.105      73.017      94.835    
  116.52      133.09      94.594      90.395      79.324      64.956      50.853      39.210      30.774      25.170    
  21.316      18.975      17.946      17.854      18.366      19.196      20.073      20.735      20.980      20.735    
  20.073      19.196      18.366      17.854      17.946      18.975      21.316      25.170      30.774      39.210    
  50.853      64.956      79.324      90.395      59.118      56.763      50.598      42.732      35.247      29.331    
  25.119      22.091      20.245      19.613      20.014      21.190      22.986      25.212      27.452      29.136    
  29.764      29.136      27.452      25.212      22.986      21.190      20.014      19.613      20.245      22.091    
  25.119      29.331      35.247      42.732      50.598      56.763      35.847      34.826      32.175      28.845    
  25.717      23.160      21.244      20.216      20.219      21.243      23.201      26.175      30.122      34.673    
  39.069      42.308      43.506      42.308      39.069      34.673      30.122      26.175      23.201      21.243    
  20.219      20.216      21.244      23.160      25.717      28.845      32.175      34.826      23.519      23.177    
  22.270      21.059      19.868      19.035      18.849      19.528      21.188      23.884      27.897      33.353    
  40.051      47.372      54.215      59.165      60.981      59.165      54.215      47.372      40.051      33.353    
  27.897      23.884      21.188      19.528      18.849      19.035      19.868      21.059      22.270      23.177    
  16.704      16.612      16.381      16.147      16.120      16.554      17.712      19.818      23.024      27.746    
  34.262      42.423      51.760      61.474      70.303      76.613      78.920      76.613      70.303      61.474    
  51.760      42.423      34.262      27.746      23.024      19.818      17.712      16.554      16.120      16.147    
  16.381      16.612      12.506      12.568      12.764      13.160      13.907      15.244      17.461      20.812    
  25.749      32.852      42.008      52.584      63.839      75.011      84.987      92.114      94.730      92.114    
  84.987      75.011      63.839      52.584      42.008      32.852      25.749      20.812      17.461      15.244    
  13.907      13.160      12.764      12.568      10.142      10.285      10.714      11.468      12.698      14.684    
  17.773      22.345      29.283      38.961      50.657      63.152      75.564      87.470      98.141      105.92    
  108.82      105.92      98.141      87.470      75.564      63.152      50.657      38.961      29.283      22.345    
  17.773      14.684      12.698      11.468      10.714      10.285      8.9513      9.1276      9.6551      10.584    
  12.105      14.566      18.383      24.238      33.291      45.541      59.572      73.633      86.922      99.591    
  111.33      120.24      123.64      120.24      111.33      99.591      86.922      73.633      59.572      45.541    
  33.291      24.238      18.383      14.566      12.105      10.584      9.6551      9.1276      8.2638      8.4562    
  9.0354      10.070      11.794      14.625      19.055      26.137      37.137      51.672      67.717      83.161    
  97.459      111.40      124.95      135.64      139.80      135.64      124.95      111.40      97.459      83.161    
  67.717      51.672      37.137      26.137      19.055      14.625      11.794      10.070      9.0354      8.4562    
  7.7175      7.9277      8.5606      9.6914      11.580      14.684      19.568      27.563      39.966      56.121    
  73.599      90.118      105.41      120.75      136.20      148.69      153.59      148.69      136.20      120.75    
  105.41      90.118      73.599      56.121      39.966      27.563      19.568      14.684      11.580      9.6914    
  8.5606      7.9277      7.4725      7.6923      8.3532      9.5303      11.489      14.701      19.758      28.095    
  41.013      57.759      75.766      92.705      108.43      124.40      140.67      153.92      159.15      153.92    
  140.67      124.40      108.43      92.705      75.766      57.759      41.013      28.095      19.758      14.701    
  11.489      9.5303      8.3532      7.6923      7.7175      7.9277      8.5606      9.6914      11.580      14.684    
  19.568      27.563      39.966      56.121      73.599      90.118      105.41      120.75      136.20      148.69    
  153.59      148.69      136.20      120.75      105.41      90.118      73.599      56.121      39.966      27.563    
  19.568      14.684      11.580      9.6914      8.5606      7.9277      8.2638      8.4562      9.0354      10.070    
  11.794      14.625      19.055      26.137      37.137      51.672      67.717      83.161      97.459      111.40    
  124.95      135.64      139.80      135.64      124.95      111.40      97.459      83.161      67.717      51.672    
  37.137      26.137      19.055      14.625      11.794      10.070      9.0354      8.4562      8.9513      9.1276    
  9.6551      10.584      12.105      14.566      18.383      24.238      33.291      45.541      59.572      73.633    
  86.922      99.591      111.33      120.24      123.64      120.24      111.33      99.591      86.922      73.633    
  59.572      45.541      33.291      24.238      18.383      14.566      12.105      10.584      9.6551      9.1276    
  10.142      10.285      10.714      11.468      12.698      14.684      17.773      22.345      29.283      38.961    
  50.657      63.152      75.564      87.470      98.141      105.92      108.82      105.92      98.141      87.470    
  75.564      63.152      50.657      38.961      29.283      22.345      17.773      14.684      12.698      11.468    
  10.714      10.285      12.506      12.568      12.764      13.160      13.907      15.244      17.461      20.812    
  25.749      32.852      42.008      52.584      63.839      75.011      84.987      92.114      94.730      92.114    
  84.987      75.011      63.839      52.584      42.008      32.852      25.749      20.812      17.461      15.244    
  13.907      13.160      12.764      12.568      16.704      16.612      16.381      16.147      16.120      16.554    
  17.712      19.818      23.024      27.746      34.262      42.423      51.760      61.474      70.303      76.613    
  78.920      76.613      70.303      61.474      51.760      42.423      34.262      27.746      23.024      19.818    
  17.712      16.554      16.120      16.147      16.381      16.612      23.519      23.177      22.270      21.059    
  19.868      19.035      18.849      19.528      21.188      23.884      27.897      33.353      40.051      47.372    
  54.215      59.165      60.981      59.165      54.215      47.372      40.051      33.353      27.897      23.884    
  21.188      19.528      18.849      19.035      19.868      21.059      22.270      23.177      35.847      34.826    
  32.175      28.845      25.717      23.160      21.244      20.216      20.219      21.243      23.201      26.175    
  30.122      34.673      39.069      42.308      43.506      42.308      39.069      34.673      30.122      26.175    
  23.201      21.243      20.219      20.216      21.244      23.160      25.717      28.845      32.175      34.826    
  59.118      56.763      50.598      42.732      35.247      29.331      25.119      22.091      20.245      19.613    
  20.014      21.190      22.986      25.212      27.452      29.136      29.764      29.136      27.452      25.212    
  22.986      21.190      20.014      19.613      20.245      22.091      25.119      29.331      35.247      42.732    
  50.598      56.763      94.594      90.395      79.324      64.956      50.853      39.210      30.774      25.170    
  21.316      18.975      17.946      17.854      18.366      19.196      20.073      20.735      20.980      20.735    
  20.073      19.196      18.366      17.854      17.946      18.975      21.316      25.170      30.774      39.210    
  50.853      64.956      79.324      90.395      139.36      133.09      116.52      94.835      73.017      54.105    
  39.487      29.542      23.330      19.237      16.855      15.689      15.299      15.358      15.573      15.740    
  15.794      15.740      15.573      15.358      15.299      15.689      16.855      19.237      23.330      29.542    
  39.487      54.105      73.017      94.835      116.52      133.09      190.29      181.83      159.57      130.47    
  100.81      74.034      51.918      35.880      26.075      20.193      16.513      14.428      13.370      12.932    
  12.754      12.626      12.565      12.626      12.754      12.932      13.370      14.428      16.513      20.193    
  26.075      35.880      51.918      74.034      100.81      130.47      159.57      181.83      245.44      234.57    
  206.20      169.52      132.16      97.520      67.360      44.135      29.519      21.549      16.651      13.764    
  12.207      11.468      11.076      10.774      10.638      10.774      11.076      11.468      12.207      13.764    
  16.651      21.549      29.519      44.135      67.360      97.520      132.16      169.52      206.20      234.57    
  299.92      286.49      251.74      207.47      162.80      120.96      83.265      52.966      33.264      22.937    
  16.996      13.445      11.514      10.593      10.092      9.6889      9.5036      9.6889      10.092      10.593    
  11.514      13.445      16.996      22.937      33.264      52.966      83.265      120.96      162.80      207.47    
  251.74      286.49      342.26      326.70      286.70      236.30      185.96      138.77      95.539      59.940    
  36.282      23.985      17.309      13.302      11.126      10.102      9.5476      9.0891      8.8747      9.0891    
  9.5476      10.102      11.126      13.302      17.309      23.985      36.282      59.940      95.539      138.77    
  185.96      236.30      286.70      326.70      342.47      326.95      287.05      236.71      186.36      139.05    
  95.688      59.986      36.278      23.970      17.298      13.300      11.136      10.122      9.5780      9.1264    
  8.9146      9.1264      9.5780      10.122      11.136      13.300      17.298      23.970      36.278      59.986    
  95.688      139.05      186.36      236.71      287.05      326.95      327.49      312.74      274.70      226.54    
  178.17      132.74      91.315      57.483      35.185      23.592      17.180      13.341      11.260      10.280    
  9.7524      9.3185      9.1162      9.3185      9.7524      10.280      11.260      13.341      17.180      23.592    
  35.185      57.483      91.315      132.74      178.17      226.54      274.70      312.74      288.27      275.43    
  242.14      199.54      156.37      115.94      79.760      50.942      32.360      22.586      16.878      13.478    
  11.633      10.755      10.279      9.8989      9.7245      9.8989      10.279      10.755      11.633      13.478    
  16.878      22.586      32.360      50.942      79.760      115.94      156.37      199.54      242.14      275.43    
  237.18      226.69      199.25      163.66      127.33      93.753      64.752      42.648      28.844      21.244    
  16.544      13.785      12.302      11.600      11.231      10.949      10.821      10.949      11.231      11.600    
  12.302      13.785      16.544      21.244      28.844      42.648      64.752      93.753      127.33      163.66    
  199.25      226.69      184.58      176.35      154.67      126.30      97.387      71.404      50.140      34.877    
  25.583      19.932      16.409      14.423      13.423      13.014      12.853      12.739      12.684      12.739    
  12.853      13.014      13.423      14.423      16.409      19.932      25.583      34.877      50.140      71.404    
  97.387      126.30      154.67      176.35      135.25      129.14      113.00      91.872      70.655      52.364    
  38.347      28.882      22.936      19.006      16.736      15.637      15.282      15.355      15.577      15.748    
  15.805      15.748      15.577      15.355      15.282      15.637      16.736      19.006      22.936      28.882    
  38.347      52.364      70.655      91.872      113.00      129.14      91.651      87.579      76.847      62.933    
  49.311      38.121      30.060      24.695      20.982      18.749      17.785      17.723      18.241      19.062    
  19.921      20.566      20.804      20.566      19.921      19.062      18.241      17.723      17.785      18.749    
  20.982      24.695      30.060      38.121      49.311      62.933      76.847      87.579      57.252      54.987    
  49.062      41.510      34.340      28.682      24.633      21.707      19.945      19.363      19.780      20.943    
  22.688      24.833      26.984      28.599      29.201      28.599      26.984      24.833      22.688      20.943    
  19.780      19.363      19.945      21.707      24.633      28.682      34.340      41.510      49.062      54.987    
  34.892      33.918      31.390      28.210      25.212      22.731      20.877      19.896      19.923      20.942    
  22.858      25.736      29.536      33.904      38.116      41.215      42.360      41.215      38.116      33.904    
  29.536      25.736      22.858      20.942      19.923      19.896      20.877      22.731      25.212      28.210    
  31.390      33.918      23.092      22.763      21.882      20.701      19.543      18.738      18.567      19.240    
  20.871      23.501      27.390      32.663      39.122      46.162      52.722      57.457      59.193      57.457    
  52.722      46.162      39.122      32.663      27.390      23.501      20.871      19.240      18.567      18.738    
  19.543      20.701      21.882      22.763      16.486      16.396      16.172      15.945      15.922      16.349    
  17.480      19.536      22.662      27.246      33.574      41.499      50.545      59.911      68.380      74.407    
  76.605      74.407      68.380      59.911      50.545      41.499      33.574      27.246      22.662      19.536    
  17.480      16.349      15.922      15.945      16.172      16.396      12.444      12.502      12.690      13.072    
  13.796      15.095      17.252      20.520      25.316      32.228      41.171      51.514      62.479      73.275    
  82.821      89.589      92.062      89.589      82.821      73.275      62.479      51.514      41.171      32.228    
  25.316      20.520      17.252      15.095      13.796      13.072      12.690      12.502      10.191      10.326    
  10.734      11.456      12.643      14.567      17.573      22.023      28.767      38.227      49.729      62.040    
  74.197      85.693      95.826      103.12      105.83      103.12      95.826      85.693      74.197      62.040    
  49.729      38.227      28.767      22.023      17.573      14.567      12.643      11.456      10.734      10.326    
  9.0772      9.2425      9.7396      10.623      12.085      14.468      18.185      23.874      32.694      44.720    
  58.598      72.541      85.594      97.762      108.77      116.99      120.11      116.99      108.77      97.762    
  85.594      72.541      58.598      44.720      32.694      23.874      18.185      14.468      12.085      10.623    
  9.7396      9.2425      8.4537      8.6321      9.1727      10.150      11.802      14.541      18.853      25.730    
  36.468      50.783      66.719      82.092      96.131      109.42      121.97      131.72      135.49      131.72    
  121.97      109.42      96.131      82.092      66.719      50.783      36.468      25.730      18.853      14.541    
  11.802      10.150      9.1727      8.6321      7.9631      8.1565      8.7432      9.8066      11.611      14.613    
  19.362      27.125      39.248      55.187      72.585      89.052      104.04      118.57      132.78      144.10    
  148.52      144.10      132.78      118.57      104.04      89.052      72.585      55.187      39.248      27.125    
  19.362      14.613      11.611      9.8066      8.7432      8.1565      7.7422      7.9440      8.5554      9.6606    
  11.531      14.635      19.551      27.646      40.276      56.808      74.744      91.636      107.03      122.12    
  137.06      149.05      153.75      149.05      137.06      122.12      107.03      91.636      74.744      56.808    
  40.276      27.646      19.551      14.635      11.531      9.6606      8.5554      7.9440      7.9631      8.1565    
  8.7432      9.8066      11.611      14.613      19.362      27.125      39.248      55.187      72.585      89.052    
  104.04      118.57      132.78      144.10      148.52      144.10      132.78      118.57      104.04      89.052    
  72.585      55.187      39.248      27.125      19.362      14.613      11.611      9.8066      8.7432      8.1565    
  8.4537      8.6321      9.1727      10.150      11.802      14.541      18.853      25.730      36.468      50.783    
  66.719      82.092      96.131      109.42      121.97      131.72      135.49      131.72      121.97      109.42    
  96.131      82.092      66.719      50.783      36.468      25.730      18.853      14.541      11.802      10.150    
  9.1727      8.6321      9.0772      9.2425      9.7396      10.623      12.085      14.468      18.185      23.874    
  32.694      44.720      58.598      72.541      85.594      97.762      108.77      116.99      120.11      116.99    
  108.77      97.762      85.594      72.541      58.598      44.720      32.694      23.874      18.185      14.468    
  12.085      10.623      9.7396      9.2425      10.191      10.326      10.734      11.456      12.643      14.567    
  17.573      22.023      28.767      38.227      49.729      62.040      74.197      85.693      95.826      103.12    
  105.83      103.12      95.826      85.693      74.197      62.040      49.729      38.227      28.767      22.023    
  17.573      14.567      12.643      11.456      10.734      10.326      12.444      12.502      12.690      13.072    
  13.796      15.095      17.252      20.520      25.316      32.228      41.171      51.514      62.479      73.275    
  82.821      89.589      92.062      89.589      82.821      73.275      62.479      51.514      41.171      32.228    
  25.316      20.520      17.252      15.095      13.796      13.072      12.690      12.502      16.486      16.396    
  16.172      15.945      15.922      16.349      17.480      19.536      22.662      27.246      33.574      41.499    
  50.545      59.911      68.380      74.407      76.605      74.407      68.380      59.911      50.545      41.499    
  33.574      27.246      22.662      19.536      17.480      16.349      15.922      15.945      16.172      16.396    
  23.092      22.763      21.882      20.701      19.543      18.738      18.567      19.240      20.871      23.501    
  27.390      32.663      39.122      46.162      52.722      57.457      59.193      57.457      52.722      46.162    
  39.122      32.663      27.390      23.501      20.871      19.240      18.567      18.738      19.543      20.701    
  21.882      22.763      34.892      33.918      31.390      28.210      25.212      22.731      20.877      19.896    
  19.923      20.942      22.858      25.736      29.536      33.904      38.116      41.215      42.360      41.215    
  38.116      33.904      29.536      25.736      22.858      20.942      19.923      19.896      20.877      22.731    
  25.212      28.210      31.390      33.918      57.252      54.987      49.062      41.510      34.340      28.682    
  24.633      21.707      19.945      19.363      19.780      20.943      22.688      24.833      26.984      28.599    
  29.201      28.599      26.984      24.833      22.688      20.943      19.780      19.363      19.945      21.707    
  24.633      28.682      34.340      41.510      49.062      54.987      91.651      87.579      76.847      62.933    
  49.311      38.121      30.060      24.695      20.982      18.749      17.785      17.723      18.241      19.062    
  19.921      20.566      20.804      20.566      19.921      19.062      18.241      17.723      17.785      18.749    
  20.982      24.695      30.060      38.121      49.311      62.933      76.847      87.579      135.25      129.14    
  113.00      91.872      70.655      52.364      38.347      28.882      22.936      19.006      16.736      15.637    
  15.282      15.355      15.577      15.748      15.805      15.748      15.577      15.355      15.282      15.637    
  16.736      19.006      22.936      28.882      38.347      52.364      70.655      91.872      113.00      129.14    
  184.58      176.35      154.67      126.30      97.387      71.404      50.140      34.877      25.583      19.932    
  16.409      14.423      13.423      13.014      12.853      12.739      12.684      12.739      12.853      13.014    
  13.423      14.423      16.409      19.932      25.583      34.877      50.140      71.404      97.387      126.30    
  154.67      176.35      237.18      226.69      199.25      163.66      127.33      93.753      64.752      42.648    
  28.844      21.244      16.544      13.785      12.302      11.600      11.231      10.949      10.821      10.949    
  11.231      11.600      12.302      13.785      16.544      21.244      28.844      42.648      64.752      93.753    
  127.33      163.66      199.25      226.69      288.27      275.43      242.14      199.54      156.37      115.94    
  79.760      50.942      32.360      22.586      16.878      13.478      11.633      10.755      10.279      9.8989    
  9.7245      9.8989      10.279      10.755      11.633      13.478      16.878      22.586      32.360      50.942    
  79.760      115.94      156.37      199.54      242.14      275.43      327.49      312.74      274.70      226.54    
  178.17      132.74      91.315      57.483      35.185      23.592      17.180      13.341      11.260      10.280    
  9.7524      9.3185      9.1162      9.3185      9.7524      10.280      11.260      13.341      17.180      23.592    
  35.185      57.483      91.315      132.74      178.17      226.54      274.70      312.74      300.54      287.26    
  252.83      208.78      164.03      121.82      83.701      53.082      33.234      22.879      16.951      13.425    
  11.522      10.626      10.145      9.7564      9.5762      9.7564      10.145      10.626      11.522      13.425    
  16.951      22.879      33.234      53.082      83.701      121.82      164.03      208.78      252.83      287.26    
  288.69      275.96      242.89      200.45      157.22      116.54      80.053      51.015      32.335      22.544    
  16.844      13.461      11.634      10.770      10.306      9.9331      9.7616      9.9331      10.306      10.770    
  11.634      13.461      16.844      22.544      32.335      51.015      80.053      116.54      157.22      200.45    
  242.89      275.96      257.07      245.76      216.24      178.01      138.89      102.39      70.379      45.603    
  30.002      21.637      16.570      13.584      11.971      11.202      10.789      10.466      10.319      10.466    
  10.789      11.202      11.971      13.584      16.570      21.637      30.002      45.603      70.379      102.39    
  138.89      178.01      216.24      245.76      214.35      204.87      179.95      147.38      114.01      83.467    
  57.737      38.711      27.061      20.420      16.267      13.858      12.573      11.970      11.658      11.425    
  11.321      11.425      11.658      11.970      12.573      13.858      16.267      20.420      27.061      38.711    
  57.737      83.467      114.01      147.38      179.95      204.87      168.21      160.65      140.67      114.44    
  87.777      64.159      45.333      32.203      24.251      19.228      16.139      14.425      13.579      13.248    
  13.131      13.054      13.015      13.054      13.131      13.248      13.579      14.425      16.139      19.228    
  24.251      32.203      45.333      64.159      87.777      114.44      140.67      160.65      123.26      117.64    
  102.79      83.377      64.001      47.558      35.254      27.099      21.849      18.381      16.421      15.506    
  15.246      15.359      15.597      15.781      15.844      15.781      15.597      15.359      15.246      15.506    
  16.421      18.381      21.849      27.099      35.254      47.558      64.001      83.377      102.79      117.64    
  83.140      79.452      69.742      57.195      45.006      35.130      28.110      23.372      20.066      18.135    
  17.350      17.370      17.906      18.706      19.520      20.123      20.344      20.123      19.520      18.706    
  17.906      17.370      17.350      18.135      20.066      23.372      28.110      35.130      45.006      57.195    
  69.742      79.452      51.991      49.989      44.759      38.116      31.841      26.896      23.276      20.646    
  19.119      18.676      19.138      20.270      21.885      23.821      25.739      27.172      27.705      27.172    
  25.739      23.821      21.885      20.270      19.138      18.676      19.119      20.646      23.276      26.896    
  31.841      38.116      44.759      49.989      32.275      31.431      29.239      26.469      23.809      21.534    
  19.859      19.013      19.103      20.108      21.915      24.537      27.944      31.826      35.545      38.271    
  39.276      38.271      35.545      31.826      27.944      24.537      21.915      20.108      19.103      19.013    
  19.859      21.534      23.809      26.469      29.239      31.431      21.915      21.613      20.797      19.704    
  18.643      17.920      17.790      18.443      19.987      22.438      25.984      30.756      36.563      42.843    
  48.650      52.814      54.335      52.814      48.650      42.843      36.563      30.756      25.984      22.438    
  19.987      18.443      17.790      17.920      18.643      19.704      20.797      21.613      15.885      15.804    
  15.600      15.398      15.386      15.789      16.841      18.752      21.654      25.847      31.637      38.898    
  47.139      55.573      63.091      68.379      70.295      68.379      63.091      55.573      47.139      38.898    
  31.637      25.847      21.654      18.752      16.841      15.789      15.386      15.398      15.600      15.804    
  12.257      12.310      12.482      12.834      13.499      14.693      16.680      19.709      24.103      30.454    
  38.765      48.426      58.594      68.400      76.846      82.703      84.818      82.703      76.846      68.400    
  58.594      48.426      38.765      30.454      24.103      19.709      16.680      14.693      13.499      12.834    
  12.482      12.310      10.260      10.383      10.751      11.407      12.490      14.254      17.025      21.127    