unknown system                          
   1.00000000000000     
     3.862764    0.000000    0.000000
     0.000000    3.862764    0.000000
     0.000000    0.000000    3.862764
   Pd   Ir   Pt   Cu
     1     1     1     1
Direct
  0.000000  0.000000  0.000000
  0.500000  0.500000  0.000000
  0.500000  0.000000  0.500000
  0.000000  0.500000  0.500000
 
   32   32   32
 0.35852236418E+03 0.34211548276E+03 0.30002722279E+03 0.24720853393E+03 0.19468808397E+03
 0.14547384734E+03 0.10018967044E+03 0.62610139967E+02 0.37451192235E+02 0.24381038899E+02
 0.17431720330E+02 0.13260155328E+02 0.10997208706E+02 0.99379653885E+01 0.93674147815E+01
 0.88906575736E+01 0.86663334558E+01 0.88906575736E+01 0.93674147815E+01 0.99379653885E+01
 0.10997208706E+02 0.13260155328E+02 0.17431720330E+02 0.24381038899E+02 0.37451192235E+02
 0.62610139967E+02 0.10018967044E+03 0.14547384734E+03 0.19468808397E+03 0.24720853393E+03
 0.30002722279E+03 0.34211548276E+03 0.34226457493E+03 0.32670311386E+03 0.28669996985E+03
 0.23629715239E+03 0.18596450894E+03 0.13876538087E+03 0.95539148051E+02 0.59939818663E+02
 0.36281956509E+02 0.23984547883E+02 0.17309146911E+02 0.13301989600E+02 0.11126013758E+02
 0.10101595059E+02 0.95476027318E+01 0.90891062696E+01 0.88747244078E+01 0.90891062696E+01
 0.95476027318E+01 0.10101595059E+02 0.11126013758E+02 0.13301989600E+02 0.17309146911E+02
 0.23984547883E+02 0.36281956509E+02 0.59939818663E+02 0.95539148051E+02 0.13876538087E+03
 0.18596450894E+03 0.23629715239E+03 0.28669996985E+03 0.32670311386E+03 0.29992338763E+03
 0.28648889600E+03 0.25174217341E+03 0.20747457634E+03 0.16280332935E+03 0.12095645690E+03
 0.83265148165E+02 0.52965875024E+02 0.33263596194E+02 0.22936554123E+02 0.16996106955E+02
 0.13444904764E+02 0.11513680788E+02 0.10592725068E+02 0.10091972733E+02 0.96889259683E+01
 0.95036380453E+01 0.96889259683E+01 0.10091972733E+02 0.10592725068E+02 0.11513680788E+02
 0.13444904764E+02 0.16996106955E+02 0.22936554123E+02 0.33263596194E+02 0.52965875024E+02
 0.83265148165E+02 0.12095645690E+03 0.16280332935E+03 0.20747457634E+03 0.25174217341E+03
 0.28648889600E+03 0.24543980200E+03 0.23456687032E+03 0.20619608705E+03 0.16952490881E+03
 0.13215688106E+03 0.97519581853E+02 0.67359936006E+02 0.44134856937E+02 0.29519172451E+02
 0.21548894641E+02 0.16651479523E+02 0.13764474916E+02 0.12207241202E+02 0.11467961848E+02
 0.11076409047E+02 0.10774485238E+02 0.10637951995E+02 0.10774485238E+02 0.11076409047E+02
 0.11467961848E+02 0.12207241202E+02 0.13764474916E+02 0.16651479523E+02 0.21548894641E+02
 0.29519172451E+02 0.44134856937E+02 0.67359936006E+02 0.97519581853E+02 0.13215688106E+03
 0.16952490881E+03 0.20619608705E+03 0.23456687032E+03 0.19029165513E+03 0.18182956983E+03
 0.15956711265E+03 0.13047265963E+03 0.10081362018E+03 0.74033892230E+02 0.51918397281E+02
 0.35880065896E+02 0.26075107994E+02 0.20192733291E+02 0.16513372677E+02 0.14427547627E+02
 0.13370287094E+02 0.12932214204E+02 0.12754248964E+02 0.12626494887E+02 0.12565119560E+02
 0.12626494887E+02 0.12754248964E+02 0.12932214204E+02 0.13370287094E+02 0.14427547627E+02
 0.16513372677E+02 0.20192733291E+02 0.26075107994E+02 0.35880065896E+02 0.51918397281E+02
 0.74033892230E+02 0.10081362018E+03 0.13047265963E+03 0.15956711265E+03 0.18182956983E+03
 0.13935789419E+03 0.13308582948E+03 0.11652089713E+03 0.94835459880E+02 0.73017028129E+02
 0.54105136085E+02 0.39487477181E+02 0.29542032420E+02 0.23330428488E+02 0.19236808087E+02
 0.16854935028E+02 0.15689074746E+02 0.15299242853E+02 0.15358079749E+02 0.15573442525E+02
 0.15739659798E+02 0.15794106605E+02 0.15739659798E+02 0.15573442525E+02 0.15358079749E+02
 0.15299242853E+02 0.15689074746E+02 0.16854935028E+02 0.19236808087E+02 0.23330428488E+02
 0.29542032420E+02 0.39487477181E+02 0.54105136085E+02 0.73017028129E+02 0.94835459880E+02
 0.11652089713E+03 0.13308582948E+03 0.94594360220E+02 0.90394704513E+02 0.79324001271E+02
 0.64956014528E+02 0.50852537395E+02 0.39210138106E+02 0.30773826761E+02 0.25170476390E+02
 0.21316002423E+02 0.18975173913E+02 0.17946285524E+02 0.17854186591E+02 0.18365944394E+02
 0.19195549769E+02 0.20073059862E+02 0.20735379252E+02 0.20980449721E+02 0.20735379252E+02
 0.20073059862E+02 0.19195549769E+02 0.18365944394E+02 0.17854186591E+02 0.17946285524E+02
 0.18975173913E+02 0.21316002423E+02 0.25170476390E+02 0.30773826761E+02 0.39210138106E+02
 0.50852537395E+02 0.64956014528E+02 0.79324001271E+02 0.90394704513E+02 0.59117779061E+02
 0.56762950230E+02 0.50598339335E+02 0.42731506673E+02 0.35247141874E+02 0.29331390400E+02
 0.25118699808E+02 0.22091033369E+02 0.20244768400E+02 0.19612926056E+02 0.20013790070E+02
 0.21189634115E+02 0.22986110466E+02 0.25212096257E+02 0.27451592795E+02 0.29136030337E+02
 0.29764167342E+02 0.29136030337E+02 0.27451592795E+02 0.25212096257E+02 0.22986110466E+02
 0.21189634115E+02 0.20013790070E+02 0.19612926056E+02 0.20244768400E+02 0.22091033369E+02
 0.25118699808E+02 0.29331390400E+02 0.35247141874E+02 0.42731506673E+02 0.50598339335E+02
 0.56762950230E+02 0.35846688629E+02 0.34825530948E+02 0.32174988343E+02 0.28844936774E+02
 0.25716691393E+02 0.23159894354E+02 0.21244064054E+02 0.20216052283E+02 0.20219423151E+02
 0.21242956837E+02 0.23200833220E+02 0.26174930055E+02 0.30122143598E+02 0.34672544612E+02
 0.39069077277E+02 0.42307960607E+02 0.43505675541E+02 0.42307960607E+02 0.39069077277E+02
 0.34672544612E+02 0.30122143598E+02 0.26174930055E+02 0.23200833220E+02 0.21242956837E+02
 0.20219423151E+02 0.20216052283E+02 0.21244064054E+02 0.23159894354E+02 0.25716691393E+02
 0.28844936774E+02 0.32174988343E+02 0.34825530948E+02 0.23518769985E+02 0.23177071842E+02
 0.22269803158E+02 0.21059155925E+02 0.19868003534E+02 0.19034949672E+02 0.18849283458E+02
 0.19528467656E+02 0.21188319208E+02 0.23884314909E+02 0.27897121513E+02 0.33352894781E+02
 0.40051194495E+02 0.47372387676E+02 0.54214731582E+02 0.59164622529E+02 0.60980951722E+02
 0.59164622529E+02 0.54214731582E+02 0.47372387676E+02 0.40051194495E+02 0.33352894781E+02
 0.27897121513E+02 0.23884314909E+02 0.21188319208E+02 0.19528467656E+02 0.18849283458E+02
 0.19034949672E+02 0.19868003534E+02 0.21059155925E+02 0.22269803158E+02 0.23177071842E+02
 0.16703628095E+02 0.16611791788E+02 0.16381237330E+02 0.16146715902E+02 0.16119686528E+02
 0.16554447601E+02 0.17712115807E+02 0.19817807262E+02 0.23023547145E+02 0.27746277686E+02
 0.34262223744E+02 0.42422823839E+02 0.51760452236E+02 0.61473735014E+02 0.70303026809E+02
 0.76613157834E+02 0.78919680975E+02 0.76613157834E+02 0.70303026809E+02 0.61473735014E+02
 0.51760452236E+02 0.42422823839E+02 0.34262223744E+02 0.27746277686E+02 0.23023547145E+02
 0.19817807262E+02 0.17712115807E+02 0.16554447601E+02 0.16119686528E+02 0.16146715902E+02
 0.16381237330E+02 0.16611791788E+02 0.12506382138E+02 0.12567591694E+02 0.12764316900E+02
 0.13160424035E+02 0.13907252865E+02 0.15244035223E+02 0.17460716960E+02 0.20811618387E+02
 0.25749174758E+02 0.32851888629E+02 0.42008054165E+02 0.52583736212E+02 0.63838514834E+02
 0.75011169342E+02 0.84986719229E+02 0.92114369159E+02 0.94729561947E+02 0.92114369159E+02
 0.84986719229E+02 0.75011169342E+02 0.63838514834E+02 0.52583736212E+02 0.42008054165E+02
 0.32851888629E+02 0.25749174758E+02 0.20811618387E+02 0.17460716960E+02 0.15244035223E+02
 0.13907252865E+02 0.13160424035E+02 0.12764316900E+02 0.12567591694E+02 0.10142039746E+02
 0.10285095327E+02 0.10713552795E+02 0.11467669284E+02 0.12698472627E+02 0.14684025144E+02
 0.17772689609E+02 0.22344665522E+02 0.29282682791E+02 0.38960526659E+02 0.50657226801E+02
 0.63151938982E+02 0.75563715271E+02 0.87470144511E+02 0.98141167626E+02 0.10592355451E+03
 0.10882323248E+03 0.10592355451E+03 0.98141167626E+02 0.87470144511E+02 0.75563715271E+02
 0.63151938982E+02 0.50657226801E+02 0.38960526659E+02 0.29282682791E+02 0.22344665522E+02
 0.17772689609E+02 0.14684025144E+02 0.12698472627E+02 0.11467669284E+02 0.10713552795E+02
 0.10285095327E+02 0.89513197504E+01 0.91275610533E+01 0.96550701141E+01 0.10584118182E+02
 0.12105059288E+02 0.14565799594E+02 0.18382752276E+02 0.24238107520E+02 0.33291171463E+02
 0.45540872594E+02 0.59571873019E+02 0.73633029857E+02 0.86921561968E+02 0.99590744645E+02
 0.11133155125E+03 0.12024111311E+03 0.12363878001E+03 0.12024111311E+03 0.11133155125E+03
 0.99590744645E+02 0.86921561968E+02 0.73633029857E+02 0.59571873019E+02 0.45540872594E+02
 0.33291171463E+02 0.24238107520E+02 0.18382752276E+02 0.14565799594E+02 0.12105059288E+02
 0.10584118182E+02 0.96550701141E+01 0.91275610533E+01 0.82637527097E+01 0.84561766326E+01
 0.90354491609E+01 0.10069657474E+02 0.11793932650E+02 0.14624557910E+02 0.19054558664E+02
 0.26136707532E+02 0.37136796921E+02 0.51672287204E+02 0.67716785574E+02 0.83160727311E+02
 0.97459477261E+02 0.11140086629E+03 0.12494999314E+03 0.13564339572E+03 0.13980147831E+03
 0.13564339572E+03 0.12494999314E+03 0.11140086629E+03 0.97459477261E+02 0.83160727311E+02
 0.67716785574E+02 0.51672287204E+02 0.37136796921E+02 0.26136707532E+02 0.19054558664E+02
 0.14624557910E+02 0.11793932650E+02 0.10069657474E+02 0.90354491609E+01 0.84561766326E+01
 0.77175148383E+01 0.79277238408E+01 0.85606009276E+01 0.96913797515E+01 0.11579871637E+02
 0.14684281320E+02 0.19567889785E+02 0.27562942297E+02 0.39966172671E+02 0.56121051492E+02
 0.73599492265E+02 0.90118033316E+02 0.10541151639E+03 0.12075235833E+03 0.13620379841E+03
 0.14868898191E+03 0.15359404631E+03 0.14868898191E+03 0.13620379841E+03 0.12075235833E+03
 0.10541151639E+03 0.90118033316E+02 0.73599492265E+02 0.56121051492E+02 0.39966172671E+02
 0.27562942297E+02 0.19567889785E+02 0.14684281320E+02 0.11579871637E+02 0.96913797515E+01
 0.85606009276E+01 0.79277238409E+01 0.74724819964E+01 0.76923079336E+01 0.83531505478E+01
 0.95302958458E+01 0.11489414811E+02 0.14701345925E+02 0.19758397212E+02 0.28094726032E+02
 0.41013007483E+02 0.57758575688E+02 0.75765834234E+02 0.92705079196E+02 0.10843072435E+03
 0.12439514357E+03 0.14067470730E+03 0.15392444875E+03 0.15914521196E+03 0.15392444875E+03
 0.14067470730E+03 0.12439514357E+03 0.10843072435E+03 0.92705079196E+02 0.75765834234E+02
 0.57758575688E+02 0.41013007483E+02 0.28094726032E+02 0.19758397212E+02 0.14701345925E+02
 0.11489414811E+02 0.95302958458E+01 0.83531505478E+01 0.76923079336E+01 0.77175148383E+01
 0.79277238408E+01 0.85606009276E+01 0.96913797515E+01 0.11579871637E+02 0.14684281320E+02
 0.19567889785E+02 0.27562942297E+02 0.39966172671E+02 0.56121051492E+02 0.73599492265E+02
 0.90118033316E+02 0.10541151639E+03 0.12075235833E+03 0.13620379841E+03 0.14868898191E+03
 0.15359404631E+03 0.14868898191E+03 0.13620379841E+03 0.12075235833E+03 0.10541151639E+03
 0.90118033316E+02 0.73599492265E+02 0.56121051492E+02 0.39966172671E+02 0.27562942297E+02
 0.19567889785E+02 0.14684281320E+02 0.11579871637E+02 0.96913797515E+01 0.85606009276E+01
 0.79277238408E+01 0.82637527097E+01 0.84561766326E+01 0.90354491609E+01 0.10069657474E+02
 0.11793932650E+02 0.14624557910E+02 0.19054558664E+02 0.26136707532E+02 0.37136796921E+02
 0.51672287204E+02 0.67716785574E+02 0.83160727311E+02 0.97459477261E+02 0.11140086629E+03
 0.12494999314E+03 0.13564339572E+03 0.13980147831E+03 0.13564339572E+03 0.12494999314E+03
 0.11140086629E+03 0.97459477261E+02 0.83160727311E+02 0.67716785574E+02 0.51672287204E+02
 0.37136796921E+02 0.26136707532E+02 0.19054558664E+02 0.14624557910E+02 0.11793932650E+02
 0.10069657474E+02 0.90354491609E+01 0.84561766326E+01 0.89513197504E+01 0.91275610533E+01
 0.96550701141E+01 0.10584118182E+02 0.12105059288E+02 0.14565799594E+02 0.18382752276E+02
 0.24238107520E+02 0.33291171463E+02 0.45540872594E+02 0.59571873019E+02 0.73633029857E+02
 0.86921561968E+02 0.99590744645E+02 0.11133155125E+03 0.12024111311E+03 0.12363878001E+03
 0.12024111311E+03 0.11133155125E+03 0.99590744645E+02 0.86921561968E+02 0.73633029857E+02
 0.59571873019E+02 0.45540872594E+02 0.33291171463E+02 0.24238107520E+02 0.18382752276E+02
 0.14565799594E+02 0.12105059288E+02 0.10584118182E+02 0.96550701141E+01 0.91275610533E+01
 0.10142039746E+02 0.10285095327E+02 0.10713552795E+02 0.11467669284E+02 0.12698472627E+02
 0.14684025144E+02 0.17772689609E+02 0.22344665522E+02 0.29282682791E+02 0.38960526659E+02
 0.50657226801E+02 0.63151938982E+02 0.75563715271E+02 0.87470144511E+02 0.98141167626E+02
 0.10592355451E+03 0.10882323248E+03 0.10592355451E+03 0.98141167626E+02 0.87470144511E+02
 0.75563715271E+02 0.63151938982E+02 0.50657226801E+02 0.38960526659E+02 0.29282682791E+02
 0.22344665522E+02 0.17772689609E+02 0.14684025144E+02 0.12698472627E+02 0.11467669284E+02
 0.10713552795E+02 0.10285095327E+02 0.12506382138E+02 0.12567591694E+02 0.12764316900E+02
 0.13160424035E+02 0.13907252865E+02 0.15244035223E+02 0.17460716960E+02 0.20811618387E+02
 0.25749174758E+02 0.32851888629E+02 0.42008054165E+02 0.52583736212E+02 0.63838514834E+02
 0.75011169342E+02 0.84986719229E+02 0.92114369159E+02 0.94729561947E+02 0.92114369159E+02
 0.84986719229E+02 0.75011169342E+02 0.63838514834E+02 0.52583736212E+02 0.42008054165E+02
 0.32851888629E+02 0.25749174758E+02 0.20811618387E+02 0.17460716960E+02 0.15244035223E+02
 0.13907252865E+02 0.13160424035E+02 0.12764316900E+02 0.12567591694E+02 0.16703628095E+02
 0.16611791788E+02 0.16381237330E+02 0.16146715902E+02 0.16119686528E+02 0.16554447601E+02
 0.17712115807E+02 0.19817807262E+02 0.23023547145E+02 0.27746277686E+02 0.34262223744E+02
 0.42422823839E+02 0.51760452236E+02 0.61473735014E+02 0.70303026809E+02 0.76613157834E+02
 0.78919680975E+02 0.76613157834E+02 0.70303026809E+02 0.61473735014E+02 0.51760452236E+02
 0.42422823839E+02 0.34262223744E+02 0.27746277686E+02 0.23023547145E+02 0.19817807262E+02
 0.17712115807E+02 0.16554447601E+02 0.16119686528E+02 0.16146715902E+02 0.16381237330E+02
 0.16611791788E+02 0.23518769985E+02 0.23177071842E+02 0.22269803158E+02 0.21059155925E+02
 0.19868003534E+02 0.19034949672E+02 0.18849283458E+02 0.19528467656E+02 0.21188319208E+02
 0.23884314909E+02 0.27897121513E+02 0.33352894781E+02 0.40051194495E+02 0.47372387676E+02
 0.54214731582E+02 0.59164622529E+02 0.60980951722E+02 0.59164622529E+02 0.54214731582E+02
 0.47372387676E+02 0.40051194495E+02 0.33352894781E+02 0.27897121513E+02 0.23884314909E+02
 0.21188319208E+02 0.19528467656E+02 0.18849283458E+02 0.19034949672E+02 0.19868003534E+02
 0.21059155925E+02 0.22269803158E+02 0.23177071842E+02 0.35846688629E+02 0.34825530948E+02
 0.32174988343E+02 0.28844936774E+02 0.25716691393E+02 0.23159894354E+02 0.21244064054E+02
 0.20216052283E+02 0.20219423151E+02 0.21242956837E+02 0.23200833220E+02 0.26174930055E+02
 0.30122143598E+02 0.34672544612E+02 0.39069077277E+02 0.42307960607E+02 0.43505675541E+02
 0.42307960607E+02 0.39069077277E+02 0.34672544612E+02 0.30122143598E+02 0.26174930055E+02
 0.23200833220E+02 0.21242956837E+02 0.20219423151E+02 0.20216052283E+02 0.21244064054E+02
 0.23159894354E+02 0.25716691393E+02 0.28844936774E+02 0.32174988343E+02 0.34825530948E+02
 0.59117779061E+02 0.56762950230E+02 0.50598339335E+02 0.42731506673E+02 0.35247141874E+02
 0.29331390400E+02 0.25118699808E+02 0.22091033369E+02 0.20244768400E+02 0.19612926056E+02
 0.20013790070E+02 0.21189634115E+02 0.22986110466E+02 0.25212096257E+02 0.27451592795E+02
 0.29136030337E+02 0.29764167342E+02 0.29136030337E+02 0.27451592795E+02 0.25212096257E+02
 0.22986110466E+02 0.21189634115E+02 0.20013790070E+02 0.19612926056E+02 0.20244768400E+02
 0.22091033369E+02 0.25118699808E+02 0.29331390400E+02 0.35247141874E+02 0.42731506673E+02
 0.50598339335E+02 0.56762950230E+02 0.94594360220E+02 0.90394704513E+02 0.79324001271E+02
 0.64956014528E+02 0.50852537395E+02 0.39210138106E+02 0.30773826761E+02 0.25170476390E+02
 0.21316002423E+02 0.18975173913E+02 0.17946285524E+02 0.17854186591E+02 0.18365944394E+02
 0.19195549769E+02 0.20073059862E+02 0.20735379252E+02 0.20980449721E+02 0.20735379252E+02
 0.20073059862E+02 0.19195549769E+02 0.18365944394E+02 0.17854186591E+02 0.17946285524E+02
 0.18975173913E+02 0.21316002423E+02 0.25170476390E+02 0.30773826761E+02 0.39210138106E+02
 0.50852537395E+02 0.64956014528E+02 0.79324001271E+02 0.90394704513E+02 0.13935789419E+03
 0.13308582948E+03 0.11652089713E+03 0.94835459880E+02 0.73017028129E+02 0.54105136085E+02
 0.39487477181E+02 0.29542032420E+02 0.23330428488E+02 0.19236808087E+02 0.16854935028E+02
 0.15689074746E+02 0.15299242853E+02 0.15358079749E+02 0.15573442525E+02 0.15739659798E+02
 0.15794106605E+02 0.15739659798E+02 0.15573442525E+02 0.15358079749E+02 0.15299242853E+02
 0.15689074746E+02 0.16854935028E+02 0.19236808087E+02 0.23330428488E+02 0.29542032420E+02
 0.39487477181E+02 0.54105136085E+02 0.73017028129E+02 0.94835459880E+02 0.11652089713E+03
 0.13308582948E+03 0.19029165513E+03 0.18182956983E+03 0.15956711265E+03 0.13047265963E+03
 0.10081362018E+03 0.74033892230E+02 0.51918397281E+02 0.35880065896E+02 0.26075107994E+02
 0.20192733291E+02 0.16513372677E+02 0.14427547627E+02 0.13370287094E+02 0.12932214204E+02
 0.12754248964E+02 0.12626494887E+02 0.12565119560E+02 0.12626494887E+02 0.12754248964E+02
 0.12932214204E+02 0.13370287094E+02 0.14427547627E+02 0.16513372677E+02 0.20192733291E+02
 0.26075107994E+02 0.35880065896E+02 0.51918397281E+02 0.74033892230E+02 0.10081362018E+03
 0.13047265963E+03 0.15956711265E+03 0.18182956983E+03 0.24543980200E+03 0.23456687032E+03
 0.20619608705E+03 0.16952490881E+03 0.13215688106E+03 0.97519581853E+02 0.67359936006E+02
 0.44134856937E+02 0.29519172451E+02 0.21548894641E+02 0.16651479523E+02 0.13764474916E+02
 0.12207241202E+02 0.11467961848E+02 0.11076409047E+02 0.10774485238E+02 0.10637951995E+02
 0.10774485238E+02 0.11076409047E+02 0.11467961848E+02 0.12207241202E+02 0.13764474916E+02
 0.16651479523E+02 0.21548894641E+02 0.29519172451E+02 0.44134856937E+02 0.67359936006E+02
 0.97519581853E+02 0.13215688106E+03 0.16952490881E+03 0.20619608705E+03 0.23456687032E+03
 0.29992338763E+03 0.28648889600E+03 0.25174217341E+03 0.20747457634E+03 0.16280332935E+03
 0.12095645690E+03 0.83265148165E+02 0.52965875024E+02 0.33263596194E+02 0.22936554123E+02
 0.16996106955E+02 0.13444904764E+02 0.11513680788E+02 0.10592725068E+02 0.10091972733E+02
 0.96889259683E+01 0.95036380453E+01 0.96889259683E+01 0.10091972733E+02 0.10592725068E+02
 0.11513680788E+02 0.13444904764E+02 0.16996106955E+02 0.22936554123E+02 0.33263596194E+02
 0.52965875024E+02 0.83265148165E+02 0.12095645690E+03 0.16280332935E+03 0.20747457634E+03
 0.25174217341E+03 0.28648889600E+03 0.34226457493E+03 0.32670311386E+03 0.28669996985E+03
 0.23629715239E+03 0.18596450894E+03 0.13876538087E+03 0.95539148051E+02 0.59939818663E+02
 0.36281956509E+02 0.23984547883E+02 0.17309146911E+02 0.13301989600E+02 0.11126013758E+02
 0.10101595059E+02 0.95476027318E+01 0.90891062696E+01 0.88747244078E+01 0.90891062696E+01
 0.95476027318E+01 0.10101595059E+02 0.11126013758E+02 0.13301989600E+02 0.17309146911E+02
 0.23984547883E+02 0.36281956509E+02 0.59939818663E+02 0.95539148051E+02 0.13876538087E+03
 0.18596450894E+03 0.23629715239E+03 0.28669996985E+03 0.32670311386E+03 0.34247021839E+03
 0.32695433579E+03 0.28704899047E+03 0.23671265423E+03 0.18635569354E+03 0.13904837955E+03
 0.95687730408E+02 0.59985768773E+02 0.36278330672E+02 0.23969941630E+02 0.17298471781E+02
 0.13300411072E+02 0.11135537610E+02 0.10122246652E+02 0.95780018024E+01 0.91264036804E+01
 0.89145535774E+01 0.91264036804E+01 0.95780018024E+01 0.10122246652E+02 0.11135537610E+02
 0.13300411072E+02 0.17298471781E+02 0.23969941630E+02 0.36278330672E+02 0.59985768773E+02
 0.95687730408E+02 0.13904837955E+03 0.18635569354E+03 0.23671265423E+03 0.28704899047E+03
 0.32695433579E+03 0.32749464791E+03 0.31273737858E+03 0.27470323195E+03 0.22654060030E+03
 0.17817372899E+03 0.13273684225E+03 0.91314857019E+02 0.57482970417E+02 0.35185273229E+02
 0.23591955478E+02 0.17180111946E+02 0.13340646476E+02 0.11259739896E+02 0.10280361207E+02
 0.97524047265E+01 0.93184959276E+01 0.91162060772E+01 0.93184959276E+01 0.97524047265E+01
 0.10280361207E+02 0.11259739896E+02 0.13340646476E+02 0.17180111946E+02 0.23591955478E+02
 0.35185273229E+02 0.57482970417E+02 0.91314857019E+02 0.13273684225E+03 0.17817372899E+03
 0.22654060030E+03 0.27470323195E+03 0.31273737858E+03 0.28826952601E+03 0.27543107834E+03
 0.24214298397E+03 0.19954312561E+03 0.15637361983E+03 0.11594431747E+03 0.79759585162E+02
 0.50942212334E+02 0.32360190275E+02 0.22586314201E+02 0.16877768423E+02 0.13478086020E+02
 0.11633494433E+02 0.10754843228E+02 0.10279120882E+02 0.98988678603E+01 0.97245337924E+01
 0.98988678603E+01 0.10279120882E+02 0.10754843228E+02 0.11633494433E+02 0.13478086020E+02
 0.16877768423E+02 0.22586314201E+02 0.32360190275E+02 0.50942212334E+02 0.79759585162E+02
 0.11594431747E+03 0.15637361983E+03 0.19954312561E+03 0.24214298397E+03 0.27543107834E+03
 0.23718356620E+03 0.22668866526E+03 0.19924821765E+03 0.16366463321E+03 0.12733428869E+03
 0.93753355253E+02 0.64751728055E+02 0.42648257752E+02 0.28843882008E+02 0.21244485353E+02
 0.16544493066E+02 0.13785351455E+02 0.12301963918E+02 0.11600101409E+02 0.11231122443E+02
 0.10948686295E+02 0.10821216534E+02 0.10948686295E+02 0.11231122443E+02 0.11600101409E+02
 0.12301963918E+02 0.13785351455E+02 0.16544493066E+02 0.21244485353E+02 0.28843882008E+02
 0.42648257752E+02 0.64751728055E+02 0.93753355253E+02 0.12733428869E+03 0.16366463321E+03
 0.19924821765E+03 0.22668866526E+03 0.18458335658E+03 0.17635304876E+03 0.15467418675E+03
 0.12630043486E+03 0.97387310064E+02 0.71403731410E+02 0.50140119509E+02 0.34877118096E+02
 0.25582532294E+02 0.19932328139E+02 0.16409443452E+02 0.14422910752E+02 0.13422660053E+02
 0.13013634037E+02 0.12852797057E+02 0.12739010711E+02 0.12683963142E+02 0.12739010711E+02
 0.12852797057E+02 0.13013634037E+02 0.13422660053E+02 0.14422910752E+02 0.16409443452E+02
 0.19932328139E+02 0.25582532294E+02 0.34877118096E+02 0.50140119509E+02 0.71403731410E+02
 0.97387310064E+02 0.12630043486E+03 0.15467418675E+03 0.17635304876E+03 0.13525076265E+03
 0.12914134834E+03 0.11300054191E+03 0.91871730739E+02 0.70655143233E+02 0.52364098116E+02
 0.38347024322E+02 0.28882438743E+02 0.22935794530E+02 0.19005912497E+02 0.16735725496E+02
 0.15636584538E+02 0.15281695462E+02 0.15355232802E+02 0.15576910824E+02 0.15748122762E+02
 0.15805029138E+02 0.15748122762E+02 0.15576910824E+02 0.15355232802E+02 0.15281695462E+02
 0.15636584538E+02 0.16735725496E+02 0.19005912497E+02 0.22935794530E+02 0.28882438743E+02
 0.38347024322E+02 0.52364098116E+02 0.70655143233E+02 0.91871730739E+02 0.11300054191E+03
 0.12914134834E+03 0.91651115276E+02 0.87578931642E+02 0.76847120472E+02 0.62933029126E+02
 0.49311035040E+02 0.38121428741E+02 0.30059678702E+02 0.24694959423E+02 0.20982436528E+02
 0.18749377308E+02 0.17784862554E+02 0.17722611613E+02 0.18240668746E+02 0.19061873796E+02
 0.19920561865E+02 0.20565609966E+02 0.20803982139E+02 0.20565609966E+02 0.19920561865E+02
 0.19061873796E+02 0.18240668746E+02 0.17722611613E+02 0.17784862554E+02 0.18749377308E+02
 0.20982436528E+02 0.24694959423E+02 0.30059678702E+02 0.38121428741E+02 0.49311035040E+02
 0.62933029126E+02 0.76847120472E+02 0.87578931642E+02 0.57251601358E+02 0.54987012901E+02
 0.49061794913E+02 0.41509850111E+02 0.34339796909E+02 0.28682058369E+02 0.24633290298E+02
 0.21707452186E+02 0.19944800708E+02 0.19362801383E+02 0.19779838713E+02 0.20942668299E+02
 0.22687648902E+02 0.24833035498E+02 0.26983933908E+02 0.28599203053E+02 0.29201189976E+02
 0.28599203053E+02 0.26983933908E+02 0.24833035498E+02 0.22687648902E+02 0.20942668299E+02
 0.19779838713E+02 0.19362801383E+02 0.19944800708E+02 0.21707452186E+02 0.24633290298E+02
 0.28682058369E+02 0.34339796909E+02 0.41509850111E+02 0.49061794913E+02 0.54987012901E+02
 0.34891954307E+02 0.33917936793E+02 0.31389540793E+02 0.28210251489E+02 0.25211500841E+02
 0.22731371748E+02 0.20876757466E+02 0.19896356333E+02 0.19922826268E+02 0.20942036446E+02
 0.22858036303E+02 0.25735705559E+02 0.29536074228E+02 0.33904308807E+02 0.38116315676E+02
 0.41215185359E+02 0.42360380115E+02 0.41215185359E+02 0.38116315676E+02 0.33904308807E+02
 0.29536074228E+02 0.25735705559E+02 0.22858036303E+02 0.20942036446E+02 0.19922826268E+02
 0.19896356333E+02 0.20876757466E+02 0.22731371748E+02 0.25211500841E+02 0.28210251489E+02
 0.31389540793E+02 0.33917936793E+02 0.23092483025E+02 0.22762520377E+02 0.21881794030E+02
 0.20700575169E+02 0.19542595944E+02 0.18738120993E+02 0.18567220296E+02 0.19240189972E+02
 0.20870954687E+02 0.23501102822E+02 0.27389724138E+02 0.32663250196E+02 0.39122331547E+02
 0.46161713668E+02 0.52721904013E+02 0.57457213741E+02 0.59192755215E+02 0.57457213741E+02
 0.52721904013E+02 0.46161713668E+02 0.39122331547E+02 0.32663250196E+02 0.27389724138E+02
 0.23501102822E+02 0.20870954687E+02 0.19240189972E+02 0.18567220296E+02 0.18738120993E+02
 0.19542595944E+02 0.20700575169E+02 0.21881794030E+02 0.22762520377E+02 0.16485741038E+02
 0.16396180624E+02 0.16171884912E+02 0.15945098264E+02 0.15921836212E+02 0.16348745814E+02
 0.17479513053E+02 0.19535829142E+02 0.22661649269E+02 0.27246111494E+02 0.33574056598E+02
 0.41499242543E+02 0.50544898368E+02 0.59910684276E+02 0.68379739116E+02 0.74407087801E+02
 0.76605278971E+02 0.74407087801E+02 0.68379739116E+02 0.59910684276E+02 0.50544898368E+02
 0.41499242543E+02 0.33574056598E+02 0.27246111494E+02 0.22661649269E+02 0.19535829142E+02
 0.17479513053E+02 0.16348745814E+02 0.15921836212E+02 0.15945098264E+02 0.16171884912E+02
 0.16396180624E+02 0.12444169956E+02 0.12502326874E+02 0.12690377010E+02 0.13072132733E+02
 0.13795900261E+02 0.15094691583E+02 0.17252153330E+02 0.20519964484E+02 0.25316266771E+02
 0.32228006253E+02 0.41171418537E+02 0.51513709934E+02 0.62479310069E+02 0.73275010642E+02
 0.82820893813E+02 0.89589122668E+02 0.92062405219E+02 0.89589122668E+02 0.82820893813E+02
 0.73275010642E+02 0.62479310069E+02 0.51513709934E+02 0.41171418537E+02 0.32228006253E+02
 0.25316266771E+02 0.20519964484E+02 0.17252153330E+02 0.15094691583E+02 0.13795900261E+02
 0.13072132733E+02 0.12690377010E+02 0.12502326874E+02 0.10190705080E+02 0.10326241189E+02
 0.10733704155E+02 0.11455771745E+02 0.12642703779E+02 0.14567457892E+02 0.17573412661E+02
 0.22022637886E+02 0.28767337533E+02 0.38227295129E+02 0.49728716885E+02 0.62040177495E+02
 0.74197329638E+02 0.85692998433E+02 0.95825514653E+02 0.10312404142E+03 0.10582696340E+03
 0.10312404142E+03 0.95825514653E+02 0.85692998433E+02 0.74197329638E+02 0.62040177495E+02
 0.49728716885E+02 0.38227295129E+02 0.28767337533E+02 0.22022637886E+02 0.17573412661E+02
 0.14567457892E+02 0.12642703779E+02 0.11455771745E+02 0.10733704155E+02 0.10326241189E+02
 0.90772097087E+01 0.92425050768E+01 0.97396432537E+01 0.10623349514E+02 0.12084968609E+02
 0.14468124968E+02 0.18185215642E+02 0.23873849451E+02 0.32693774473E+02 0.44719574472E+02
 0.58598033057E+02 0.72541029330E+02 0.85594106019E+02 0.97762152953E+02 0.10877042711E+03
 0.11699354460E+03 0.12010785823E+03 0.11699354460E+03 0.10877042711E+03 0.97762152953E+02
 0.85594106019E+02 0.72541029330E+02 0.58598033057E+02 0.44719574472E+02 0.32693774473E+02
 0.23873849451E+02 0.18185215642E+02 0.14468124968E+02 0.12084968609E+02 0.10623349514E+02
 0.97396432537E+01 0.92425050768E+01 0.84536709095E+01 0.86320933477E+01 0.91726762574E+01
 0.10149897117E+02 0.11801627670E+02 0.14540883160E+02 0.18852630740E+02 0.25730135698E+02
 0.36467967054E+02 0.50783354746E+02 0.66718910467E+02 0.82091795481E+02 0.96131372840E+02
 0.10941718326E+03 0.12196954969E+03 0.13171907776E+03 0.13548646152E+03 0.13171907776E+03
 0.12196954969E+03 0.10941718326E+03 0.96131372840E+02 0.82091795481E+02 0.66718910467E+02
 0.50783354746E+02 0.36467967054E+02 0.25730135698E+02 0.18852630740E+02 0.14540883160E+02
 0.11801627670E+02 0.10149897117E+02 0.91726762574E+01 0.86320933477E+01 0.79630678858E+01
 0.81565150073E+01 0.87431997344E+01 0.98065809976E+01 0.11611028396E+02 0.14612739478E+02
 0.19361578774E+02 0.27125404741E+02 0.39247575070E+02 0.55186861872E+02 0.72584747949E+02
 0.89052110897E+02 0.10403941025E+03 0.11856868974E+03 0.13278296398E+03 0.14409890185E+03
 0.14852065381E+03 0.14409890185E+03 0.13278296398E+03 0.11856868974E+03 0.10403941025E+03
 0.89052110897E+02 0.72584747949E+02 0.55186861872E+02 0.39247575070E+02 0.27125404741E+02
 0.19361578774E+02 0.14612739478E+02 0.11611028396E+02 0.98065809976E+01 0.87431997344E+01
 0.81565150073E+01 0.77421793990E+01 0.79440292869E+01 0.85553800856E+01 0.96605657504E+01
 0.11530667818E+02 0.14635145583E+02 0.19550559587E+02 0.27645870328E+02 0.40276405013E+02
 0.56808036086E+02 0.74744030596E+02 0.91635975279E+02 0.10703170720E+03 0.12211818095E+03
 0.13706246481E+03 0.14905252014E+03 0.15375304916E+03 0.14905252014E+03 0.13706246481E+03
 0.12211818095E+03 0.10703170720E+03 0.91635975279E+02 0.74744030596E+02 0.56808036086E+02
 0.40276405013E+02 0.27645870328E+02 0.19550559587E+02 0.14635145583E+02 0.11530667818E+02
 0.96605657504E+01 0.85553800856E+01 0.79440292869E+01 0.79630678858E+01 0.81565150073E+01
 0.87431997344E+01 0.98065809976E+01 0.11611028396E+02 0.14612739478E+02 0.19361578774E+02
 0.27125404741E+02 0.39247575070E+02 0.55186861872E+02 0.72584747949E+02 0.89052110897E+02
 0.10403941025E+03 0.11856868974E+03 0.13278296398E+03 0.14409890185E+03 0.14852065381E+03
 0.14409890185E+03 0.13278296398E+03 0.11856868974E+03 0.10403941025E+03 0.89052110897E+02
 0.72584747949E+02 0.55186861872E+02 0.39247575070E+02 0.27125404741E+02 0.19361578774E+02
 0.14612739478E+02 0.11611028396E+02 0.98065809976E+01 0.87431997344E+01 0.81565150073E+01
 0.84536709095E+01 0.86320933477E+01 0.91726762574E+01 0.10149897117E+02 0.11801627670E+02
 0.14540883160E+02 0.18852630740E+02 0.25730135698E+02 0.36467967054E+02 0.50783354746E+02
 0.66718910467E+02 0.82091795481E+02 0.96131372840E+02 0.10941718326E+03 0.12196954969E+03
 0.13171907776E+03 0.13548646152E+03 0.13171907776E+03 0.12196954969E+03 0.10941718326E+03
 0.96131372840E+02 0.82091795481E+02 0.66718910467E+02 0.50783354746E+02 0.36467967054E+02