   4   4   0   0
  0.1440902E+02  0.3862764E-09  0.3862764E-09  0.3862764E-09  0.5000000E-15
  1.000000000000000E-004
  CAR 
 unknown system                          
     27.44591246     -1.88631685  301      9.22716605      1.00000000
     -1.886  0.0000E+00  0.0000E+00
     -1.789  0.0000E+00  0.0000E+00
     -1.691  0.0000E+00  0.0000E+00
     -1.593  0.0000E+00  0.0000E+00
     -1.495 -0.2738E-29 -0.2677E-30
     -1.397 -0.5283E-26 -0.5168E-27
     -1.300 -0.6291E-23 -0.6157E-24
     -1.202 -0.4626E-20 -0.4529E-21
     -1.104 -0.2099E-17 -0.2057E-18
     -1.006 -0.5699E-15 -0.5593E-16
     -0.909 -0.9777E-13 -0.9616E-14
     -0.811 -0.1034E-10 -0.1021E-11
     -0.713 -0.6743E-09 -0.6695E-10
     -0.615 -0.2712E-07 -0.2719E-08
     -0.517 -0.6747E-06 -0.6869E-07
     -0.420 -0.1042E-04 -0.1087E-05
     -0.322 -0.1000E-03 -0.1087E-04
     -0.224 -0.5932E-03 -0.6887E-04
     -0.126 -0.2069E-02 -0.2712E-03
     -0.029 -0.3241E-02 -0.5881E-03
      0.069  0.4385E-02 -0.1594E-03
      0.167  0.3484E-01  0.3247E-02
      0.265  0.8480E-01  0.1154E-01
      0.362  0.1210E+00  0.2337E-01
      0.460  0.1335E+00  0.3643E-01
      0.558  0.1737E+00  0.5340E-01
      0.656  0.2472E+00  0.7757E-01
      0.754  0.2580E+00  0.1028E+00
      0.851  0.2027E+00  0.1226E+00
      0.949  0.2181E+00  0.1439E+00
      1.047  0.3159E+00  0.1748E+00
      1.145  0.3663E+00  0.2106E+00
      1.242  0.3433E+00  0.2442E+00
      1.340  0.3489E+00  0.2783E+00
      1.438  0.4178E+00  0.3192E+00
      1.536  0.4310E+00  0.3613E+00
      1.634  0.3658E+00  0.3971E+00
      1.731  0.3806E+00  0.4343E+00
      1.829  0.5182E+00  0.4849E+00
      1.927  0.6577E+00  0.5493E+00
      2.025  0.7122E+00  0.6189E+00
      2.122  0.6481E+00  0.6823E+00
      2.220  0.5223E+00  0.7333E+00
      2.318  0.5696E+00  0.7890E+00
      2.416  0.8125E+00  0.8685E+00
      2.514  0.9253E+00  0.9589E+00
      2.611  0.8340E+00  0.1040E+01
      2.709  0.9162E+00  0.1130E+01
      2.807  0.1337E+01  0.1261E+01
      2.905  0.1783E+01  0.1435E+01
      3.002  0.2093E+01  0.1640E+01
      3.100  0.2314E+01  0.1866E+01
      3.198  0.2424E+01  0.2103E+01
      3.296  0.2520E+01  0.2349E+01
      3.393  0.2748E+01  0.2618E+01
      3.491  0.3118E+01  0.2923E+01
      3.589  0.3668E+01  0.3282E+01
      3.687  0.4404E+01  0.3712E+01
      3.785  0.5028E+01  0.4204E+01
      3.882  0.5415E+01  0.4733E+01
      3.980  0.5811E+01  0.5301E+01
      4.078  0.6373E+01  0.5924E+01
      4.176  0.6807E+01  0.6590E+01
      4.273  0.6692E+01  0.7244E+01
      4.371  0.6253E+01  0.7856E+01
      4.469  0.6035E+01  0.8446E+01
      4.567  0.5988E+01  0.9031E+01
      4.665  0.5694E+01  0.9588E+01
      4.762  0.5110E+01  0.1009E+02
      4.860  0.4591E+01  0.1054E+02
      4.958  0.4447E+01  0.1097E+02
      5.056  0.4552E+01  0.1142E+02
      5.153  0.4534E+01  0.1186E+02
      5.251  0.4435E+01  0.1229E+02
      5.349  0.4676E+01  0.1275E+02
      5.447  0.5389E+01  0.1328E+02
      5.545  0.6339E+01  0.1390E+02
      5.642  0.7221E+01  0.1460E+02
      5.740  0.7573E+01  0.1534E+02
      5.838  0.7083E+01  0.1604E+02
      5.936  0.6250E+01  0.1665E+02
      6.033  0.5858E+01  0.1722E+02
      6.131  0.6075E+01  0.1781E+02
      6.229  0.7012E+01  0.1850E+02
      6.327  0.8947E+01  0.1937E+02
      6.424  0.1125E+02  0.2047E+02
      6.522  0.1242E+02  0.2169E+02
      6.620  0.1151E+02  0.2281E+02
      6.718  0.9462E+01  0.2374E+02
      6.816  0.8098E+01  0.2453E+02
      6.913  0.7996E+01  0.2531E+02
      7.011  0.8513E+01  0.2614E+02
      7.109  0.9030E+01  0.2703E+02
      7.207  0.9124E+01  0.2792E+02
      7.304  0.8307E+01  0.2873E+02
      7.402  0.6940E+01  0.2941E+02
      7.500  0.6137E+01  0.3001E+02
      7.598  0.5803E+01  0.3058E+02
      7.696  0.5054E+01  0.3107E+02
      7.793  0.4059E+01  0.3147E+02
      7.891  0.3530E+01  0.3181E+02
      7.989  0.3809E+01  0.3219E+02
      8.087  0.4942E+01  0.3267E+02
      8.184  0.6428E+01  0.3330E+02
      8.282  0.7408E+01  0.3402E+02
      8.380  0.7542E+01  0.3476E+02
      8.478  0.7083E+01  0.3545E+02
      8.576  0.6444E+01  0.3608E+02
      8.673  0.5953E+01  0.3666E+02
      8.771  0.5713E+01  0.3722E+02
      8.869  0.5966E+01  0.3781E+02
      8.967  0.6640E+01  0.3846E+02
      9.064  0.6730E+01  0.3911E+02
      9.162  0.5807E+01  0.3968E+02
      9.260  0.4771E+01  0.4015E+02
      9.358  0.4293E+01  0.4057E+02
      9.455  0.4091E+01  0.4097E+02
      9.553  0.3780E+01  0.4134E+02
      9.651  0.3468E+01  0.4168E+02
      9.749  0.3287E+01  0.4200E+02
      9.847  0.3066E+01  0.4230E+02
      9.944  0.2754E+01  0.4257E+02
     10.042  0.2353E+01  0.4280E+02
     10.140  0.1818E+01  0.4298E+02
     10.238  0.1363E+01  0.4311E+02
     10.335  0.1238E+01  0.4323E+02
     10.433  0.1305E+01  0.4336E+02
     10.531  0.1274E+01  0.4348E+02
     10.629  0.1106E+01  0.4359E+02
     10.727  0.9094E+00  0.4368E+02
     10.824  0.7867E+00  0.4376E+02
     10.922  0.7894E+00  0.4383E+02
     11.020  0.7851E+00  0.4391E+02
     11.118  0.6458E+00  0.4397E+02
     11.215  0.5383E+00  0.4403E+02
     11.313  0.6583E+00  0.4409E+02
     11.411  0.8646E+00  0.4417E+02
     11.509  0.9152E+00  0.4426E+02
     11.607  0.8531E+00  0.4435E+02
     11.704  0.8374E+00  0.4443E+02
     11.802  0.8729E+00  0.4451E+02
     11.900  0.9036E+00  0.4460E+02
     11.998  0.8944E+00  0.4469E+02
     12.095  0.8785E+00  0.4478E+02
     12.193  0.9397E+00  0.4487E+02
     12.291  0.1087E+01  0.4497E+02
     12.389  0.1246E+01  0.4510E+02
     12.486  0.1336E+01  0.4523E+02
     12.584  0.1349E+01  0.4536E+02
     12.682  0.1335E+01  0.4549E+02
     12.780  0.1307E+01  0.4562E+02
     12.878  0.1318E+01  0.4575E+02
     12.975  0.1370E+01  0.4588E+02
     13.073  0.1249E+01  0.4600E+02
     13.171  0.9191E+00  0.4609E+02
     13.269  0.6562E+00  0.4616E+02
     13.366  0.5937E+00  0.4621E+02
     13.464  0.6345E+00  0.4628E+02
     13.562  0.7434E+00  0.4635E+02
     13.660  0.9458E+00  0.4644E+02
     13.758  0.1180E+01  0.4656E+02
     13.855  0.1283E+01  0.4668E+02
     13.953  0.1154E+01  0.4679E+02
     14.051  0.9200E+00  0.4688E+02
     14.149  0.7007E+00  0.4695E+02
     14.246  0.5254E+00  0.4700E+02
     14.344  0.5057E+00  0.4705E+02
     14.442  0.6864E+00  0.4712E+02
     14.540  0.9164E+00  0.4721E+02
     14.638  0.9951E+00  0.4731E+02
     14.735  0.8354E+00  0.4739E+02
     14.833  0.5548E+00  0.4744E+02
     14.931  0.4363E+00  0.4749E+02
     15.029  0.6551E+00  0.4755E+02
     15.126  0.1137E+01  0.4766E+02
     15.224  0.1638E+01  0.4782E+02
     15.322  0.1837E+01  0.4800E+02
     15.420  0.1617E+01  0.4816E+02
     15.517  0.1267E+01  0.4828E+02
     15.615  0.1121E+01  0.4839E+02
     15.713  0.1107E+01  0.4850E+02
     15.811  0.1056E+01  0.4860E+02
     15.909  0.1079E+01  0.4871E+02
     16.006  0.1320E+01  0.4884E+02
     16.104  0.1605E+01  0.4900E+02
     16.202  0.1539E+01  0.4915E+02
     16.300  0.1124E+01  0.4926E+02
     16.397  0.8209E+00  0.4934E+02
     16.495  0.9134E+00  0.4943E+02
     16.593  0.1258E+01  0.4955E+02
     16.691  0.1468E+01  0.4969E+02
     16.789  0.1393E+01  0.4983E+02
     16.886  0.1258E+01  0.4995E+02
     16.984  0.1212E+01  0.5007E+02
     17.082  0.1235E+01  0.5019E+02
     17.180  0.1250E+01  0.5031E+02
     17.277  0.1145E+01  0.5042E+02
     17.375  0.9905E+00  0.5052E+02
     17.473  0.9281E+00  0.5061E+02
     17.571  0.9773E+00  0.5071E+02
     17.669  0.1168E+01  0.5082E+02
     17.766  0.1444E+01  0.5096E+02
     17.864  0.1569E+01  0.5112E+02
     17.962  0.1412E+01  0.5125E+02
     18.060  0.1184E+01  0.5137E+02
     18.157  0.1146E+01  0.5148E+02
     18.255  0.1214E+01  0.5160E+02
     18.353  0.1223E+01  0.5172E+02
     18.451  0.1299E+01  0.5185E+02
     18.548  0.1488E+01  0.5199E+02
     18.646  0.1546E+01  0.5214E+02
     18.744  0.1426E+01  0.5228E+02
     18.842  0.1316E+01  0.5241E+02
     18.940  0.1286E+01  0.5254E+02
     19.037  0.1346E+01  0.5267E+02
     19.135  0.1485E+01  0.5282E+02
     19.233  0.1524E+01  0.5296E+02
     19.331  0.1288E+01  0.5309E+02
     19.428  0.9417E+00  0.5318E+02
     19.526  0.8857E+00  0.5327E+02
     19.624  0.1254E+01  0.5339E+02
     19.722  0.1723E+01  0.5356E+02
     19.820  0.1980E+01  0.5375E+02
     19.917  0.2100E+01  0.5396E+02
     20.015  0.2180E+01  0.5417E+02
     20.113  0.2071E+01  0.5437E+02
     20.211  0.1780E+01  0.5455E+02
     20.308  0.1558E+01  0.5470E+02
     20.406  0.1579E+01  0.5486E+02
     20.504  0.1738E+01  0.5503E+02
     20.602  0.1733E+01  0.5519E+02
     20.699  0.1512E+01  0.5534E+02
     20.797  0.1310E+01  0.5547E+02
     20.895  0.1295E+01  0.5560E+02
     20.993  0.1486E+01  0.5574E+02
     21.091  0.1807E+01  0.5592E+02
     21.188  0.2029E+01  0.5612E+02
     21.286  0.2031E+01  0.5632E+02
     21.384  0.2011E+01  0.5651E+02
     21.482  0.2073E+01  0.5672E+02
     21.579  0.2130E+01  0.5692E+02
     21.677  0.2113E+01  0.5713E+02
     21.775  0.1870E+01  0.5731E+02
     21.873  0.1471E+01  0.5746E+02
     21.971  0.1277E+01  0.5758E+02
     22.068  0.1356E+01  0.5771E+02
     22.166  0.1485E+01  0.5786E+02
     22.264  0.1541E+01  0.5801E+02
     22.362  0.1552E+01  0.5816E+02
     22.459  0.1517E+01  0.5831E+02
     22.557  0.1420E+01  0.5845E+02
     22.655  0.1272E+01  0.5857E+02
     22.753  0.1040E+01  0.5868E+02
     22.851  0.8090E+00  0.5875E+02
     22.948  0.7953E+00  0.5883E+02
     23.046  0.9735E+00  0.5893E+02
     23.144  0.1032E+01  0.5903E+02
     23.242  0.8072E+00  0.5911E+02
     23.339  0.5474E+00  0.5916E+02
     23.437  0.5199E+00  0.5921E+02
     23.535  0.5827E+00  0.5927E+02
     23.633  0.4753E+00  0.5932E+02
     23.730  0.2887E+00  0.5934E+02
     23.828  0.2446E+00  0.5937E+02
     23.926  0.3527E+00  0.5940E+02
     24.024  0.5095E+00  0.5945E+02
     24.122  0.6029E+00  0.5951E+02
     24.219  0.5639E+00  0.5957E+02
     24.317  0.4452E+00  0.5961E+02
     24.415  0.3175E+00  0.5964E+02
     24.513  0.1835E+00  0.5966E+02
     24.610  0.7592E-01  0.5967E+02
     24.708  0.4263E-01  0.5967E+02
     24.806  0.6828E-01  0.5968E+02
     24.904  0.1285E+00  0.5969E+02
     25.002  0.2434E+00  0.5971E+02
     25.099  0.4159E+00  0.5975E+02
     25.197  0.5752E+00  0.5981E+02
     25.295  0.6826E+00  0.5988E+02
     25.393  0.6855E+00  0.5994E+02
     25.490  0.4678E+00  0.5999E+02
     25.588  0.1554E+00  0.6000E+02
     25.686 -0.9026E-02  0.6000E+02
     25.784 -0.2578E-01  0.6000E+02
     25.882 -0.9064E-02  0.6000E+02
     25.979 -0.1581E-02  0.6000E+02
     26.077 -0.1583E-03  0.6000E+02
     26.175 -0.9543E-05  0.6000E+02
     26.273 -0.3532E-06  0.6000E+02
     26.370 -0.8098E-08  0.6000E+02
     26.468 -0.1155E-09  0.6000E+02
     26.566 -0.1025E-11  0.6000E+02
     26.664 -0.5706E-14  0.6000E+02
     26.761 -0.2730E-16  0.6000E+02
     26.859  0.0000E+00  0.6000E+02
     26.957  0.0000E+00  0.6000E+02
     27.055  0.0000E+00  0.6000E+02
     27.153  0.0000E+00  0.6000E+02
     27.250  0.0000E+00  0.6000E+02
     27.348  0.0000E+00  0.6000E+02
     27.446  0.0000E+00  0.6000E+02
