    4    4    1    1
  0.1440902E+02  0.3862764E-09  0.3862764E-09  0.3862764E-09  0.5000000E-15
  1.000000000000000E-004
  CAR 
 unknown system                          
     40    216     30
 
  0.0000000E+00  0.0000000E+00  0.0000000E+00  0.7513148E-03
    1        0.113683   1.000000
    2        2.599262   1.000000
    3        3.530484   1.000000
    4        3.571361   1.000000
    5        3.633158   1.000000
    6        3.741193   1.000000
    7        3.746623   1.000000
    8        6.205892   1.000000
    9        6.216823   1.000000
   10        6.347191   1.000000
   11        7.449089   1.000000
   12        7.581710   1.000000
   13        8.240549   1.000000
   14        8.405022   1.000000
   15        8.544258   1.000008
   16        9.286465   0.260895
   17        9.451631  -0.033607
   18        9.522965  -0.028577
   19        9.822012  -0.000108
   20       10.318388  -0.000000
   21       10.883489  -0.000000
   22       11.417523  -0.000000
   23       11.425038  -0.000000
   24       11.439930  -0.000000
   25       17.960454   0.000000
   26       18.195753   0.000000
   27       19.816947   0.000000
   28       20.326814   0.000000
   29       20.476570   0.000000
   30       20.713037   0.000000
 
  0.9090909E-01  0.0000000E+00  0.0000000E+00  0.1502630E-02
    1        0.213223   1.000000
    2        2.664991   1.000000
    3        3.576022   1.000000
    4        3.605271   1.000000
    5        3.691210   1.000000
    6        3.796746   1.000000
    7        3.810812   1.000000
    8        6.166148   1.000000
    9        6.238178   1.000000
   10        6.380633   1.000000
   11        7.454533   1.000000
   12        7.539349   1.000000
   13        8.237772   1.000000
   14        8.323137   1.000000
   15        8.332681   1.000000
   16        8.871847   1.015347
   17        9.389804   0.006655
   18        9.412204  -0.015521
   19        9.751742  -0.000657
   20        9.939493  -0.000003
   21       10.883041  -0.000000
   22       10.945029  -0.000000
   23       11.961448  -0.000000
   24       11.986597  -0.000000
   25       17.964891   0.000000
   26       18.504447   0.000000
   27       19.493296   0.000000
   28       20.536548   0.000000
   29       20.738684   0.000000
   30       20.905283   0.000000
 
  0.0000000E+00  0.9090909E-01  0.0000000E+00  0.1502630E-02
    1        0.222819   1.000000
    2        2.669992   1.000000
    3        3.565040   1.000000
    4        3.633491   1.000000
    5        3.666469   1.000000
    6        3.796512   1.000000
    7        3.819084   1.000000
    8        6.242581   1.000000
    9        6.251896   1.000000
   10        6.302803   1.000000
   11        7.414543   1.000000
   12        7.592026   1.000000
   13        8.102972   1.000000
   14        8.368729   1.000000
   15        8.384926   1.000000
   16        9.277873   0.292896
   17        9.318349   0.155068
   18        9.517257  -0.029793
   19        9.717266  -0.001440
   20        9.841262  -0.000063
   21       10.215737  -0.000000
   22       10.957036  -0.000000
   23       12.039275  -0.000000
   24       12.189833  -0.000000
   25       17.960711   0.000000
   26       18.367997   0.000000
   27       20.009004   0.000000
   28       20.420361   0.000000
   29       20.536145   0.000000
   30       20.803339   0.000000
 
  0.0000000E+00  0.0000000E+00  0.9090909E-01  0.1502630E-02
    1        0.223221   1.000000
    2        2.672529   1.000000
    3        3.604935   1.000000
    4        3.634957   1.000000
    5        3.692557   1.000000
    6        3.772678   1.000000
    7        3.779968   1.000000
    8        6.152637   1.000000
    9        6.247768   1.000000
   10        6.380730   1.000000
   11        7.427274   1.000000
   12        7.572839   1.000000
   13        8.092139   1.000000
   14        8.346821   1.000000
   15        8.538592   1.000006
   16        8.997493   1.034462
   17        9.222558   0.519491
   18        9.388970   0.007681
   19        9.710316  -0.001673
   20       10.243888  -0.000000
   21       10.314594  -0.000000
   22       10.963220  -0.000000
   23       11.982946  -0.000000
   24       12.161602  -0.000000
   25       17.790324   0.000000
   26       18.480244   0.000000
   27       20.020713   0.000000
   28       20.429708   0.000000
   29       20.675461   0.000000
   30       20.752307   0.000000
 
  0.1818182E+00  0.0000000E+00  0.0000000E+00  0.1502630E-02
    1        0.503746   1.000000
    2        2.852837   1.000000
    3        3.680464   1.000000
    4        3.704270   1.000000
    5        3.865906   1.000000
    6        3.964229   1.000000
    7        4.014280   1.000000
    8        6.025744   1.000000
    9        6.334408   1.000000
   10        6.487053   1.000000
   11        7.388827   1.000000
   12        7.496879   1.000000
   13        7.806247   1.000000
   14        8.057581   1.000000
   15        8.084300   1.000000
   16        8.231891   1.000000
   17        9.118537   0.892869
   18        9.230073   0.487702
   19        9.404671  -0.009176
   20        9.564545  -0.019122
   21        9.946693  -0.000002
   22       10.881986  -0.000000
   23       12.994886  -0.000000
   24       12.996664  -0.000000
   25       17.965786   0.000000
   26       18.174680   0.000000
   27       20.387005   0.000000
   28       20.490990   0.000000
   29       20.560006   0.000000
   30       21.247550   0.000000
 
  0.0000000E+00  0.1818182E+00  0.0000000E+00  0.1502630E-02
    1        0.544241   1.000000
    2        2.869479   1.000000
    3        3.639162   1.000000
    4        3.762185   1.000000
    5        3.819474   1.000000
    6        3.962303   1.000000
    7        4.041615   1.000000
    8        6.180066   1.000000
    9        6.357712   1.000000
   10        6.361694   1.000000
   11        7.311817   1.000000
   12        7.621912   1.000000
   13        7.726840   1.000000
   14        7.893463   1.000000
   15        8.322525   1.000000
   16        8.906062   1.022811
   17        9.195776   0.631024
   18        9.254676   0.384808
   19        9.420133  -0.021083
   20        9.424180  -0.023507
   21        9.504944  -0.032171
   22        9.954592  -0.000002
   23       13.099286  -0.000000
   24       13.229120  -0.000000
   25       17.564893   0.000000
   26       18.714568   0.000000
   27       20.440010   0.000000
   28       20.465031   0.000000
   29       20.560686   0.000000
   30       21.338723   0.000000
 
  0.0000000E+00  0.0000000E+00  0.1818182E+00  0.1502630E-02
    1        0.545995   1.000000
    2        2.879447   1.000000
    3        3.796958   1.000000
    4        3.826408   1.000000
    5        3.858276   1.000000
    6        3.871446   1.000000
    7        3.894116   1.000000
    8        6.002279   1.000000
    9        6.340102   1.000000
   10        6.487763   1.000000
   11        7.329624   1.000000
   12        7.579811   1.000000
   13        7.694865   1.000000
   14        8.145578   1.000000
   15        8.157962   1.000000
   16        8.525462   1.000004
   17        8.951091   1.032465
   18        9.229328   0.490854
   19        9.332234   0.116304
   20        9.496738  -0.033494
   21        9.965192  -0.000001
   22       10.305394  -0.000000
   23       13.061618  -0.000000
   24       13.193370  -0.000000
   25       17.267583   0.000000
   26       18.900440   0.000000
   27       20.513498   0.000000
   28       20.557023   0.000000
   29       20.658777   0.000000
   30       21.249609   0.000000
 
  0.2727273E+00  0.0000000E+00  0.0000000E+00  0.1502630E-02
    1        0.955412   1.000000
    2        3.129910   1.000000
    3        3.783784   1.000000
    4        3.854684   1.000000
    5        4.152001   1.000000
    6        4.236586   1.000000
    7        4.342715   1.000000
    8        5.821589   1.000000
    9        6.447350   1.000000
   10        6.649930   1.000000
   11        7.189698   1.000000
   12        7.192262   1.000000
   13        7.217429   1.000000
   14        7.528351   1.000000
   15        7.738397   1.000000
   16        8.224914   1.000000
   17        8.478854   1.000001
   18        8.756827   1.002189
   19        8.900968   1.021639
   20        9.161079   0.763432
   21        9.495079  -0.033729
   22       10.880774  -0.000000
   23       14.133468  -0.000000
   24       14.172247  -0.000000
   25       17.609396   0.000000
   26       17.994636   0.000000
   27       19.945937   0.000000
   28       20.003098   0.000000
   29       20.225563   0.000000
   30       21.384216   0.000000
 
  0.0000000E+00  0.2727273E+00  0.0000000E+00  0.1502630E-02
    1        1.057763   1.000000
    2        3.149630   1.000000
    3        3.703095   1.000000
    4        3.904740   1.000000
    5        4.117989   1.000000
    6        4.227182   1.000000
    7        4.401507   1.000000
    8        6.000521   1.000000
    9        6.543278   1.000000
   10        6.543704   1.000000
   11        7.156795   1.000000
   12        7.185824   1.000000
   13        7.261247   1.000000
   14        7.657453   1.000000
   15        8.082002   1.000000
   16        8.296244   1.000000
   17        8.623887   1.000085
   18        8.723198   1.001059
   19        8.977293   1.035368
   20        9.057830   1.001045
   21        9.223433   0.515792
   22        9.493259  -0.033972
   23       14.274905  -0.000000
   24       14.338755  -0.000000
   25       17.140568   0.000000
   26       18.706483   0.000000
   27       19.855403   0.000000
   28       20.004356   0.000000
   29       20.727920   0.000000
   30       20.972130   0.000000
 
  0.0000000E+00  0.0000000E+00  0.2727273E+00  0.1502630E-02
    1        1.062499   1.000000
    2        3.167862   1.000000
    3        3.890077   1.000000
    4        4.073449   1.000000
    5        4.138828   1.000000
    6        4.155035   1.000000
    7        4.164841   1.000000
    8        5.774683   1.000000
    9        6.453162   1.000000
   10        6.650311   1.000000
   11        7.152429   1.000000
   12        7.171141   1.000000
   13        7.283184   1.000000
   14        7.617556   1.000000
   15        7.827886   1.000000
   16        8.443558   1.000000
   17        8.509868   1.000002
   18        8.588489   1.000030
   19        8.839555   1.009716
   20        9.016199   1.029922
   21        9.279466   0.286868
   22       10.294501  -0.000000
   23       14.280050  -0.000000
   24       14.302803  -0.000000
   25       16.752799   0.000000
   26       19.018461   0.000000
   27       19.881592   0.000000
   28       20.093332   0.000000
   29       20.773705   0.000000
   30       20.988881   0.000000
 
  0.3636364E+00  0.0000000E+00  0.0000000E+00  0.1502630E-02
    1        1.495180   1.000000
    2        3.423642   1.000000
    3        3.822117   1.000000
    4        4.025694   1.000000
    5        4.541395   1.000000
    6        4.602010   1.000000
    7        4.718767   1.000000
    8        5.602836   1.000000
    9        6.264618   1.000000
   10        6.438578   1.000000
   11        6.854510   1.000000
   12        6.920695   1.000000
   13        6.951358   1.000000
   14        7.360608   1.000000
   15        7.525387   1.000000
   16        7.599119   1.000000
   17        8.222283   1.000000
   18        8.382800   1.000000
   19        8.445855   1.000000
   20        8.753026   1.002023
   21        9.409996  -0.013771
   22       10.879819  -0.000000
   23       15.311554   0.000000
   24       15.382463   0.000000
   25       17.204921   0.000000
   26       18.056369   0.000000
   27       19.043956   0.000000
   28       19.159612   0.000000
   29       19.432809   0.000000
   30       21.792689   0.000000
 
  0.0000000E+00  0.3636364E+00  0.0000000E+00  0.1502630E-02
    1        1.719102   1.000000
    2        3.349863   1.000000
    3        3.738997   1.000000
    4        4.062157   1.000000
    5        4.503751   1.000000
    6        4.570323   1.000000
    7        4.829690   1.000000
    8        5.811648   1.000000
    9        6.587798   1.000000
   10        6.590818   1.000000
   11        6.798559   1.000000
   12        6.831942   1.000000
   13        6.956669   1.000000
   14        7.286009   1.000000
   15        7.630408   1.000000
   16        8.107656   1.000000
   17        8.122002   1.000000
   18        8.156866   1.000000
   19        8.403273   1.000000
   20        8.603482   1.000047
   21        9.195372   0.632666
   22        9.485972  -0.034786
   23       15.490486   0.000000
   24       15.505497   0.000000
   25       16.821077   0.000000
   26       18.592142   0.000000
   27       18.932372   0.000000
   28       19.098031   0.000000
   29       20.625830   0.000000
   30       20.771710   0.000000
 
  0.0000000E+00  0.0000000E+00  0.3636364E+00  0.1502630E-02
    1        1.730853   1.000000
    2        3.352874   1.000000
    3        3.965262   1.000000
    4        4.295253   1.000000
    5        4.511191   1.000000
    6        4.561461   1.000000
    7        4.569726   1.000000
    8        5.510466   1.000000
    9        6.268903   1.000000
   10        6.449363   1.000000
   11        6.898686   1.000000
   12        6.924574   1.000000
   13        6.934249   1.000000
   14        7.371890   1.000000
   15        7.545889   1.000000
   16        7.698283   1.000000
   17        8.201823   1.000000
   18        8.282392   1.000000
   19        8.498689   1.000002
   20        8.634445   1.000114
   21        9.040074   1.017068
   22       10.285502  -0.000000
   23       15.460012   0.000000
   24       15.551754   0.000000
   25       16.380828   0.000000
   26       18.918501   0.000000
   27       19.045348   0.000000
   28       19.199415   0.000000
   29       20.253567   0.000000
   30       21.127180   0.000000
 
  0.4545455E+00  0.0000000E+00  0.0000000E+00  0.1502630E-02
    1        1.937181   1.000000
    2        3.580935   1.000000
    3        3.804260   1.000000
    4        4.153469   1.000000
    5        4.994842   1.000000
    6        4.997491   1.000000
    7        5.017382   1.000000
    8        5.444020   1.000000
    9        5.760609   1.000000
   10        5.785533   1.000000
   11        6.770631   1.000000
   12        6.899154   1.000000
   13        7.029075   1.000000
   14        7.040177   1.000000
   15        7.221701   1.000000
   16        7.600956   1.000000
   17        8.108055   1.000000
   18        8.125198   1.000000
   19        8.218081   1.000000
   20        8.468917   1.000001
   21        9.372771   0.030723
   22       10.879154  -0.000000
   23       16.397517   0.000000
   24       16.477417   0.000000
   25       16.998198   0.000000
   26       18.076931   0.000000
   27       18.151633   0.000000
   28       18.222773   0.000000
   29       18.958141   0.000000
   30       21.942289   0.000000
 
  0.0000000E+00  0.4545455E+00  0.0000000E+00  0.1502630E-02
    1        2.424374   1.000000
    2        3.123057   1.000000
    3        3.851255   1.000000
    4        4.174297   1.000000
    5        4.878999   1.000000
    6        4.899861   1.000000
    7        5.166367   1.000000
    8        5.676735   1.000000
    9        6.089726   1.000000
   10        6.117663   1.000000
   11        6.630659   1.000000
   12        6.965736   1.000000
   13        7.108613   1.000000
   14        7.114982   1.000000
   15        7.486446   1.000000
   16        7.638638   1.000000
   17        7.674000   1.000000
   18        8.025505   1.000000
   19        8.173442   1.000000
   20        8.348560   1.000000
   21        9.176935   0.705295
   22        9.482159  -0.035095
   23       16.646534   0.000000
   24       16.654967   0.000000
   25       16.750491   0.000000
   26       17.861385   0.000000
   27       17.977532   0.000000
   28       18.507882   0.000000
   29       20.465928   0.000000
   30       20.774041   0.000000
 
  0.0000000E+00  0.0000000E+00  0.4545455E+00  0.1502630E-02
    1        2.465012   1.000000
    2        3.093354   1.000000
    3        4.116755   1.000000
    4        4.490991   1.000000
    5        4.765675   1.000000
    6        5.064481   1.000000
    7        5.068317   1.000000
    8        5.286482   1.000000
    9        5.704340   1.000000
   10        5.762304   1.000000
   11        6.706922   1.000000
   12        6.893301   1.000000
   13        7.098827   1.000000
   14        7.099232   1.000000
   15        7.266270   1.000000
   16        7.735344   1.000000
   17        7.880238   1.000000
   18        7.893550   1.000000
   19        8.304807   1.000000
   20        8.489989   1.000001
   21        8.965363   1.034484
   22       10.279838  -0.000000
   23       16.191096   0.000000
   24       16.634976   0.000000
   25       16.830606   0.000000
   26       17.817494   0.000000
   27       18.070893   0.000000
   28       19.057494   0.000000
   29       19.971245   0.000000
   30       21.179878   0.000000
 
  0.9090909E-01  0.9090909E-01  0.0000000E+00  0.3005259E-02
    1        0.321356   1.000000
    2        2.734945   1.000000
    3        3.616172   1.000000
    4        3.662293   1.000000
    5        3.729802   1.000000
    6        3.826437   1.000000
    7        3.901377   1.000000
    8        6.176711   1.000000
    9        6.272738   1.000000
   10        6.365823   1.000000
   11        7.418193   1.000000
   12        7.550625   1.000000
   13        8.071288   1.000000
   14        8.157635   1.000000
   15        8.316988   1.000000
   16        8.901869   1.021846
   17        9.300142   0.212821
   18        9.375455   0.026485
   19        9.406573  -0.010880
   20        9.664629  -0.004168
   21       10.394678  -0.000000
   22       11.318413  -0.000000
   23       11.765315  -0.000000
   24       12.535444  -0.000000
   25       18.030793   0.000000
   26       18.729278   0.000000
   27       19.552147   0.000000
   28       20.475317   0.000000
   29       20.633324   0.000000
   30       21.283443   0.000000
 
  0.0000000E+00  0.9090909E-01  0.9090909E-01  0.3005259E-02
    1        0.330154   1.000000
    2        2.742729   1.000000
    3        3.623859   1.000000
    4        3.704421   1.000000
    5        3.720438   1.000000
    6        3.840923   1.000000
    7        3.852177   1.000000
    8        6.165235   1.000000
    9        6.280487   1.000000
   10        6.364827   1.000000
   11        7.398787   1.000000
   12        7.576197   1.000000
   13        7.956807   1.000000
   14        8.308984   1.000000
   15        8.343308   1.000000
   16        9.030239   1.023459
   17        9.213299   0.558520
   18        9.265268   0.341976
   19        9.590722  -0.013757
   20        9.617692  -0.009289
   21       10.019168  -0.000000
   22       11.331193  -0.000000
   23       12.030374  -0.000000
   24       12.444502  -0.000000
   25       18.042294   0.000000
   26       18.408434   0.000000
   27       20.174250   0.000000
   28       20.330824   0.000000
   29       20.549496   0.000000
   30       21.232828   0.000000
 
  0.9090909E-01  0.0000000E+00  0.9090909E-01  0.3005259E-02
    1        0.321673   1.000000
    2        2.737597   1.000000
    3        3.638851   1.000000
    4        3.665157   1.000000
    5        3.756531   1.000000
    6        3.839396   1.000000
    7        3.841117   1.000000
    8        6.119386   1.000000
    9        6.267237   1.000000
   10        6.413559   1.000000
   11        7.436296   1.000000
   12        7.527138   1.000000
   13        8.031098   1.000000
   14        8.268957   1.000000
   15        8.401815   1.000000
   16        8.720578   1.000998
   17        8.862294   1.013513
   18        9.362073   0.049332
   19        9.696989  -0.002212
   20        9.865746  -0.000031
   21       10.492424  -0.000000
   22       11.412982  -0.000000
   23       11.587219  -0.000000
   24       12.532042  -0.000000
   25       17.899140   0.000000
   26       18.809909   0.000000
   27       19.565125   0.000000
   28       20.449186   0.000000
   29       20.830964   0.000000
   30       21.206062   0.000000
 
  0.1818182E+00  0.9090909E-01  0.0000000E+00  0.3005259E-02
    1        0.609065   1.000000
    2        2.920779   1.000000
    3        3.736733   1.000000
    4        3.756558   1.000000
    5        3.906347   1.000000
    6        3.967436   1.000000
    7        4.108703   1.000000
    8        6.024974   1.000000
    9        6.352297   1.000000
   10        6.482757   1.000000
   11        7.378113   1.000000
   12        7.477395   1.000000
   13        7.665169   1.000000
   14        7.822136   1.000000
   15        8.088971   1.000000
   16        8.363712   1.000000
   17        8.746866   1.001778
   18        9.109372   0.915005
   19        9.206261   0.587923
   20        9.477772  -0.035339
   21       10.539198  -0.000000
   22       10.585776  -0.000000
   23       12.510728  -0.000000
   24       13.391743  -0.000000
   25       17.902687   0.000000
   26       18.623256   0.000000
   27       19.903328   0.000000
   28       20.400670   0.000000
   29       20.675527   0.000000
   30       21.486445   0.000000
 
  0.0000000E+00  0.1818182E+00  0.9090909E-01  0.3005259E-02
    1        0.645274   1.000000
    2        2.941054   1.000000
    3        3.694397   1.000000
    4        3.807821   1.000000
    5        3.872204   1.000000
    6        4.010166   1.000000
    7        4.093630   1.000000
    8        6.124861   1.000000
    9        6.375470   1.000000
   10        6.398146   1.000000
   11        7.309798   1.000000
   12        7.532121   1.000000
   13        7.678959   1.000000
   14        7.802947   1.000000
   15        8.290329   1.000000
   16        8.648844   1.000169
   17        8.930762   1.028445
   18        8.964470   1.034385
   19        9.190908   0.650659
   20        9.342255   0.091310
   21        9.612670  -0.010033
   22       10.599272  -0.000000
   23       12.802747  -0.000000
   24       13.388841  -0.000000
   25       17.709006   0.000000
   26       18.725152   0.000000
   27       19.860484   0.000000
   28       20.656928   0.000000
   29       20.924466   0.000000
   30       21.341578   0.000000
 
  0.9090909E-01  0.0000000E+00  0.1818182E+00  0.3005259E-02
    1        0.641250   1.000000
    2        2.943426   1.000000
    3        3.809209   1.000000
    4        3.835319   1.000000
    5        3.901495   1.000000
    6        3.972235   1.000000
    7        3.979915   1.000000
    8        5.972694   1.000000
    9        6.356516   1.000000
   10        6.504056   1.000000
   11        7.338729   1.000000
   12        7.531926   1.000000
   13        7.627130   1.000000
   14        7.956036   1.000000
   15        8.118091   1.000000
   16        8.375093   1.000000
   17        8.431591   1.000000
   18        9.206504   0.586915
   19        9.458485  -0.034674
   20        9.478613  -0.035302
   21       10.186862  -0.000000
   22       10.444874  -0.000000
   23       12.557871  -0.000000
   24       13.486662  -0.000000
   25       17.405439   0.000000
   26       19.257262   0.000000
   27       19.922366   0.000000
   28       20.478319   0.000000
   29       20.739157   0.000000
   30       21.322049   0.000000
 
 -0.9090909E-01  0.1818182E+00  0.0000000E+00  0.3005259E-02
    1        0.639855   1.000000
    2        2.932708   1.000000
    3        3.701547   1.000000
    4        3.796176   1.000000
    5        3.874825   1.000000
    6        3.976585   1.000000
    7        4.124081   1.000000
    8        6.129702   1.000000
    9        6.371016   1.000000
   10        6.400211   1.000000
   11        7.317781   1.000000
   12        7.543846   1.000000
   13        7.667447   1.000000
   14        7.774441   1.000000
   15        8.241923   1.000000
   16        8.592052   1.000034
   17        8.894872   1.020255
   18        9.034135   1.021123
   19        9.318777   0.153804
   20        9.391962   0.004069
   21        9.732954  -0.001017
   22       10.464010  -0.000000
   23       12.635905  -0.000000
   24       13.505304  -0.000000
   25       17.655561   0.000000
   26       19.074750   0.000000
   27       19.885671   0.000000
   28       20.445621   0.000000
   29       20.618355   0.000000
   30       21.320865   0.000000
 
 -0.1818182E+00  0.0000000E+00  0.9090909E-01  0.3005259E-02
    1        0.609132   1.000000
    2        2.923943   1.000000
    3        3.736448   1.000000
    4        3.756588   1.000000
    5        3.912884   1.000000
    6        4.011521   1.000000
    7        4.065899   1.000000
    8        5.989357   1.000000
    9        6.353374   1.000000
   10        6.504148   1.000000
   11        7.395780   1.000000
   12        7.462997   1.000000
   13        7.687884   1.000000
   14        7.873079   1.000000
   15        8.063734   1.000000
   16        8.249467   1.000000
   17        8.485065   1.000001
   18        9.241833   0.438123
   19        9.377629   0.023177
   20        9.580265  -0.015792
   21       10.532849  -0.000000
   22       10.566347  -0.000000
   23       12.464211  -0.000000
   24       13.387678  -0.000000
   25       17.828460   0.000000
   26       18.677749   0.000000
   27       19.932094   0.000000
   28       20.369478   0.000000
   29       20.752238   0.000000
   30       21.485234   0.000000
 
  0.0000000E+00  0.9090909E-01  0.1818182E+00  0.3005259E-02
    1        0.646610   1.000000
    2        2.948388   1.000000
    3        3.802619   1.000000
    4        3.856484   1.000000
    5        3.871299   1.000000
    6        3.978422   1.000000
    7        3.987026   1.000000
    8        6.003462   1.000000
    9        6.357391   1.000000
   10        6.483073   1.000000
   11        7.322313   1.000000
   12        7.525106   1.000000
   13        7.620918   1.000000
   14        7.925475   1.000000
   15        8.176390   1.000000
   16        8.583289   1.000026
   17        8.723794   1.001074
   18        8.969217   1.034863
   19        9.134394   0.849607
   20        9.313113   0.170895
   21       10.103160  -0.000000
   22       10.631293  -0.000000
   23       12.769107  -0.000000
   24       13.374677  -0.000000
   25       17.465884   0.000000
   26       18.916512   0.000000
   27       19.873078   0.000000
   28       20.703751   0.000000
   29       20.960940   0.000000
   30       21.407125   0.000000
 
  0.2727273E+00  0.9090909E-01  0.0000000E+00  0.3005259E-02
    1        1.056878   1.000000
    2        3.195747   1.000000
    3        3.850639   1.000000
    4        3.904997   1.000000
    5        4.189301   1.000000
    6        4.226841   1.000000
    7        4.422582   1.000000
    8        5.816558   1.000000
    9        6.424022   1.000000
   10        6.647899   1.000000
   11        7.058928   1.000000
   12        7.145875   1.000000
   13        7.194819   1.000000
   14        7.492649   1.000000
   15        7.759150   1.000000
   16        8.046022   1.000000
   17        8.210323   1.000000
   18        8.764305   1.002549
   19        8.893347   1.019913
   20        9.299891   0.213669
   21        9.772102  -0.000400
   22       10.597239  -0.000000
   23       13.512409  -0.000000
   24       14.484220  -0.000000
   25       17.445170   0.000000
   26       18.505719   0.000000
   27       19.052531   0.000000
   28       20.211888   0.000000
   29       21.169571   0.000000
   30       21.703102   0.000000
 
  0.0000000E+00  0.2727273E+00  0.9090909E-01  0.3005259E-02
    1        1.148935   1.000000
    2        3.221861   1.000000
    3        3.758831   1.000000
    4        3.945990   1.000000
    5        4.144681   1.000000
    6        4.271723   1.000000
    7        4.462221   1.000000
    8        5.969700   1.000000
    9        6.524964   1.000000
   10        6.556675   1.000000
   11        7.053841   1.000000
   12        7.183859   1.000000
   13        7.193187   1.000000
   14        7.646970   1.000000
   15        7.747621   1.000000
   16        8.235644   1.000000
   17        8.490850   1.000001
   18        8.552504   1.000010
   19        8.926125   1.027419
   20        9.170315   0.730121
   21        9.442835  -0.031464
   22        9.678006  -0.003233
   23       13.784933  -0.000000
   24       14.503607  -0.000000
   25       17.204374   0.000000
   26       18.619622   0.000000
   27       19.474179   0.000000
   28       20.198517   0.000000
   29       21.060252   0.000000
   30       21.703637   0.000000
 
  0.9090909E-01  0.0000000E+00  0.2727273E+00  0.3005259E-02
    1        1.152402   1.000000
    2        3.232924   1.000000
    3        3.944579   1.000000
    4        4.066620   1.000000
    5        4.123420   1.000000
    6        4.227134   1.000000
    7        4.292433   1.000000
    8        5.746025   1.000000
    9        6.471731   1.000000
   10        6.633824   1.000000
   11        7.058849   1.000000
   12        7.128468   1.000000
   13        7.188157   1.000000
   14        7.573899   1.000000
   15        7.766710   1.000000
   16        7.906082   1.000000
   17        8.427158   1.000000
   18        8.856346   1.012440
   19        8.921736   1.026426
   20        9.212424   0.562191
   21        9.427993  -0.025551
   22       10.122804  -0.000000
   23       13.661036  -0.000000
   24       14.555923  -0.000000
   25       16.878900   0.000000
   26       19.034526   0.000000
   27       19.605172   0.000000
   28       20.085224   0.000000
   29       21.107178   0.000000
   30       21.432139   0.000000
 
 -0.9090909E-01  0.2727273E+00  0.0000000E+00  0.3005259E-02
    1        1.148615   1.000000
    2        3.212370   1.000000
    3        3.770981   1.000000
    4        3.946895   1.000000
    5        4.159884   1.000000
    6        4.232658   1.000000
    7        4.469979   1.000000