unknown system                          
   1.00000000000000     
     3.635000    0.000000    0.000000
     0.000000    3.635000    0.000000
     0.000000    0.000000    3.635000
   Cu
     4
Direct
  0.000000  0.000000  0.000000
  0.500000  0.500000  0.000000
  0.500000  0.000000  0.500000
  0.000000  0.500000  0.500000
 
   24   24   24
  736.67      663.96      484.58      284.23      135.49      60.397      33.961      18.367      8.6359      6.6618    
  6.7447      5.1250      3.8613      5.1250      6.7447      6.6618      8.6359      18.367      33.961      60.397    
  135.49      284.23      484.58      663.96      663.96      597.95      435.45      254.86      122.02      55.899    
  32.415      17.514      8.6863      7.2308      7.5868      6.2431      5.1250      6.2431      7.5868      7.2308    
  8.6863      17.514      32.415      55.899      122.02      254.86      435.45      597.95      484.58      435.45    
  315.36      184.05      90.246      45.521      28.291      15.328      8.6121      7.9749      8.5316      7.5868    
  6.7447      7.5868      8.5316      7.9749      8.6121      15.328      28.291      45.521      90.246      184.05    
  315.36      435.45      284.23      254.86      184.05      108.96      58.144      35.002      22.528      12.659    
  8.2164      7.8020      7.9749      7.2308      6.6618      7.2308      7.9749      7.8020      8.2164      12.659    
  22.528      35.002      58.144      108.96      184.05      254.86      135.49      122.02      90.246      58.144    
  37.603      26.147      16.579      10.472      8.2312      8.2164      8.6121      8.6863      8.6359      8.6863    
  8.6121      8.2164      8.2312      10.472      16.579      26.147      37.603      58.144      90.246      122.02    
  60.397      55.899      45.521      35.002      26.147      17.848      12.105      9.8697      10.472      12.659    
  15.328      17.514      18.367      17.514      15.328      12.659      10.472      9.8697      12.105      17.848    
  26.147      35.002      45.521      55.899      33.961      32.415      28.291      22.528      16.579      12.105    
  10.443      12.105      16.579      22.528      28.291      32.415      33.961      32.415      28.291      22.528    
  16.579      12.105      10.443      12.105      16.579      22.528      28.291      32.415      18.367      17.514    
  15.328      12.659      10.472      9.8697      12.105      17.848      26.147      35.002      45.521      55.899    
  60.397      55.899      45.521      35.002      26.147      17.848      12.105      9.8697      10.472      12.659    
  15.328      17.514      8.6359      8.6863      8.6121      8.2164      8.2312      10.472      16.579      26.147    
  37.603      58.144      90.246      122.02      135.49      122.02      90.246      58.144      37.603      26.147    
  16.579      10.472      8.2312      8.2164      8.6121      8.6863      6.6618      7.2308      7.9749      7.8020    
  8.2164      12.659      22.528      35.002      58.144      108.96      184.05      254.86      284.23      254.86    
  184.05      108.96      58.144      35.002      22.528      12.659      8.2164      7.8020      7.9749      7.2308    
  6.7447      7.5868      8.5316      7.9749      8.6121      15.328      28.291      45.521      90.246      184.05    
  315.36      435.45      484.58      435.45      315.36      184.05      90.246      45.521      28.291      15.328    
  8.6121      7.9749      8.5316      7.5868      5.1250      6.2431      7.5868      7.2308      8.6863      17.514    
  32.415      55.899      122.02      254.86      435.45      597.95      663.96      597.95      435.45      254.86    
  122.02      55.899      32.415      17.514      8.6863      7.2308      7.5868      6.2431      3.8613      5.1250    
  6.7447      6.6618      8.6359      18.367      33.961      60.397      135.49      284.23      484.58      663.96    
  736.67      663.96      484.58      284.23      135.49      60.397      33.961      18.367      8.6359      6.6618    
  6.7447      5.1250      5.1250      6.2431      7.5868      7.2308      8.6863      17.514      32.415      55.899    
  122.02      254.86      435.45      597.95      663.96      597.95      435.45      254.86      122.02      55.899    
  32.415      17.514      8.6863      7.2308      7.5868      6.2431      6.7447      7.5868      8.5316      7.9749    
  8.6121      15.328      28.291      45.521      90.246      184.05      315.36      435.45      484.58      435.45    
  315.36      184.05      90.246      45.521      28.291      15.328      8.6121      7.9749      8.5316      7.5868    
  6.6618      7.2308      7.9749      7.8020      8.2164      12.659      22.528      35.002      58.144      108.96    
  184.05      254.86      284.23      254.86      184.05      108.96      58.144      35.002      22.528      12.659    
  8.2164      7.8020      7.9749      7.2308      8.6359      8.6863      8.6121      8.2164      8.2312      10.472    
  16.579      26.147      37.603      58.144      90.246      122.02      135.49      122.02      90.246      58.144    
  37.603      26.147      16.579      10.472      8.2312      8.2164      8.6121      8.6863      18.367      17.514    
  15.328      12.659      10.472      9.8697      12.105      17.848      26.147      35.002      45.521      55.899    
  60.397      55.899      45.521      35.002      26.147      17.848      12.105      9.8697      10.472      12.659    
  15.328      17.514      33.961      32.415      28.291      22.528      16.579      12.105      10.443      12.105    
  16.579      22.528      28.291      32.415      33.961      32.415      28.291      22.528      16.579      12.105    
  10.443      12.105      16.579      22.528      28.291      32.415      60.397      55.899      45.521      35.002    
  26.147      17.848      12.105      9.8697      10.472      12.659      15.328      17.514      18.367      17.514    
  15.328      12.659      10.472      9.8697      12.105      17.848      26.147      35.002      45.521      55.899    
  135.49      122.02      90.246      58.144      37.603      26.147      16.579      10.472      8.2312      8.2164    
  8.6121      8.6863      8.6359      8.6863      8.6121      8.2164      8.2312      10.472      16.579      26.147    
  37.603      58.144      90.246      122.02      284.23      254.86      184.05      108.96      58.144      35.002    
  22.528      12.659      8.2164      7.8020      7.9749      7.2308      6.6618      7.2308      7.9749      7.8020    
  8.2164      12.659      22.528      35.002      58.144      108.96      184.05      254.86      484.58      435.45    
  315.36      184.05      90.246      45.521      28.291      15.328      8.6121      7.9749      8.5316      7.5868    
  6.7447      7.5868      8.5316      7.9749      8.6121      15.328      28.291      45.521      90.246      184.05    
  315.36      435.45      663.96      597.95      435.45      254.86      122.02      55.899      32.415      17.514    
  8.6863      7.2308      7.5868      6.2431      5.1250      6.2431      7.5868      7.2308      8.6863      17.514    
  32.415      55.899      122.02      254.86      435.45      597.95      663.96      597.95      435.45      254.86    
  122.02      55.899      32.415      17.514      8.6863      7.2308      7.5868      6.2431      5.1250      6.2431    
  7.5868      7.2308      8.6863      17.514      32.415      55.899      122.02      254.86      435.45      597.95    
  597.95      538.12      391.15      228.64      110.16      51.978      30.918      16.657      8.6717      7.6889    
  8.2991      7.2209      6.2431      7.2209      8.2991      7.6889      8.6717      16.657      30.918      51.978    
  110.16      228.64      391.15      538.12      435.45      391.15      283.11      165.54      82.264      42.908    
  26.884      14.516      8.4865      8.2185      8.9963      8.2991      7.5868      8.2991      8.9963      8.2185    
  8.4865      14.516      26.884      42.908      82.264      165.54      283.11      391.15      254.86      228.64    
  165.54      98.937      54.169      33.541      21.368      12.025      8.0507      7.8713      8.2185      7.6889    
  7.2308      7.6889      8.2185      7.8713      8.0507      12.025      21.368      33.541      54.169      98.937    
  165.54      228.64      122.02      110.16      82.264      54.169      36.053      25.112      15.846      10.103    
  8.0426      8.0507      8.4865      8.6717      8.6863      8.6717      8.4865      8.0507      8.0426      10.103    
  15.846      25.112      36.053      54.169      82.264      110.16      55.899      51.978      42.908      33.541    
  25.112      17.190      11.798      9.6671      10.103      12.025      14.516      16.657      17.514      16.657    
  14.516      12.025      10.103      9.6671      11.798      17.190      25.112      33.541      42.908      51.978    
  32.415      30.918      26.884      21.368      15.846      11.798      10.316      11.798      15.846      21.368    
  26.884      30.918      32.415      30.918      26.884      21.368      15.846      11.798      10.316      11.798    
  15.846      21.368      26.884      30.918      17.514      16.657      14.516      12.025      10.103      9.6671    
  11.798      17.190      25.112      33.541      42.908      51.978      55.899      51.978      42.908      33.541    
  25.112      17.190      11.798      9.6671      10.103      12.025      14.516      16.657      8.6863      8.6717    
  8.4865      8.0507      8.0426      10.103      15.846      25.112      36.053      54.169      82.264      110.16    
  122.02      110.16      82.264      54.169      36.053      25.112      15.846      10.103      8.0426      8.0507    
  8.4865      8.6717      7.2308      7.6889      8.2185      7.8713      8.0507      12.025      21.368      33.541    
  54.169      98.937      165.54      228.64      254.86      228.64      165.54      98.937      54.169      33.541    
  21.368      12.025      8.0507      7.8713      8.2185      7.6889      7.5868      8.2991      8.9963      8.2185    
  8.4865      14.516      26.884      42.908      82.264      165.54      283.11      391.15      435.45      391.15    
  283.11      165.54      82.264      42.908      26.884      14.516      8.4865      8.2185      8.9963      8.2991    
  6.2431      7.2209      8.2991      7.6889      8.6717      16.657      30.918      51.978      110.16      228.64    
  391.15      538.12      597.95      538.12      391.15      228.64      110.16      51.978      30.918      16.657    
  8.6717      7.6889      8.2991      7.2209      5.1250      6.2431      7.5868      7.2308      8.6863      17.514    
  32.415      55.899      122.02      254.86      435.45      597.95      663.96      597.95      435.45      254.86    
  122.02      55.899      32.415      17.514      8.6863      7.2308      7.5868      6.2431      6.2431      7.2209    
  8.2991      7.6889      8.6717      16.657      30.918      51.978      110.16      228.64      391.15      538.12    
  597.95      538.12      391.15      228.64      110.16      51.978      30.918      16.657      8.6717      7.6889    
  8.2991      7.2209      7.5868      8.2991      8.9963      8.2185      8.4865      14.516      26.884      42.908    
  82.264      165.54      283.11      391.15      435.45      391.15      283.11      165.54      82.264      42.908    
  26.884      14.516      8.4865      8.2185      8.9963      8.2991      7.2308      7.6889      8.2185      7.8713    
  8.0507      12.025      21.368      33.541      54.169      98.937      165.54      228.64      254.86      228.64    
  165.54      98.937      54.169      33.541      21.368      12.025      8.0507      7.8713      8.2185      7.6889    
  8.6863      8.6717      8.4865      8.0507      8.0426      10.103      15.846      25.112      36.053      54.169    
  82.264      110.16      122.02      110.16      82.264      54.169      36.053      25.112      15.846      10.103    
  8.0426      8.0507      8.4865      8.6717      17.514      16.657      14.516      12.025      10.103      9.6671    
  11.798      17.190      25.112      33.541      42.908      51.978      55.899      51.978      42.908      33.541    
  25.112      17.190      11.798      9.6671      10.103      12.025      14.516      16.657      32.415      30.918    
  26.884      21.368      15.846      11.798      10.316      11.798      15.846      21.368      26.884      30.918    
  32.415      30.918      26.884      21.368      15.846      11.798      10.316      11.798      15.846      21.368    
  26.884      30.918      55.899      51.978      42.908      33.541      25.112      17.190      11.798      9.6671    
  10.103      12.025      14.516      16.657      17.514      16.657      14.516      12.025      10.103      9.6671    
  11.798      17.190      25.112      33.541      42.908      51.978      122.02      110.16      82.264      54.169    
  36.053      25.112      15.846      10.103      8.0426      8.0507      8.4865      8.6717      8.6863      8.6717    
  8.4865      8.0507      8.0426      10.103      15.846      25.112      36.053      54.169      82.264      110.16    
  254.86      228.64      165.54      98.937      54.169      33.541      21.368      12.025      8.0507      7.8713    
  8.2185      7.6889      7.2308      7.6889      8.2185      7.8713      8.0507      12.025      21.368      33.541    
  54.169      98.937      165.54      228.64      435.45      391.15      283.11      165.54      82.264      42.908    
  26.884      14.516      8.4865      8.2185      8.9963      8.2991      7.5868      8.2991      8.9963      8.2185    
  8.4865      14.516      26.884      42.908      82.264      165.54      283.11      391.15      597.95      538.12    
  391.15      228.64      110.16      51.978      30.918      16.657      8.6717      7.6889      8.2991      7.2209    
  6.2431      7.2209      8.2991      7.6889      8.6717      16.657      30.918      51.978      110.16      228.64    
  391.15      538.12      484.58      435.45      315.36      184.05      90.246      45.521      28.291      15.328    
  8.6121      7.9749      8.5316      7.5868      6.7447      7.5868      8.5316      7.9749      8.6121      15.328    
  28.291      45.521      90.246      184.05      315.36      435.45      435.45      391.15      283.11      165.54    
  82.264      42.908      26.884      14.516      8.4865      8.2185      8.9963      8.2991      7.5868      8.2991    
  8.9963      8.2185      8.4865      14.516      26.884      42.908      82.264      165.54      283.11      391.15    
  315.36      283.11      205.00      121.30      63.584      36.726      23.168      12.606      8.1566      8.4017    
  9.3241      8.9963      8.5316      8.9963      9.3241      8.4017      8.1566      12.606      23.168      36.726    
  63.584      121.30      205.00      283.11      184.05      165.54      121.30      75.272      44.817      29.664    
  18.397      10.646      7.7751      7.9084      8.4017      8.2185      7.9749      8.2185      8.4017      7.9084    
  7.7751      10.646      18.397      29.664      44.817      75.272      121.30      165.54      90.246      82.264    
  63.584      44.817      31.998      22.096      13.980      9.3787      7.8077      7.7751      8.1566      8.4865    
  8.6121      8.4865      8.1566      7.7751      7.8077      9.3787      13.980      22.096      31.998      44.817    
  63.584      82.264      45.521      42.908      36.726      29.664      22.096      15.309      10.970      9.2543    
  9.3787      10.646      12.606      14.516      15.328      14.516      12.606      10.646      9.3787      9.2543    
  10.970      15.309      22.096      29.664      36.726      42.908      28.291      26.884      23.168      18.397    
  13.980      10.970      9.9155      10.970      13.980      18.397      23.168      26.884      28.291      26.884    
  23.168      18.397      13.980      10.970      9.9155      10.970      13.980      18.397      23.168      26.884    
  15.328      14.516      12.606      10.646      9.3787      9.2543      10.970      15.309      22.096      29.664    
  36.726      42.908      45.521      42.908      36.726      29.664      22.096      15.309      10.970      9.2543    
  9.3787      10.646      12.606      14.516      8.6121      8.4865      8.1566      7.7751      7.8077      9.3787    
  13.980      22.096      31.998      44.817      63.584      82.264      90.246      82.264      63.584      44.817    
  31.998      22.096      13.980      9.3787      7.8077      7.7751      8.1566      8.4865      7.9749      8.2185    
  8.4017      7.9084      7.7751      10.646      18.397      29.664      44.817      75.272      121.30      165.54    
  184.05      165.54      121.30      75.272      44.817      29.664      18.397      10.646      7.7751      7.9084    
  8.4017      8.2185      8.5316      8.9963      9.3241      8.4017      8.1566      12.606      23.168      36.726    
  63.584      121.30      205.00      283.11      315.36      283.11      205.00      121.30      63.584      36.726    
  23.168      12.606      8.1566      8.4017      9.3241      8.9963      7.5868      8.2991      8.9963      8.2185    
  8.4865      14.516      26.884      42.908      82.264      165.54      283.11      391.15      435.45      391.15    
  283.11      165.54      82.264      42.908      26.884      14.516      8.4865      8.2185      8.9963      8.2991    
  6.7447      7.5868      8.5316      7.9749      8.6121      15.328      28.291      45.521      90.246      184.05    
  315.36      435.45      484.58      435.45      315.36      184.05      90.246      45.521      28.291      15.328    
  8.6121      7.9749      8.5316      7.5868      7.5868      8.2991      8.9963      8.2185      8.4865      14.516    
  26.884      42.908      82.264      165.54      283.11      391.15      435.45      391.15      283.11      165.54    
  82.264      42.908      26.884      14.516      8.4865      8.2185      8.9963      8.2991      8.5316      8.9963    
  9.3241      8.4017      8.1566      12.606      23.168      36.726      63.584      121.30      205.00      283.11    
  315.36      283.11      205.00      121.30      63.584      36.726      23.168      12.606      8.1566      8.4017    
  9.3241      8.9963      7.9749      8.2185      8.4017      7.9084      7.7751      10.646      18.397      29.664    
  44.817      75.272      121.30      165.54      184.05      165.54      121.30      75.272      44.817      29.664    
  18.397      10.646      7.7751      7.9084      8.4017      8.2185      8.6121      8.4865      8.1566      7.7751    
  7.8077      9.3787      13.980      22.096      31.998      44.817      63.584      82.264      90.246      82.264    
  63.584      44.817      31.998      22.096      13.980      9.3787      7.8077      7.7751      8.1566      8.4865    
  15.328      14.516      12.606      10.646      9.3787      9.2543      10.970      15.309      22.096      29.664    
  36.726      42.908      45.521      42.908      36.726      29.664      22.096      15.309      10.970      9.2543    
  9.3787      10.646      12.606      14.516      28.291      26.884      23.168      18.397      13.980      10.970    
  9.9155      10.970      13.980      18.397      23.168      26.884      28.291      26.884      23.168      18.397    
  13.980      10.970      9.9155      10.970      13.980      18.397      23.168      26.884      45.521      42.908    
  36.726      29.664      22.096      15.309      10.970      9.2543      9.3787      10.646      12.606      14.516    
  15.328      14.516      12.606      10.646      9.3787      9.2543      10.970      15.309      22.096      29.664    
  36.726      42.908      90.246      82.264      63.584      44.817      31.998      22.096      13.980      9.3787    
  7.8077      7.7751      8.1566      8.4865      8.6121      8.4865      8.1566      7.7751      7.8077      9.3787    
  13.980      22.096      31.998      44.817      63.584      82.264      184.05      165.54      121.30      75.272    
  44.817      29.664      18.397      10.646      7.7751      7.9084      8.4017      8.2185      7.9749      8.2185    
  8.4017      7.9084      7.7751      10.646      18.397      29.664      44.817      75.272      121.30      165.54    
  315.36      283.11      205.00      121.30      63.584      36.726      23.168      12.606      8.1566      8.4017    
  9.3241      8.9963      8.5316      8.9963      9.3241      8.4017      8.1566      12.606      23.168      36.726    
  63.584      121.30      205.00      283.11      435.45      391.15      283.11      165.54      82.264      42.908    
  26.884      14.516      8.4865      8.2185      8.9963      8.2991      7.5868      8.2991      8.9963      8.2185    
  8.4865      14.516      26.884      42.908      82.264      165.54      283.11      391.15      284.23      254.86    
  184.05      108.96      58.144      35.002      22.528      12.659      8.2164      7.8020      7.9749      7.2308    
  6.6618      7.2308      7.9749      7.8020      8.2164      12.659      22.528      35.002      58.144      108.96    
  184.05      254.86      254.86      228.64      165.54      98.937      54.169      33.541      21.368      12.025    
  8.0507      7.8713      8.2185      7.6889      7.2308      7.6889      8.2185      7.8713      8.0507      12.025    
  21.368      33.541      54.169      98.937      165.54      228.64      184.05      165.54      121.30      75.272    
  44.817      29.664      18.397      10.646      7.7751      7.9084      8.4017      8.2185      7.9749      8.2185    
  8.4017      7.9084      7.7751      10.646      18.397      29.664      44.817      75.272      121.30      165.54    
  108.96      98.937      75.272      51.140      34.927      23.975      14.807      9.4711      7.7127      7.7031    
  7.9084      7.8713      7.8020      7.8713      7.9084      7.7031      7.7127      9.4711      14.807      23.975    
  34.927      51.140      75.272      98.937      58.144      54.169      44.817      34.927      26.113      17.671    
  11.756      8.9155      7.9658      7.7127      7.7751      8.0507      8.2164      8.0507      7.7751      7.7127    
  7.9658      8.9155      11.756      17.671      26.113      34.927      44.817      54.169      35.002      33.541    
  29.664      23.975      17.671      12.638      9.8654      8.9291      8.9155      9.4711      10.646      12.025    
  12.659      12.025      10.646      9.4711      8.9155      8.9291      9.8654      12.638      17.671      23.975    
  29.664      33.541      22.528      21.368      18.397      14.807      11.756      9.8654      9.2457      9.8654    
  11.756      14.807      18.397      21.368      22.528      21.368      18.397      14.807      11.756      9.8654    
  9.2457      9.8654      11.756      14.807      18.397      21.368      12.659      12.025      10.646      9.4711    
  8.9155      8.9291      9.8654      12.638      17.671      23.975      29.664      33.541      35.002      33.541    
  29.664      23.975      17.671      12.638      9.8654      8.9291      8.9155      9.4711      10.646      12.025    
  8.2164      8.0507      7.7751      7.7127      7.9658      8.9155      11.756      17.671      26.113      34.927    
  44.817      54.169      58.144      54.169      44.817      34.927      26.113      17.671      11.756      8.9155    
  7.9658      7.7127      7.7751      8.0507      7.8020      7.8713      7.9084      7.7031      7.7127      9.4711    
  14.807      23.975      34.927      51.140      75.272      98.937      108.96      98.937      75.272      51.140    
  34.927      23.975      14.807      9.4711      7.7127      7.7031      7.9084      7.8713      7.9749      8.2185    
  8.4017      7.9084      7.7751      10.646      18.397      29.664      44.817      75.272      121.30      165.54    
  184.05      165.54      121.30      75.272      44.817      29.664      18.397      10.646      7.7751      7.9084    
  8.4017      8.2185      7.2308      7.6889      8.2185      7.8713      8.0507      12.025      21.368      33.541    
  54.169      98.937      165.54      228.64      254.86      228.64      165.54      98.937      54.169      33.541    
  21.368      12.025      8.0507      7.8713      8.2185      7.6889      6.6618      7.2308      7.9749      7.8020    
  8.2164      12.659      22.528      35.002      58.144      108.96      184.05      254.86      284.23      254.86    
  184.05      108.96      58.144      35.002      22.528      12.659      8.2164      7.8020      7.9749      7.2308    
  7.2308      7.6889      8.2185      7.8713      8.0507      12.025      21.368      33.541      54.169      98.937    
  165.54      228.64      254.86      228.64      165.54      98.937      54.169      33.541      21.368      12.025    
  8.0507      7.8713      8.2185      7.6889      7.9749      8.2185      8.4017      7.9084      7.7751      10.646    
  18.397      29.664      44.817      75.272      121.30      165.54      184.05      165.54      121.30      75.272    
  44.817      29.664      18.397      10.646      7.7751      7.9084      8.4017      8.2185      7.8020      7.8713    
  7.9084      7.7031      7.7127      9.4711      14.807      23.975      34.927      51.140      75.272      98.937    
  108.96      98.937      75.272      51.140      34.927      23.975      14.807      9.4711      7.7127      7.7031    
  7.9084      7.8713      8.2164      8.0507      7.7751      7.7127      7.9658      8.9155      11.756      17.671    
  26.113      34.927      44.817      54.169      58.144      54.169      44.817      34.927      26.113      17.671    
  11.756      8.9155      7.9658      7.7127      7.7751      8.0507      12.659      12.025      10.646      9.4711    
  8.9155      8.9291      9.8654      12.638      17.671      23.975      29.664      33.541      35.002      33.541    
  29.664      23.975      17.671      12.638      9.8654      8.9291      8.9155      9.4711      10.646      12.025    
  22.528      21.368      18.397      14.807      11.756      9.8654      9.2457      9.8654      11.756      14.807    
  18.397      21.368      22.528      21.368      18.397      14.807      11.756      9.8654      9.2457      9.8654    
  11.756      14.807      18.397      21.368      35.002      33.541      29.664      23.975      17.671      12.638    
  9.8654      8.9291      8.9155      9.4711      10.646      12.025      12.659      12.025      10.646      9.4711    
  8.9155      8.9291      9.8654      12.638      17.671      23.975      29.664      33.541      58.144      54.169    
  44.817      34.927      26.113      17.671      11.756      8.9155      7.9658      7.7127      7.7751      8.0507    
  8.2164      8.0507      7.7751      7.7127      7.9658      8.9155      11.756      17.671      26.113      34.927    
  44.817      54.169      108.96      98.937      75.272      51.140      34.927      23.975      14.807      9.4711    
  7.7127      7.7031      7.9084      7.8713      7.8020      7.8713      7.9084      7.7031      7.7127      9.4711    
  14.807      23.975      34.927      51.140      75.272      98.937      184.05      165.54      121.30      75.272    
  44.817      29.664      18.397      10.646      7.7751      7.9084      8.4017      8.2185      7.9749      8.2185    
  8.4017      7.9084      7.7751      10.646      18.397      29.664      44.817      75.272      121.30      165.54    
  254.86      228.64      165.54      98.937      54.169      33.541      21.368      12.025      8.0507      7.8713    
  8.2185      7.6889      7.2308      7.6889      8.2185      7.8713      8.0507      12.025      21.368      33.541    
  54.169      98.937      165.54      228.64      135.49      122.02      90.246      58.144      37.603      26.147    
  16.579      10.472      8.2312      8.2164      8.6121      8.6863      8.6359      8.6863      8.6121      8.2164    
  8.2312      10.472      16.579      26.147      37.603      58.144      90.246      122.02      122.02      110.16    
  82.264      54.169      36.053      25.112      15.846      10.103      8.0426      8.0507      8.4865      8.6717    
  8.6863      8.6717      8.4865      8.0507      8.0426      10.103      15.846      25.112      36.053      54.169    
  82.264      110.16      90.246      82.264      63.584      44.817      31.998      22.096      13.980      9.3787    
  7.8077      7.7751      8.1566      8.4865      8.6121      8.4865      8.1566      7.7751      7.8077      9.3787    
  13.980      22.096      31.998      44.817      63.584      82.264      58.144      54.169      44.817      34.927    
  26.113      17.671      11.756      8.9155      7.9658      7.7127      7.7751      8.0507      8.2164      8.0507    
  7.7751      7.7127      7.9658      8.9155      11.756      17.671      26.113      34.927      44.817      54.169    
  37.603      36.053      31.998      26.113      19.071      13.171      9.9073      8.7857      8.3728      7.9658    
  7.8077      8.0426      8.2312      8.0426      7.8077      7.9658      8.3728      8.7857      9.9073      13.171    
  19.071      26.113      31.998      36.053      26.147      25.112      22.096      17.671      13.171      10.050    
  8.7917      8.6797      8.7857      8.9155      9.3787      10.103      10.472      10.103      9.3787      8.9155    
  8.7857      8.6797      8.7917      10.050      13.171      17.671      22.096      25.112      16.579      15.846    