unknown system                          
   1.00000000000000     
     3.635000    0.000000    0.000000
     0.000000    3.635000    0.000000
     0.000000    0.000000    3.635000
   Cu
     4
Direct
  0.000000  0.000000  0.000000
  0.500000  0.500000  0.000000
  0.500000  0.000000  0.500000
  0.000000  0.500000  0.500000
 
   24   24   24
 0.73666853282E+03 0.66396365095E+03 0.48458032251E+03 0.28423071257E+03 0.13549412923E+03
 0.60396563218E+02 0.33960535232E+02 0.18366692877E+02 0.86358939989E+01 0.66617606386E+01
 0.67446882201E+01 0.51249947762E+01 0.38612785808E+01 0.51249947762E+01 0.67446882201E+01
 0.66617606386E+01 0.86358939989E+01 0.18366692877E+02 0.33960535232E+02 0.60396563218E+02
 0.13549412923E+03 0.28423071257E+03 0.48458032251E+03 0.66396365095E+03 0.66396365095E+03
 0.59795032167E+03 0.43544732168E+03 0.25486348657E+03 0.12201606775E+03 0.55898877939E+02
 0.32415056715E+02 0.17514165949E+02 0.86863487107E+01 0.72307687048E+01 0.75868307411E+01
 0.62431383941E+01 0.51249947762E+01 0.62431383941E+01 0.75868307411E+01 0.72307687048E+01
 0.86863487107E+01 0.17514165949E+02 0.32415056715E+02 0.55898877939E+02 0.12201606775E+03
 0.25486348657E+03 0.43544732168E+03 0.59795032167E+03 0.48458032251E+03 0.43544732168E+03
 0.31536363491E+03 0.18405150803E+03 0.90246466511E+02 0.45520518609E+02 0.28291207973E+02
 0.15328143217E+02 0.86121247754E+01 0.79748926084E+01 0.85315511303E+01 0.75868307411E+01
 0.67446882201E+01 0.75868307411E+01 0.85315511303E+01 0.79748926084E+01 0.86121247754E+01
 0.15328143217E+02 0.28291207973E+02 0.45520518609E+02 0.90246466511E+02 0.18405150803E+03
 0.31536363491E+03 0.43544732168E+03 0.28423071257E+03 0.25486348657E+03 0.18405150803E+03
 0.10895527943E+03 0.58144428187E+02 0.35001704189E+02 0.22528278584E+02 0.12659489941E+02
 0.82163706706E+01 0.78020450924E+01 0.79748926084E+01 0.72307687048E+01 0.66617606386E+01
 0.72307687048E+01 0.79748926084E+01 0.78020450924E+01 0.82163706706E+01 0.12659489941E+02
 0.22528278584E+02 0.35001704189E+02 0.58144428187E+02 0.10895527943E+03 0.18405150803E+03
 0.25486348657E+03 0.13549412923E+03 0.12201606775E+03 0.90246466511E+02 0.58144428187E+02
 0.37602652248E+02 0.26147449359E+02 0.16578904882E+02 0.10471723547E+02 0.82311739877E+01
 0.82163706706E+01 0.86121247754E+01 0.86863487107E+01 0.86358939989E+01 0.86863487107E+01
 0.86121247754E+01 0.82163706706E+01 0.82311739877E+01 0.10471723547E+02 0.16578904882E+02
 0.26147449359E+02 0.37602652248E+02 0.58144428187E+02 0.90246466511E+02 0.12201606775E+03
 0.60396563218E+02 0.55898877939E+02 0.45520518609E+02 0.35001704189E+02 0.26147449359E+02
 0.17847780068E+02 0.12105460099E+02 0.98697243543E+01 0.10471723547E+02 0.12659489941E+02
 0.15328143217E+02 0.17514165949E+02 0.18366692877E+02 0.17514165949E+02 0.15328143217E+02
 0.12659489941E+02 0.10471723547E+02 0.98697243543E+01 0.12105460099E+02 0.17847780068E+02
 0.26147449359E+02 0.35001704189E+02 0.45520518609E+02 0.55898877939E+02 0.33960535232E+02
 0.32415056715E+02 0.28291207973E+02 0.22528278584E+02 0.16578904882E+02 0.12105460099E+02
 0.10443086865E+02 0.12105460099E+02 0.16578904882E+02 0.22528278584E+02 0.28291207973E+02
 0.32415056715E+02 0.33960535232E+02 0.32415056715E+02 0.28291207973E+02 0.22528278584E+02
 0.16578904882E+02 0.12105460099E+02 0.10443086865E+02 0.12105460099E+02 0.16578904882E+02
 0.22528278584E+02 0.28291207973E+02 0.32415056715E+02 0.18366692877E+02 0.17514165949E+02
 0.15328143217E+02 0.12659489941E+02 0.10471723547E+02 0.98697243543E+01 0.12105460099E+02
 0.17847780068E+02 0.26147449359E+02 0.35001704189E+02 0.45520518609E+02 0.55898877939E+02
 0.60396563218E+02 0.55898877939E+02 0.45520518609E+02 0.35001704189E+02 0.26147449359E+02
 0.17847780068E+02 0.12105460099E+02 0.98697243543E+01 0.10471723547E+02 0.12659489941E+02
 0.15328143217E+02 0.17514165949E+02 0.86358939989E+01 0.86863487107E+01 0.86121247754E+01
 0.82163706706E+01 0.82311739877E+01 0.10471723547E+02 0.16578904882E+02 0.26147449359E+02
 0.37602652248E+02 0.58144428187E+02 0.90246466511E+02 0.12201606775E+03 0.13549412923E+03
 0.12201606775E+03 0.90246466511E+02 0.58144428187E+02 0.37602652248E+02 0.26147449359E+02
 0.16578904882E+02 0.10471723547E+02 0.82311739877E+01 0.82163706706E+01 0.86121247754E+01
 0.86863487107E+01 0.66617606386E+01 0.72307687048E+01 0.79748926084E+01 0.78020450924E+01
 0.82163706706E+01 0.12659489941E+02 0.22528278584E+02 0.35001704189E+02 0.58144428187E+02
 0.10895527943E+03 0.18405150803E+03 0.25486348657E+03 0.28423071257E+03 0.25486348657E+03
 0.18405150803E+03 0.10895527943E+03 0.58144428187E+02 0.35001704189E+02 0.22528278584E+02
 0.12659489941E+02 0.82163706706E+01 0.78020450924E+01 0.79748926084E+01 0.72307687048E+01
 0.67446882201E+01 0.75868307411E+01 0.85315511303E+01 0.79748926084E+01 0.86121247754E+01
 0.15328143217E+02 0.28291207973E+02 0.45520518609E+02 0.90246466511E+02 0.18405150803E+03
 0.31536363491E+03 0.43544732168E+03 0.48458032251E+03 0.43544732168E+03 0.31536363491E+03
 0.18405150803E+03 0.90246466511E+02 0.45520518609E+02 0.28291207973E+02 0.15328143217E+02
 0.86121247754E+01 0.79748926084E+01 0.85315511303E+01 0.75868307411E+01 0.51249947762E+01
 0.62431383941E+01 0.75868307411E+01 0.72307687048E+01 0.86863487107E+01 0.17514165949E+02
 0.32415056715E+02 0.55898877939E+02 0.12201606775E+03 0.25486348657E+03 0.43544732168E+03
 0.59795032167E+03 0.66396365095E+03 0.59795032167E+03 0.43544732168E+03 0.25486348657E+03
 0.12201606775E+03 0.55898877939E+02 0.32415056715E+02 0.17514165949E+02 0.86863487107E+01
 0.72307687048E+01 0.75868307411E+01 0.62431383941E+01 0.38612785808E+01 0.51249947762E+01
 0.67446882201E+01 0.66617606386E+01 0.86358939989E+01 0.18366692877E+02 0.33960535232E+02
 0.60396563218E+02 0.13549412923E+03 0.28423071257E+03 0.48458032251E+03 0.66396365095E+03
 0.73666853282E+03 0.66396365095E+03 0.48458032251E+03 0.28423071257E+03 0.13549412923E+03
 0.60396563218E+02 0.33960535232E+02 0.18366692877E+02 0.86358939989E+01 0.66617606386E+01
 0.67446882201E+01 0.51249947762E+01 0.51249947762E+01 0.62431383941E+01 0.75868307411E+01
 0.72307687048E+01 0.86863487107E+01 0.17514165949E+02 0.32415056715E+02 0.55898877939E+02
 0.12201606775E+03 0.25486348657E+03 0.43544732168E+03 0.59795032167E+03 0.66396365095E+03
 0.59795032167E+03 0.43544732168E+03 0.25486348657E+03 0.12201606775E+03 0.55898877939E+02
 0.32415056715E+02 0.17514165949E+02 0.86863487107E+01 0.72307687048E+01 0.75868307411E+01
 0.62431383941E+01 0.67446882201E+01 0.75868307411E+01 0.85315511303E+01 0.79748926084E+01
 0.86121247754E+01 0.15328143217E+02 0.28291207973E+02 0.45520518609E+02 0.90246466511E+02
 0.18405150803E+03 0.31536363491E+03 0.43544732168E+03 0.48458032251E+03 0.43544732168E+03
 0.31536363491E+03 0.18405150803E+03 0.90246466511E+02 0.45520518609E+02 0.28291207973E+02
 0.15328143217E+02 0.86121247754E+01 0.79748926084E+01 0.85315511303E+01 0.75868307411E+01
 0.66617606386E+01 0.72307687048E+01 0.79748926084E+01 0.78020450924E+01 0.82163706706E+01
 0.12659489941E+02 0.22528278584E+02 0.35001704189E+02 0.58144428187E+02 0.10895527943E+03
 0.18405150803E+03 0.25486348657E+03 0.28423071257E+03 0.25486348657E+03 0.18405150803E+03
 0.10895527943E+03 0.58144428187E+02 0.35001704189E+02 0.22528278584E+02 0.12659489941E+02
 0.82163706706E+01 0.78020450924E+01 0.79748926084E+01 0.72307687048E+01 0.86358939989E+01
 0.86863487107E+01 0.86121247754E+01 0.82163706706E+01 0.82311739877E+01 0.10471723547E+02
 0.16578904882E+02 0.26147449359E+02 0.37602652248E+02 0.58144428187E+02 0.90246466511E+02
 0.12201606775E+03 0.13549412923E+03 0.12201606775E+03 0.90246466511E+02 0.58144428187E+02
 0.37602652248E+02 0.26147449359E+02 0.16578904882E+02 0.10471723547E+02 0.82311739877E+01
 0.82163706706E+01 0.86121247754E+01 0.86863487107E+01 0.18366692877E+02 0.17514165949E+02
 0.15328143217E+02 0.12659489941E+02 0.10471723547E+02 0.98697243543E+01 0.12105460099E+02
 0.17847780068E+02 0.26147449359E+02 0.35001704189E+02 0.45520518609E+02 0.55898877939E+02
 0.60396563218E+02 0.55898877939E+02 0.45520518609E+02 0.35001704189E+02 0.26147449359E+02
 0.17847780068E+02 0.12105460099E+02 0.98697243543E+01 0.10471723547E+02 0.12659489941E+02
 0.15328143217E+02 0.17514165949E+02 0.33960535232E+02 0.32415056715E+02 0.28291207973E+02
 0.22528278584E+02 0.16578904882E+02 0.12105460099E+02 0.10443086865E+02 0.12105460099E+02
 0.16578904882E+02 0.22528278584E+02 0.28291207973E+02 0.32415056715E+02 0.33960535232E+02
 0.32415056715E+02 0.28291207973E+02 0.22528278584E+02 0.16578904882E+02 0.12105460099E+02
 0.10443086865E+02 0.12105460099E+02 0.16578904882E+02 0.22528278584E+02 0.28291207973E+02
 0.32415056715E+02 0.60396563218E+02 0.55898877939E+02 0.45520518609E+02 0.35001704189E+02
 0.26147449359E+02 0.17847780068E+02 0.12105460099E+02 0.98697243543E+01 0.10471723547E+02
 0.12659489941E+02 0.15328143217E+02 0.17514165949E+02 0.18366692877E+02 0.17514165949E+02
 0.15328143217E+02 0.12659489941E+02 0.10471723547E+02 0.98697243543E+01 0.12105460099E+02
 0.17847780068E+02 0.26147449359E+02 0.35001704189E+02 0.45520518609E+02 0.55898877939E+02
 0.13549412923E+03 0.12201606775E+03 0.90246466511E+02 0.58144428187E+02 0.37602652248E+02
 0.26147449359E+02 0.16578904882E+02 0.10471723547E+02 0.82311739877E+01 0.82163706706E+01
 0.86121247754E+01 0.86863487107E+01 0.86358939989E+01 0.86863487107E+01 0.86121247754E+01
 0.82163706706E+01 0.82311739877E+01 0.10471723547E+02 0.16578904882E+02 0.26147449359E+02
 0.37602652248E+02 0.58144428187E+02 0.90246466511E+02 0.12201606775E+03 0.28423071257E+03
 0.25486348657E+03 0.18405150803E+03 0.10895527943E+03 0.58144428187E+02 0.35001704189E+02
 0.22528278584E+02 0.12659489941E+02 0.82163706706E+01 0.78020450924E+01 0.79748926084E+01
 0.72307687048E+01 0.66617606386E+01 0.72307687048E+01 0.79748926084E+01 0.78020450924E+01
 0.82163706706E+01 0.12659489941E+02 0.22528278584E+02 0.35001704189E+02 0.58144428187E+02
 0.10895527943E+03 0.18405150803E+03 0.25486348657E+03 0.48458032251E+03 0.43544732168E+03
 0.31536363491E+03 0.18405150803E+03 0.90246466511E+02 0.45520518609E+02 0.28291207973E+02
 0.15328143217E+02 0.86121247754E+01 0.79748926084E+01 0.85315511303E+01 0.75868307411E+01
 0.67446882201E+01 0.75868307411E+01 0.85315511303E+01 0.79748926084E+01 0.86121247754E+01
 0.15328143217E+02 0.28291207973E+02 0.45520518609E+02 0.90246466511E+02 0.18405150803E+03
 0.31536363491E+03 0.43544732168E+03 0.66396365095E+03 0.59795032167E+03 0.43544732168E+03
 0.25486348657E+03 0.12201606775E+03 0.55898877939E+02 0.32415056715E+02 0.17514165949E+02
 0.86863487107E+01 0.72307687048E+01 0.75868307411E+01 0.62431383941E+01 0.51249947762E+01
 0.62431383941E+01 0.75868307411E+01 0.72307687048E+01 0.86863487107E+01 0.17514165949E+02
 0.32415056715E+02 0.55898877939E+02 0.12201606775E+03 0.25486348657E+03 0.43544732168E+03
 0.59795032167E+03 0.66396365095E+03 0.59795032167E+03 0.43544732168E+03 0.25486348657E+03
 0.12201606775E+03 0.55898877939E+02 0.32415056715E+02 0.17514165949E+02 0.86863487107E+01
 0.72307687048E+01 0.75868307411E+01 0.62431383941E+01 0.51249947762E+01 0.62431383941E+01
 0.75868307411E+01 0.72307687048E+01 0.86863487107E+01 0.17514165949E+02 0.32415056715E+02
 0.55898877939E+02 0.12201606775E+03 0.25486348657E+03 0.43544732168E+03 0.59795032167E+03
 0.59795032167E+03 0.53811504612E+03 0.39114900846E+03 0.22863990484E+03 0.11015755933E+03
 0.51977842935E+02 0.30918453351E+02 0.16657402384E+02 0.86717237710E+01 0.76889395214E+01
 0.82991343096E+01 0.72208541096E+01 0.62431383941E+01 0.72208541096E+01 0.82991343096E+01
 0.76889395214E+01 0.86717237710E+01 0.16657402384E+02 0.30918453351E+02 0.51977842935E+02
 0.11015755933E+03 0.22863990484E+03 0.39114900846E+03 0.53811504612E+03 0.43544732168E+03
 0.39114900846E+03 0.28311330421E+03 0.16554193334E+03 0.82264417324E+02 0.42907744989E+02
 0.26883762793E+02 0.14516142786E+02 0.84865409393E+01 0.82185159378E+01 0.89963071414E+01
 0.82991343096E+01 0.75868307411E+01 0.82991343096E+01 0.89963071414E+01 0.82185159378E+01
 0.84865409393E+01 0.14516142786E+02 0.26883762793E+02 0.42907744989E+02 0.82264417324E+02
 0.16554193334E+03 0.28311330421E+03 0.39114900846E+03 0.25486348657E+03 0.22863990484E+03
 0.16554193334E+03 0.98936917495E+02 0.54168688686E+02 0.33541174515E+02 0.21368415780E+02
 0.12024841595E+02 0.80506612351E+01 0.78712970553E+01 0.82185159378E+01 0.76889395214E+01
 0.72307687048E+01 0.76889395214E+01 0.82185159378E+01 0.78712970553E+01 0.80506612351E+01
 0.12024841595E+02 0.21368415780E+02 0.33541174515E+02 0.54168688686E+02 0.98936917495E+02
 0.16554193334E+03 0.22863990484E+03 0.12201606775E+03 0.11015755933E+03 0.82264417324E+02
 0.54168688686E+02 0.36053047535E+02 0.25112235716E+02 0.15845723090E+02 0.10103124845E+02
 0.80425563387E+01 0.80506612351E+01 0.84865409393E+01 0.86717237710E+01 0.86863487107E+01
 0.86717237710E+01 0.84865409393E+01 0.80506612351E+01 0.80425563387E+01 0.10103124845E+02
 0.15845723090E+02 0.25112235716E+02 0.36053047535E+02 0.54168688686E+02 0.82264417324E+02
 0.11015755933E+03 0.55898877939E+02 0.51977842935E+02 0.42907744989E+02 0.33541174515E+02
 0.25112235716E+02 0.17189773198E+02 0.11798174472E+02 0.96670520636E+01 0.10103124845E+02
 0.12024841595E+02 0.14516142786E+02 0.16657402384E+02 0.17514165949E+02 0.16657402384E+02
 0.14516142786E+02 0.12024841595E+02 0.10103124845E+02 0.96670520636E+01 0.11798174472E+02
 0.17189773198E+02 0.25112235716E+02 0.33541174515E+02 0.42907744989E+02 0.51977842935E+02
 0.32415056715E+02 0.30918453351E+02 0.26883762793E+02 0.21368415780E+02 0.15845723090E+02
 0.11798174472E+02 0.10315684721E+02 0.11798174472E+02 0.15845723090E+02 0.21368415780E+02
 0.26883762793E+02 0.30918453351E+02 0.32415056715E+02 0.30918453351E+02 0.26883762793E+02
 0.21368415780E+02 0.15845723090E+02 0.11798174472E+02 0.10315684721E+02 0.11798174472E+02
 0.15845723090E+02 0.21368415780E+02 0.26883762793E+02 0.30918453351E+02 0.17514165949E+02
 0.16657402384E+02 0.14516142786E+02 0.12024841595E+02 0.10103124845E+02 0.96670520636E+01
 0.11798174472E+02 0.17189773198E+02 0.25112235716E+02 0.33541174515E+02 0.42907744989E+02
 0.51977842935E+02 0.55898877939E+02 0.51977842935E+02 0.42907744989E+02 0.33541174515E+02
 0.25112235716E+02 0.17189773198E+02 0.11798174472E+02 0.96670520636E+01 0.10103124845E+02
 0.12024841595E+02 0.14516142786E+02 0.16657402384E+02 0.86863487107E+01 0.86717237710E+01
 0.84865409393E+01 0.80506612351E+01 0.80425563387E+01 0.10103124845E+02 0.15845723090E+02
 0.25112235716E+02 0.36053047535E+02 0.54168688686E+02 0.82264417324E+02 0.11015755933E+03
 0.12201606775E+03 0.11015755933E+03 0.82264417324E+02 0.54168688686E+02 0.36053047535E+02
 0.25112235716E+02 0.15845723090E+02 0.10103124845E+02 0.80425563387E+01 0.80506612351E+01
 0.84865409393E+01 0.86717237710E+01 0.72307687048E+01 0.76889395214E+01 0.82185159378E+01
 0.78712970553E+01 0.80506612351E+01 0.12024841595E+02 0.21368415780E+02 0.33541174515E+02
 0.54168688686E+02 0.98936917495E+02 0.16554193334E+03 0.22863990484E+03 0.25486348657E+03
 0.22863990484E+03 0.16554193334E+03 0.98936917495E+02 0.54168688686E+02 0.33541174515E+02
 0.21368415780E+02 0.12024841595E+02 0.80506612351E+01 0.78712970553E+01 0.82185159378E+01
 0.76889395214E+01 0.75868307411E+01 0.82991343096E+01 0.89963071414E+01 0.82185159378E+01
 0.84865409393E+01 0.14516142786E+02 0.26883762793E+02 0.42907744989E+02 0.82264417324E+02
 0.16554193334E+03 0.28311330421E+03 0.39114900846E+03 0.43544732168E+03 0.39114900846E+03
 0.28311330421E+03 0.16554193334E+03 0.82264417324E+02 0.42907744989E+02 0.26883762793E+02
 0.14516142786E+02 0.84865409393E+01 0.82185159378E+01 0.89963071414E+01 0.82991343096E+01
 0.62431383941E+01 0.72208541096E+01 0.82991343096E+01 0.76889395214E+01 0.86717237710E+01
 0.16657402384E+02 0.30918453351E+02 0.51977842935E+02 0.11015755933E+03 0.22863990484E+03
 0.39114900846E+03 0.53811504612E+03 0.59795032167E+03 0.53811504612E+03 0.39114900846E+03
 0.22863990484E+03 0.11015755933E+03 0.51977842935E+02 0.30918453351E+02 0.16657402384E+02
 0.86717237710E+01 0.76889395214E+01 0.82991343096E+01 0.72208541096E+01 0.51249947762E+01
 0.62431383941E+01 0.75868307411E+01 0.72307687048E+01 0.86863487107E+01 0.17514165949E+02
 0.32415056715E+02 0.55898877939E+02 0.12201606775E+03 0.25486348657E+03 0.43544732168E+03
 0.59795032167E+03 0.66396365095E+03 0.59795032167E+03 0.43544732168E+03 0.25486348657E+03
 0.12201606775E+03 0.55898877939E+02 0.32415056715E+02 0.17514165949E+02 0.86863487107E+01
 0.72307687048E+01 0.75868307411E+01 0.62431383941E+01 0.62431383941E+01 0.72208541096E+01
 0.82991343096E+01 0.76889395214E+01 0.86717237710E+01 0.16657402384E+02 0.30918453351E+02
 0.51977842935E+02 0.11015755933E+03 0.22863990484E+03 0.39114900846E+03 0.53811504612E+03
 0.59795032167E+03 0.53811504612E+03 0.39114900846E+03 0.22863990484E+03 0.11015755933E+03
 0.51977842935E+02 0.30918453351E+02 0.16657402384E+02 0.86717237710E+01 0.76889395214E+01
 0.82991343096E+01 0.72208541096E+01 0.75868307411E+01 0.82991343096E+01 0.89963071414E+01
 0.82185159378E+01 0.84865409393E+01 0.14516142786E+02 0.26883762793E+02 0.42907744989E+02
 0.82264417324E+02 0.16554193334E+03 0.28311330421E+03 0.39114900846E+03 0.43544732168E+03
 0.39114900846E+03 0.28311330421E+03 0.16554193334E+03 0.82264417324E+02 0.42907744989E+02
 0.26883762793E+02 0.14516142786E+02 0.84865409393E+01 0.82185159378E+01 0.89963071414E+01
 0.82991343096E+01 0.72307687048E+01 0.76889395214E+01 0.82185159378E+01 0.78712970553E+01
 0.80506612351E+01 0.12024841595E+02 0.21368415780E+02 0.33541174515E+02 0.54168688686E+02
 0.98936917495E+02 0.16554193334E+03 0.22863990484E+03 0.25486348657E+03 0.22863990484E+03
 0.16554193334E+03 0.98936917495E+02 0.54168688686E+02 0.33541174515E+02 0.21368415780E+02
 0.12024841595E+02 0.80506612351E+01 0.78712970553E+01 0.82185159378E+01 0.76889395214E+01
 0.86863487107E+01 0.86717237710E+01 0.84865409393E+01 0.80506612351E+01 0.80425563387E+01
 0.10103124845E+02 0.15845723090E+02 0.25112235716E+02 0.36053047535E+02 0.54168688686E+02
 0.82264417324E+02 0.11015755933E+03 0.12201606775E+03 0.11015755933E+03 0.82264417324E+02
 0.54168688686E+02 0.36053047535E+02 0.25112235716E+02 0.15845723090E+02 0.10103124845E+02
 0.80425563387E+01 0.80506612351E+01 0.84865409393E+01 0.86717237710E+01 0.17514165949E+02
 0.16657402384E+02 0.14516142786E+02 0.12024841595E+02 0.10103124845E+02 0.96670520636E+01
 0.11798174472E+02 0.17189773198E+02 0.25112235716E+02 0.33541174515E+02 0.42907744989E+02
 0.51977842935E+02 0.55898877939E+02 0.51977842935E+02 0.42907744989E+02 0.33541174515E+02
 0.25112235716E+02 0.17189773198E+02 0.11798174472E+02 0.96670520636E+01 0.10103124845E+02
 0.12024841595E+02 0.14516142786E+02 0.16657402384E+02 0.32415056715E+02 0.30918453351E+02
 0.26883762793E+02 0.21368415780E+02 0.15845723090E+02 0.11798174472E+02 0.10315684721E+02
 0.11798174472E+02 0.15845723090E+02 0.21368415780E+02 0.26883762793E+02 0.30918453351E+02
 0.32415056715E+02 0.30918453351E+02 0.26883762793E+02 0.21368415780E+02 0.15845723090E+02
 0.11798174472E+02 0.10315684721E+02 0.11798174472E+02 0.15845723090E+02 0.21368415780E+02
 0.26883762793E+02 0.30918453351E+02 0.55898877939E+02 0.51977842935E+02 0.42907744989E+02
 0.33541174515E+02 0.25112235716E+02 0.17189773198E+02 0.11798174472E+02 0.96670520636E+01
 0.10103124845E+02 0.12024841595E+02 0.14516142786E+02 0.16657402384E+02 0.17514165949E+02
 0.16657402384E+02 0.14516142786E+02 0.12024841595E+02 0.10103124845E+02 0.96670520636E+01
 0.11798174472E+02 0.17189773198E+02 0.25112235716E+02 0.33541174515E+02 0.42907744989E+02
 0.51977842935E+02 0.12201606775E+03 0.11015755933E+03 0.82264417324E+02 0.54168688686E+02
 0.36053047535E+02 0.25112235716E+02 0.15845723090E+02 0.10103124845E+02 0.80425563387E+01
 0.80506612351E+01 0.84865409393E+01 0.86717237710E+01 0.86863487107E+01 0.86717237710E+01
 0.84865409393E+01 0.80506612351E+01 0.80425563387E+01 0.10103124845E+02 0.15845723090E+02
 0.25112235716E+02 0.36053047535E+02 0.54168688686E+02 0.82264417324E+02 0.11015755933E+03
 0.25486348657E+03 0.22863990484E+03 0.16554193334E+03 0.98936917495E+02 0.54168688686E+02
 0.33541174515E+02 0.21368415780E+02 0.12024841595E+02 0.80506612351E+01 0.78712970553E+01
 0.82185159378E+01 0.76889395214E+01 0.72307687048E+01 0.76889395214E+01 0.82185159378E+01
 0.78712970553E+01 0.80506612351E+01 0.12024841595E+02 0.21368415780E+02 0.33541174515E+02
 0.54168688686E+02 0.98936917495E+02 0.16554193334E+03 0.22863990484E+03 0.43544732168E+03
 0.39114900846E+03 0.28311330421E+03 0.16554193334E+03 0.82264417324E+02 0.42907744989E+02
 0.26883762793E+02 0.14516142786E+02 0.84865409393E+01 0.82185159378E+01 0.89963071414E+01
 0.82991343096E+01 0.75868307411E+01 0.82991343096E+01 0.89963071414E+01 0.82185159378E+01
 0.84865409393E+01 0.14516142786E+02 0.26883762793E+02 0.42907744989E+02 0.82264417324E+02
 0.16554193334E+03 0.28311330421E+03 0.39114900846E+03 0.59795032167E+03 0.53811504612E+03
 0.39114900846E+03 0.22863990484E+03 0.11015755933E+03 0.51977842935E+02 0.30918453351E+02
 0.16657402384E+02 0.86717237710E+01 0.76889395214E+01 0.82991343096E+01 0.72208541096E+01
 0.62431383941E+01 0.72208541096E+01 0.82991343096E+01 0.76889395214E+01 0.86717237710E+01
 0.16657402384E+02 0.30918453351E+02 0.51977842935E+02 0.11015755933E+03 0.22863990484E+03
 0.39114900846E+03 0.53811504612E+03 0.48458032251E+03 0.43544732168E+03 0.31536363491E+03
 0.18405150803E+03 0.90246466511E+02 0.45520518609E+02 0.28291207973E+02 0.15328143217E+02
 0.86121247754E+01 0.79748926084E+01 0.85315511303E+01 0.75868307411E+01 0.67446882201E+01
 0.75868307411E+01 0.85315511303E+01 0.79748926084E+01 0.86121247754E+01 0.15328143217E+02
 0.28291207973E+02 0.45520518609E+02 0.90246466511E+02 0.18405150803E+03 0.31536363491E+03
 0.43544732168E+03 0.43544732168E+03 0.39114900846E+03 0.28311330421E+03 0.16554193334E+03
 0.82264417324E+02 0.42907744989E+02 0.26883762793E+02 0.14516142786E+02 0.84865409393E+01
 0.82185159378E+01 0.89963071414E+01 0.82991343096E+01 0.75868307411E+01 0.82991343096E+01
 0.89963071414E+01 0.82185159378E+01 0.84865409393E+01 0.14516142786E+02 0.26883762793E+02
 0.42907744989E+02 0.82264417324E+02 0.16554193334E+03 0.28311330421E+03 0.39114900846E+03
 0.31536363491E+03 0.28311330421E+03 0.20500121459E+03 0.12130433935E+03 0.63583747369E+02
 0.36725515937E+02 0.23167764417E+02 0.12606358535E+02 0.81566230330E+01 0.84016586876E+01
 0.93240706308E+01 0.89963071414E+01 0.85315511303E+01 0.89963071414E+01 0.93240706308E+01
 0.84016586876E+01 0.81566230330E+01 0.12606358535E+02 0.23167764417E+02 0.36725515937E+02
 0.63583747369E+02 0.12130433935E+03 0.20500121459E+03 0.28311330421E+03 0.18405150803E+03
 0.16554193334E+03 0.12130433935E+03 0.75272261384E+02 0.44817181261E+02 0.29664384114E+02
 0.18397338341E+02 0.10645522804E+02 0.77750570894E+01 0.79084001102E+01 0.84016586876E+01
 0.82185159378E+01 0.79748926084E+01 0.82185159378E+01 0.84016586876E+01 0.79084001102E+01
 0.77750570894E+01 0.10645522804E+02 0.18397338341E+02 0.29664384114E+02 0.44817181261E+02
 0.75272261384E+02 0.12130433935E+03 0.16554193334E+03 0.90246466511E+02 0.82264417324E+02
 0.63583747369E+02 0.44817181261E+02 0.31998344811E+02 0.22095589836E+02 0.13979929744E+02
 0.93786670088E+01 0.78076976790E+01 0.77750570894E+01 0.81566230330E+01 0.84865409393E+01
 0.86121247754E+01 0.84865409393E+01 0.81566230330E+01 0.77750570894E+01 0.78076976790E+01
 0.93786670088E+01 0.13979929744E+02 0.22095589836E+02 0.31998344811E+02 0.44817181261E+02
 0.63583747369E+02 0.82264417324E+02 0.45520518609E+02 0.42907744989E+02 0.36725515937E+02
 0.29664384114E+02 0.22095589836E+02 0.15308996020E+02 0.10969966326E+02 0.92543473128E+01
 0.93786670088E+01 0.10645522804E+02 0.12606358535E+02 0.14516142786E+02 0.15328143217E+02
 0.14516142786E+02 0.12606358535E+02 0.10645522804E+02 0.93786670088E+01 0.92543473128E+01
 0.10969966326E+02 0.15308996020E+02 0.22095589836E+02 0.29664384114E+02 0.36725515937E+02
 0.42907744989E+02 0.28291207973E+02 0.26883762793E+02 0.23167764417E+02 0.18397338341E+02
 0.13979929744E+02 0.10969966326E+02 0.99155386255E+01 0.10969966326E+02 0.13979929744E+02
 0.18397338341E+02 0.23167764417E+02 0.26883762793E+02 0.28291207973E+02 0.26883762793E+02
 0.23167764417E+02 0.18397338341E+02 0.13979929744E+02 0.10969966326E+02 0.99155386255E+01
 0.10969966326E+02 0.13979929744E+02 0.18397338341E+02 0.23167764417E+02 0.26883762793E+02
 0.15328143217E+02 0.14516142786E+02 0.12606358535E+02 0.10645522804E+02 0.93786670088E+01
 0.92543473128E+01 0.10969966326E+02 0.15308996020E+02 0.22095589836E+02 0.29664384114E+02
 0.36725515937E+02 0.42907744989E+02 0.45520518609E+02 0.42907744989E+02 0.36725515937E+02
 0.29664384114E+02 0.22095589836E+02 0.15308996020E+02 0.10969966326E+02 0.92543473128E+01
 0.93786670088E+01 0.10645522804E+02 0.12606358535E+02 0.14516142786E+02 0.86121247754E+01
 0.84865409393E+01 0.81566230330E+01 0.77750570894E+01 0.78076976790E+01 0.93786670088E+01
 0.13979929744E+02 0.22095589836E+02 0.31998344811E+02 0.44817181261E+02 0.63583747369E+02
 0.82264417324E+02 0.90246466511E+02 0.82264417324E+02 0.63583747369E+02 0.44817181261E+02
 0.31998344811E+02 0.22095589836E+02 0.13979929744E+02 0.93786670088E+01 0.78076976790E+01
 0.77750570894E+01 0.81566230330E+01 0.84865409393E+01 0.79748926084E+01 0.82185159378E+01
 0.84016586876E+01 0.79084001102E+01 0.77750570894E+01 0.10645522804E+02 0.18397338341E+02
 0.29664384114E+02 0.44817181261E+02 0.75272261384E+02 0.12130433935E+03 0.16554193334E+03
 0.18405150803E+03 0.16554193334E+03 0.12130433935E+03 0.75272261384E+02 0.44817181261E+02
 0.29664384114E+02 0.18397338341E+02 0.10645522804E+02 0.77750570894E+01 0.79084001102E+01
 0.84016586876E+01 0.82185159378E+01 0.85315511303E+01 0.89963071414E+01 0.93240706308E+01
 0.84016586876E+01 0.81566230330E+01 0.12606358535E+02 0.23167764417E+02 0.36725515937E+02
 0.63583747369E+02 0.12130433935E+03 0.20500121459E+03 0.28311330421E+03 0.31536363491E+03
 0.28311330421E+03 0.20500121459E+03 0.12130433935E+03 0.63583747369E+02 0.36725515937E+02
 0.23167764417E+02 0.12606358535E+02 0.81566230330E+01 0.84016586876E+01 0.93240706308E+01
 0.89963071414E+01 0.75868307411E+01 0.82991343096E+01 0.89963071414E+01 0.82185159378E+01
 0.84865409393E+01 0.14516142786E+02 0.26883762793E+02 0.42907744989E+02 0.82264417324E+02
 0.16554193334E+03 0.28311330421E+03 0.39114900846E+03 0.43544732168E+03 0.39114900846E+03
 0.28311330421E+03 0.16554193334E+03 0.82264417324E+02 0.42907744989E+02 0.26883762793E+02
 0.14516142786E+02 0.84865409393E+01 0.82185159378E+01 0.89963071414E+01 0.82991343096E+01
 0.67446882201E+01 0.75868307411E+01 0.85315511303E+01 0.79748926084E+01 0.86121247754E+01
 0.15328143217E+02 0.28291207973E+02 0.45520518609E+02 0.90246466511E+02 0.18405150803E+03
 0.31536363491E+03 0.43544732168E+03 0.48458032251E+03 0.43544732168E+03 0.31536363491E+03
 0.18405150803E+03 0.90246466511E+02 0.45520518609E+02 0.28291207973E+02 0.15328143217E+02
 0.86121247754E+01 0.79748926084E+01 0.85315511303E+01 0.75868307411E+01 0.75868307411E+01
 0.82991343096E+01 0.89963071414E+01 0.82185159378E+01 0.84865409393E+01 0.14516142786E+02
 0.26883762793E+02 0.42907744989E+02 0.82264417324E+02 0.16554193334E+03 0.28311330421E+03
 0.39114900846E+03 0.43544732168E+03 0.39114900846E+03 0.28311330421E+03 0.16554193334E+03
 0.82264417324E+02 0.42907744989E+02 0.26883762793E+02 0.14516142786E+02 0.84865409393E+01
 0.82185159378E+01 0.89963071414E+01 0.82991343096E+01 0.85315511303E+01 0.89963071414E+01
 0.93240706308E+01 0.84016586876E+01 0.81566230330E+01 0.12606358535E+02 0.23167764417E+02
 0.36725515937E+02 0.63583747369E+02 0.12130433935E+03 0.20500121459E+03 0.28311330421E+03
 0.31536363491E+03 0.28311330421E+03 0.20500121459E+03 0.12130433935E+03 0.63583747369E+02
 0.36725515937E+02 0.23167764417E+02 0.12606358535E+02 0.81566230330E+01 0.84016586876E+01
 0.93240706308E+01 0.89963071414E+01 0.79748926084E+01 0.82185159378E+01 0.84016586876E+01
 0.79084001102E+01 0.77750570894E+01 0.10645522804E+02 0.18397338341E+02 0.29664384114E+02
 0.44817181261E+02 0.75272261384E+02 0.12130433935E+03 0.16554193334E+03 0.18405150803E+03
 0.16554193334E+03 0.12130433935E+03 0.75272261384E+02 0.44817181261E+02 0.29664384114E+02
 0.18397338341E+02 0.10645522804E+02 0.77750570894E+01 0.79084001102E+01 0.84016586876E+01
 0.82185159378E+01 0.86121247754E+01 0.84865409393E+01 0.81566230330E+01 0.77750570894E+01
 0.78076976790E+01 0.93786670088E+01 0.13979929744E+02 0.22095589836E+02 0.31998344811E+02
 0.44817181261E+02 0.63583747369E+02 0.82264417324E+02 0.90246466511E+02 0.82264417324E+02
 0.63583747369E+02 0.44817181261E+02 0.31998344811E+02 0.22095589836E+02 0.13979929744E+02
 0.93786670088E+01 0.78076976790E+01 0.77750570894E+01 0.81566230330E+01 0.84865409393E+01
 0.15328143217E+02 0.14516142786E+02 0.12606358535E+02 0.10645522804E+02 0.93786670088E+01
 0.92543473128E+01 0.10969966326E+02 0.15308996020E+02 0.22095589836E+02 0.29664384114E+02
 0.36725515937E+02 0.42907744989E+02 0.45520518609E+02 0.42907744989E+02 0.36725515937E+02
 0.29664384114E+02 0.22095589836E+02 0.15308996020E+02 0.10969966326E+02 0.92543473128E+01
 0.93786670088E+01 0.10645522804E+02 0.12606358535E+02 0.14516142786E+02 0.28291207973E+02
 0.26883762793E+02 0.23167764417E+02 0.18397338341E+02 0.13979929744E+02 0.10969966326E+02
 0.99155386255E+01 0.10969966326E+02 0.13979929744E+02 0.18397338341E+02 0.23167764417E+02
 0.26883762793E+02 0.28291207973E+02 0.26883762793E+02 0.23167764417E+02 0.18397338341E+02
 0.13979929744E+02 0.10969966326E+02 0.99155386255E+01 0.10969966326E+02 0.13979929744E+02
 0.18397338341E+02 0.23167764417E+02 0.26883762793E+02 0.45520518609E+02 0.42907744989E+02
 0.36725515937E+02 0.29664384114E+02 0.22095589836E+02 0.15308996020E+02 0.10969966326E+02
 0.92543473128E+01 0.93786670088E+01 0.10645522804E+02 0.12606358535E+02 0.14516142786E+02
 0.15328143217E+02 0.14516142786E+02 0.12606358535E+02 0.10645522804E+02 0.93786670088E+01