   4   4   0   0
  0.1200752E+02  0.3635000E-09  0.3635000E-09  0.3635000E-09  0.5000000E-15
  1.000000000000000E-004
  CAR 
 unknown system                          
     26.88000255     -5.90234473  301      9.32096914      1.00000000
     -5.902  0.0000E+00  0.0000E+00
     -5.793  0.0000E+00  0.0000E+00
     -5.684  0.0000E+00  0.0000E+00
     -5.575 -0.4532E-30 -0.4952E-31
     -5.465 -0.2918E-26 -0.3189E-27
     -5.356 -0.1029E-22 -0.1125E-23
     -5.247 -0.1986E-19 -0.2172E-20
     -5.137 -0.2096E-16 -0.2292E-17
     -5.028 -0.1171E-13 -0.1282E-14
     -4.919 -0.3645E-11 -0.3996E-12
     -4.810 -0.6156E-09 -0.6767E-10
     -4.700 -0.5601E-07 -0.6189E-08
     -4.591 -0.2720E-05 -0.3034E-06
     -4.482 -0.6930E-04 -0.7876E-05
     -4.373 -0.8938E-03 -0.1055E-03
     -4.263 -0.5329E-02 -0.6879E-03
     -4.154 -0.9854E-02 -0.1765E-02
     -4.045  0.2491E-01  0.9573E-03
     -3.935  0.1138E+00  0.1339E-01
     -3.826  0.1704E+00  0.3201E-01
     -3.717  0.3299E+00  0.6806E-01
     -3.608  0.6927E+00  0.1438E+00
     -3.498  0.6896E+00  0.2191E+00
     -3.389  0.2449E+00  0.2459E+00
     -3.280 -0.3573E-01  0.2420E+00
     -3.170 -0.8663E-01  0.2325E+00
     -3.061  0.1980E-01  0.2347E+00
     -2.952  0.5204E+00  0.2915E+00
     -2.843  0.1111E+01  0.4130E+00
     -2.733  0.1234E+01  0.5478E+00
     -2.624  0.1205E+01  0.6795E+00
     -2.515  0.1217E+01  0.8125E+00
     -2.406  0.1497E+01  0.9760E+00
     -2.296  0.2022E+01  0.1197E+01
     -2.187  0.2845E+01  0.1508E+01
     -2.078  0.4498E+01  0.1999E+01
     -1.968  0.5748E+01  0.2627E+01
     -1.859  0.6150E+01  0.3299E+01
     -1.750  0.7159E+01  0.4082E+01
     -1.641  0.7712E+01  0.4924E+01
     -1.531  0.5787E+01  0.5557E+01
     -1.422  0.3440E+01  0.5933E+01
     -1.313  0.3331E+01  0.6297E+01
     -1.204  0.6022E+01  0.6955E+01
     -1.094  0.9860E+01  0.8032E+01
     -0.985  0.1117E+02  0.9253E+01
     -0.876  0.9912E+01  0.1034E+02
     -0.766  0.1078E+02  0.1151E+02
     -0.657  0.1312E+02  0.1295E+02
     -0.548  0.1225E+02  0.1429E+02
     -0.439  0.9265E+01  0.1530E+02
     -0.329  0.7413E+01  0.1611E+02
     -0.220  0.5077E+01  0.1666E+02
     -0.111  0.2465E+01  0.1693E+02
     -0.002  0.1723E+01  0.1712E+02
      0.108  0.2584E+01  0.1740E+02
      0.217  0.4652E+01  0.1791E+02
      0.326  0.6526E+01  0.1862E+02
      0.436  0.5727E+01  0.1925E+02
      0.545  0.3056E+01  0.1958E+02
      0.654  0.1613E+01  0.1976E+02
      0.763  0.2587E+01  0.2004E+02
      0.873  0.5185E+01  0.2061E+02
      0.982  0.5915E+01  0.2126E+02
      1.091  0.3725E+01  0.2166E+02
      1.200  0.1604E+01  0.2184E+02
      1.310  0.3594E+00  0.2188E+02
      1.419  0.1230E+01  0.2201E+02
      1.528  0.4985E+01  0.2256E+02
      1.638  0.7193E+01  0.2334E+02
      1.747  0.5474E+01  0.2394E+02
      1.856  0.3323E+01  0.2430E+02
      1.965  0.2114E+01  0.2454E+02
      2.075  0.1738E+01  0.2473E+02
      2.184  0.2514E+01  0.2500E+02
      2.293  0.4494E+01  0.2549E+02
      2.403  0.7007E+01  0.2626E+02
      2.512  0.7805E+01  0.2711E+02
      2.621  0.6290E+01  0.2780E+02
      2.730  0.4800E+01  0.2832E+02
      2.840  0.4174E+01  0.2878E+02
      2.949  0.2989E+01  0.2910E+02
      3.058  0.2465E+01  0.2937E+02
      3.167  0.4167E+01  0.2983E+02
      3.277  0.4537E+01  0.3032E+02
      3.386  0.2030E+01  0.3055E+02
      3.495  0.5989E+00  0.3061E+02
      3.605  0.1980E+01  0.3083E+02
      3.714  0.3216E+01  0.3118E+02
      3.823  0.2493E+01  0.3145E+02
      3.932  0.1710E+01  0.3164E+02
      4.042  0.1785E+01  0.3183E+02
      4.151  0.1903E+01  0.3204E+02
      4.260  0.1767E+01  0.3224E+02
      4.369  0.2516E+01  0.3251E+02
      4.479  0.4506E+01  0.3300E+02
      4.588  0.5413E+01  0.3359E+02
      4.697  0.3565E+01  0.3398E+02
      4.807  0.1187E+01  0.3411E+02
      4.916  0.9273E+00  0.3421E+02
      5.025  0.1451E+01  0.3437E+02
      5.134  0.1184E+01  0.3450E+02
      5.244  0.1348E+01  0.3465E+02
      5.353  0.2930E+01  0.3497E+02
      5.462  0.3673E+01  0.3537E+02
      5.571  0.1878E+01  0.3558E+02
      5.681  0.6755E+00  0.3565E+02
      5.790  0.2119E+01  0.3588E+02
      5.899  0.4415E+01  0.3636E+02
      6.009  0.5746E+01  0.3699E+02
      6.118  0.5139E+01  0.3755E+02
      6.227  0.3167E+01  0.3790E+02
      6.336  0.2003E+01  0.3812E+02
      6.446  0.1996E+01  0.3834E+02
      6.555  0.2397E+01  0.3860E+02
      6.664  0.2332E+01  0.3885E+02
      6.773  0.1838E+01  0.3905E+02
      6.883  0.2813E+01  0.3936E+02
      6.992  0.3703E+01  0.3977E+02
      7.101  0.2305E+01  0.4002E+02
      7.211  0.8878E+00  0.4012E+02
      7.320  0.6175E+00  0.4018E+02
      7.429  0.8325E+00  0.4027E+02
      7.538  0.1453E+01  0.4043E+02
      7.648  0.2294E+01  0.4068E+02
      7.757  0.2575E+01  0.4096E+02
      7.866  0.1966E+01  0.4118E+02
      7.976  0.1365E+01  0.4133E+02
      8.085  0.1684E+01  0.4151E+02
      8.194  0.3096E+01  0.4185E+02
      8.303  0.5225E+01  0.4242E+02
      8.413  0.6102E+01  0.4309E+02
      8.522  0.4273E+01  0.4356E+02
      8.631  0.1865E+01  0.4376E+02
      8.740  0.7859E+00  0.4385E+02
      8.850  0.3038E+00  0.4388E+02
      8.959 -0.2793E-01  0.4388E+02
      9.068 -0.1557E+00  0.4386E+02
      9.178 -0.6742E-01  0.4385E+02
      9.287  0.7719E+00  0.4394E+02
      9.396  0.2601E+01  0.4422E+02
      9.505  0.4094E+01  0.4467E+02
      9.615  0.3503E+01  0.4505E+02
      9.724  0.1463E+01  0.4521E+02
      9.833  0.1771E-01  0.4521E+02
      9.942 -0.6407E-01  0.4520E+02
     10.052  0.1431E+01  0.4536E+02
     10.161  0.4050E+01  0.4580E+02
     10.270  0.5443E+01  0.4640E+02
     10.380  0.4179E+01  0.4686E+02
     10.489  0.2176E+01  0.4709E+02
     10.598  0.1305E+01  0.4724E+02
     10.707  0.1976E+01  0.4745E+02
     10.817  0.3165E+01  0.4780E+02
     10.926  0.3684E+01  0.4820E+02
     11.035  0.4020E+01  0.4864E+02
     11.144  0.3096E+01  0.4898E+02
     11.254  0.1055E+01  0.4909E+02
     11.363  0.2158E+00  0.4912E+02
     11.472  0.3597E+00  0.4916E+02
     11.582  0.8193E+00  0.4925E+02
     11.691  0.1475E+01  0.4941E+02
     11.800  0.1243E+01  0.4954E+02
     11.909  0.3253E+00  0.4958E+02
     12.019 -0.1309E+00  0.4956E+02
     12.128 -0.8575E-01  0.4955E+02
     12.237  0.7964E+00  0.4964E+02
     12.346  0.2918E+01  0.4996E+02
     12.456  0.3881E+01  0.5038E+02
     12.565  0.2350E+01  0.5064E+02
     12.674  0.8870E+00  0.5074E+02
     12.784  0.3193E+00  0.5077E+02
     12.893  0.1733E-01  0.5077E+02
     13.002 -0.8033E-01  0.5077E+02
     13.111 -0.6654E-01  0.5076E+02
     13.221  0.1574E+00  0.5078E+02
     13.330  0.7701E+00  0.5086E+02
     13.439  0.1540E+01  0.5103E+02
     13.549  0.1891E+01  0.5123E+02
     13.658  0.1536E+01  0.5140E+02
     13.767  0.1342E+01  0.5155E+02
     13.876  0.2179E+01  0.5179E+02
     13.986  0.3091E+01  0.5213E+02
     14.095  0.2617E+01  0.5241E+02
     14.204  0.1685E+01  0.5260E+02
     14.313  0.1447E+01  0.5275E+02
     14.423  0.9628E+00  0.5286E+02
     14.532  0.6397E+00  0.5293E+02
     14.641  0.1252E+01  0.5307E+02
     14.751  0.1340E+01  0.5321E+02
     14.860  0.6035E+00  0.5328E+02
     14.969  0.4550E+00  0.5333E+02
     15.078  0.6424E+00  0.5340E+02
     15.188  0.4218E+00  0.5344E+02
     15.297  0.6664E+00  0.5352E+02
     15.406  0.1676E+01  0.5370E+02
     15.515  0.1868E+01  0.5390E+02
     15.625  0.1201E+01  0.5403E+02
     15.734  0.1986E+01  0.5425E+02
     15.843  0.3315E+01  0.5461E+02
     15.953  0.2273E+01  0.5486E+02
     16.062  0.5527E+00  0.5492E+02
     16.171  0.7046E+00  0.5500E+02
     16.280  0.1438E+01  0.5516E+02
     16.390  0.9511E+00  0.5526E+02
     16.499  0.2889E+00  0.5529E+02
     16.608  0.8095E+00  0.5538E+02
     16.717  0.1436E+01  0.5554E+02
     16.827  0.1036E+01  0.5565E+02
     16.936  0.1003E+01  0.5576E+02
     17.045  0.1878E+01  0.5597E+02
     17.155  0.1926E+01  0.5618E+02
     17.264  0.1069E+01  0.5629E+02
     17.373  0.1020E+01  0.5640E+02
     17.482  0.2287E+01  0.5665E+02
     17.592  0.2981E+01  0.5698E+02
     17.701  0.2121E+01  0.5721E+02
     17.810  0.2541E+01  0.5749E+02
     17.919  0.4406E+01  0.5797E+02
     18.029  0.4037E+01  0.5841E+02
     18.138  0.1490E+01  0.5858E+02
     18.247 -0.5379E-01  0.5857E+02
     18.357 -0.1801E+00  0.5855E+02
     18.466 -0.4704E-01  0.5854E+02
     18.575 -0.1124E-01  0.5854E+02
     18.684 -0.3928E-01  0.5854E+02
     18.794 -0.8498E-01  0.5853E+02
     18.903  0.1588E+00  0.5855E+02
     19.012  0.1007E+01  0.5866E+02
     19.122  0.1831E+01  0.5886E+02
     19.231  0.2025E+01  0.5908E+02
     19.340  0.1590E+01  0.5925E+02
     19.449  0.6356E+00  0.5932E+02
     19.559 -0.2734E-02  0.5932E+02
     19.668 -0.1687E-01  0.5932E+02
     19.777  0.1509E+00  0.5934E+02
     19.886  0.1714E+00  0.5935E+02
     19.996  0.6126E-01  0.5936E+02
     20.105 -0.4641E-02  0.5936E+02
     20.214 -0.7558E-02  0.5936E+02
     20.324 -0.1701E-02  0.5936E+02
     20.433 -0.1654E-03  0.5936E+02
     20.542 -0.8040E-05  0.5936E+02
     20.651 -0.4041E-05  0.5936E+02
     20.761 -0.1326E-03  0.5936E+02
     20.870 -0.2365E-02  0.5936E+02
     20.979 -0.2056E-01  0.5936E+02
     21.088 -0.7202E-01  0.5935E+02
     21.198  0.2010E-01  0.5935E+02
     21.307  0.6957E+00  0.5943E+02
     21.416  0.1507E+01  0.5959E+02
     21.526  0.1210E+01  0.5972E+02
     21.635  0.3009E+00  0.5976E+02
     21.744 -0.6902E-01  0.5975E+02
     21.853 -0.4650E-01  0.5974E+02
     21.963 -0.8353E-02  0.5974E+02
     22.072 -0.6823E-03  0.5974E+02
     22.181 -0.2809E-04  0.5974E+02
     22.290 -0.6056E-06  0.5974E+02
     22.400 -0.6961E-08  0.5974E+02
     22.509 -0.4309E-10  0.5974E+02
     22.618 -0.1451E-12  0.5974E+02
     22.728  0.0000E+00  0.5974E+02
     22.837  0.0000E+00  0.5974E+02
     22.946  0.0000E+00  0.5974E+02
     23.055  0.0000E+00  0.5974E+02
     23.165  0.0000E+00  0.5974E+02
     23.274 -0.5237E-27  0.5974E+02
     23.383 -0.2343E-23  0.5974E+02
     23.492 -0.5738E-20  0.5974E+02
     23.602 -0.7686E-17  0.5974E+02
     23.711 -0.5494E-14  0.5974E+02
     23.820 -0.2166E-11  0.5974E+02
     23.930 -0.4661E-09  0.5974E+02
     24.039 -0.5419E-07  0.5974E+02
     24.148 -0.3377E-05  0.5974E+02
     24.257 -0.1113E-03  0.5974E+02
     24.367 -0.1890E-02  0.5974E+02
     24.476 -0.1553E-01  0.5974E+02
     24.585 -0.4994E-01  0.5974E+02
     24.695  0.3030E-01  0.5974E+02
     24.804  0.5104E+00  0.5980E+02
     24.913  0.1021E+01  0.5991E+02
     25.022  0.7639E+00  0.5999E+02
     25.132  0.1673E+00  0.6001E+02
     25.241 -0.4927E-01  0.6000E+02
     25.350 -0.2827E-01  0.6000E+02
     25.459 -0.4763E-02  0.6000E+02
     25.569 -0.3695E-03  0.6000E+02
     25.678 -0.1451E-04  0.6000E+02
     25.787 -0.2987E-06  0.6000E+02
     25.897 -0.3283E-08  0.6000E+02
     26.006 -0.1944E-10  0.6000E+02
     26.115 -0.6242E-13  0.6000E+02
     26.224  0.0000E+00  0.6000E+02
     26.334  0.0000E+00  0.6000E+02
     26.443  0.0000E+00  0.6000E+02
     26.552  0.0000E+00  0.6000E+02
     26.661  0.0000E+00  0.6000E+02
     26.771  0.0000E+00  0.6000E+02
     26.880  0.0000E+00  0.6000E+02
