    4    4    1    1
  0.1200752E+02  0.3635000E-09  0.3635000E-09  0.3635000E-09  0.5000000E-15
  1.000000000000000E-004
  CAR 
 unknown system                          
     44     10     30
 
  0.0000000E+00  0.0000000E+00  0.0000000E+00  0.8000000E-02
    1       -3.902345   1.000000
    2       -3.902345   1.000000
    3       -3.902345   1.000000
    4       -2.635805   1.000000
    5       -2.635805   1.000000
    6       -1.966429   1.000000
    7       -1.303149   1.000000
    8       -1.303149   1.000000
    9       -1.303149   1.000000
   10        1.131172   1.000000
   11        1.131172   1.000000
   12        1.131172   1.000000
   13        4.215052   1.000000
   14        4.215052   1.000000
   15        4.215052   1.000000
   16        8.719863   1.000091
   17        8.719863   1.000091
   18        8.719863   1.000091
   19       12.152752  -0.000000
   20       12.152752  -0.000000
   21       12.152752  -0.000000
   22       17.263969   0.000000
   23       17.263969   0.000000
   24       17.263969   0.000000
   25       17.263969   0.000000
   26       17.263969   0.000000
   27       17.263969   0.000000
   28       19.778059   0.000000
   29       19.778059   0.000000
   30       19.778059   0.000000
 
  0.2000000E+00  0.0000000E+00  0.0000000E+00  0.4800000E-01
    1       -2.652283   1.000000
    2       -2.642473   1.000000
    3       -2.570021   1.000000
    4       -2.151240   1.000000
    5       -2.151240   1.000000
    6       -1.481272   1.000000
    7       -1.206768   1.000000
    8       -1.206768   1.000000
    9       -1.187631   1.000000
   10       -1.127655   1.000000
   11       -0.637333   1.000000
   12       -0.637333   1.000000
   13        3.171610   1.000000
   14        3.806177   1.000000
   15        3.806177   1.000000
   16        5.776492   1.000000
   17        6.455870   1.000000
   18        6.455870   1.000000
   19        7.190614   1.000000
   20        7.190614   1.000000
   21        9.632478  -0.025030
   22        9.632478  -0.025030
   23       12.376111  -0.000000
   24       12.376111  -0.000000
   25       15.809072   0.000000
   26       16.973814   0.000000
   27       16.973814   0.000000
   28       17.347917   0.000000
   29       17.889582   0.000000
   30       17.889582   0.000000
 
  0.4000000E+00  0.0000000E+00  0.0000000E+00  0.4800000E-01
    1       -2.848170   1.000000
    2       -2.377145   1.000000
    3       -1.079948   1.000000
    4       -1.079948   1.000000
    5       -0.852059   1.000000
    6       -0.754054   1.000000
    7       -0.754054   1.000000
    8       -0.707461   1.000000
    9       -0.707461   1.000000
   10       -0.647199   1.000000
   11       -0.647199   1.000000
   12       -0.565430   1.000000
   13       -0.163604   1.000000
   14        1.659282   1.000000
   15        2.542151   1.000000
   16        3.215894   1.000000
   17        5.153662   1.000000
   18        5.153662   1.000000
   19        7.420708   1.000000
   20        7.420708   1.000000
   21       11.066334  -0.000000
   22       11.066334  -0.000000
   23       13.491993  -0.000000
   24       13.491993  -0.000000
   25       13.675065  -0.000000
   26       13.675065  -0.000000
   27       13.968585  -0.000000
   28       13.968585  -0.000000
   29       15.354371   0.000000
   30       15.354371   0.000000
 
  0.2000000E+00  0.2000000E+00  0.0000000E+00  0.9600000E-01
    1       -3.605584   1.000000
    2       -2.888135   1.000000
    3       -1.819501   1.000000
    4       -1.711547   1.000000
    5       -1.711547   1.000000
    6       -1.549731   1.000000
    7       -1.078471   1.000000
    8       -1.062336   1.000000
    9       -0.750151   1.000000
   10       -0.750151   1.000000
   11       -0.427790   1.000000
   12       -0.078078   1.000000
   13        0.052954   1.000000
   14        0.052954   1.000000
   15        3.170149   1.000000
   16        5.949494   1.000000
   17        5.949494   1.000000
   18        5.996885   1.000000
   19        5.996885   1.000000
   20        6.582341   1.000000
   21        7.890420   1.000000
   22        8.455273   1.000000
   23        8.455273   1.000000
   24       10.596233  -0.000000
   25       12.625906  -0.000000
   26       13.510163  -0.000000
   27       16.235348   0.000000
   28       16.235348   0.000000
   29       17.522892   0.000000
   30       17.522892   0.000000
 
  0.4000000E+00  0.2000000E+00  0.0000000E+00  0.1920000E+00
    1       -2.143976   1.000000
    2       -2.036760   1.000000
    3       -1.897594   1.000000
    4       -1.183633   1.000000
    5       -1.010457   1.000000
    6       -0.807890   1.000000
    7       -0.783394   1.000000
    8       -0.642292   1.000000
    9       -0.532763   1.000000
   10       -0.398641   1.000000
   11        0.216725   1.000000
   12        1.588555   1.000000
   13        1.792539   1.000000
   14        2.267882   1.000000
   15        2.425197   1.000000
   16        2.866398   1.000000
   17        3.148859   1.000000
   18        3.246021   1.000000
   19        3.656266   1.000000
   20        5.375590   1.000000
   21        6.048058   1.000000
   22        7.604115   1.000000
   23       10.186317  -0.000000
   24       10.233057  -0.000000
   25       11.674118  -0.000000
   26       13.869354  -0.000000
   27       14.277768  -0.000000
   28       15.779130   0.000000
   29       17.537970   0.000000
   30       19.053347   0.000000
 
  0.4000000E+00  0.4000000E+00  0.0000000E+00  0.9600000E-01
    1       -1.231801   1.000000
    2       -0.889283   1.000000
    3       -0.889283   1.000000
    4       -0.704943   1.000000
    5       -0.704943   1.000000
    6        0.469387   1.000000
    7        1.547746   1.000000
    8        1.772720   1.000000
    9        1.881084   1.000000
   10        2.015162   1.000000
   11        2.140362   1.000000
   12        2.140362   1.000000
   13        2.699117   1.000000
   14        2.704494   1.000000
   15        2.704494   1.000000
   16        3.125388   1.000000
   17        3.945645   1.000000
   18        4.377496   1.000000
   19        4.377496   1.000000
   20        5.373693   1.000000
   21        6.614887   1.000000
   22        6.614887   1.000000
   23        6.951967   1.000000
   24        8.650551   1.000011
   25       13.329821  -0.000000
   26       15.018368   0.000000
   27       15.820076   0.000000
   28       15.820076   0.000000
   29       17.068591   0.000000
   30       17.068591   0.000000
 
  0.2000000E+00  0.2000000E+00  0.2000000E+00  0.6400000E-01
    1       -1.554661   1.000000
    2       -1.554661   1.000000
    3       -1.554661   1.000000
    4       -1.018954   1.000000
    5       -1.018954   1.000000
    6       -0.840289   1.000000
    7       -0.374728   1.000000
    8       -0.374728   1.000000
    9       -0.374728   1.000000
   10       -0.175493   1.000000
   11        0.873954   1.000000
   12        0.873954   1.000000
   13        0.873954   1.000000
   14        4.451776   1.000000
   15        4.451776   1.000000
   16        5.419489   1.000000
   17        5.419489   1.000000
   18        5.419489   1.000000
   19        7.742003   1.000000
   20        7.742003   1.000000
   21        7.742003   1.000000
   22       10.415956  -0.000000
   23       10.415956  -0.000000
   24       10.415956  -0.000000
   25       14.021274  -0.000000
   26       14.021274  -0.000000
   27       14.021274  -0.000000
   28       16.667651   0.000000
   29       16.667651   0.000000
   30       16.667651   0.000000
 
  0.4000000E+00  0.2000000E+00  0.2000000E+00  0.1920000E+00
    1       -2.355574   1.000000
    2       -2.029538   1.000000
    3       -1.901723   1.000000
    4       -1.712630   1.000000
    5       -1.712630   1.000000
    6       -1.685453   1.000000
    7       -0.636933   1.000000
    8       -0.564630   1.000000
    9       -0.328512   1.000000
   10       -0.328512   1.000000
   11        1.128070   1.000000
   12        1.506433   1.000000
   13        1.572270   1.000000
   14        1.572270   1.000000
   15        2.357953   1.000000
   16        2.357953   1.000000
   17        2.834642   1.000000
   18        3.625274   1.000000
   19        4.139586   1.000000
   20        4.497898   1.000000
   21        8.376682   1.000000
   22        8.376682   1.000000
   23        9.498288  -0.009006
   24        9.498288  -0.009006
   25       11.015931  -0.000000
   26       11.015931  -0.000000
   27       15.456493   0.000000
   28       17.811089   0.000000
   29       17.945182   0.000000
   30       17.945182   0.000000
 
  0.4000000E+00  0.4000000E+00  0.2000000E+00  0.1920000E+00
    1       -1.092680   1.000000
    2       -1.041282   1.000000
    3       -0.610255   1.000000
    4        0.222702   1.000000
    5        0.299618   1.000000
    6        0.371777   1.000000
    7        0.371777   1.000000
    8        0.646250   1.000000
    9        0.918397   1.000000
   10        0.918397   1.000000
   11        2.489588   1.000000
   12        2.489588   1.000000
   13        2.585682   1.000000
   14        4.594463   1.000000
   15        4.594463   1.000000
   16        4.949037   1.000000
   17        6.126813   1.000000
   18        6.321468   1.000000
   19        6.915111   1.000000
   20        6.915111   1.000000
   21        8.078800   1.000000
   22        8.241963   1.000000
   23       10.254857  -0.000000
   24       10.784930  -0.000000
   25       10.784930  -0.000000
   26       12.380005  -0.000000
   27       12.380005  -0.000000
   28       14.647292  -0.000000
   29       19.258743   0.000000
   30       21.391100   0.000000
 
  0.4000000E+00  0.4000000E+00  0.4000000E+00  0.6400000E-01
    1       -1.388029   1.000000
    2       -1.388029   1.000000
    3       -1.388029   1.000000
    4       -1.256859   1.000000
    5       -1.256859   1.000000
    6       -1.003434   1.000000
    7       -1.003434   1.000000
    8       -1.003434   1.000000
    9       -0.861704   1.000000
   10        0.850298   1.000000
   11        0.850298   1.000000
   12        0.850298   1.000000
   13        3.981036   1.000000
   14        5.779155   1.000000
   15        5.779155   1.000000
   16        5.843710   1.000000
   17        5.843710   1.000000
   18        5.843710   1.000000
   19        8.272181   1.000000
   20        8.272181   1.000000
   21        8.272181   1.000000
   22        9.353625   0.363844
   23        9.353625   0.363844
   24        9.353625   0.363844
   25       10.081053  -0.000001
   26       10.081053  -0.000001
   27       10.081053  -0.000001
   28       11.386563  -0.000000
   29       24.880003   0.000000
   30       24.880003   0.000000
