 vasp.6.2.0 18Jan21 (build Mar 17 2021 09:06:54) complex                        
  
 executed on             LinuxIFC date 2021.08.03  10:15:00
 serial version


--------------------------------------------------------------------------------------------------------


 INCAR:
   ENCUT = 140.000000
   SIGMA = 0.200000
   EDIFF = 1.00e-06
   GGA = PE
   PREC = normal
   IBRION = -1
   ICHARG = 1
   ISMEAR = 1
   KPAR = 1
   NBANDS = 30
   NSW = 0
   NCORE = 1
   LCHARG = .TRUE.

 POTCAR:    PAW_PBE Cu 22Jun2005                  
 POTCAR:    PAW_PBE Cu 22Jun2005                  
   SHA256 =  0e71e558f37a4e8407882b4609ceaae59938afaad9ced71dfe8490308a0ab630 Cu/POTCAR             
   COPYR  = (c) Copyright 22Jun2005 Georg Kresse                                                    
   COPYR  = This file is part of the software VASP. Any use, copying, and all other rights are regul
   COPYR  = If you do not have a valid VASP license, you may not use, copy or distribute this file. 
   VRHFIN =Cu: d10 p1                                                                               
   LEXCH  = PE                                                                                      
   EATOM  =  1390.9808 eV,  102.2342 Ry                                                             
                                                                                                    
   TITEL  = PAW_PBE Cu 22Jun2005                                                                    
   LULTRA =        F    use ultrasoft PP ?                                                          
   IUNSCR =        1    unscreen: 0-lin 1-nonlin 2-no                                               
   RPACOR =    2.000    partial core radius                                                         
   POMASS =   63.546; ZVAL   =   11.000    mass and valenz                                          
   RCORE  =    2.300    outmost cutoff radius                                                       
   RWIGS  =    2.200; RWIGS  =    1.164    wigner-seitz radius (au A)                               
   ENMAX  =  295.446; ENMIN  =  221.585 eV                                                          
   ICORE  =        3    local potential                                                             
   LCOR   =        T    correct aug charges                                                         
   LPAW   =        T    paw PP                                                                      
   EAUG   =  586.980                                                                                
   DEXC   =    0.000                                                                                
   RMAX   =    2.344    core radius for proj-oper                                                   
   RAUG   =    1.300    factor for augmentation sphere                                              
   RDEP   =    2.302    radius for radial grids                                                     
   RDEPT  =    1.771    core radius for aug-charge                                                  
                                                                                                    
   Atomic configuration                                                                             
    9 entries                                                                                       
     n  l   j            E        occ.                                                              
     1  0  0.50     -8850.2468   2.0000                                                             
     2  0  0.50     -1062.3498   2.0000                                                             
     2  1  1.50      -916.8226   6.0000                                                             
     3  0  0.50      -114.6929   2.0000                                                             
     3  1  1.50       -72.1325   6.0000                                                             
     3  2  2.50        -5.0394  10.0000                                                             
     4  0  0.50        -4.6097   1.0000                                                             
     4  1  0.50        -4.0817   0.0000                                                             
     4  3  2.50        -1.3606   0.0000                                                             
   Description                                                                                      
     l       E           TYP  RCUT    TYP  RCUT                                                     
     2     -5.0393973     23  2.200                                                                 
     2     10.8846608     23  2.200                                                                 
     0     -4.6097109     23  2.200                                                                 
     0      8.2520465     23  2.200                                                                 
     1     -2.7211652     23  2.200                                                                 
     1     21.7055443     23  2.200                                                                 
     3      2.7211652     23  2.300                                                                 
  local pseudopotential read in
  partial core-charges read in
  partial kinetic energy density read in
  atomic valenz-charges read in
  non local Contribution for L=           2  read in
    real space projection operators read in
  non local Contribution for L=           2  read in
    real space projection operators read in
  non local Contribution for L=           0  read in
    real space projection operators read in
  non local Contribution for L=           0  read in
    real space projection operators read in
  non local Contribution for L=           1  read in
    real space projection operators read in
  non local Contribution for L=           1  read in
    real space projection operators read in
    PAW grid and wavefunctions read in
 
   number of l-projection  operators is LMAX  =           6
   number of lm-projection operators is LMMAX =          18
 
  PAW_PBE Cu 22Jun2005                  :
 energy of atom  1       EATOM=-1390.9808
 kinetic energy error for atom=   13.2306 (will be added to EATOM!!)
 
 
 POSCAR: Cu
  positions in cartesian coordinates
  No initial velocities read in
 exchange correlation table for  LEXCH =        8
   RHO(1)=    0.500       N(1)  =     2000
   RHO(2)=  100.500       N(2)  =     4000
 


--------------------------------------------------------------------------------------------------------


 ion  position               nearest neighbor table
   1  0.000  0.000  0.000-   2 2.57   3 2.57   4 2.57   3 2.57   4 2.57   2 2.57   4 2.57   4 2.57
                             2 2.57   3 2.57   3 2.57   2 2.57
   2  0.500  0.500  0.000-   1 2.57   3 2.57   4 2.57   3 2.57   4 2.57   1 2.57   3 2.57   3 2.57
                             1 2.57   4 2.57   4 2.57   1 2.57
   3  0.500  0.000  0.500-   1 2.57   2 2.57   4 2.57   1 2.57   2 2.57   2 2.57   4 2.57   2 2.57
                             1 2.57   4 2.57   1 2.57   4 2.57
   4  0.000  0.500  0.500-   1 2.57   2 2.57   3 2.57   1 2.57   2 2.57   1 2.57   3 2.57   1 2.57
                             2 2.57   3 2.57   2 2.57   3 2.57
 
  LATTYP: Found a simple cubic cell.
 ALAT       =     3.6350000000
  
  Lattice vectors:
  
 A1 = (   3.6350000000,   0.0000000000,   0.0000000000)
 A2 = (   0.0000000000,   3.6350000000,   0.0000000000)
 A3 = (   0.0000000000,   0.0000000000,   3.6350000000)


Analysis of symmetry for initial positions (statically):
=====================================================================
 Subroutine PRICEL returns following result:
 
  LATTYP: Found a face centered cubic cell.
 ALAT       =     3.6350000000
  
  Lattice vectors:
  
 A1 = (   1.8175000000,  -1.8175000000,   0.0000000000)
 A2 = (   1.8175000000,   0.0000000000,   1.8175000000)
 A3 = (   0.0000000000,  -1.8175000000,   1.8175000000)
 
   4 primitive cells build up your supercell.
 

 Routine SETGRP: Setting up the symmetry group for a 
 simple cubic supercell.


 Subroutine GETGRP returns: Found 48 space group operations
 (whereof 48 operations were pure point group operations)
 out of a pool of 48 trial point group operations.


The static configuration has the point symmetry O_h .


Analysis of symmetry for dynamics (positions and initial velocities):
=====================================================================
 Subroutine PRICEL returns following result:
 
  LATTYP: Found a face centered cubic cell.
 ALAT       =     3.6350000000
  
  Lattice vectors:
  
 A1 = (   1.8175000000,  -1.8175000000,   0.0000000000)
 A2 = (   1.8175000000,   0.0000000000,   1.8175000000)
 A3 = (   0.0000000000,  -1.8175000000,   1.8175000000)
 
   4 primitive cells build up your supercell.
 

 Routine SETGRP: Setting up the symmetry group for a 
 simple cubic supercell.


 Subroutine GETGRP returns: Found 48 space group operations
 (whereof 48 operations were pure point group operations)
 out of a pool of 48 trial point group operations.


The dynamic configuration has the point symmetry O_h .


 Subroutine INISYM returns: Found 48 space group operations
 (whereof 48 operations are pure point group operations),
 and found     4 'primitive' translations


----------------------------------------------------------------------------------------

                                     Primitive cell                                     

  volume of cell :      12.0075

  direct lattice vectors                    reciprocal lattice vectors
     1.817500000 -1.817500000  0.000000000     0.275103164 -0.275103164 -0.275103164
     1.817500000  0.000000000  1.817500000     0.275103164  0.275103164  0.275103164
     0.000000000 -1.817500000  1.817500000    -0.275103164 -0.275103164  0.275103164

  length of vectors
     2.570333150  2.570333150  2.570333150     0.476492657  0.476492657  0.476492657

  position of ions in fractional coordinates (direct lattice)
     0.000000000  0.000000000  0.000000000

  ion indices of the primitive-cell ions
   primitive index   ion index
                 1           1

----------------------------------------------------------------------------------------

 
 
 KPOINTS: KPOINTS created by Atomic Simulation Env

Automatic generation of k-mesh.
 Grid dimensions read from file:
 generate k-points for:    5    5    5

 Generating k-lattice:

  Cartesian coordinates                     Fractional coordinates (reciprocal lattice)
     0.055020633  0.000000000  0.000000000     0.200000000  0.000000000  0.000000000
     0.000000000  0.055020633  0.000000000     0.000000000  0.200000000  0.000000000
     0.000000000  0.000000000  0.055020633     0.000000000  0.000000000  0.200000000

  Length of vectors
     0.055020633  0.055020633  0.055020633

  Shift w.r.t. Gamma in fractional coordinates (k-lattice)
     0.000000000  0.000000000  0.000000000

 
 Subroutine IBZKPT returns following result:
 ===========================================
 
 Found     10 irreducible k-points:
 
 Following reciprocal coordinates:
            Coordinates               Weight
  0.000000  0.000000  0.000000      1.000000
  0.200000  0.000000  0.000000      6.000000
  0.400000  0.000000  0.000000      6.000000
  0.200000  0.200000  0.000000     12.000000
  0.400000  0.200000  0.000000     24.000000
  0.400000  0.400000  0.000000     12.000000
  0.200000  0.200000  0.200000      8.000000
  0.400000  0.200000  0.200000     24.000000
  0.400000  0.400000  0.200000     24.000000
  0.400000  0.400000  0.400000      8.000000
 
 Following cartesian coordinates:
            Coordinates               Weight
  0.000000  0.000000  0.000000      1.000000
  0.055021  0.000000  0.000000      6.000000
  0.110041  0.000000  0.000000      6.000000
  0.055021  0.055021  0.000000     12.000000
  0.110041  0.055021  0.000000     24.000000
  0.110041  0.110041  0.000000     12.000000
  0.055021  0.055021  0.055021      8.000000
  0.110041  0.055021  0.055021     24.000000
  0.110041  0.110041  0.055021     24.000000
  0.110041  0.110041  0.110041      8.000000
 


--------------------------------------------------------------------------------------------------------




 Dimension of arrays:
   k-points           NKPTS =     10   k-points in BZ     NKDIM =     10   number of bands    NBANDS=     30
   number of dos      NEDOS =    301   number of ions     NIONS =      4
   non local maximal  LDIM  =      6   non local SUM 2l+1 LMDIM =     18
   total plane-waves  NPLWV =   1728
   max r-space proj   IRMAX =      1   max aug-charges    IRDMAX=   1241
   dimension x,y,z NGX =    12 NGY =   12 NGZ =   12
   dimension x,y,z NGXF=    24 NGYF=   24 NGZF=   24
   support grid    NGXF=    24 NGYF=   24 NGZF=   24
   ions per type =               4
   NGX,Y,Z   is equivalent  to a cutoff of   5.49,  5.49,  5.49 a.u.
   NGXF,Y,Z  is equivalent  to a cutoff of  10.98, 10.98, 10.98 a.u.

 SYSTEM =  unknown system                          
 POSCAR =  Cu                                      

 Startparameter for this run:
   NWRITE =      2    write-flag & timer
   PREC   = normal    normal or accurate (medium, high low for compatibility)
   ISTART =      1    job   : 0-new  1-cont  2-samecut
   ICHARG =      1    charge: 1-file 2-atom 10-const
   ISPIN  =      1    spin polarized calculation?
   LNONCOLLINEAR =      F non collinear calculations
   LSORBIT =      F    spin-orbit coupling
   INIWAV =      1    electr: 0-lowe 1-rand  2-diag
   LASPH  =      F    aspherical Exc in radial PAW
   METAGGA=      F    non-selfconsistent MetaGGA calc.

 Electronic Relaxation 1
   ENCUT  =  140.0 eV  10.29 Ry    3.21 a.u.   3.51  3.51  3.51*2*pi/ulx,y,z
   ENINI  =  140.0     initial cutoff
   ENAUG  =  587.0 eV  augmentation charge cutoff
   NELM   =     60;   NELMIN=  2; NELMDL=  0     # of ELM steps 
   EDIFF  = 0.1E-05   stopping-criterion for ELM
   LREAL  =      F    real-space projection
   NLSPLINE    = F    spline interpolate recip. space projectors
   LCOMPAT=      F    compatible to vasp.4.4
   GGA_COMPAT  = T    GGA compatible to vasp.4.4-vasp.4.6
   LMAXPAW     = -100 max onsite density
   LMAXMIX     =    2 max onsite mixed and CHGCAR
   VOSKOWN=      0    Vosko Wilk Nusair interpolation
   ROPT   =    0.00000
 Ionic relaxation
   EDIFFG = 0.1E-04   stopping-criterion for IOM
   NSW    =      0    number of steps for IOM
   NBLOCK =      1;   KBLOCK =      1    inner block; outer block 
   IBRION =     -1    ionic relax: 0-MD 1-quasi-New 2-CG
   NFREE  =      0    steps in history (QN), initial steepest desc. (CG)
   ISIF   =      2    stress and relaxation
   IWAVPR =      0    prediction:  0-non 1-charg 2-wave 3-comb
   ISYM   =      2    0-nonsym 1-usesym 2-fastsym
   LCORR  =      T    Harris-Foulkes like correction to forces

   POTIM  = 0.5000    time-step for ionic-motion
   TEIN   =    0.0    initial temperature
   TEBEG  =    0.0;   TEEND  =   0.0 temperature during run
   SMASS  =  -3.00    Nose mass-parameter (am)
   estimated Nose-frequenzy (Omega)   =  0.10E-29 period in steps = 0.13E+47 mass=  -0.302E-27a.u.
   SCALEE = 1.0000    scale energy and forces
   NPACO  =    256;   APACO  = 16.0  distance and # of slots for P.C.
   PSTRESS=    0.0 pullay stress

  Mass of Ions in am
   POMASS =  63.55
  Ionic Valenz
   ZVAL   =  11.00
  Atomic Wigner-Seitz radii
   RWIGS  =  -1.00
  virtual crystal weights 
   VCA    =   1.00
   NELECT =      44.0000    total number of electrons
   NUPDOWN=      -1.0000    fix difference up-down

 DOS related values:
   EMIN   =  10.00;   EMAX   =-10.00  energy-range for DOS
   EFERMI =   0.00
   ISMEAR =     1;   SIGMA  =   0.20  broadening in eV -4-tet -1-fermi 0-gaus

 Electronic relaxation 2 (details)
   IALGO  =     38    algorithm
   LDIAG  =      T    sub-space diagonalisation (order eigenvalues)
   LSUBROT=      F    optimize rotation matrix (better conditioning)
   TURBO    =      0    0=normal 1=particle mesh
   IRESTART =      0    0=no restart 2=restart with 2 vectors
   NREBOOT  =      0    no. of reboots
   NMIN     =      0    reboot dimension
   EREF     =   0.00    reference energy to select bands
   IMIX   =      4    mixing-type and parameters
     AMIX     =   0.40;   BMIX     =  1.00
     AMIX_MAG =   1.60;   BMIX_MAG =  1.00
     AMIN     =   0.10
     WC   =   100.;   INIMIX=   1;  MIXPRE=   1;  MAXMIX= -45

 Intra band minimization:
   WEIMIN = 0.0000     energy-eigenvalue tresh-hold
   EBREAK =  0.83E-08  absolut break condition
   DEPER  =   0.30     relativ break condition  

   TIME   =   0.40     timestep for ELM

  volume/ion in A,a.u.               =      12.01        81.03
  Fermi-wavevector in a.u.,A,eV,Ry     =   1.589967  3.004601 34.395439  2.527993
  Thomas-Fermi vector in A             =   2.688734
 
 Write flags
   LWAVE        =      T    write WAVECAR
   LDOWNSAMPLE  =      F    k-point downsampling of WAVECAR
   LCHARG       =      T    write CHGCAR
   LVTOT        =      F    write LOCPOT, total local potential
   LVHAR        =      F    write LOCPOT, Hartree potential only
   LELF         =      F    write electronic localiz. function (ELF)
   LORBIT       =      0    0 simple, 1 ext, 2 COOP (PROOUT), +10 PAW based schemes


 Dipole corrections
   LMONO  =      F    monopole corrections only (constant potential shift)
   LDIPOL =      F    correct potential (dipole corrections)
   IDIPOL =      0    1-x, 2-y, 3-z, 4-all directions 
   EPSILON=  1.0000000 bulk dielectric constant

 Exchange correlation treatment:
   GGA     =    PE    GGA type
   LEXCH   =     8    internal setting for exchange type
   VOSKOWN=      0    Vosko Wilk Nusair interpolation
   LHFCALC =     F    Hartree Fock is set to
   LHFONE  =     F    Hartree Fock one center treatment
   AEXX    =    0.0000 exact exchange contribution

 Linear response parameters
   LEPSILON=     F    determine dielectric tensor
   LRPA    =     F    only Hartree local field effects (RPA)
   LNABLA  =     F    use nabla operator in PAW spheres
   LVEL    =     F    velocity operator in full k-point grid
   LINTERFAST=   F  fast interpolation
   KINTER  =     0    interpolate to denser k-point grid
   CSHIFT  =0.1000    complex shift for real part using Kramers Kronig
   OMEGAMAX=  -1.0    maximum frequency
   DEG_THRESHOLD= 0.2000000E-02 threshold for treating states as degnerate
   RTIME   =   -0.100 relaxation time in fs
  (WPLASMAI=    0.000 imaginary part of plasma frequency in eV, 0.658/RTIME)
   DFIELD  = 0.0000000 0.0000000 0.0000000 field for delta impulse in time
 
 Orbital magnetization related:
   ORBITALMAG=     F  switch on orbital magnetization
   LCHIMAG   =     F  perturbation theory with respect to B field
   DQ        =  0.001000  dq finite difference perturbation B field
   LLRAUG    =     F  two centre corrections for induced B field



--------------------------------------------------------------------------------------------------------


 Static calculation
 charge density and potential will be updated during run
 non-spin polarized calculation
 Variant of blocked Davidson
 Davidson routine will perform the subspace rotation
 perform sub-space diagonalisation
    after iterative eigenvector-optimisation
 modified Broyden-mixing scheme, WC =      100.0
 initial mixing is a Kerker type mixing with AMIX =  0.4000 and BMIX =      1.0000
 Hartree-type preconditioning will be used
 using additional bands            8
 reciprocal scheme for non local part
 use partial core corrections
 calculate Harris-corrections to forces 
   (improved forces if not selfconsistent)
 use gradient corrections 
 use of overlap-Matrix (Vanderbilt PP)
 Methfessel and Paxton  Order N= 1 SIGMA  =   0.20


--------------------------------------------------------------------------------------------------------


  energy-cutoff  :      140.00
  volume of cell :       48.03
      direct lattice vectors                 reciprocal lattice vectors
     3.635000000  0.000000000  0.000000000     0.275103164  0.000000000  0.000000000
     0.000000000  3.635000000  0.000000000     0.000000000  0.275103164  0.000000000
     0.000000000  0.000000000  3.635000000     0.000000000  0.000000000  0.275103164

  length of vectors
     3.635000000  3.635000000  3.635000000     0.275103164  0.275103164  0.275103164


 
 old parameters found on file WAVECAR:
  energy-cutoff  :      140.00
  volume of cell :       48.03
      direct lattice vectors                 reciprocal lattice vectors
     3.635000000  0.000000000  0.000000000     0.275103164  0.000000000  0.000000000
     0.000000000  3.635000000  0.000000000     0.000000000  0.275103164  0.000000000
     0.000000000  0.000000000  3.635000000     0.000000000  0.000000000  0.275103164

  length of vectors

 
 k-points in units of 2pi/SCALE and weight: KPOINTS created by Atomic Simulation Env
   0.00000000  0.00000000  0.00000000       0.008
   0.05502063  0.00000000  0.00000000       0.048
   0.11004127  0.00000000  0.00000000       0.048
   0.05502063  0.05502063  0.00000000       0.096
   0.11004127  0.05502063  0.00000000       0.192
   0.11004127  0.11004127  0.00000000       0.096
   0.05502063  0.05502063  0.05502063       0.064
   0.11004127  0.05502063  0.05502063       0.192
   0.11004127  0.11004127  0.05502063       0.192
   0.11004127  0.11004127  0.11004127       0.064
 
 k-points in reciprocal lattice and weights: KPOINTS created by Atomic Simulation Env
   0.00000000  0.00000000  0.00000000       0.008
   0.20000000  0.00000000  0.00000000       0.048
   0.40000000  0.00000000  0.00000000       0.048
   0.20000000  0.20000000  0.00000000       0.096
   0.40000000  0.20000000  0.00000000       0.192
   0.40000000  0.40000000  0.00000000       0.096
   0.20000000  0.20000000  0.20000000       0.064
   0.40000000  0.20000000  0.20000000       0.192
   0.40000000  0.40000000  0.20000000       0.192
   0.40000000  0.40000000  0.40000000       0.064
 
 position of ions in fractional coordinates (direct lattice) 
   0.00000000  0.00000000  0.00000000
   0.50000000  0.50000000  0.00000000
   0.50000000  0.00000000  0.50000000
   0.00000000  0.50000000  0.50000000
 
 position of ions in cartesian coordinates  (Angst):
   0.00000000  0.00000000  0.00000000
   1.81750000  1.81750000  0.00000000
   1.81750000  0.00000000  1.81750000
   0.00000000  1.81750000  1.81750000
 


--------------------------------------------------------------------------------------------------------


 k-point   1 :   0.0000 0.0000 0.0000  plane waves:     179
 k-point   2 :   0.2000 0.0000 0.0000  plane waves:     183
 k-point   3 :   0.4000 0.0000 0.0000  plane waves:     183
 k-point   4 :   0.2000 0.2000 0.0000  plane waves:     187
 k-point   5 :   0.4000 0.2000 0.0000  plane waves:     185
 k-point   6 :   0.4000 0.4000 0.0000  plane waves:     177
 k-point   7 :   0.2000 0.2000 0.2000  plane waves:     178
 k-point   8 :   0.4000 0.2000 0.2000  plane waves:     186
 k-point   9 :   0.4000 0.4000 0.2000  plane waves:     173
 k-point  10 :   0.4000 0.4000 0.4000  plane waves:     178

 maximum number of plane-waves:       187
 maximum index in each direction: 
   IXMAX=    3   IYMAX=    3   IZMAX=    3
   IXMIN=   -3   IYMIN=   -3   IZMIN=   -3


 total amount of memory used by VASP MPI-rank0    32357. kBytes
=======================================================================

   base      :      30000. kBytes
   nonl-proj :        281. kBytes
   grid      :        771. kBytes
   one-center:         62. kBytes
   wavefun   :       1243. kBytes
 
     INWAV:  cpu time    0.0014: real time    0.0021
 Broyden mixing: mesh for mixing (old mesh)
   NGX =  7   NGY =  7   NGZ =  7
  (NGX  = 24   NGY  = 24   NGZ  = 24)
  gives a total of    343 points

 initial charge density was supplied:
 number of electron      44.0003915 magnetization 
 keeping initial charge density in first step


--------------------------------------------------------------------------------------------------------


 Maximum index for augmentation-charges         1021 (set IRDMAX)


--------------------------------------------------------------------------------------------------------


 First call to EWALD:  gamma=   0.488
 Maximum number of real-space cells 3x 3x 3
 Maximum number of reciprocal cells 3x 3x 3

    FEWALD:  cpu time    0.0008: real time    0.0008


--------------------------------------- Iteration      1(   1)  ---------------------------------------


    POTLOK:  cpu time    0.0032: real time    0.0032
    SETDIJ:  cpu time    0.0034: real time    0.0034
     EDDAV:  cpu time    0.0564: real time    0.0579
       DOS:  cpu time    0.0009: real time    0.0009
    CHARGE:  cpu time    0.0052: real time    0.0052
    MIXING:  cpu time    0.0001: real time    0.0001
    --------------------------------------------
      LOOP:  cpu time    0.0692: real time    0.0707

 eigenvalue-minimisations  :   612
 total energy-change (2. order) : 0.1603434E+03  (-0.1691254E-04)
 number of electron      44.0003919 magnetization 
 augmentation part       24.3234534 magnetization 

 Broyden mixing:
  rms(total) = 0.50097E-03    rms(broyden)= 0.16344E-03
  rms(prec ) = 0.31603E-03
  weight for this iteration     100.00
  WARNING: grid for Broyden might be to small

 Free energy of the ion-electron system (eV)
  ---------------------------------------------------
  alpha Z        PSCENC =       243.62337785
  Ewald energy   TEWEN  =     -4395.34838493
  -Hartree energ DENC   =     -1135.37742532
  -exchange      EXHF   =         0.00000000
  -V(xc)+E(xc)   XCENC  =       165.81531307
  PAW double counting   =      7021.84522345    -7336.49359487
  entropy T*S    EENTRO =        -0.00249050
  eigenvalues    EBANDS =        85.28063589
  atomic energy  EATOM  =      5511.00073228
  Solvation  Ediel_sol  =         0.00000000
  ---------------------------------------------------
  free energy    TOTEN  =       160.34338691 eV

  energy without entropy =      160.34587741  energy(sigma->0) =      160.34421708


--------------------------------------------------------------------------------------------------------




--------------------------------------- Iteration      1(   2)  ---------------------------------------


    POTLOK:  cpu time    0.0031: real time    0.0031
    SETDIJ:  cpu time    0.0034: real time    0.0034
     EDDAV:  cpu time    0.0510: real time    0.0510
       DOS:  cpu time    0.0009: real time    0.0009
    CHARGE:  cpu time    0.0050: real time    0.0050
    MIXING:  cpu time    0.0002: real time    0.0002
    --------------------------------------------
      LOOP:  cpu time    0.0636: real time    0.0636

 eigenvalue-minimisations  :   612
 total energy-change (2. order) : 0.3411859E-02  (-0.1723918E-04)
 number of electron      44.0003915 magnetization 
 augmentation part       24.3239508 magnetization 

 Broyden mixing:
  rms(total) = 0.48518E-03    rms(broyden)= 0.27848E-03
  rms(prec ) = 0.57264E-03
  weight for this iteration     100.00
  WARNING: grid for Broyden might be to small

 eigenvalues of (default mixing * dielectric matrix)
  average eigenvalue GAMMA=   0.3698
  0.3698

 Free energy of the ion-electron system (eV)
  ---------------------------------------------------
  alpha Z        PSCENC =       243.62337785
  Ewald energy   TEWEN  =     -4395.34838493
  -Hartree energ DENC   =     -1135.37023238
  -exchange      EXHF   =         0.00000000
  -V(xc)+E(xc)   XCENC  =       165.81495913
  PAW double counting   =      7021.83589530    -7336.48652848
  entropy T*S    EENTRO =        -0.00249519
  eigenvalues    EBANDS =        85.27947521
  atomic energy  EATOM  =      5511.00073228
  Solvation  Ediel_sol  =         0.00000000
  ---------------------------------------------------
  free energy    TOTEN  =       160.34679877 eV

  energy without entropy =      160.34929396  energy(sigma->0) =      160.34763050


--------------------------------------------------------------------------------------------------------




--------------------------------------- Iteration      1(   3)  ---------------------------------------


    POTLOK:  cpu time    0.0031: real time    0.0031
    SETDIJ:  cpu time    0.0034: real time    0.0034
     EDDAV:  cpu time    0.0374: real time    0.0374
       DOS:  cpu time    0.0008: real time    0.0008
    --------------------------------------------
      LOOP:  cpu time    0.0446: real time    0.0446

 eigenvalue-minimisations  :   386
 total energy-change (2. order) : 0.5385045E-06  (-0.1309608E-06)
 number of electron      44.0003915 magnetization 
 augmentation part       24.3239508 magnetization 

 Free energy of the ion-electron system (eV)
  ---------------------------------------------------
  alpha Z        PSCENC =       243.62337785
  Ewald energy   TEWEN  =     -4395.34838493
  -Hartree energ DENC   =     -1135.37513315
  -exchange      EXHF   =         0.00000000
  -V(xc)+E(xc)   XCENC  =       165.81520137
  PAW double counting   =      7021.84219570    -7336.49400069
  entropy T*S    EENTRO =        -0.00248909
  eigenvalues    EBANDS =        85.28529998
  atomic energy  EATOM  =      5511.00073228
  Solvation  Ediel_sol  =         0.00000000
  ---------------------------------------------------
  free energy    TOTEN  =       160.34679931 eV

  energy without entropy =      160.34928841  energy(sigma->0) =      160.34762901


--------------------------------------------------------------------------------------------------------




 average (electrostatic) potential at core
  the test charge radii are     0.9430
  (the norm of the test charge is              1.0000)
       1 -74.0518       2 -74.0518       3 -74.0518       4 -74.0518
 
 
 
 E-fermi :   9.3210     XC(G=0): -12.7230     alpha+bet :-13.2037

 Fermi energy:         9.3209691378

 k-point     1 :       0.0000    0.0000    0.0000
  band No.  band energies     occupation 
      1      -3.9023      2.00000
      2      -3.9023      2.00000
      3      -3.9023      2.00000
      4      -2.6358      2.00000
      5      -2.6358      2.00000
      6      -1.9664      2.00000
      7      -1.3031      2.00000
      8      -1.3031      2.00000
      9      -1.3031      2.00000
     10       1.1312      2.00000
     11       1.1312      2.00000
     12       1.1312      2.00000
     13       4.2151      2.00000
     14       4.2151      2.00000
     15       4.2151      2.00000
     16       8.7199      2.00018
     17       8.7199      2.00018
     18       8.7199      2.00018
     19      12.1528     -0.00000
     20      12.1528     -0.00000
     21      12.1528     -0.00000
     22      17.2640      0.00000
     23      17.2640      0.00000
     24      17.2640      0.00000
     25      17.2640      0.00000
     26      17.2640      0.00000
     27      17.2640      0.00000
     28      19.7781      0.00000
     29      19.7781      0.00000
     30      19.7781      0.00000

 k-point     2 :       0.2000    0.0000    0.0000
  band No.  band energies     occupation 
      1      -2.6523      2.00000
      2      -2.6425      2.00000
      3      -2.5700      2.00000
      4      -2.1512      2.00000
      5      -2.1512      2.00000
      6      -1.4813      2.00000
      7      -1.2068      2.00000
      8      -1.2068      2.00000
      9      -1.1876      2.00000
     10      -1.1277      2.00000
     11      -0.6373      2.00000
     12      -0.6373      2.00000
     13       3.1716      2.00000
     14       3.8062      2.00000
     15       3.8062      2.00000
     16       5.7765      2.00000
     17       6.4559      2.00000
     18       6.4559      2.00000
     19       7.1906      2.00000
     20       7.1906      2.00000
     21       9.6325     -0.05006
     22       9.6325     -0.05006
     23      12.3761     -0.00000
     24      12.3761     -0.00000
     25      15.8091      0.00000
     26      16.9738      0.00000
     27      16.9738      0.00000
     28      17.3479      0.00000
     29      17.8896      0.00000
     30      17.8896      0.00000

 k-point     3 :       0.4000    0.0000    0.0000
  band No.  band energies     occupation 
      1      -2.8482      2.00000
      2      -2.3771      2.00000
      3      -1.0799      2.00000
      4      -1.0799      2.00000
      5      -0.8521      2.00000
      6      -0.7541      2.00000
      7      -0.7541      2.00000
      8      -0.7075      2.00000
      9      -0.7075      2.00000
     10      -0.6472      2.00000
     11      -0.6472      2.00000
     12      -0.5654      2.00000
     13      -0.1636      2.00000
     14       1.6593      2.00000
     15       2.5422      2.00000
     16       3.2159      2.00000
     17       5.1537      2.00000
     18       5.1537      2.00000
     19       7.4207      2.00000
     20       7.4207      2.00000
     21      11.0663     -0.00000
     22      11.0663     -0.00000
     23      13.4920     -0.00000
     24      13.4920     -0.00000
     25      13.6751     -0.00000
     26      13.6751     -0.00000
     27      13.9686     -0.00000
     28      13.9686     -0.00000
     29      15.3544      0.00000
     30      15.3544      0.00000

 k-point     4 :       0.2000    0.2000    0.0000
  band No.  band energies     occupation 
      1      -3.6056      2.00000
      2      -2.8881      2.00000
      3      -1.8195      2.00000
      4      -1.7115      2.00000
      5      -1.7115      2.00000
      6      -1.5497      2.00000
      7      -1.0785      2.00000
      8      -1.0623      2.00000
      9      -0.7502      2.00000
     10      -0.7502      2.00000
     11      -0.4278      2.00000
     12      -0.0781      2.00000
     13       0.0530      2.00000
     14       0.0530      2.00000
     15       3.1701      2.00000
     16       5.9495      2.00000
     17       5.9495      2.00000
     18       5.9969      2.00000
     19       5.9969      2.00000
     20       6.5823      2.00000
     21       7.8904      2.00000
     22       8.4553      2.00000
     23       8.4553      2.00000
     24      10.5962     -0.00000
     25      12.6259     -0.00000
     26      13.5102     -0.00000
     27      16.2353      0.00000
     28      16.2353      0.00000
     29      17.5229      0.00000
     30      17.5229      0.00000

 k-point     5 :       0.4000    0.2000    0.0000
  band No.  band energies     occupation 
      1      -2.1440      2.00000
      2      -2.0368      2.00000
      3      -1.8976      2.00000
      4      -1.1836      2.00000
      5      -1.0105      2.00000
      6      -0.8079      2.00000
      7      -0.7834      2.00000
      8      -0.6423      2.00000
      9      -0.5328      2.00000
     10      -0.3986      2.00000
     11       0.2167      2.00000
     12       1.5886      2.00000
     13       1.7925      2.00000
     14       2.2679      2.00000
     15       2.4252      2.00000
     16       2.8664      2.00000
     17       3.1489      2.00000
     18       3.2460      2.00000
     19       3.6563      2.00000
     20       5.3756      2.00000
     21       6.0481      2.00000
     22       7.6041      2.00000
     23      10.1863     -0.00000
     24      10.2331     -0.00000
     25      11.6741     -0.00000
     26      13.8694     -0.00000
     27      14.2778     -0.00000
     28      15.7791      0.00000
     29      17.5380      0.00000
     30      19.0533      0.00000

 k-point     6 :       0.4000    0.4000    0.0000
  band No.  band energies     occupation 
      1      -1.2318      2.00000
      2      -0.8893      2.00000
      3      -0.8893      2.00000
      4      -0.7049      2.00000
      5      -0.7049      2.00000
      6       0.4694      2.00000
      7       1.5477      2.00000
      8       1.7727      2.00000
      9       1.8811      2.00000
     10       2.0152      2.00000
     11       2.1404      2.00000
     12       2.1404      2.00000
     13       2.6991      2.00000
     14       2.7045      2.00000
     15       2.7045      2.00000
     16       3.1254      2.00000
     17       3.9456      2.00000
     18       4.3775      2.00000
     19       4.3775      2.00000
     20       5.3737      2.00000
     21       6.6149      2.00000
     22       6.6149      2.00000
     23       6.9520      2.00000
     24       8.6506      2.00002
     25      13.3298     -0.00000
     26      15.0184      0.00000
     27      15.8201      0.00000
     28      15.8201      0.00000
     29      17.0686      0.00000
     30      17.0686      0.00000

 k-point     7 :       0.2000    0.2000    0.2000
  band No.  band energies     occupation 
      1      -1.5547      2.00000
      2      -1.5547      2.00000
      3      -1.5547      2.00000
      4      -1.0190      2.00000
      5      -1.0190      2.00000
      6      -0.8403      2.00000
      7      -0.3747      2.00000
      8      -0.3747      2.00000
      9      -0.3747      2.00000
     10      -0.1755      2.00000
     11       0.8740      2.00000
     12       0.8740      2.00000
     13       0.8740      2.00000
     14       4.4518      2.00000
     15       4.4518      2.00000
     16       5.4195      2.00000
     17       5.4195      2.00000
     18       5.4195      2.00000
     19       7.7420      2.00000
     20       7.7420      2.00000
     21       7.7420      2.00000
     22      10.4160     -0.00000
     23      10.4160     -0.00000
     24      10.4160     -0.00000
     25      14.0213     -0.00000
     26      14.0213     -0.00000
     27      14.0213     -0.00000
     28      16.6677      0.00000
     29      16.6677      0.00000
     30      16.6677      0.00000

 k-point     8 :       0.4000    0.2000    0.2000
  band No.  band energies     occupation 
      1      -2.3556      2.00000
      2      -2.0295      2.00000
      3      -1.9017      2.00000
      4      -1.7126      2.00000
      5      -1.7126      2.00000
      6      -1.6855      2.00000
      7      -0.6369      2.00000
      8      -0.5646      2.00000
      9      -0.3285      2.00000
     10      -0.3285      2.00000
     11       1.1281      2.00000
     12       1.5064      2.00000
     13       1.5723      2.00000
     14       1.5723      2.00000
     15       2.3580      2.00000
     16       2.3580      2.00000
     17       2.8346      2.00000
     18       3.6253      2.00000
     19       4.1396      2.00000
     20       4.4979      2.00000
     21       8.3767      2.00000
     22       8.3767      2.00000
     23       9.4983     -0.01801
     24       9.4983     -0.01801
     25      11.0159     -0.00000
     26      11.0159     -0.00000
     27      15.4565      0.00000
     28      17.8111      0.00000
     29      17.9452      0.00000
     30      17.9452      0.00000

 k-point     9 :       0.4000    0.4000    0.2000
  band No.  band energies     occupation 
      1      -1.0927      2.00000
      2      -1.0413      2.00000
      3      -0.6103      2.00000
      4       0.2227      2.00000
      5       0.2996      2.00000
      6       0.3718      2.00000
      7       0.3718      2.00000
      8       0.6463      2.00000
      9       0.9184      2.00000
     10       0.9184      2.00000
     11       2.4896      2.00000
     12       2.4896      2.00000
     13       2.5857      2.00000
     14       4.5945      2.00000
     15       4.5945      2.00000
     16       4.9490      2.00000
     17       6.1268      2.00000
     18       6.3215      2.00000
     19       6.9151      2.00000
     20       6.9151      2.00000
     21       8.0788      2.00000
     22       8.2420      2.00000
     23      10.2549     -0.00000
     24      10.7849     -0.00000
     25      10.7849     -0.00000
     26      12.3800     -0.00000
     27      12.3800     -0.00000
     28      14.6473     -0.00000
     29      19.2587      0.00000
     30      21.3911      0.00000

 k-point    10 :       0.4000    0.4000    0.4000
  band No.  band energies     occupation 
      1      -1.3880      2.00000
      2      -1.3880      2.00000
      3      -1.3880      2.00000
      4      -1.2569      2.00000
      5      -1.2569      2.00000
      6      -1.0034      2.00000
      7      -1.0034      2.00000
      8      -1.0034      2.00000
      9      -0.8617      2.00000
     10       0.8503      2.00000
     11       0.8503      2.00000
     12       0.8503      2.00000
     13       3.9810      2.00000
     14       5.7792      2.00000
     15       5.7792      2.00000
     16       5.8437      2.00000
     17       5.8437      2.00000
     18       5.8437      2.00000
     19       8.2722      2.00000
     20       8.2722      2.00000
     21       8.2722      2.00000
     22       9.3536      0.72769
     23       9.3536      0.72769
     24       9.3536      0.72769
     25      10.0811     -0.00000
     26      10.0811     -0.00000
     27      10.0811     -0.00000
     28      11.3866     -0.00000
     29      24.8800      0.00000
     30      24.8800      0.00000


--------------------------------------------------------------------------------------------------------


 soft charge-density along one line, spin component           1
         0         1         2         3         4         5         6         7         8         9
x    19.6764    0.0000    0.0000   -0.0000    1.5088    0.0000    0.0000    0.0000   -0.5624   -0.0000
x    -0.0000   -0.0000    0.0000    0.0000
y    19.6764    0.0000    0.0000   -0.0000    1.5088    0.0000    0.0000    0.0000   -0.5624   -0.0000
y    -0.0000   -0.0000    0.0000    0.0000
z    19.6764    0.0000    0.0000   -0.0000    1.5088    0.0000    0.0000    0.0000   -0.5624   -0.0000
z    -0.0000   -0.0000    0.0000    0.0000
 total charge-density along one line
x    44.0004    0.0000    0.0000    0.0000   17.2161   -0.0000   -0.0000    0.0000    2.9119   -0.0000
x    -0.0000   -0.0000   -0.0367    0.0000   -0.0000   -0.0000    0.0248   -0.0000   -0.0000    0.0000
x    -0.0079    0.0000   -0.0000   -0.0000    0.0054    0.0000
y    44.0004    0.0000   -0.0000    0.0000   17.2161    0.0000   -0.0000    0.0000    2.9119   -0.0000
y    -0.0000   -0.0000   -0.0367   -0.0000   -0.0000   -0.0000    0.0248   -0.0000    0.0000    0.0000
y    -0.0079   -0.0000    0.0000   -0.0000    0.0054    0.0000
z    44.0004    0.0000    0.0000    0.0000   17.2161    0.0000   -0.0000    0.0000    2.9119    0.0000
z    -0.0000    0.0000   -0.0367    0.0000    0.0000   -0.0000    0.0248   -0.0000    0.0000    0.0000
z    -0.0079    0.0000    0.0000   -0.0000    0.0054    0.0000
 
 pseudopotential strength for first ion, spin component:           1
-11.736   0.000   0.000   0.000   0.000   2.355  -0.000  -0.000
  0.000 -11.736   0.000  -0.000  -0.000  -0.000   2.355  -0.000
  0.000   0.000 -11.709  -0.000  -0.000  -0.000  -0.000   2.335
  0.000  -0.000  -0.000 -11.736   0.000  -0.000   0.000   0.000
  0.000  -0.000  -0.000   0.000 -11.709  -0.000   0.000   0.000
  2.355  -0.000  -0.000  -0.000  -0.000   4.681   0.000   0.000
 -0.000   2.355  -0.000   0.000   0.000   0.000   4.681   0.000
 -0.000  -0.000   2.335   0.000   0.000   0.000   0.000   4.693
 -0.000   0.000   0.000   2.355  -0.000   0.000  -0.000   0.000
 -0.000   0.000   0.000  -0.000   2.335   0.000  -0.000  -0.000
  0.000  -0.000  -0.000  -0.000  -0.000   0.000  -0.000  -0.000
  0.000  -0.000  -0.000  -0.000  -0.000   0.000  -0.000  -0.000
  0.000   0.000  -0.000  -0.000  -0.000  -0.000   0.000  -0.000
 -0.000   0.000   0.000   0.000  -0.000  -0.000  -0.000  -0.000
  0.000  -0.000  -0.000   0.000   0.000  -0.000  -0.000   0.000
  0.000   0.000  -0.000   0.000  -0.000   0.000   0.000  -0.000
  0.000   0.000   0.000   0.000   0.000  -0.000  -0.000  -0.000
  0.000   0.000  -0.000   0.000   0.000   0.000  -0.000  -0.000
 total augmentation occupancy for first ion, spin component:           1
  2.250   0.000  -0.000   0.000   0.000   0.402  -0.000  -0.000   0.000   0.000   0.000   0.000   0.000   0.000  -0.000  -0.000
 -0.000   2.250  -0.000   0.000  -0.000   0.000   0.402  -0.000   0.000   0.000  -0.000   0.000   0.000  -0.000  -0.000   0.000
 -0.000  -0.000   2.325  -0.000   0.000  -0.000  -0.000   0.408  -0.000   0.000   0.000  -0.000  -0.000   0.000   0.000  -0.000
  0.000   0.000  -0.000   2.250  -0.000   0.000   0.000   0.000   0.402   0.000   0.000   0.000   0.000  -0.000  -0.000  -0.000
 -0.000  -0.000  -0.000  -0.000   2.325  -0.000  -0.000   0.000  -0.000   0.408  -0.000  -0.000   0.000   0.000   0.000  -0.000
  0.402   0.000  -0.000   0.000   0.000   0.101   0.000  -0.000   0.000  -0.000  -0.000   0.000   0.000   0.000   0.000  -0.000
 -0.000   0.402  -0.000   0.000   0.000   0.000   0.101  -0.000   0.000   0.000  -0.000   0.000   0.000   0.000  -0.000   0.000
 -0.000  -0.000   0.408  -0.000   0.000   0.000   0.000   0.099   0.000  -0.000   0.000   0.000   0.000  -0.000   0.000  -0.000
  0.000   0.000  -0.000   0.402   0.000   0.000   0.000   0.000   0.101   0.000   0.000   0.000   0.000  -0.000  -0.000  -0.000
  0.000   0.000   0.000  -0.000   0.408   0.000   0.000   0.000  -0.000   0.099  -0.000   0.000   0.000   0.000  -0.000  -0.000
 -0.000   0.000   0.000  -0.000  -0.000  -0.000  -0.000   0.000   0.000  -0.000   6.501  -2.852  -0.000  -0.000  -0.000   0.000
  0.000   0.000  -0.000   0.000  -0.000  -0.000  -0.000   0.000  -0.000   0.000  -2.852   1.719   0.000  -0.000  -0.000   0.000
  0.000   0.000   0.000   0.000   0.000   0.000   0.000   0.000   0.000  -0.000  -0.000   0.000   0.595  -0.000   0.000  -0.230
  0.000  -0.000  -0.000  -0.000  -0.000   0.000   0.000   0.000  -0.000   0.000  -0.000  -0.000   0.000   0.595   0.000   0.000
 -0.000  -0.000   0.000  -0.000   0.000   0.000  -0.000   0.000  -0.000  -0.000  -0.000  -0.000  -0.000  -0.000   0.595  -0.000
 -0.000   0.000   0.000  -0.000  -0.000  -0.000   0.000   0.000  -0.000   0.000   0.000   0.000  -0.230   0.000  -0.000   0.166
  0.000  -0.000  -0.000   0.000   0.000  -0.000   0.000   0.000  -0.000   0.000   0.000   0.000  -0.000  -0.230  -0.000   0.000
  0.000  -0.000  -0.000  -0.000  -0.000  -0.000   0.000  -0.000   0.000  -0.000  -0.000   0.000   0.000   0.000  -0.230   0.000


------------------------ aborting loop because EDIFF is reached ----------------------------------------


    CHARGE:  cpu time    0.0052: real time    0.0052
    FORLOC:  cpu time    0.0003: real time    0.0003
    FORNL :  cpu time    0.0154: real time    0.0154
    STRESS:  cpu time    0.0216: real time    0.0216
    FORCOR:  cpu time    0.0033: real time    0.0033
    FORHAR:  cpu time    0.0008: real time    0.0008
    MIXING:  cpu time    0.0002: real time    0.0002

  FORCE on cell =-STRESS in cart. coord.  units (eV):
  Direction    XX          YY          ZZ          XY          YZ          ZX
  --------------------------------------------------------------------------------------
  Alpha Z   243.62338   243.62338   243.62338
  Ewald   -1465.11677 -1465.11677 -1465.11677     0.00000     0.00000     0.00000
  Hartree   378.46668   378.46669   378.46669    -0.00000    -0.00000    -0.00000
  E(xc)    -245.75449  -245.75449  -245.75449    -0.00000     0.00000    -0.00000
  Local     267.74424   267.74424   267.74424    -0.00000    -0.00000    -0.00000
  n-local -1148.42627 -1121.44459 -1117.22378   -34.69015   -20.36928   -16.80259
  augment   410.27671   410.27671   410.27671    -0.00000     0.00000    -0.00000
  Kinetic   613.53893   609.48780   595.15951    14.93978     5.77625     2.54108
  Fock        0.00000     0.00000     0.00000     0.00000     0.00000     0.00000
  -------------------------------------------------------------------------------------
  Total    -933.72971  -933.72971  -933.72971     0.00000     0.00000    -0.00000
  in kB  -31147.16442-31147.16442-31147.16442     0.00000     0.00000    -0.00000
  external pressure =   -31147.16 kB  Pullay stress =        0.00 kB


 VOLUME and BASIS-vectors are now :
 -----------------------------------------------------------------------------
  energy-cutoff  :      140.00
  volume of cell :       48.03
      direct lattice vectors                 reciprocal lattice vectors
     3.635000000  0.000000000  0.000000000     0.275103164  0.000000000  0.000000000
     0.000000000  3.635000000  0.000000000     0.000000000  0.275103164  0.000000000
     0.000000000  0.000000000  3.635000000     0.000000000  0.000000000  0.275103164

  length of vectors
     3.635000000  3.635000000  3.635000000     0.275103164  0.275103164  0.275103164


 FORCES acting on ions
    electron-ion (+dipol)            ewald-force                    non-local-force                 convergence-correction
 -----------------------------------------------------------------------------------------------
   -.279E-12 0.684E-14 0.199E-13   0.103E-13 0.597E-14 -.166E-13   -.568E-23 -.896E-23 -.468E-23   0.485E-13 0.115E-13 -.814E-13
   0.335E-12 0.646E-12 0.209E-13   0.175E-13 0.141E-13 -.168E-13   0.159E-23 -.214E-23 0.205E-23   -.120E-12 -.182E-12 -.655E-13
   0.339E-12 0.283E-14 0.637E-12   -.529E-14 -.138E-13 0.159E-13   -.142E-23 0.310E-23 -.243E-22   -.113E-12 -.186E-13 -.207E-12
   -.273E-12 0.638E-12 0.613E-12   -.204E-13 -.566E-14 0.157E-13   0.944E-24 0.308E-23 -.459E-23   0.409E-13 -.209E-12 -.181E-12
 -----------------------------------------------------------------------------------------------
   0.121E-12 0.129E-11 0.129E-11   0.207E-14 0.619E-15 -.180E-14   -.457E-23 -.493E-23 -.315E-22   -.143E-12 -.397E-12 -.535E-12
 
 
 POSITION                                       TOTAL-FORCE (eV/Angst)
 -----------------------------------------------------------------------------------
      0.00000      0.00000      0.00000         0.000000     -0.000000     -0.000000
      1.81750      1.81750      0.00000        -0.000000      0.000000     -0.000000
      1.81750      0.00000      1.81750         0.000000     -0.000000      0.000000
      0.00000      1.81750      1.81750        -0.000000      0.000000      0.000000
 -----------------------------------------------------------------------------------
    total drift:                               -0.000000      0.000000      0.000000


--------------------------------------------------------------------------------------------------------



  FREE ENERGIE OF THE ION-ELECTRON SYSTEM (eV)
  ---------------------------------------------------
  free  energy   TOTEN  =       160.34679931 eV

  energy  without entropy=      160.34928841  energy(sigma->0) =      160.34762901
 


--------------------------------------------------------------------------------------------------------


    POTLOK:  cpu time    0.0067: real time    0.0067


--------------------------------------------------------------------------------------------------------


 writing wavefunctions
     LOOP+:  cpu time    0.2451: real time    0.2466
    4ORBIT:  cpu time    0.0000: real time    0.0000

 total amount of memory used by VASP MPI-rank0    32357. kBytes
=======================================================================

   base      :      30000. kBytes
   nonl-proj :        281. kBytes
   grid      :        771. kBytes
   one-center:         62. kBytes
   wavefun   :       1243. kBytes
 
  
  
 General timing and accounting informations for this job:
 ========================================================
  
                  Total CPU time used (sec):        0.349
                            User time (sec):        0.329
                          System time (sec):        0.020
                         Elapsed time (sec):        0.341
  
                   Maximum memory used (kb):       36016.
                   Average memory used (kb):          N/A
  
                          Minor page faults:         2746
                          Major page faults:            1
                 Voluntary context switches:           30
