<?xml version="1.0" encoding="ISO-8859-1"?>
<modeling>
 <generator>
  <i name="program" type="string">vasp </i>
  <i name="version" type="string">6.2.0  </i>
  <i name="subversion" type="string">18Jan21 (build Mar 17 2021 09:06:54) complex                          serial </i>
  <i name="platform" type="string">LinuxIFC </i>
  <i name="date" type="string">2021 08 03 </i>
  <i name="time" type="string">10:15:00 </i>
 </generator>
 <incar>
  <i type="string" name="PREC">normal</i>
  <i type="int" name="ICHARG">     1</i>
  <i type="int" name="IBRION">    -1</i>
  <i name="EDIFF">      0.00000100</i>
  <i type="int" name="NSW">     0</i>
  <i name="ENCUT">    140.00000000</i>
  <i type="int" name="NBANDS">    30</i>
  <i type="int" name="ISMEAR">     1</i>
  <i name="SIGMA">      0.20000000</i>
  <i type="logical" name="LCHARG"> T  </i>
  <i type="int" name="KPAR">     1</i>
  <i type="int" name="NCORE">     1</i>
  <i type="string" name="GGA">PE</i>
 </incar>
 <primitive_cell>
  <structure name="primitive_cell" >
   <crystal>
    <varray name="basis" >
     <v>       1.81750000      -1.81750000       0.00000000 </v>
     <v>       1.81750000       0.00000000       1.81750000 </v>
     <v>       0.00000000      -1.81750000       1.81750000 </v>
    </varray>
    <i name="volume">     12.00751822 </i>
    <varray name="rec_basis" >
     <v>       0.27510316      -0.27510316      -0.27510316 </v>
     <v>       0.27510316       0.27510316       0.27510316 </v>
     <v>      -0.27510316      -0.27510316       0.27510316 </v>
    </varray>
   </crystal>
   <varray name="positions" >
    <v>       0.00000000       0.00000000       0.00000000 </v>
   </varray>
  </structure>
  <varray name="primitive_index" >
   <v type="int" >        1 </v>
  </varray>
 </primitive_cell>
 <kpoints>
  <generation param="Monkhorst-Pack">
   <v type="int" name="divisions">       5        5        5 </v>
   <v name="usershift">      0.00000000       0.00000000       0.00000000 </v>
   <v name="genvec1">      0.20000000       0.00000000       0.00000000 </v>
   <v name="genvec2">      0.00000000       0.20000000       0.00000000 </v>
   <v name="genvec3">      0.00000000       0.00000000       0.20000000 </v>
   <v name="shift">      0.00000000       0.00000000       0.00000000 </v>
  </generation>
  <varray name="kpointlist" >
   <v>       0.00000000       0.00000000       0.00000000 </v>
   <v>       0.20000000       0.00000000       0.00000000 </v>
   <v>       0.40000000       0.00000000       0.00000000 </v>
   <v>       0.20000000       0.20000000       0.00000000 </v>
   <v>       0.40000000       0.20000000       0.00000000 </v>
   <v>       0.40000000       0.40000000       0.00000000 </v>
   <v>       0.20000000       0.20000000       0.20000000 </v>
   <v>       0.40000000       0.20000000       0.20000000 </v>
   <v>       0.40000000       0.40000000       0.20000000 </v>
   <v>       0.40000000       0.40000000       0.40000000 </v>
  </varray>
  <varray name="weights" >
   <v>       0.00800000 </v>
   <v>       0.04800000 </v>
   <v>       0.04800000 </v>
   <v>       0.09600000 </v>
   <v>       0.19200000 </v>
   <v>       0.09600000 </v>
   <v>       0.06400000 </v>
   <v>       0.19200000 </v>
   <v>       0.19200000 </v>
   <v>       0.06400000 </v>
  </varray>
 </kpoints>
 <parameters>
  <separator name="general" >
   <i type="string" name="SYSTEM">unknown system</i>
   <i type="logical" name="LCOMPAT"> F  </i>
  </separator>
  <separator name="electronic" >
   <i type="string" name="PREC">normal</i>
   <i name="ENMAX">    140.00000000</i>
   <i name="ENAUG">    586.98000000</i>
   <i name="EDIFF">      0.00000100</i>
   <i type="int" name="IALGO">    38</i>
   <i type="int" name="IWAVPR">     0</i>
   <i type="int" name="NBANDS">    30</i>
   <i type="int" name="NBANDSLOW">    -1</i>
   <i type="int" name="NBANDSHIGH">    -1</i>
   <i name="NELECT">     44.00000000</i>
   <i type="int" name="TURBO">     0</i>
   <i type="int" name="IRESTART">     0</i>
   <i type="int" name="NREBOOT">     0</i>
   <i type="int" name="NMIN">     0</i>
   <i name="EREF">      0.00000000</i>
   <separator name="electronic smearing" >
    <i type="int" name="ISMEAR">     1</i>
    <i name="SIGMA">      0.20000000</i>
    <i name="KSPACING">      0.50000000</i>
    <i type="logical" name="KGAMMA"> T  </i>
    <i type="logical" name="KBLOWUP"> T  </i>
   </separator>
   <separator name="electronic projectors" >
    <i type="logical" name="LREAL"> F  </i>
    <v name="ROPT">      0.00000000</v>
    <i type="int" name="LMAXPAW">  -100</i>
    <i type="int" name="LMAXMIX">     2</i>
    <i type="logical" name="NLSPLINE"> F  </i>
   </separator>
   <separator name="electronic startup" >
    <i type="int" name="ISTART">     1</i>
    <i type="int" name="ICHARG">     1</i>
    <i type="int" name="INIWAV">     1</i>
   </separator>
   <separator name="electronic spin" >
    <i type="int" name="ISPIN">     1</i>
    <i type="logical" name="LNONCOLLINEAR"> F  </i>
    <v name="MAGMOM">      1.00000000      1.00000000      1.00000000      1.00000000</v>
    <i name="NUPDOWN">     -1.00000000</i>
    <i type="logical" name="LSORBIT"> F  </i>
    <v name="SAXIS">      0.00000000      0.00000000      1.00000000</v>
    <i type="logical" name="LSPIRAL"> F  </i>
    <v name="QSPIRAL">      0.00000000      0.00000000      0.00000000</v>
    <i type="logical" name="LZEROZ"> F  </i>
   </separator>
   <separator name="electronic exchange-correlation" >
    <i type="logical" name="LASPH"> F  </i>
    <i type="logical" name="LMETAGGA"> F  </i>
   </separator>
   <separator name="electronic convergence" >
    <i type="int" name="NELM">    60</i>
    <i type="int" name="NELMDL">     0</i>
    <i type="int" name="NELMIN">     2</i>
    <i name="ENINI">    140.00000000</i>
    <separator name="electronic convergence detail" >
     <i type="logical" name="LDIAG"> T  </i>
     <i type="logical" name="LSUBROT"> F  </i>
     <i name="WEIMIN">      0.00000000</i>
     <i name="EBREAK">      0.00000001</i>
     <i name="DEPER">      0.30000000</i>
     <i type="int" name="NRMM">     4</i>
     <i name="TIME">      0.40000000</i>
    </separator>
   </separator>
   <separator name="electronic mixer" >
    <i name="AMIX">      0.40000000</i>
    <i name="BMIX">      1.00000000</i>
    <i name="AMIN">      0.10000000</i>
    <i name="AMIX_MAG">      1.60000000</i>
    <i name="BMIX_MAG">      1.00000000</i>
    <separator name="electronic mixer details" >
     <i type="int" name="IMIX">     4</i>
     <i type="logical" name="MIXFIRST"> F  </i>
     <i type="int" name="MAXMIX">   -45</i>
     <i name="WC">    100.00000000</i>
     <i type="int" name="INIMIX">     1</i>
     <i type="int" name="MIXPRE">     1</i>
     <i type="int" name="MREMOVE">     5</i>
    </separator>
   </separator>
   <separator name="electronic dipolcorrection" >
    <i type="logical" name="LDIPOL"> F  </i>
    <i type="logical" name="LMONO"> F  </i>
    <i type="int" name="IDIPOL">     0</i>
    <i name="EPSILON">      1.00000000</i>
    <v name="DIPOL">   -100.00000000   -100.00000000   -100.00000000</v>
    <i name="EFIELD">      0.00000000</i>
   </separator>
  </separator>
  <separator name="grids" >
   <i type="int" name="NGX">    12</i>
   <i type="int" name="NGY">    12</i>
   <i type="int" name="NGZ">    12</i>
   <i type="int" name="NGXF">    24</i>
   <i type="int" name="NGYF">    24</i>
   <i type="int" name="NGZF">    24</i>
   <i type="logical" name="ADDGRID"> F  </i>
  </separator>
  <separator name="ionic" >
   <i type="int" name="NSW">     0</i>
   <i type="int" name="IBRION">    -1</i>
   <i type="int" name="MDALGO">     0</i>
   <i type="int" name="ISIF">     2</i>
   <i name="PSTRESS">      0.00000000</i>
   <i name="EDIFFG">      0.00001000</i>
   <i type="int" name="NFREE">     0</i>
   <i name="POTIM">      0.50000000</i>
   <i name="SMASS">     -3.00000000</i>
   <i name="SCALEE">      1.00000000</i>
  </separator>
  <separator name="ionic md" >
   <i name="TEBEG">      0.00010000</i>
   <i name="TEEND">      0.00010000</i>
   <i type="int" name="NBLOCK">     1</i>
   <i type="int" name="KBLOCK">     1</i>
   <i type="int" name="NPACO">   256</i>
   <i name="APACO">     16.00000000</i>
  </separator>
  <separator name="symmetry" >
   <i type="int" name="ISYM">     2</i>
   <i name="SYMPREC">      0.00001000</i>
  </separator>
  <separator name="dos" >
   <i type="int" name="LORBIT">     0</i>
   <v name="RWIGS">     -1.00000000</v>
   <i type="int" name="NEDOS">   301</i>
   <i name="EMIN">     10.00000000</i>
   <i name="EMAX">    -10.00000000</i>
   <i name="EFERMI">      0.00000000</i>
  </separator>
  <separator name="writing" >
   <i type="int" name="NWRITE">     2</i>
   <i type="logical" name="LWAVE"> T  </i>
   <i type="logical" name="LDOWNSAMPLE"> F  </i>
   <i type="logical" name="LCHARG"> T  </i>
   <i type="logical" name="LPARD"> F  </i>
   <i type="logical" name="LVTOT"> F  </i>
   <i type="logical" name="LVHAR"> F  </i>
   <i type="logical" name="LELF"> F  </i>
   <i type="logical" name="LOPTICS"> F  </i>
   <v name="STM">      0.00000000      0.00000000      0.00000000      0.00000000      0.00000000      0.00000000      0.00000000</v>
  </separator>
  <separator name="performance" >
   <i type="int" name="NPAR">     1</i>
   <i type="int" name="NSIM">     4</i>
   <i type="int" name="NBLK">    -1</i>
   <i type="logical" name="LPLANE"> T  </i>
   <i type="logical" name="LSCALAPACK"> F  </i>
   <i type="logical" name="LSCAAWARE"> F  </i>
   <i type="logical" name="LSCALU"> F  </i>
   <i type="logical" name="LASYNC"> F  </i>
   <i type="logical" name="LORBITALREAL"> F  </i>
  </separator>
  <separator name="miscellaneous" >
   <i type="int" name="IDIOT">     3</i>
   <i type="int" name="PHON_NSTRUCT">    -1</i>
   <i type="logical" name="LMUSIC"> F  </i>
   <v name="POMASS">     63.54600000</v>
   <v name="DARWINR">      0.00000000</v>
   <v name="DARWINV">      1.00000000</v>
   <i type="logical" name="LCORR"> T  </i>
  </separator>
  <i type="logical" name="GGA_COMPAT"> T  </i>
  <i type="logical" name="LBERRY"> F  </i>
  <i type="int" name="ICORELEVEL">     0</i>
  <i type="logical" name="LDAU"> F  </i>
  <i type="int" name="I_CONSTRAINED_M">     0</i>
  <separator name="electronic exchange-correlation" >
   <i type="string" name="GGA">PE</i>
   <i type="int" name="VOSKOWN">     0</i>
   <i type="logical" name="LHFCALC"> F  </i>
   <i type="string" name="PRECFOCK"></i>
   <i type="logical" name="LSYMGRAD"> F  </i>
   <i type="logical" name="LHFONE"> F  </i>
   <i type="logical" name="LRHFCALC"> F  </i>
   <i type="logical" name="LTHOMAS"> F  </i>
   <i type="logical" name="LMODELHF"> F  </i>
   <i type="logical" name="LFOCKACE"> F  </i>
   <i name="ENCUT4O">     -1.00000000</i>
   <i type="int" name="EXXOEP">     0</i>
   <i type="int" name="FOURORBIT">     0</i>
   <i name="AEXX">      0.00000000</i>
   <i name="HFALPHA">      0.00000000</i>
   <i name="MCALPHA">      0.00000000</i>
   <i name="ALDAX">      1.00000000</i>
   <i name="AGGAX">      1.00000000</i>
   <i name="ALDAC">      1.00000000</i>
   <i name="AGGAC">      1.00000000</i>
   <i type="int" name="NKREDX">     1</i>
   <i type="int" name="NKREDY">     1</i>
   <i type="int" name="NKREDZ">     1</i>
   <i type="logical" name="SHIFTRED"> F  </i>
   <i type="logical" name="ODDONLY"> F  </i>
   <i type="logical" name="EVENONLY"> F  </i>
   <i type="int" name="LMAXFOCK">     0</i>
   <i type="int" name="NMAXFOCKAE">     0</i>
   <i type="logical" name="LFOCKAEDFT"> F  </i>
   <i name="HFSCREEN">      0.00000000</i>
   <i name="HFSCREENC">      0.00000000</i>
   <i type="int" name="NBANDSGWLOW">     0</i>
  </separator>
  <separator name="vdW DFT" >
   <i type="logical" name="LUSE_VDW"> F  </i>
   <i name="Zab_VDW">     -0.84910000</i>
   <i name="PARAM1">      0.12340000</i>
   <i name="PARAM2">      1.00000000</i>
   <i name="PARAM3">      0.00000000</i>
  </separator>
  <separator name="model GW" >
   <i type="int" name="MODEL_GW">     0</i>
   <i name="MODEL_EPS0">      7.20451093</i>
   <i name="MODEL_ALPHA">      1.00000000</i>
  </separator>
  <separator name="linear response parameters" >
   <i type="logical" name="LEPSILON"> F  </i>
   <i type="logical" name="LRPA"> F  </i>
   <i type="logical" name="LNABLA"> F  </i>
   <i type="logical" name="LVEL"> F  </i>
   <i type="int" name="KINTER">     0</i>
   <i name="CSHIFT">      0.10000000</i>
   <i name="OMEGAMAX">     -1.00000000</i>
   <i name="DEG_THRESHOLD">      0.00200000</i>
   <i name="RTIME">     -0.10000000</i>
   <i name="WPLASMAI">      0.00000000</i>
   <v name="DFIELD">      0.00000000      0.00000000      0.00000000</v>
   <v name="WPLASMA">      0.00000000      0.00000000      0.00000000      0.00000000      0.00000000      0.00000000      0.00000000      0.00000000      0.00000000</v>
  </separator>
  <separator name="orbital magnetization" >
   <i type="logical" name="NUCIND"> F  </i>
   <v name="MAGPOS">      0.00000000      0.00000000      0.00000000</v>
   <i type="logical" name="LNICSALL"> T  </i>
   <i type="logical" name="ORBITALMAG"> F  </i>
   <i type="logical" name="LMAGBLOCH"> F  </i>
   <i type="logical" name="LCHIMAG"> F  </i>
   <i type="logical" name="LGAUGE"> T  </i>
   <i type="int" name="MAGATOM">     0</i>
   <v name="MAGDIPOL">      0.00000000      0.00000000      0.00000000</v>
   <v name="AVECCONST">      0.00000000      0.00000000      0.00000000</v>
  </separator>
  <separator name="response functions" >
   <i type="logical" name="LFINITE_TEMPERATURE"> F  </i>
   <i type="logical" name="LADDER"> F  </i>
   <i type="logical" name="LRPAFORCE"> F  </i>
   <i type="logical" name="LFXC"> F  </i>
   <i type="logical" name="LHARTREE"> T  </i>
   <i type="int" name="IBSE">     0</i>
   <v type="int" name="KPOINT">    -1     0     0     0</v>
   <i type="logical" name="LTCTC"> F  </i>
   <i type="logical" name="LTCTE"> F  </i>
   <i type="logical" name="LTETE"> F  </i>
   <i type="logical" name="LTRIPLET"> F  </i>
   <i type="logical" name="LFXCEPS"> F  </i>
   <i type="logical" name="LFXHEG"> F  </i>
   <i type="int" name="NATURALO">     2</i>
   <i type="logical" name="LHOLEGF"> F  </i>
   <i type="logical" name="L2ORDER"> F  </i>
   <i type="logical" name="LDMP1"> F  </i>
   <i type="logical" name="LMP2LT"> F  </i>
   <i type="logical" name="LSMP2LT"> F  </i>
   <i type="logical" name="LGWLF"> F  </i>
   <i name="ENCUTGW">     -2.00000000</i>
   <i name="ENCUTGWSOFT">     -2.00000000</i>
   <i name="ENCUTLF">     -1.00000000</i>
   <i type="logical" name="LESF_SPLINES"> F  </i>
   <i type="int" name="LMAXMP2">    -1</i>
   <i name="SCISSOR">      0.00000000</i>
   <i type="int" name="NOMEGA">     0</i>
   <i type="int" name="NOMEGAR">     0</i>
   <i type="int" name="NBANDSGW">    -1</i>
   <i type="int" name="NBANDSO">    -1</i>
   <i type="int" name="NBANDSV">    -1</i>
   <i type="int" name="NELM">     1</i>
   <i type="int" name="NELMHF">     1</i>
   <i type="int" name="DIM">     3</i>
   <i type="int" name="IESPILON">     4</i>
   <i type="int" name="ANTIRES">     0</i>
   <i name="OMEGAMAX">    -30.00000000</i>
   <i name="OMEGAMIN">    -30.00000000</i>
   <i name="OMEGATL">   -200.00000000</i>
   <i type="int" name="OMEGAGRID">     0</i>
   <i name="CSHIFT">     -0.10000000</i>
   <i type="logical" name="LSELFENERGY"> F  </i>
   <i type="logical" name="LSPECTRAL"> F  </i>
   <i type="logical" name="LSPECTRALGW"> F  </i>
   <i type="logical" name="LSINGLES"> F  </i>
   <i type="logical" name="LFERMIGW"> F  </i>
   <i type="logical" name="ODDONLYGW"> F  </i>
   <i type="logical" name="EVENONLYGW"> F  </i>
   <i type="int" name="NKREDLFX">     1</i>
   <i type="int" name="NKREDLFY">     1</i>
   <i type="int" name="NKREDLFZ">     1</i>
   <i type="int" name="MAXMEM">  2800</i>
   <i type="int" name="TELESCOPE">     0</i>
   <i type="int" name="NTAUPAR">    -1</i>
   <i type="int" name="NOMEGAPAR">    -1</i>
   <i name="DAMP_NEWTON">      0.80000001</i>
   <i name="LAMBDA">      1.00000000</i>
  </separator>
  <separator name="External order field" >
   <i name="OFIELD_KAPPA">      0.00000000</i>
   <v name="OFIELD_K">      0.00000000      0.00000000      0.00000000</v>
   <i name="OFIELD_Q6_NEAR">      0.00000000</i>
   <i name="OFIELD_Q6_FAR">      0.00000000</i>
   <i name="OFIELD_A">      0.00000000</i>
  </separator>
 </parameters>
 <atominfo>
  <atoms>       4 </atoms>
  <types>       1 </types>
  <array name="atoms" >
   <dimension dim="1">ion</dimension>
   <field type="string">element</field>
   <field type="int">atomtype</field>
   <set>
    <rc><c>Cu</c><c>   1</c></rc>
    <rc><c>Cu</c><c>   1</c></rc>
    <rc><c>Cu</c><c>   1</c></rc>
    <rc><c>Cu</c><c>   1</c></rc>
   </set>
  </array>
  <array name="atomtypes" >
   <dimension dim="1">type</dimension>
   <field type="int">atomspertype</field>
   <field type="string">element</field>
   <field>mass</field>
   <field>valence</field>
   <field type="string">pseudopotential</field>
   <set>
    <rc><c>   4</c><c>Cu</c><c>     63.54600000</c><c>     11.00000000</c><c>  PAW_PBE Cu 22Jun2005                  </c></rc>
   </set>
  </array>
 </atominfo>
 <structure name="initialpos" >
  <crystal>
   <varray name="basis" >
    <v>       3.63500000       0.00000000       0.00000000 </v>
    <v>       0.00000000       3.63500000       0.00000000 </v>
    <v>       0.00000000       0.00000000       3.63500000 </v>
   </varray>
   <i name="volume">     48.03007287 </i>
   <varray name="rec_basis" >
    <v>       0.27510316       0.00000000       0.00000000 </v>
    <v>       0.00000000       0.27510316       0.00000000 </v>
    <v>       0.00000000       0.00000000       0.27510316 </v>
   </varray>
  </crystal>
  <varray name="positions" >
   <v>       0.00000000       0.00000000       0.00000000 </v>
   <v>       0.50000000       0.50000000       0.00000000 </v>
   <v>       0.50000000       0.00000000       0.50000000 </v>
   <v>       0.00000000       0.50000000       0.50000000 </v>
  </varray>
 </structure>
 <calculation>
  <scstep>
   <time name="dav">    0.06    0.06</time>
   <time name="total">    0.07    0.07</time>
   <energy>
    <i name="alphaZ">    243.62337785 </i>
    <i name="ewald">  -4395.34838493 </i>
    <i name="hartreedc">  -1135.37742532 </i>
    <i name="XCdc">    165.81531307 </i>
    <i name="pawpsdc">   7021.84522345 </i>
    <i name="pawaedc">  -7336.49359487 </i>
    <i name="eentropy">     -0.00249050 </i>
    <i name="bandstr">     85.28063589 </i>
    <i name="atom">   5511.00073228 </i>
    <i name="e_fr_energy">    160.34338691 </i>
    <i name="e_wo_entrp">    160.34587741 </i>
    <i name="e_0_energy">    160.34421708 </i>
   </energy>
  </scstep>
  <scstep>
   <time name="dav">    0.05    0.05</time>
   <time name="total">    0.06    0.06</time>
   <energy>
    <i name="e_fr_energy">    160.34679877 </i>
    <i name="e_wo_entrp">    160.34929396 </i>
    <i name="e_0_energy">    160.34763050 </i>
   </energy>
  </scstep>
  <scstep>
   <time name="dav">    0.04    0.04</time>
   <time name="total">    0.04    0.04</time>
   <energy>
    <i name="alphaZ">    243.62337785 </i>
    <i name="ewald">  -4395.34838493 </i>
    <i name="hartreedc">  -1135.37513315 </i>
    <i name="XCdc">    165.81520137 </i>
    <i name="pawpsdc">   7021.84219570 </i>
    <i name="pawaedc">  -7336.49400069 </i>
    <i name="eentropy">     -0.00248909 </i>
    <i name="bandstr">     85.28529998 </i>
    <i name="atom">   5511.00073228 </i>
    <i name="e_fr_energy">    160.34679931 </i>
    <i name="e_wo_entrp">    160.34928841 </i>
    <i name="e_0_energy">    160.34762901 </i>
   </energy>
  </scstep>
  <structure>
   <crystal>
    <varray name="basis" >
     <v>       3.63500000       0.00000000       0.00000000 </v>
     <v>       0.00000000       3.63500000       0.00000000 </v>
     <v>       0.00000000       0.00000000       3.63500000 </v>
    </varray>
    <i name="volume">     48.03007287 </i>
    <varray name="rec_basis" >
     <v>       0.27510316       0.00000000       0.00000000 </v>
     <v>       0.00000000       0.27510316       0.00000000 </v>
     <v>       0.00000000       0.00000000       0.27510316 </v>
    </varray>
   </crystal>
   <varray name="positions" >
    <v>       0.00000000       0.00000000       0.00000000 </v>
    <v>       0.50000000       0.50000000       0.00000000 </v>
    <v>       0.50000000       0.00000000       0.50000000 </v>
    <v>       0.00000000       0.50000000       0.50000000 </v>
   </varray>
  </structure>
  <varray name="forces" >
   <v>       0.00000000      -0.00000000      -0.00000000 </v>
   <v>      -0.00000000       0.00000000      -0.00000000 </v>
   <v>       0.00000000      -0.00000000       0.00000000 </v>
   <v>      -0.00000000       0.00000000       0.00000000 </v>
  </varray>
  <varray name="stress" >
   <v>  -31147.16441691       0.00000000      -0.00000000 </v>
   <v>       0.00000000  -31147.16441691      -0.00000000 </v>
   <v>       0.00000000       0.00000000  -31147.16441691 </v>
  </varray>
  <energy>
   <i name="e_fr_energy">    160.34679931 </i>
   <i name="e_wo_entrp">    160.34928841 </i>
   <i name="e_0_energy">    160.34762901 </i>
  </energy>
  <time name="totalsc">    0.25    0.25</time>
  <eigenvalues>
   <array>
    <dimension dim="1">band</dimension>
    <dimension dim="2">kpoint</dimension>
    <dimension dim="3">spin</dimension>
    <field>eigene</field>
    <field>occ</field>
    <set>
     <set comment="spin 1">
      <set comment="kpoint 1">
       <r>   -3.9023    1.0000 </r>
       <r>   -3.9023    1.0000 </r>
       <r>   -3.9023    1.0000 </r>
       <r>   -2.6358    1.0000 </r>
       <r>   -2.6358    1.0000 </r>
       <r>   -1.9664    1.0000 </r>
       <r>   -1.3031    1.0000 </r>
       <r>   -1.3031    1.0000 </r>
       <r>   -1.3031    1.0000 </r>
       <r>    1.1312    1.0000 </r>
       <r>    1.1312    1.0000 </r>
       <r>    1.1312    1.0000 </r>
       <r>    4.2151    1.0000 </r>
       <r>    4.2151    1.0000 </r>
       <r>    4.2151    1.0000 </r>
       <r>    8.7199    1.0001 </r>
       <r>    8.7199    1.0001 </r>
       <r>    8.7199    1.0001 </r>
       <r>   12.1528   -0.0000 </r>
       <r>   12.1528   -0.0000 </r>
       <r>   12.1528   -0.0000 </r>
       <r>   17.2640    0.0000 </r>
       <r>   17.2640    0.0000 </r>
       <r>   17.2640    0.0000 </r>
       <r>   17.2640    0.0000 </r>
       <r>   17.2640    0.0000 </r>
       <r>   17.2640    0.0000 </r>
       <r>   19.7781    0.0000 </r>
       <r>   19.7781    0.0000 </r>
       <r>   19.7781    0.0000 </r>
      </set>
      <set comment="kpoint 2">
       <r>   -2.6523    1.0000 </r>
       <r>   -2.6425    1.0000 </r>
       <r>   -2.5700    1.0000 </r>
       <r>   -2.1512    1.0000 </r>
       <r>   -2.1512    1.0000 </r>
       <r>   -1.4813    1.0000 </r>
       <r>   -1.2068    1.0000 </r>
       <r>   -1.2068    1.0000 </r>
       <r>   -1.1876    1.0000 </r>
       <r>   -1.1277    1.0000 </r>
       <r>   -0.6373    1.0000 </r>
       <r>   -0.6373    1.0000 </r>
       <r>    3.1716    1.0000 </r>
       <r>    3.8062    1.0000 </r>
       <r>    3.8062    1.0000 </r>
       <r>    5.7765    1.0000 </r>
       <r>    6.4559    1.0000 </r>
       <r>    6.4559    1.0000 </r>
       <r>    7.1906    1.0000 </r>
       <r>    7.1906    1.0000 </r>
       <r>    9.6325   -0.0250 </r>
       <r>    9.6325   -0.0250 </r>
       <r>   12.3761   -0.0000 </r>
       <r>   12.3761   -0.0000 </r>
       <r>   15.8091    0.0000 </r>
       <r>   16.9738    0.0000 </r>
       <r>   16.9738    0.0000 </r>
       <r>   17.3479    0.0000 </r>
       <r>   17.8896    0.0000 </r>
       <r>   17.8896    0.0000 </r>
      </set>
      <set comment="kpoint 3">
       <r>   -2.8482    1.0000 </r>
       <r>   -2.3771    1.0000 </r>
       <r>   -1.0799    1.0000 </r>
       <r>   -1.0799    1.0000 </r>
       <r>   -0.8521    1.0000 </r>
       <r>   -0.7541    1.0000 </r>
       <r>   -0.7541    1.0000 </r>
       <r>   -0.7075    1.0000 </r>
       <r>   -0.7075    1.0000 </r>
       <r>   -0.6472    1.0000 </r>
       <r>   -0.6472    1.0000 </r>
       <r>   -0.5654    1.0000 </r>
       <r>   -0.1636    1.0000 </r>
       <r>    1.6593    1.0000 </r>
       <r>    2.5422    1.0000 </r>
       <r>    3.2159    1.0000 </r>
       <r>    5.1537    1.0000 </r>
       <r>    5.1537    1.0000 </r>
       <r>    7.4207    1.0000 </r>
       <r>    7.4207    1.0000 </r>
       <r>   11.0663   -0.0000 </r>
       <r>   11.0663   -0.0000 </r>
       <r>   13.4920   -0.0000 </r>
       <r>   13.4920   -0.0000 </r>
       <r>   13.6751   -0.0000 </r>
       <r>   13.6751   -0.0000 </r>
       <r>   13.9686   -0.0000 </r>
       <r>   13.9686   -0.0000 </r>
       <r>   15.3544    0.0000 </r>
       <r>   15.3544    0.0000 </r>
      </set>
      <set comment="kpoint 4">
       <r>   -3.6056    1.0000 </r>
       <r>   -2.8881    1.0000 </r>
       <r>   -1.8195    1.0000 </r>
       <r>   -1.7115    1.0000 </r>
       <r>   -1.7115    1.0000 </r>
       <r>   -1.5497    1.0000 </r>
       <r>   -1.0785    1.0000 </r>
       <r>   -1.0623    1.0000 </r>
       <r>   -0.7502    1.0000 </r>
       <r>   -0.7502    1.0000 </r>
       <r>   -0.4278    1.0000 </r>
       <r>   -0.0781    1.0000 </r>
       <r>    0.0530    1.0000 </r>
       <r>    0.0530    1.0000 </r>
       <r>    3.1701    1.0000 </r>
       <r>    5.9495    1.0000 </r>
       <r>    5.9495    1.0000 </r>
       <r>    5.9969    1.0000 </r>
       <r>    5.9969    1.0000 </r>
       <r>    6.5823    1.0000 </r>
       <r>    7.8904    1.0000 </r>
       <r>    8.4553    1.0000 </r>
       <r>    8.4553    1.0000 </r>
       <r>   10.5962   -0.0000 </r>
       <r>   12.6259   -0.0000 </r>
       <r>   13.5102   -0.0000 </r>
       <r>   16.2353    0.0000 </r>
       <r>   16.2353    0.0000 </r>
       <r>   17.5229    0.0000 </r>
       <r>   17.5229    0.0000 </r>
      </set>
      <set comment="kpoint 5">
       <r>   -2.1440    1.0000 </r>
       <r>   -2.0368    1.0000 </r>
       <r>   -1.8976    1.0000 </r>
       <r>   -1.1836    1.0000 </r>
       <r>   -1.0105    1.0000 </r>
       <r>   -0.8079    1.0000 </r>
       <r>   -0.7834    1.0000 </r>
       <r>   -0.6423    1.0000 </r>
       <r>   -0.5328    1.0000 </r>
       <r>   -0.3986    1.0000 </r>
       <r>    0.2167    1.0000 </r>
       <r>    1.5886    1.0000 </r>
       <r>    1.7925    1.0000 </r>
       <r>    2.2679    1.0000 </r>
       <r>    2.4252    1.0000 </r>
       <r>    2.8664    1.0000 </r>
       <r>    3.1489    1.0000 </r>
       <r>    3.2460    1.0000 </r>
       <r>    3.6563    1.0000 </r>
       <r>    5.3756    1.0000 </r>
       <r>    6.0481    1.0000 </r>
       <r>    7.6041    1.0000 </r>
       <r>   10.1863   -0.0000 </r>
       <r>   10.2331   -0.0000 </r>
       <r>   11.6741   -0.0000 </r>
       <r>   13.8694   -0.0000 </r>
       <r>   14.2778   -0.0000 </r>
       <r>   15.7791    0.0000 </r>
       <r>   17.5380    0.0000 </r>
       <r>   19.0533    0.0000 </r>
      </set>
      <set comment="kpoint 6">
       <r>   -1.2318    1.0000 </r>
       <r>   -0.8893    1.0000 </r>
       <r>   -0.8893    1.0000 </r>
       <r>   -0.7049    1.0000 </r>
       <r>   -0.7049    1.0000 </r>
       <r>    0.4694    1.0000 </r>
       <r>    1.5477    1.0000 </r>
       <r>    1.7727    1.0000 </r>
       <r>    1.8811    1.0000 </r>
       <r>    2.0152    1.0000 </r>
       <r>    2.1404    1.0000 </r>
       <r>    2.1404    1.0000 </r>
       <r>    2.6991    1.0000 </r>
       <r>    2.7045    1.0000 </r>
       <r>    2.7045    1.0000 </r>
       <r>    3.1254    1.0000 </r>
       <r>    3.9456    1.0000 </r>
       <r>    4.3775    1.0000 </r>
       <r>    4.3775    1.0000 </r>
       <r>    5.3737    1.0000 </r>
       <r>    6.6149    1.0000 </r>
       <r>    6.6149    1.0000 </r>
       <r>    6.9520    1.0000 </r>
       <r>    8.6506    1.0000 </r>
       <r>   13.3298   -0.0000 </r>
       <r>   15.0184    0.0000 </r>
       <r>   15.8201    0.0000 </r>
       <r>   15.8201    0.0000 </r>
       <r>   17.0686    0.0000 </r>
       <r>   17.0686    0.0000 </r>
      </set>
      <set comment="kpoint 7">
       <r>   -1.5547    1.0000 </r>
       <r>   -1.5547    1.0000 </r>
       <r>   -1.5547    1.0000 </r>
       <r>   -1.0190    1.0000 </r>
       <r>   -1.0190    1.0000 </r>
       <r>   -0.8403    1.0000 </r>
       <r>   -0.3747    1.0000 </r>
       <r>   -0.3747    1.0000 </r>
       <r>   -0.3747    1.0000 </r>
       <r>   -0.1755    1.0000 </r>
       <r>    0.8740    1.0000 </r>
       <r>    0.8740    1.0000 </r>
       <r>    0.8740    1.0000 </r>
       <r>    4.4518    1.0000 </r>
       <r>    4.4518    1.0000 </r>
       <r>    5.4195    1.0000 </r>
       <r>    5.4195    1.0000 </r>
       <r>    5.4195    1.0000 </r>
       <r>    7.7420    1.0000 </r>
       <r>    7.7420    1.0000 </r>
       <r>    7.7420    1.0000 </r>
       <r>   10.4160   -0.0000 </r>
       <r>   10.4160   -0.0000 </r>
       <r>   10.4160   -0.0000 </r>
       <r>   14.0213   -0.0000 </r>
       <r>   14.0213   -0.0000 </r>
       <r>   14.0213   -0.0000 </r>
       <r>   16.6677    0.0000 </r>
       <r>   16.6677    0.0000 </r>
       <r>   16.6677    0.0000 </r>
      </set>
      <set comment="kpoint 8">
       <r>   -2.3556    1.0000 </r>
       <r>   -2.0295    1.0000 </r>
       <r>   -1.9017    1.0000 </r>
       <r>   -1.7126    1.0000 </r>
       <r>   -1.7126    1.0000 </r>
       <r>   -1.6855    1.0000 </r>
       <r>   -0.6369    1.0000 </r>
       <r>   -0.5646    1.0000 </r>
       <r>   -0.3285    1.0000 </r>
       <r>   -0.3285    1.0000 </r>
       <r>    1.1281    1.0000 </r>
       <r>    1.5064    1.0000 </r>
       <r>    1.5723    1.0000 </r>
       <r>    1.5723    1.0000 </r>
       <r>    2.3580    1.0000 </r>
       <r>    2.3580    1.0000 </r>
       <r>    2.8346    1.0000 </r>
       <r>    3.6253    1.0000 </r>
       <r>    4.1396    1.0000 </r>
       <r>    4.4979    1.0000 </r>
       <r>    8.3767    1.0000 </r>
       <r>    8.3767    1.0000 </r>
       <r>    9.4983   -0.0090 </r>
       <r>    9.4983   -0.0090 </r>
       <r>   11.0159   -0.0000 </r>
       <r>   11.0159   -0.0000 </r>
       <r>   15.4565    0.0000 </r>
       <r>   17.8111    0.0000 </r>
       <r>   17.9452    0.0000 </r>
       <r>   17.9452    0.0000 </r>
      </set>
      <set comment="kpoint 9">
       <r>   -1.0927    1.0000 </r>
       <r>   -1.0413    1.0000 </r>
       <r>   -0.6103    1.0000 </r>
       <r>    0.2227    1.0000 </r>
       <r>    0.2996    1.0000 </r>
       <r>    0.3718    1.0000 </r>
       <r>    0.3718    1.0000 </r>
       <r>    0.6463    1.0000 </r>
       <r>    0.9184    1.0000 </r>
       <r>    0.9184    1.0000 </r>
       <r>    2.4896    1.0000 </r>
       <r>    2.4896    1.0000 </r>
       <r>    2.5857    1.0000 </r>
       <r>    4.5945    1.0000 </r>
       <r>    4.5945    1.0000 </r>
       <r>    4.9490    1.0000 </r>
       <r>    6.1268    1.0000 </r>
       <r>    6.3215    1.0000 </r>
       <r>    6.9151    1.0000 </r>
       <r>    6.9151    1.0000 </r>
       <r>    8.0788    1.0000 </r>
       <r>    8.2420    1.0000 </r>
       <r>   10.2549   -0.0000 </r>
       <r>   10.7849   -0.0000 </r>
       <r>   10.7849   -0.0000 </r>
       <r>   12.3800   -0.0000 </r>
       <r>   12.3800   -0.0000 </r>
       <r>   14.6473   -0.0000 </r>
       <r>   19.2587    0.0000 </r>
       <r>   21.3911    0.0000 </r>
      </set>
      <set comment="kpoint 10">
       <r>   -1.3880    1.0000 </r>
       <r>   -1.3880    1.0000 </r>
       <r>   -1.3880    1.0000 </r>
       <r>   -1.2569    1.0000 </r>
       <r>   -1.2569    1.0000 </r>
       <r>   -1.0034    1.0000 </r>
       <r>   -1.0034    1.0000 </r>
       <r>   -1.0034    1.0000 </r>
       <r>   -0.8617    1.0000 </r>
       <r>    0.8503    1.0000 </r>
       <r>    0.8503    1.0000 </r>
       <r>    0.8503    1.0000 </r>
       <r>    3.9810    1.0000 </r>
       <r>    5.7792    1.0000 </r>
       <r>    5.7792    1.0000 </r>
       <r>    5.8437    1.0000 </r>
       <r>    5.8437    1.0000 </r>
       <r>    5.8437    1.0000 </r>
       <r>    8.2722    1.0000 </r>
       <r>    8.2722    1.0000 </r>
       <r>    8.2722    1.0000 </r>
       <r>    9.3536    0.3638 </r>
       <r>    9.3536    0.3638 </r>
       <r>    9.3536    0.3638 </r>
       <r>   10.0811   -0.0000 </r>
       <r>   10.0811   -0.0000 </r>
       <r>   10.0811   -0.0000 </r>
       <r>   11.3866   -0.0000 </r>
       <r>   24.8800    0.0000 </r>
       <r>   24.8800    0.0000 </r>
      </set>
     </set>
    </set>
   </array>
  </eigenvalues>
  <separator name="orbital magnetization" >
   <v name="MAGDIPOLOUT">      0.00000000      0.00000000      0.00000000</v>
  </separator>
  <dos>
   <i name="efermi">      9.32096914 </i>
   <total>
    <array>
     <dimension dim="1">gridpoints</dimension>
     <dimension dim="2">spin</dimension>
     <field>energy</field>
     <field>total</field>
     <field>integrated</field>
     <set>
      <set comment="spin 1">
       <r>    -5.9023     0.0000     0.0000 </r>
       <r>    -5.7931     0.0000     0.0000 </r>
       <r>    -5.6838     0.0000     0.0000 </r>
       <r>    -5.5745    -0.0000    -0.0000 </r>
       <r>    -5.4652    -0.0000    -0.0000 </r>
       <r>    -5.3560    -0.0000    -0.0000 </r>
       <r>    -5.2467    -0.0000    -0.0000 </r>
       <r>    -5.1374    -0.0000    -0.0000 </r>
       <r>    -5.0281    -0.0000    -0.0000 </r>
       <r>    -4.9189    -0.0000    -0.0000 </r>
       <r>    -4.8096    -0.0000    -0.0000 </r>
       <r>    -4.7003    -0.0000    -0.0000 </r>
       <r>    -4.5911    -0.0000    -0.0000 </r>
       <r>    -4.4818    -0.0001    -0.0000 </r>
       <r>    -4.3725    -0.0009    -0.0001 </r>
       <r>    -4.2632    -0.0053    -0.0007 </r>
       <r>    -4.1540    -0.0099    -0.0018 </r>
       <r>    -4.0447     0.0249     0.0010 </r>
       <r>    -3.9354     0.1138     0.0134 </r>
       <r>    -3.8261     0.1704     0.0320 </r>
       <r>    -3.7169     0.3299     0.0681 </r>
       <r>    -3.6076     0.6927     0.1438 </r>
       <r>    -3.4983     0.6896     0.2191 </r>
       <r>    -3.3890     0.2449     0.2459 </r>
       <r>    -3.2798    -0.0357     0.2420 </r>
       <r>    -3.1705    -0.0866     0.2325 </r>
       <r>    -3.0612     0.0198     0.2347 </r>
       <r>    -2.9519     0.5204     0.2915 </r>
       <r>    -2.8427     1.1113     0.4130 </r>
       <r>    -2.7334     1.2340     0.5478 </r>
       <r>    -2.6241     1.2053     0.6795 </r>
       <r>    -2.5148     1.2168     0.8125 </r>
       <r>    -2.4056     1.4967     0.9760 </r>
       <r>    -2.2963     2.0220     1.1970 </r>
       <r>    -2.1870     2.8449     1.5079 </r>
       <r>    -2.0777     4.4976     1.9993 </r>
       <r>    -1.9685     5.7476     2.6274 </r>
       <r>    -1.8592     6.1497     3.2994 </r>
       <r>    -1.7499     7.1592     4.0817 </r>
       <r>    -1.6406     7.7116     4.9244 </r>
       <r>    -1.5314     5.7873     5.5568 </r>
       <r>    -1.4221     3.4405     5.9328 </r>
       <r>    -1.3128     3.3307     6.2967 </r>
       <r>    -1.2035     6.0215     6.9547 </r>
       <r>    -1.0943     9.8599     8.0321 </r>
       <r>    -0.9850    11.1732     9.2531 </r>
       <r>    -0.8757     9.9118    10.3362 </r>
       <r>    -0.7664    10.7792    11.5141 </r>
       <r>    -0.6572    13.1163    12.9474 </r>
       <r>    -0.5479    12.2491    14.2859 </r>
       <r>    -0.4386     9.2647    15.2983 </r>
       <r>    -0.3293     7.4133    16.1084 </r>
       <r>    -0.2201     5.0767    16.6631 </r>
       <r>    -0.1108     2.4653    16.9325 </r>
       <r>    -0.0015     1.7227    17.1208 </r>
       <r>     0.1078     2.5839    17.4031 </r>
       <r>     0.2170     4.6522    17.9115 </r>
       <r>     0.3263     6.5262    18.6246 </r>
       <r>     0.4356     5.7275    19.2505 </r>
       <r>     0.5449     3.0560    19.5845 </r>
       <r>     0.6541     1.6126    19.7607 </r>
       <r>     0.7634     2.5871    20.0434 </r>
       <r>     0.8727     5.1850    20.6100 </r>
       <r>     0.9819     5.9148    21.2563 </r>
       <r>     1.0912     3.7253    21.6634 </r>
       <r>     1.2005     1.6044    21.8387 </r>
       <r>     1.3098     0.3594    21.8780 </r>
       <r>     1.4190     1.2298    22.0124 </r>
       <r>     1.5283     4.9852    22.5571 </r>
       <r>     1.6376     7.1933    23.3432 </r>
       <r>     1.7469     5.4738    23.9413 </r>
       <r>     1.8561     3.3234    24.3045 </r>
       <r>     1.9654     2.1137    24.5354 </r>
       <r>     2.0747     1.7382    24.7254 </r>
       <r>     2.1840     2.5141    25.0001 </r>
       <r>     2.2932     4.4944    25.4912 </r>
       <r>     2.4025     7.0071    26.2569 </r>
       <r>     2.5118     7.8049    27.1098 </r>
       <r>     2.6211     6.2902    27.7972 </r>
       <r>     2.7303     4.8004    28.3217 </r>
       <r>     2.8396     4.1737    28.7778 </r>
       <r>     2.9489     2.9886    29.1044 </r>
       <r>     3.0582     2.4648    29.3737 </r>
       <r>     3.1674     4.1672    29.8291 </r>
       <r>     3.2767     4.5375    30.3249 </r>
       <r>     3.3860     2.0305    30.5468 </r>
       <r>     3.4953     0.5989    30.6123 </r>
       <r>     3.6045     1.9803    30.8287 </r>
       <r>     3.7138     3.2159    31.1801 </r>
       <r>     3.8231     2.4926    31.4524 </r>
       <r>     3.9324     1.7098    31.6393 </r>
       <r>     4.0416     1.7845    31.8343 </r>
       <r>     4.1509     1.9026    32.0422 </r>
       <r>     4.2602     1.7666    32.2352 </r>
       <r>     4.3695     2.5158    32.5101 </r>
       <r>     4.4787     4.5062    33.0026 </r>
       <r>     4.5880     5.4131    33.5941 </r>
       <r>     4.6973     3.5653    33.9837 </r>
       <r>     4.8066     1.1867    34.1133 </r>
       <r>     4.9158     0.9273    34.2147 </r>
       <r>     5.0251     1.4506    34.3732 </r>
       <r>     5.1344     1.1845    34.5026 </r>
       <r>     5.2437     1.3477    34.6499 </r>
       <r>     5.3529     2.9302    34.9701 </r>
       <r>     5.4622     3.6729    35.3714 </r>
       <r>     5.5715     1.8780    35.5767 </r>
       <r>     5.6808     0.6755    35.6505 </r>
       <r>     5.7900     2.1188    35.8820 </r>
       <r>     5.8993     4.4151    36.3645 </r>
       <r>     6.0086     5.7464    36.9924 </r>
       <r>     6.1178     5.1385    37.5539 </r>
       <r>     6.2271     3.1674    37.9000 </r>
       <r>     6.3364     2.0034    38.1189 </r>
       <r>     6.4457     1.9964    38.3371 </r>
       <r>     6.5549     2.3965    38.5990 </r>
       <r>     6.6642     2.3325    38.8539 </r>
       <r>     6.7735     1.8375    39.0547 </r>
       <r>     6.8828     2.8127    39.3620 </r>
       <r>     6.9920     3.7030    39.7667 </r>
       <r>     7.1013     2.3052    40.0186 </r>
       <r>     7.2106     0.8878    40.1156 </r>
       <r>     7.3199     0.6175    40.1830 </r>
       <r>     7.4291     0.8325    40.2740 </r>
       <r>     7.5384     1.4525    40.4327 </r>
       <r>     7.6477     2.2942    40.6834 </r>
       <r>     7.7570     2.5746    40.9648 </r>
       <r>     7.8662     1.9658    41.1796 </r>
       <r>     7.9755     1.3646    41.3287 </r>
       <r>     8.0848     1.6836    41.5127 </r>
       <r>     8.1941     3.0958    41.8510 </r>
       <r>     8.3033     5.2249    42.4219 </r>
       <r>     8.4126     6.1018    43.0887 </r>
       <r>     8.5219     4.2734    43.5557 </r>
       <r>     8.6312     1.8648    43.7594 </r>
       <r>     8.7404     0.7859    43.8453 </r>
       <r>     8.8497     0.3038    43.8785 </r>
       <r>     8.9590    -0.0279    43.8755 </r>
       <r>     9.0683    -0.1557    43.8584 </r>
       <r>     9.1775    -0.0674    43.8511 </r>
       <r>     9.2868     0.7719    43.9354 </r>
       <r>     9.3961     2.6015    44.2197 </r>
       <r>     9.5054     4.0944    44.6671 </r>
       <r>     9.6146     3.5035    45.0500 </r>
       <r>     9.7239     1.4630    45.2098 </r>
       <r>     9.8332     0.0177    45.2118 </r>
       <r>     9.9425    -0.0641    45.2048 </r>
       <r>    10.0517     1.4305    45.3611 </r>
       <r>    10.1610     4.0495    45.8036 </r>
       <r>    10.2703     5.4433    46.3984 </r>
       <r>    10.3796     4.1789    46.8551 </r>
       <r>    10.4888     2.1764    47.0929 </r>
       <r>    10.5981     1.3051    47.2355 </r>
       <r>    10.7074     1.9761    47.4514 </r>
       <r>    10.8167     3.1653    47.7973 </r>
       <r>    10.9259     3.6839    48.1999 </r>
       <r>    11.0352     4.0204    48.6392 </r>
       <r>    11.1445     3.0956    48.9775 </r>
       <r>    11.2538     1.0551    49.0928 </r>
       <r>    11.3630     0.2158    49.1164 </r>
       <r>    11.4723     0.3597    49.1557 </r>
       <r>    11.5816     0.8193    49.2452 </r>
       <r>    11.6908     1.4751    49.4064 </r>
       <r>    11.8001     1.2427    49.5422 </r>
       <r>    11.9094     0.3253    49.5777 </r>
       <r>    12.0187    -0.1309    49.5634 </r>
       <r>    12.1279    -0.0858    49.5541 </r>
       <r>    12.2372     0.7964    49.6411 </r>
       <r>    12.3465     2.9179    49.9599 </r>
       <r>    12.4558     3.8810    50.3840 </r>
       <r>    12.5650     2.3495    50.6408 </r>
       <r>    12.6743     0.8870    50.7377 </r>
       <r>    12.7836     0.3193    50.7726 </r>
       <r>    12.8929     0.0173    50.7745 </r>
       <r>    13.0021    -0.0803    50.7657 </r>
       <r>    13.1114    -0.0665    50.7584 </r>
       <r>    13.2207     0.1574    50.7756 </r>
       <r>    13.3300     0.7701    50.8598 </r>
       <r>    13.4392     1.5396    51.0280 </r>
       <r>    13.5485     1.8909    51.2346 </r>
       <r>    13.6578     1.5365    51.4025 </r>
       <r>    13.7671     1.3416    51.5491 </r>
       <r>    13.8763     2.1790    51.7873 </r>
       <r>    13.9856     3.0912    52.1250 </r>
       <r>    14.0949     2.6174    52.4111 </r>
       <r>    14.2042     1.6851    52.5952 </r>
       <r>    14.3134     1.4474    52.7534 </r>
       <r>    14.4227     0.9628    52.8586 </r>
       <r>    14.5320     0.6397    52.9285 </r>
       <r>    14.6413     1.2525    53.0653 </r>
       <r>    14.7505     1.3403    53.2118 </r>
       <r>    14.8598     0.6035    53.2777 </r>
       <r>    14.9691     0.4550    53.3275 </r>
       <r>    15.0784     0.6424    53.3977 </r>
       <r>    15.1876     0.4218    53.4437 </r>
       <r>    15.2969     0.6664    53.5166 </r>
       <r>    15.4062     1.6756    53.6997 </r>
       <r>    15.5155     1.8677    53.9038 </r>
       <r>    15.6247     1.2005    54.0350 </r>
       <r>    15.7340     1.9861    54.2520 </r>
       <r>    15.8433     3.3147    54.6142 </r>
       <r>    15.9526     2.2726    54.8625 </r>
       <r>    16.0618     0.5527    54.9229 </r>
       <r>    16.1711     0.7046    54.9999 </r>
       <r>    16.2804     1.4380    55.1571 </r>
       <r>    16.3897     0.9511    55.2610 </r>
       <r>    16.4989     0.2889    55.2926 </r>
       <r>    16.6082     0.8095    55.3810 </r>
       <r>    16.7175     1.4358    55.5379 </r>
       <r>    16.8267     1.0363    55.6512 </r>
       <r>    16.9360     1.0027    55.7607 </r>
       <r>    17.0453     1.8785    55.9660 </r>
       <r>    17.1546     1.9259    56.1764 </r>
       <r>    17.2638     1.0686    56.2932 </r>
       <r>    17.3731     1.0204    56.4047 </r>
       <r>    17.4824     2.2869    56.6546 </r>
       <r>    17.5917     2.9815    56.9804 </r>
       <r>    17.7009     2.1212    57.2122 </r>
       <r>    17.8102     2.5408    57.4899 </r>
       <r>    17.9195     4.4057    57.9713 </r>
       <r>    18.0288     4.0365    58.4124 </r>
       <r>    18.1380     1.4905    58.5752 </r>
       <r>    18.2473    -0.0538    58.5694 </r>
       <r>    18.3566    -0.1801    58.5497 </r>
       <r>    18.4659    -0.0470    58.5445 </r>
       <r>    18.5751    -0.0112    58.5433 </r>
       <r>    18.6844    -0.0393    58.5390 </r>
       <r>    18.7937    -0.0850    58.5297 </r>
       <r>    18.9030     0.1588    58.5471 </r>
       <r>    19.0122     1.0070    58.6571 </r>
       <r>    19.1215     1.8313    58.8573 </r>
       <r>    19.2308     2.0252    59.0785 </r>
       <r>    19.3401     1.5901    59.2523 </r>
       <r>    19.4493     0.6356    59.3218 </r>
       <r>    19.5586    -0.0027    59.3215 </r>
       <r>    19.6679    -0.0169    59.3196 </r>
       <r>    19.7772     0.1509    59.3361 </r>
       <r>    19.8864     0.1714    59.3548 </r>
       <r>    19.9957     0.0613    59.3615 </r>
       <r>    20.1050    -0.0046    59.3610 </r>
       <r>    20.2143    -0.0076    59.3602 </r>
       <r>    20.3235    -0.0017    59.3600 </r>
       <r>    20.4328    -0.0002    59.3600 </r>
       <r>    20.5421    -0.0000    59.3600 </r>
       <r>    20.6514    -0.0000    59.3600 </r>
       <r>    20.7606    -0.0001    59.3600 </r>
       <r>    20.8699    -0.0024    59.3597 </r>
       <r>    20.9792    -0.0206    59.3575 </r>
       <r>    21.0885    -0.0720    59.3496 </r>
       <r>    21.1977     0.0201    59.3518 </r>
       <r>    21.3070     0.6957    59.4278 </r>
       <r>    21.4163     1.5074    59.5926 </r>
       <r>    21.5256     1.2096    59.7247 </r>
       <r>    21.6348     0.3009    59.7576 </r>
       <r>    21.7441    -0.0690    59.7501 </r>
       <r>    21.8534    -0.0465    59.7450 </r>
       <r>    21.9627    -0.0084    59.7441 </r>
       <r>    22.0719    -0.0007    59.7440 </r>
       <r>    22.1812    -0.0000    59.7440 </r>
       <r>    22.2905    -0.0000    59.7440 </r>
       <r>    22.3997    -0.0000    59.7440 </r>
       <r>    22.5090    -0.0000    59.7440 </r>
       <r>    22.6183    -0.0000    59.7440 </r>
       <r>    22.7276     0.0000    59.7440 </r>
       <r>    22.8368     0.0000    59.7440 </r>
       <r>    22.9461     0.0000    59.7440 </r>
       <r>    23.0554     0.0000    59.7440 </r>
       <r>    23.1647     0.0000    59.7440 </r>
       <r>    23.2739    -0.0000    59.7440 </r>
       <r>    23.3832    -0.0000    59.7440 </r>
       <r>    23.4925    -0.0000    59.7440 </r>
       <r>    23.6018    -0.0000    59.7440 </r>
       <r>    23.7110    -0.0000    59.7440 </r>
       <r>    23.8203    -0.0000    59.7440 </r>
       <r>    23.9296    -0.0000    59.7440 </r>
       <r>    24.0389    -0.0000    59.7440 </r>
       <r>    24.1481    -0.0000    59.7440 </r>
       <r>    24.2574    -0.0001    59.7440 </r>
       <r>    24.3667    -0.0019    59.7438 </r>
       <r>    24.4760    -0.0155    59.7421 </r>
       <r>    24.5852    -0.0499    59.7366 </r>
       <r>    24.6945     0.0303    59.7399 </r>
       <r>    24.8038     0.5104    59.7957 </r>
       <r>    24.9131     1.0209    59.9073 </r>
       <r>    25.0223     0.7639    59.9908 </r>
       <r>    25.1316     0.1673    60.0090 </r>
       <r>    25.2409    -0.0493    60.0037 </r>
       <r>    25.3502    -0.0283    60.0006 </r>
       <r>    25.4594    -0.0048    60.0000 </r>
       <r>    25.5687    -0.0004    60.0000 </r>
       <r>    25.6780    -0.0000    60.0000 </r>
       <r>    25.7873    -0.0000    60.0000 </r>
       <r>    25.8965    -0.0000    60.0000 </r>
       <r>    26.0058    -0.0000    60.0000 </r>
       <r>    26.1151    -0.0000    60.0000 </r>
       <r>    26.2244     0.0000    60.0000 </r>
       <r>    26.3336     0.0000    60.0000 </r>
       <r>    26.4429     0.0000    60.0000 </r>
       <r>    26.5522     0.0000    60.0000 </r>
       <r>    26.6615     0.0000    60.0000 </r>
       <r>    26.7707     0.0000    60.0000 </r>
       <r>    26.8800     0.0000    60.0000 </r>
      </set>
     </set>
    </array>
   </total>
  </dos>
 </calculation>
 <structure name="finalpos" >
  <crystal>
   <varray name="basis" >
    <v>       3.63500000       0.00000000       0.00000000 </v>
    <v>       0.00000000       3.63500000       0.00000000 </v>
    <v>       0.00000000       0.00000000       3.63500000 </v>
   </varray>
   <i name="volume">     48.03007287 </i>
   <varray name="rec_basis" >
    <v>       0.27510316       0.00000000       0.00000000 </v>
    <v>       0.00000000       0.27510316       0.00000000 </v>
    <v>       0.00000000       0.00000000       0.27510316 </v>
   </varray>
  </crystal>
  <varray name="positions" >
   <v>       0.00000000       0.00000000       0.00000000 </v>
   <v>       0.50000000       0.50000000       0.00000000 </v>
   <v>       0.50000000       0.00000000       0.50000000 </v>
   <v>       0.00000000       0.50000000       0.50000000 </v>
  </varray>
 </structure>
</modeling>
