unknown system                          
   1.00000000000000     
     2.306700    0.000000    0.000000
    -1.153350    1.997661    0.000000
     0.000000    0.000000    3.896640
   Fe
     2
Direct
  0.000000  0.000000  0.000000
  0.333333  0.666667  0.500000
 
   20   20   32
 0.15049481997E+03 0.14276050418E+03 0.12191785948E+03 0.93805602614E+02 0.65023706004E+02
 0.40662419567E+02 0.23415098733E+02 0.13633264958E+02 0.96819589759E+01 0.86308165480E+01
 0.83256761633E+01 0.86309211030E+01 0.96820501565E+01 0.13633255994E+02 0.23415037091E+02
 0.40662414379E+02 0.65023784179E+02 0.93805684434E+02 0.12191787403E+03 0.14276047767E+03
 0.14276514892E+03 0.14276046341E+03 0.12851008466E+03 0.10420107477E+03 0.76119011016E+02
 0.50084547957E+02 0.29913954669E+02 0.17068963767E+02 0.10854483428E+02 0.88881102327E+01
 0.83073311753E+01 0.83070657674E+01 0.88878464536E+01 0.10854699437E+02 0.17068780386E+02
 0.29912471462E+02 0.50083449759E+02 0.76122118548E+02 0.10420992452E+03 0.12852049964E+03
 0.12192478135E+03 0.12847967646E+03 0.12191787152E+03 0.10420111544E+03 0.80218361505E+02
 0.55599308295E+02 0.34809223765E+02 0.20273070651E+02 0.12267930343E+02 0.91925250998E+01
 0.83122506227E+01 0.80239326907E+01 0.83116446218E+01 0.91925022411E+01 0.12268447001E+02
 0.20272239890E+02 0.34806302782E+02 0.55597217831E+02 0.80221227683E+02 0.10420886567E+03
 0.93802546296E+02 0.10411921766E+03 0.10412026820E+03 0.93805680291E+02 0.76118991683E+02
 0.55599272625E+02 0.36630059883E+02 0.22207691286E+02 0.13437377473E+02 0.95420294597E+01
 0.83317695989E+01 0.78161634321E+01 0.78158964236E+01 0.83315524206E+01 0.95426832317E+01
 0.13438448219E+02 0.22207480499E+02 0.36627334615E+02 0.55594625867E+02 0.76114309152E+02
 0.65013917993E+02 0.76006760652E+02 0.80064337445E+02 0.76014506823E+02 0.65023707258E+02
 0.50084478023E+02 0.34809251614E+02 0.22207720558E+02 0.13891206623E+02 0.97855129000E+01
 0.83524171064E+01 0.76908432491E+01 0.74594482338E+01 0.76908299785E+01 0.83524680742E+01
 0.97863510551E+01 0.13893605871E+02 0.22210618637E+02 0.34809261648E+02 0.50078778501E+02
 0.40661323111E+02 0.49999254226E+02 0.55445412061E+02 0.55447989815E+02 0.50003894309E+02
 0.40662384903E+02 0.29913965844E+02 0.20273130906E+02 0.13437343476E+02 0.97854899389E+01
 0.83616364090E+01 0.76351678916E+01 0.72557328013E+01 0.72559293295E+01 0.76350144537E+01
 0.83605674248E+01 0.97852597868E+01 0.13440495089E+02 0.20279061260E+02 0.29918233988E+02
 0.23421944410E+02 0.29894856594E+02 0.34737874336E+02 0.36531956481E+02 0.34734974655E+02
 0.29889162596E+02 0.23415069780E+02 0.17069000573E+02 0.12267909339E+02 0.95419794678E+01
 0.83524547208E+01 0.76351850977E+01 0.71909000911E+01 0.70452712610E+01 0.71913918525E+01
 0.76343337191E+01 0.83495092076E+01 0.95391345599E+01 0.12268447001E+02 0.17073862178E+02
 0.13633045973E+02 0.17102199339E+02 0.20304897102E+02 0.22223715314E+02 0.22220615147E+02
 0.20298144377E+02 0.17097146132E+02 0.13633250614E+02 0.10854505041E+02 0.91924879582E+01
 0.83317963887E+01 0.76908817739E+01 0.72556903018E+01 0.70452576044E+01 0.70458918160E+01
 0.72568105764E+01 0.76906199571E+01 0.83286243038E+01 0.91869821604E+01 0.10849818158E+02
 0.96746004916E+01 0.10905122827E+02 0.12360720717E+02 0.13549240612E+02 0.14006153894E+02
 0.13547209869E+02 0.12360707947E+02 0.10909945618E+02 0.96819948585E+01 0.88881125878E+01
 0.83122325493E+01 0.78161946394E+01 0.74594152712E+01 0.72559003231E+01 0.71914424369E+01
 0.72568240695E+01 0.74618647546E+01 0.78190345617E+01 0.83121869676E+01 0.88831751954E+01
 0.86306389750E+01 0.89444214224E+01 0.93028844546E+01 0.96947834988E+01 0.99611411675E+01
 0.99622143910E+01 0.96982970012E+01 0.93083780024E+01 0.89490624729E+01 0.86308512959E+01
 0.83072913663E+01 0.80239350580E+01 0.78159125114E+01 0.76908096672E+01 0.76350566920E+01
 0.76343587513E+01 0.76905611212E+01 0.78190194422E+01 0.80299449207E+01 0.83120191536E+01
 0.83325834825E+01 0.83737298965E+01 0.84318507894E+01 0.84968561747E+01 0.85505181962E+01
 0.85731873257E+01 0.85534055977E+01 0.84997510324E+01 0.84313742555E+01 0.83688605121E+01
 0.83256626913E+01 0.83070411027E+01 0.83116902035E+01 0.83315545030E+01 0.83524547208E+01
 0.83605770051E+01 0.83494582398E+01 0.83285995964E+01 0.83122506227E+01 0.83120342978E+01
 0.86305747438E+01 0.83737182607E+01 0.81507245460E+01 0.79924520841E+01 0.79046301905E+01
 0.78707970070E+01 0.78714518515E+01 0.79048026238E+01 0.79893361170E+01 0.81448110811E+01
 0.83691341807E+01 0.86308916196E+01 0.88878707835E+01 0.91925197412E+01 0.95426318058E+01
 0.97863394029E+01 0.97852710957E+01 0.95391331258E+01 0.91870368020E+01 0.88831971702E+01
 0.96745476853E+01 0.89444080340E+01 0.84319116951E+01 0.79924571101E+01 0.76807471833E+01
 0.75070778428E+01 0.74530427315E+01 0.75062458821E+01 0.76783630093E+01 0.79895779213E+01
 0.84318782269E+01 0.89493446009E+01 0.96820332328E+01 0.10854715062E+02 0.12268413311E+02
 0.13438434744E+02 0.13893661518E+02 0.13440515611E+02 0.12268434315E+02 0.10849812169E+02
 0.13633063295E+02 0.10905136874E+02 0.93029317478E+01 0.84968564000E+01 0.79045768447E+01
 0.75070808560E+01 0.73167671803E+01 0.73161819333E+01 0.75060442193E+01 0.79048427652E+01
 0.84999208309E+01 0.93082975373E+01 0.10909743956E+02 0.13633258972E+02 0.17068791702E+02
 0.20272241300E+02 0.22207518895E+02 0.22210627761E+02 0.20279002416E+02 0.17073836688E+02
 0.23422006052E+02 0.17102225457E+02 0.12360698765E+02 0.96947623243E+01 0.85504793553E+01
 0.78708110682E+01 0.74530845942E+01 0.73161718592E+01 0.74525387600E+01 0.78716037054E+01
 0.85534055977E+01 0.96976212151E+01 0.12360165601E+02 0.17097329769E+02 0.23415069780E+02
 0.29912480917E+02 0.34806292748E+02 0.36627315403E+02 0.34809223765E+02 0.29918232269E+02
 0.40661357643E+02 0.29894849034E+02 0.20304835462E+02 0.13549218554E+02 0.99611651574E+01
 0.85732122283E+01 0.78714793342E+01 0.75062205947E+01 0.75060159186E+01 0.78716171269E+01
 0.85742811141E+01 0.99614345948E+01 0.13546147945E+02 0.20298996280E+02 0.29890635054E+02
 0.40662414247E+02 0.50083416099E+02 0.55597196411E+02 0.55594640118E+02 0.50078814774E+02
 0.65013896549E+02 0.49999205051E+02 0.34737845114E+02 0.22223731982E+02 0.14006209598E+02
 0.99622270816E+01 0.85533814906E+01 0.79047785076E+01 0.76783490195E+01 0.79048719948E+01
 0.85534203315E+01 0.99614232955E+01 0.14003794105E+02 0.22220825168E+02 0.34737876790E+02
 0.50004985578E+02 0.65023763990E+02 0.76122129821E+02 0.80221263640E+02 0.76114339758E+02
 0.93802506415E+02 0.76006724816E+02 0.55445439873E+02 0.36532010969E+02 0.22220635783E+02
 0.13547184279E+02 0.96982521816E+01 0.84997509362E+01 0.79893609110E+01 0.79895976893E+01
 0.84999205095E+01 0.96975975699E+01 0.13546144413E+02 0.22220829136E+02 0.36534642146E+02
 0.55449994746E+02 0.76011410624E+02 0.93805722230E+02 0.10420994174E+03 0.10420884223E+03
 0.12192476680E+03 0.10411924918E+03 0.80064379027E+02 0.55448025036E+02 0.34734942978E+02
 0.20298092176E+02 0.12360698765E+02 0.93084114471E+01 0.84314077236E+01 0.81448013796E+01
 0.84318507894E+01 0.93082836887E+01 0.12360178371E+02 0.20299005718E+02 0.34737874336E+02
 0.55450002155E+02 0.80061378578E+02 0.10411144870E+03 0.12191787152E+03 0.12852043728E+03
 0.14276515607E+03 0.12847975329E+03 0.10412027865E+03 0.76014472903E+02 0.50003856939E+02
 0.29889135222E+02 0.17097179911E+02 0.10909990424E+02 0.89490599219E+01 0.83688245686E+01
 0.83691098730E+01 0.89493554382E+01 0.10909774715E+02 0.17097337429E+02 0.29890615240E+02
 0.50004997382E+02 0.76011412540E+02 0.10411142763E+03 0.12846929447E+03 0.14276044404E+03
 0.14186228752E+03 0.13458257030E+03 0.11494956272E+03 0.88438018117E+02 0.61277441211E+02
 0.38317804077E+02 0.22144126743E+02 0.13072163753E+02 0.94767051021E+01 0.85012619177E+01
 0.82034822657E+01 0.85013632440E+01 0.94767941346E+01 0.13072156120E+02 0.22144066723E+02
 0.38317796195E+02 0.61277512785E+02 0.88438094707E+02 0.11494957689E+03 0.13458254581E+03
 0.13458687829E+03 0.13458253037E+03 0.12115860164E+03 0.98237157423E+02 0.71734520212E+02
 0.47173192803E+02 0.28205260280E+02 0.16223920912E+02 0.10517376919E+02 0.87382010009E+01
 0.81738997252E+01 0.81736418914E+01 0.87379448116E+01 0.10517604748E+02 0.16223818313E+02
 0.28203949215E+02 0.47172197095E+02 0.71737388407E+02 0.98245347777E+02 0.12116825829E+03
 0.11495598619E+03 0.12113582728E+03 0.11494957424E+03 0.98237197044E+02 0.75598378189E+02
 0.52361609467E+02 0.32784329684E+02 0.19182651287E+02 0.11787130267E+02 0.90004540439E+01
 0.81707669979E+01 0.78910107038E+01 0.81701721887E+01 0.90004140012E+01 0.11787638110E+02
 0.19181935039E+02 0.32781650731E+02 0.52359658122E+02 0.75601008538E+02 0.98244373248E+02
 0.88435196796E+02 0.98175725826E+02 0.98176694373E+02 0.88438093766E+02 0.71734501458E+02
 0.52361574830E+02 0.34489681643E+02 0.20975161213E+02 0.12846201016E+02 0.93005636100E+01
 0.81849314342E+01 0.76854691500E+01 0.76852103076E+01 0.81847031261E+01 0.93011400199E+01
 0.12847167039E+02 0.20974939605E+02 0.34487129102E+02 0.52357249027E+02 0.71730158018E+02
 0.61268387748E+02 0.71654641092E+02 0.75488794831E+02 0.71661814367E+02 0.61277442609E+02
 0.47173124930E+02 0.32784356911E+02 0.20975189667E+02 0.13258726333E+02 0.95115572311E+01
 0.82024146703E+01 0.75620880373E+01 0.73396375531E+01 0.75620933762E+01 0.82024640581E+01
 0.95122974471E+01 0.13260892538E+02 0.20977837516E+02 0.32784366468E+02 0.47167864618E+02
 0.38316810136E+02 0.47125773452E+02 0.52269336017E+02 0.52271731728E+02 0.47130077147E+02
 0.38317770543E+02 0.28205271268E+02 0.19182709877E+02 0.12846167937E+02 0.95115349422E+01
 0.82101002895E+01 0.75073585297E+01 0.71431796591E+01 0.71433884324E+01 0.75072675743E+01
 0.82091353729E+01 0.95113113883E+01 0.12849078892E+02 0.19188228104E+02 0.28209267751E+02
 0.22150476022E+02 0.28222696577E+02 0.32779602833E+02 0.34469904641E+02 0.32776940400E+02
 0.28217440796E+02 0.22144098546E+02 0.16223956715E+02 0.11787109790E+02 0.93005150055E+01
 0.82024510441E+01 0.75073751196E+01 0.70808030443E+01 0.69415675651E+01 0.70812870445E+01
 0.75066216919E+01 0.81997483209E+01 0.92979019324E+01 0.11787638110E+02 0.16228490967E+02
 0.13071934202E+02 0.16289608644E+02 0.19277071455E+02 0.21072400492E+02 0.21069536428E+02
 0.19270838906E+02 0.16284959556E+02 0.13072149734E+02 0.10517397841E+02 0.90004177784E+01
 0.81849572983E+01 0.75621252943E+01 0.71431385044E+01 0.69415544071E+01 0.69421296594E+01
 0.71441525732E+01 0.75618714583E+01 0.81820271330E+01 0.89953289131E+01 0.10513050352E+02
 0.94698517288E+01 0.10597014821E+02 0.11936196911E+02 0.13034761713E+02 0.13458100438E+02
 0.13032865169E+02 0.11936184285E+02 0.10601512332E+02 0.94767398584E+01 0.87382030896E+01
 0.81707494688E+01 0.76854995841E+01 0.73396056596E+01 0.71433604224E+01 0.70813361506E+01
 0.71441657179E+01 0.73418201839E+01 0.76881082187E+01 0.81707052950E+01 0.87336123337E+01
 0.85010896141E+01 0.88211537792E+01 0.91624820288E+01 0.95251029415E+01 0.97703369948E+01
 0.97713083511E+01 0.95283127710E+01 0.91675456265E+01 0.88254579385E+01 0.85012957251E+01
 0.81738613315E+01 0.78910134162E+01 0.76852259542E+01 0.75620735824E+01 0.75073085731E+01
 0.75066461008E+01 0.75618144074E+01 0.76880934312E+01 0.78965913397E+01 0.81782479991E+01
 0.82098915652E+01 0.82653975436E+01 0.83394901238E+01 0.84191297357E+01 0.84829272548E+01
 0.85086499415E+01 0.84855778949E+01 0.84217774947E+01 0.83390214630E+01 0.82608717421E+01
 0.82034695810E+01 0.81736182709E+01 0.81702163625E+01 0.81847048111E+01 0.82024510441E+01
 0.82091448000E+01 0.81996989332E+01 0.81820029538E+01 0.81707669979E+01 0.81782627723E+01
 0.85010271385E+01 0.82653861600E+01 0.80658038046E+01 0.79292385042E+01 0.78577554007E+01
 0.78325297988E+01 0.78331502716E+01 0.78579394771E+01 0.79263592606E+01 0.80603159078E+01
 0.82611370906E+01 0.85013345759E+01 0.87379683104E+01 0.90004306396E+01 0.93010899610E+01
 0.95122862218E+01 0.95113224520E+01 0.92979004780E+01 0.89953818170E+01 0.87336337439E+01
 0.94698003926E+01 0.88211406812E+01 0.83395495403E+01 0.79292435197E+01 0.76423700669E+01
 0.74848756017E+01 0.74364107518E+01 0.74841555214E+01 0.76402141266E+01 0.79265940398E+01
 0.83395168731E+01 0.88257315683E+01 0.94767775547E+01 0.10517619759E+02 0.11787605200E+02
 0.12847153996E+02 0.13260946660E+02 0.12849098927E+02 0.11787625678E+02 0.10513044441E+02
 0.13071951115E+02 0.10597028559E+02 0.91625281885E+01 0.84191301780E+01 0.78577034208E+01
 0.74848784754E+01 0.73077876616E+01 0.73072582131E+01 0.74839428828E+01 0.78579616176E+01
 0.84219595641E+01 0.91674846353E+01 0.10601299693E+02 0.13072159014E+02 0.16223829177E+02
 0.19181936457E+02 0.20974977029E+02 0.20977846486E+02 0.19188170931E+02 0.16228466028E+02
 0.22150536042E+02 0.16289634231E+02 0.11936175541E+02 0.95250824047E+01 0.84828894055E+01
 0.78325433607E+01 0.74364514763E+01 0.73072483230E+01 0.74359153418E+01 0.78332421924E+01
 0.84855778949E+01 0.95277124412E+01 0.11935651178E+02 0.16285064338E+02 0.22144098546E+02
 0.28203958509E+02 0.32781641173E+02 0.34487110432E+02 0.32784329684E+02 0.28209266058E+02
 0.38316843743E+02 0.28222689298E+02 0.19277011355E+02 0.13034740092E+02 0.97703603425E+01
 0.85086740763E+01 0.78331769948E+01 0.74841307800E+01 0.74839152676E+01 0.78332553538E+01
 0.85096408448E+01 0.97706216470E+01 0.13031904835E+02 0.19271577322E+02 0.28218741307E+02
 0.38317796267E+02 0.47172164596E+02 0.52359637253E+02 0.52357262795E+02 0.47167899991E+02
 0.61268366865E+02 0.47125725554E+02 0.32779574350E+02 0.21072416511E+02 0.13458154627E+02
 0.97713206766E+01 0.84855544515E+01 0.78579160595E+01 0.76402004310E+01 0.78579901799E+01
 0.84855923008E+01 0.97706106247E+01 0.13455968499E+02 0.21069758346E+02 0.32779605446E+02
 0.47131063206E+02 0.61277493300E+02 0.71737399369E+02 0.75601043235E+02 0.71730187734E+02
 0.88435157967E+02 0.71654606283E+02 0.52269363235E+02 0.34469957597E+02 0.21069556360E+02
 0.13032840276E+02 0.95282692551E+01 0.84217776898E+01 0.79263833692E+01 0.79266131328E+01
 0.84219593169E+01 0.95276894621E+01 0.13031901563E+02 0.21069762260E+02 0.34472424615E+02
 0.52273605820E+02 0.71658954217E+02 0.88438131526E+02 0.98245364201E+02 0.98244350051E+02
 0.11495597202E+03 0.98175756866E+02 0.75488835623E+02 0.52271766044E+02 0.32776909304E+02
 0.19270788061E+02 0.11936175541E+02 0.91675785102E+01 0.83390541302E+01 0.80603060652E+01
 0.83394901238E+01 0.91674713592E+01 0.11935663804E+02 0.19271586576E+02 0.32779602833E+02
 0.52273612919E+02 0.75486079093E+02 0.98168533501E+02 0.11494957424E+03 0.12116819707E+03
 0.13458688524E+03 0.12113590257E+03 0.98176704884E+02 0.71661781376E+02 0.47130040496E+02
 0.28217414022E+02 0.16284992589E+02 0.10601556140E+02 0.88254556235E+01 0.82608364386E+01
 0.82611131707E+01 0.88257423514E+01 0.10601329763E+02 0.16285071784E+02 0.28218721811E+02
 0.47131074453E+02 0.71658956034E+02 0.98168512972E+02 0.12112620533E+03 0.13458251283E+03
 0.11886819133E+03 0.11278432443E+03 0.96344822215E+02 0.74088557124E+02 0.51276409196E+02
 0.32103583515E+02 0.18830942452E+02 0.11650503543E+02 0.89606581104E+01 0.81486055829E+01
 0.78733760871E+01 0.81486978910E+01 0.89607408237E+01 0.11650499116E+02 0.18830887051E+02
 0.32103569388E+02 0.51276464262E+02 0.74088620357E+02 0.96344835294E+02 0.11278430506E+03
 0.11278773982E+03 0.11278428699E+03 0.10154004099E+03 0.82297825273E+02 0.60017151565E+02
 0.39426601622E+02 0.23712836038E+02 0.14052585317E+02 0.96747622752E+01 0.83372347550E+01
 0.78149061023E+01 0.78146711219E+01 0.83370014039E+01 0.96750147928E+01 0.14052680554E+02
 0.23711965580E+02 0.39425871924E+02 0.60019388815E+02 0.82304272530E+02 0.10154768893E+03
 0.96349924055E+02 0.10153799950E+03 0.96344832353E+02 0.82297861918E+02 0.63249063820E+02
 0.43733376985E+02 0.27437400480E+02 0.16356159612E+02 0.10574914265E+02 0.85096873366E+01
 0.77886163230E+01 0.75341961383E+01 0.77880586730E+01 0.85096059272E+01 0.10575391810E+02
 0.16355733887E+02 0.27435355540E+02 0.43731796867E+02 0.63251075402E+02 0.82303519479E+02
 0.74086355808E+02 0.82291485490E+02 0.82292238138E+02 0.74088627038E+02 0.60017134385E+02
 0.43733345232E+02 0.28830375273E+02 0.17767328722E+02 0.11345420777E+02 0.86920473238E+01
 0.77855783986E+01 0.73332973325E+01 0.73330628035E+01 0.77853270542E+01 0.86924259787E+01
 0.11346115876E+02 0.17767084705E+02 0.28828286297E+02 0.43729873606E+02 0.60013689507E+02
 0.51269296883E+02 0.60023846983E+02 0.63258511917E+02 0.60029504290E+02 0.51276410881E+02
 0.39426539477E+02 0.27437425879E+02 0.17767354836E+02 0.11649263069E+02 0.88228444027E+01
 0.77921965234E+01 0.72131733575E+01 0.70157921484E+01 0.72132238510E+01 0.77922414242E+01
 0.88233343052E+01 0.11650826119E+02 0.17769349254E+02 0.27437434158E+02 0.39422437166E+02
 0.32102855673E+02 0.39479395289E+02 0.43804587615E+02 0.43806499614E+02 0.39482807271E+02
 0.32103553058E+02 0.23712846419E+02 0.16356213439E+02 0.11345390350E+02 0.88228240659E+01
 0.77960952094E+01 0.71596820964E+01 0.68376135680E+01 0.68378483125E+01 0.71597441751E+01
 0.77953996440E+01 0.88226205906E+01 0.11347666710E+02 0.16360635412E+02 0.23716114053E+02
 0.18835975812E+02 0.23825573469E+02 0.27607169446E+02 0.29016016132E+02 0.27605129628E+02
 0.23821473345E+02 0.18830916352E+02 0.14052618289E+02 0.10574895375E+02 0.86920027580E+01
 0.77922294326E+01 0.71596969413E+01 0.67813245447E+01 0.66592574302E+01 0.67817811416E+01
 0.71591941320E+01 0.77901628069E+01 0.86899977578E+01 0.10575391810E+02 0.14056278984E+02
 0.11650252240E+02 0.14201450290E+02 0.16611785500E+02 0.18074229192E+02 0.18071988302E+02
 0.16606924505E+02 0.14197863346E+02 0.11650490560E+02 0.96747813308E+01 0.85096536474E+01
 0.77856016788E+01 0.72132070071E+01 0.68375762134E+01 0.66592456646E+01 0.66596679775E+01
 0.68383151511E+01 0.72129769751E+01 0.77833093807E+01 0.85056649932E+01 0.96713331587E+01
 0.89551506191E+01 0.98274103024E+01 0.10866097809E+02 0.11728036126E+02 0.12062394947E+02
 0.11726498415E+02 0.10866085673E+02 0.98310396451E+01 0.89606897496E+01 0.83372360997E+01
 0.77886003082E+01 0.73333255105E+01 0.70157632612E+01 0.68378230893E+01 0.67818259880E+01
 0.68383272825E+01 0.70173693225E+01 0.73353273529E+01 0.77885601162E+01 0.83335666456E+01
 0.81484495500E+01 0.84862199982E+01 0.87997444089E+01 0.90942740170E+01 0.92872892434E+01
 0.92879963461E+01 0.90966906501E+01 0.88036759438E+01 0.84896311522E+01 0.81486366463E+01
 0.78148715898E+01 0.75341997022E+01 0.73330771695E+01 0.72132055420E+01 0.71597816109E+01
 0.71592167228E+01 0.72129250165E+01 0.73353135409E+01 0.75386322892E+01 0.78183542212E+01
 0.78784648485E+01 0.79677033670E+01 0.80769766226E+01 0.81873550050E+01 0.82717858908E+01
 0.83044589951E+01 0.82738152738E+01 0.81893566193E+01 0.80765354858E+01 0.79640907544E+01
 0.78733654397E+01 0.78146503394E+01 0.77880988649E+01 0.77853277123E+01 0.77922294326E+01
 0.77954085854E+01 0.77901179060E+01 0.77832867586E+01 0.77886163230E+01 0.78183679512E+01
 0.81483920768E+01 0.79676926861E+01 0.78249199401E+01 0.77381073796E+01 0.77022488991E+01
 0.76950864719E+01 0.76956125587E+01 0.77024578280E+01 0.77358530465E+01 0.78205611610E+01
 0.79643313510E+01 0.81486714812E+01 0.83370225937E+01 0.85096202776E+01 0.86923799355E+01
 0.88233242744E+01 0.88226308966E+01 0.86899962804E+01 0.85057130328E+01 0.83335864907E+01
 0.89551034660E+01 0.84862076743E+01 0.80770317292E+01 0.77381123276E+01 0.75091762081E+01
 0.73879393386E+01 0.73516718238E+01 0.73875037467E+01 0.75076121490E+01 0.77360665526E+01
 0.80770013688E+01 0.84898794932E+01 0.89607253098E+01 0.96750282067E+01 0.10575361258E+02
 0.11346104064E+02 0.11650875803E+02 0.11347685326E+02 0.10575380148E+02 0.96713275169E+01
 0.11650267970E+02 0.98274231204E+01 0.87997872584E+01 0.81873559980E+01 0.77022008106E+01
 0.73879418553E+01 0.72413491389E+01 0.72409645562E+01 0.73872681735E+01 0.77024357609E+01
 0.81895651019E+01 0.88036631760E+01 0.98308040719E+01 0.11650501863E+02 0.14052690190E+02
 0.16355735297E+02 0.17767119263E+02 0.17769357699E+02 0.16360582995E+02 0.14056255648E+02
 0.18836031213E+02 0.14201474345E+02 0.10866078053E+02 0.90942552604E+01 0.82717508754E+01
 0.76950986963E+01 0.73517093758E+01 0.72409552088E+01 0.73512059408E+01 0.76955574096E+01
 0.82738152738E+01 0.90962839522E+01 0.10865584230E+02 0.14197774827E+02 0.18830916352E+02
 0.23711974347E+02 0.27435347261E+02 0.28828269080E+02 0.27437400480E+02 0.23716112439E+02
 0.32102886669E+02 0.23825566996E+02 0.16611729807E+02 0.11728015780E+02 0.92873108017E+01
 0.83044810125E+01 0.76956371852E+01 0.73874805827E+01 0.73872424929E+01 0.76955698116E+01
 0.83051829315E+01 0.92875478413E+01 0.11725801569E+02 0.16607374475E+02 0.23822333862E+02
 0.32103569926E+02 0.39425842631E+02 0.43731777528E+02 0.43729886021E+02 0.39422470018E+02
 0.51269277617E+02 0.39479351012E+02 0.27607143085E+02 0.18074243430E+02 0.12062444874E+02
 0.92880076475E+01 0.82737936931E+01 0.77024363838E+01 0.75075992734E+01 0.77024624051E+01
 0.82738287086E+01 0.92875375845E+01 0.12060853573E+02 0.18072235177E+02 0.27607172446E+02
 0.39483520985E+02 0.51276446680E+02 0.60019398935E+02 0.63251106638E+02 0.60013716807E+02
 0.74086319995E+02 0.60023815001E+02 0.43804613083E+02 0.29016064773E+02 0.18072006300E+02
 0.11726475496E+02 0.90966507468E+01 0.81893575544E+01 0.77358751981E+01 0.77360837561E+01
 0.81895650440E+01 0.90962628055E+01 0.11725798997E+02 0.18072238938E+02 0.29018089590E+02
 0.43808023029E+02 0.60027267161E+02 0.74088654458E+02 0.82304286857E+02 0.82303497161E+02
 0.96349910976E+02 0.82291514994E+02 0.63258550293E+02 0.43806531359E+02 0.27605100267E+02
 0.16606877556E+02 0.10866078053E+02 0.88037070899E+01 0.80765658461E+01 0.78205510294E+01
 0.80769766226E+01 0.88036514725E+01 0.10865596366E+02 0.16607383219E+02 0.27607169446E+02
 0.43808029305E+02 0.63256433300E+02 0.82285818184E+02 0.96344832353E+02 0.10154763115E+03
 0.11278774621E+03 0.10153807022E+03 0.82292248622E+02 0.60029473908E+02 0.39482772789E+02
 0.23821448373E+02 0.14197894211E+02 0.98310804707E+01 0.84896294514E+01 0.79640574029E+01
 0.79643086805E+01 0.84898901163E+01 0.98308320795E+01 0.14197781637E+02 0.23822315363E+02
 0.39483530781E+02 0.60027268760E+02 0.82285799164E+02 0.10153038992E+03 0.11278427401E+03
 0.88573763302E+02 0.84037866405E+02 0.71760841740E+02 0.55121979478E+02 0.38136976093E+02
 0.24088915216E+02 0.14718272245E+02 0.99893397504E+01 0.83398282407E+01 0.76663709757E+01
 0.74287073384E+01 0.76664487987E+01 0.83398990271E+01 0.99893373288E+01 0.14718223782E+02
 0.24088896452E+02 0.38137013480E+02 0.55122027305E+02 0.71760853180E+02 0.84037852753E+02
 0.84040127570E+02 0.84037832894E+02 0.75629798918E+02 0.61222970385E+02 0.44569992789E+02
 0.29339931588E+02 0.18027428801E+02 0.11440877214E+02 0.87054020336E+01 0.77863379380E+01
 0.73328592928E+01 0.73326614317E+01 0.77861411443E+01 0.87056670007E+01 0.11441181825E+02
 0.18027083762E+02 0.29339530201E+02 0.44571424302E+02 0.61227177155E+02 0.75634853212E+02
 0.71764233141E+02 0.75655087171E+02 0.71760850219E+02 0.61223002609E+02 0.46955025970E+02
 0.32454815923E+02 0.20603114384E+02 0.12891719902E+02 0.91685922987E+01 0.78882464513E+01
 0.72713130269E+01 0.70566695795E+01 0.72708257870E+01 0.78881248565E+01 0.91690119025E+01
 0.12891632956E+02 0.20601867378E+02 0.32453722205E+02 0.46956255070E+02 0.61226704616E+02
 0.55120571825E+02 0.61288547416E+02 0.61289024859E+02 0.55122040879E+02 0.44569977749E+02
 0.32454788346E+02 0.21574924406E+02 0.13800665212E+02 0.95837336821E+01 0.79616826266E+01
 0.72384772382E+01 0.68587786256E+01 0.68585838643E+01 0.72382161547E+01 0.79618278329E+01
 0.95840978216E+01 0.13800409434E+02 0.21573450134E+02 0.32452430330E+02 0.44567694005E+02
 0.38132357413E+02 0.44688303109E+02 0.47118250017E+02 0.44692007273E+02 0.38136977894E+02
 0.29339877688E+02 0.20603136910E+02 0.13800687794E+02 0.97516019187E+01 0.80091127697E+01
 0.72247299913E+01 0.67383925440E+01 0.65770146964E+01 0.67384896410E+01 0.72247682206E+01
 0.80093051161E+01 0.97524259928E+01 0.13801864915E+02 0.20603143486E+02 0.29337255384E+02
 0.24088515895E+02 0.29519948201E+02 0.32734351347E+02 0.32735634567E+02 0.29522206931E+02
 0.24088888981E+02 0.18027438073E+02 0.12891766558E+02 0.95837072873E+01 0.80090954560E+01
 0.72213325313E+01 0.66834526720E+01 0.64202677106E+01 0.64205169748E+01 0.66836753639E+01
 0.72209652744E+01 0.80089245591E+01 0.95851727450E+01 0.12894760868E+02 0.18029739136E+02
 0.14721603742E+02 0.18258986687E+02 0.20991571620E+02 0.22018457047E+02 0.20990319530E+02
 0.18256364524E+02 0.14718249200E+02 0.11440905996E+02 0.91685759666E+01 0.79616443525E+01
 0.72247578853E+01 0.66834649441E+01 0.63708375040E+01 0.62715899948E+01 0.63712382897E+01
 0.66832593990E+01 0.72234921134E+01 0.79604077604E+01 0.91690119025E+01 0.11443421234E+02
 0.99890775018E+01 0.11691704626E+02 0.13345825523E+02 0.14366363851E+02 0.14364921412E+02
 0.13342717994E+02 0.11689466136E+02 0.99893285315E+01 0.87054185934E+01 0.78882168359E+01
 0.72384967878E+01 0.67384208206E+01 0.64202359605E+01 0.62715802495E+01 0.62718144139E+01
 0.64206377047E+01 0.67382298140E+01 0.72370205013E+01 0.78856373284E+01 0.87031323570E+01
 0.83360799453E+01 0.89466125318E+01 0.96321993993E+01 0.10201958670E+02 0.10424379647E+02
 0.10200893619E+02 0.96321882256E+01 0.89491029432E+01 0.83398554825E+01 0.77863382092E+01
 0.72712991984E+01 0.68588032753E+01 0.65769902013E+01 0.64204957875E+01 0.63712766256E+01
 0.64206482676E+01 0.65778516820E+01 0.68600393447E+01 0.72712649085E+01 0.77838663276E+01
 0.76662417594E+01 0.80148185078E+01 0.83321362573E+01 0.85767477967E+01 0.87194794069E+01
 0.87198608010E+01 0.85781712378E+01 0.83346247914E+01 0.80170748751E+01 0.76663977705E+01
 0.73328301977E+01 0.70566740555E+01 0.68585962360E+01 0.67384736084E+01 0.66837073913E+01
 0.66832791543E+01 0.67381855047E+01 0.68600270667E+01 0.70596239739E+01 0.73351432877E+01
 0.74320872987E+01 0.75583846567E+01 0.77012420916E+01 0.78376802815E+01 0.79379616458E+01
 0.79755507111E+01 0.79392052308E+01 0.78388706719E+01 0.77008544916E+01 0.75559591757E+01
 0.74286992140E+01 0.73326445466E+01 0.72708600769E+01 0.72382155725E+01 0.72247578853E+01
 0.72209733625E+01 0.72234538841E+01 0.72370003695E+01 0.72713130269E+01 0.73351554977E+01
 0.76661917785E+01 0.75583749912E+01 0.74834530817E+01 0.74503308451E+01 0.74493213585E+01
 0.74584154907E+01 0.74588105231E+01 0.74495459538E+01 0.74488774571E+01 0.74805567968E+01
 0.75561597611E+01 0.76664256127E+01 0.77861590121E+01 0.78881362060E+01 0.79617881418E+01
 0.80092968159E+01 0.80089335726E+01 0.79604063433E+01 0.78856782933E+01 0.77838839242E+01
 0.83360390391E+01 0.80148072579E+01 0.77012905853E+01 0.74503355927E+01 0.72870616816E+01
 0.72040682421E+01 0.71800995478E+01 0.72039671757E+01 0.72862271083E+01 0.74490566542E+01
 0.77012637329E+01 0.80172819144E+01 0.83398853628E+01 0.87056784205E+01 0.91689852078E+01
 0.95840878443E+01 0.97524687847E+01 0.95851891625E+01 0.91690015399E+01 0.87031272169E+01
 0.99890914282E+01 0.89466238646E+01 0.83321739576E+01 0.78376818968E+01 0.74492790717E+01
 0.72040703280E+01 0.70916440236E+01 0.70914382629E+01 0.72037188535E+01 0.74494768288E+01
 0.78390976059E+01 0.83346660743E+01 0.89488546210E+01 0.99893400363E+01 0.11441189726E+02
 0.12891634323E+02 0.13800439472E+02 0.13801872371E+02 0.12894715579E+02 0.11443400353E+02
 0.14721652205E+02 0.11691726322E+02 0.96321819904E+01 0.85767315966E+01 0.79379308964E+01
 0.74584259196E+01 0.71801325531E+01 0.70914297491E+01 0.71796903066E+01 0.74585972783E+01
 0.79392052308E+01 0.85779982462E+01 0.96317491040E+01 0.11689172262E+02 0.14718249200E+02
 0.18027091564E+02 0.20601860803E+02 0.21573434878E+02 0.20603114384E+02 0.18029737665E+02
 0.24088543008E+02 0.18258981423E+02 0.13345776484E+02 0.10201940318E+02 0.87194983770E+01
 0.79755697207E+01 0.74588321758E+01 0.72039464417E+01 0.72036960337E+01 0.74586085020E+01
 0.79759443078E+01 0.87196956319E+01 0.10200521411E+02 0.13342830376E+02 0.18256701325E+02
 0.24088897330E+02 0.29339505480E+02 0.32453705074E+02 0.32452440776E+02 0.29337284563E+02
 0.38132340642E+02 0.29519909285E+02 0.20991548492E+02 0.14366375606E+02 0.10424423366E+02
 0.87198705854E+01 0.79391863868E+01 0.74495273939E+01 0.72862154325E+01 0.74495005556E+01
 0.79392171362E+01 0.87196864462E+01 0.10423563279E+02 0.14365181240E+02 0.20991575021E+02
 0.29522587488E+02 0.38136998511E+02 0.44571433229E+02 0.46956281460E+02 0.44567717972E+02
 0.55120540580E+02 0.44688275105E+02 0.32734374041E+02 0.22018499370E+02 0.14364936708E+02
 0.10200873628E+02 0.85781364471E+01 0.78388724728E+01 0.74488966945E+01 0.74490711440E+01
 0.78390977915E+01 0.85779796556E+01 0.10200519772E+02 0.14365184780E+02 0.22019931353E+02
 0.32736692908E+02 0.44690568375E+02 0.55122057462E+02 0.61227188862E+02 0.61226684100E+02
 0.71764221700E+02 0.61288574131E+02 0.47118284342E+02 0.32735662470E+02 0.20990293001E+02
 0.13342676949E+02 0.96321819904E+01 0.83346529624E+01 0.77008813440E+01 0.74805465576E+01
 0.77012420916E+01 0.83346565451E+01 0.96317602778E+01 0.13342838369E+02 0.20991571620E+02
 0.32736698117E+02 0.47116973910E+02 0.61284842052E+02 0.71760850219E+02 0.75634801061E+02
 0.84040133118E+02 0.75655150529E+02 0.61289034745E+02 0.44691980716E+02 0.29522175998E+02
 0.18256342501E+02 0.11689493657E+02 0.89491388998E+01 0.80170739709E+01 0.75559290811E+01
 0.75561393319E+01 0.80172922600E+01 0.89488792448E+01 0.11689178086E+02 0.18256684566E+02
 0.29522595471E+02 0.44690569822E+02 0.61284825222E+02 0.75650073103E+02 0.84037824790E+02
 0.58657613561E+02 0.55642294378E+02 0.47489872226E+02 0.36499915901E+02 0.25457930681E+02
 0.16646831194E+02 0.11160153397E+02 0.86723579251E+01 0.77248009705E+01 0.71682743147E+01
 0.69794204375E+01 0.71683313112E+01 0.77248511420E+01 0.86723520661E+01 0.11160113228E+02
 0.16646814950E+02 0.25457958545E+02 0.36499952694E+02 0.47489881709E+02 0.55642284556E+02
 0.55643470887E+02 0.55642265866E+02 0.50040226282E+02 0.40474137578E+02 0.29537473923E+02
 0.19795827597E+02 0.12934272985E+02 0.92946741917E+01 0.78994265315E+01 0.72054892254E+01