   2   2   0   0
  0.8977867E+01  0.2306700E-09  0.2306700E-09  0.3896640E-09  0.5000000E-15
  1.000000000000000E-004
  CAR 
 unknown system                          
     77.75828301     -4.97242433  301      8.39517650      1.00000000
     -4.972  0.0000E+00  0.0000E+00
     -4.697  0.0000E+00  0.0000E+00
     -4.421  0.0000E+00  0.0000E+00
     -4.145  0.0000E+00  0.0000E+00
     -3.869  0.0000E+00  0.0000E+00
     -3.594  0.0000E+00  0.0000E+00
     -3.318  0.0000E+00  0.0000E+00
     -3.042 -0.6079E-38 -0.1676E-38
     -2.766 -0.7028E-28 -0.1938E-28
     -2.491 -0.1759E-19 -0.4852E-20
     -2.215 -0.9084E-13 -0.2505E-13
     -1.939 -0.1002E-07 -0.2763E-08
     -1.663 -0.2180E-04 -0.6014E-05
     -1.387 -0.4089E-03 -0.1188E-03
     -1.112  0.8282E-02  0.2165E-02
     -0.836  0.4689E-01  0.1509E-01
     -0.560  0.8881E-01  0.3959E-01
     -0.284  0.5854E-01  0.5573E-01
     -0.009  0.1306E+00  0.9174E-01
      0.267  0.1714E+00  0.1390E+00
      0.543  0.1569E+00  0.1823E+00
      0.819  0.9853E-01  0.2094E+00
      1.094  0.1936E+00  0.2628E+00
      1.370  0.3212E+00  0.3514E+00
      1.646  0.2501E+00  0.4204E+00
      1.922  0.2957E+00  0.5019E+00
      2.198  0.2132E+00  0.5607E+00
      2.473  0.5230E+00  0.7049E+00
      2.749  0.1269E+01  0.1055E+01
      3.025  0.1624E+01  0.1503E+01
      3.301  0.1862E+01  0.2016E+01
      3.576  0.2767E+01  0.2779E+01
      3.852  0.2285E+01  0.3409E+01
      4.128  0.2413E+01  0.4075E+01
      4.404  0.1889E+01  0.4596E+01
      4.679  0.2823E+01  0.5374E+01
      4.955  0.2658E+01  0.6107E+01
      5.231  0.2700E+01  0.6852E+01
      5.507  0.2174E+01  0.7451E+01
      5.783  0.1712E+01  0.7923E+01
      6.058  0.2958E+01  0.8739E+01
      6.334  0.3459E+01  0.9693E+01
      6.610  0.3404E+01  0.1063E+02
      6.886  0.3492E+01  0.1159E+02
      7.161  0.3991E+01  0.1270E+02
      7.437  0.3244E+01  0.1359E+02
      7.713  0.2439E+01  0.1426E+02
      7.989  0.2341E+01  0.1491E+02
      8.264  0.2766E+01  0.1567E+02
      8.540  0.2202E+01  0.1628E+02
      8.816  0.1912E+01  0.1681E+02
      9.092  0.3660E+01  0.1781E+02
      9.368  0.4463E+01  0.1905E+02
      9.643  0.4673E+01  0.2033E+02
      9.919  0.2889E+01  0.2113E+02
     10.195  0.3856E+00  0.2124E+02
     10.471  0.7386E-01  0.2126E+02
     10.746  0.7190E+00  0.2146E+02
     11.022  0.9378E+00  0.2171E+02
     11.298  0.5436E+00  0.2186E+02
     11.574  0.2056E+00  0.2192E+02
     11.849  0.7139E+00  0.2212E+02
     12.125  0.4056E+00  0.2223E+02
     12.401  0.2029E+00  0.2229E+02
     12.677  0.3321E+00  0.2238E+02
     12.953  0.8634E+00  0.2262E+02
     13.228  0.4911E+00  0.2275E+02
     13.504  0.3360E+00  0.2284E+02
     13.780  0.1720E+00  0.2289E+02
     14.056  0.4302E+00  0.2301E+02
     14.331  0.3797E+00  0.2311E+02
     14.607  0.5359E+00  0.2326E+02
     14.883  0.2125E+00  0.2332E+02
     15.159  0.3062E+00  0.2340E+02
     15.434  0.2073E+00  0.2346E+02
     15.710  0.4183E+00  0.2358E+02
     15.986  0.4266E+00  0.2369E+02
     16.262  0.5396E+00  0.2384E+02
     16.538  0.8479E-01  0.2387E+02
     16.813  0.7614E-01  0.2389E+02
     17.089  0.1187E+00  0.2392E+02
     17.365  0.1199E+00  0.2395E+02
     17.641  0.6746E-01  0.2397E+02
     17.916  0.2170E+00  0.2403E+02
     18.192  0.2446E+00  0.2410E+02
     18.468  0.3929E+00  0.2421E+02
     18.744  0.3488E+00  0.2430E+02
     19.019  0.2557E+00  0.2437E+02
     19.295  0.6890E+00  0.2456E+02
     19.571  0.9583E+00  0.2483E+02
     19.847  0.7172E+00  0.2503E+02
     20.123  0.6870E+00  0.2522E+02
     20.398  0.3085E+00  0.2530E+02
     20.674  0.7041E+00  0.2550E+02
     20.950  0.5548E+00  0.2565E+02
     21.226  0.8728E+00  0.2589E+02
     21.501  0.7334E+00  0.2609E+02
     21.777  0.4891E+00  0.2623E+02
     22.053  0.6468E+00  0.2640E+02
     22.329  0.8271E+00  0.2663E+02
     22.604  0.7045E+00  0.2683E+02
     22.880  0.5689E+00  0.2698E+02
     23.156  0.7248E+00  0.2718E+02
     23.432  0.6300E+00  0.2736E+02
     23.708  0.6020E+00  0.2752E+02
     23.983  0.6050E+00  0.2769E+02
     24.259  0.3277E+00  0.2778E+02
     24.535  0.6308E+00  0.2795E+02
     24.811  0.4798E+00  0.2809E+02
     25.086  0.6907E+00  0.2828E+02
     25.362  0.7189E+00  0.2848E+02
     25.638  0.4227E+00  0.2859E+02
     25.914  0.7936E+00  0.2881E+02
     26.189  0.9444E+00  0.2907E+02
     26.465  0.8035E+00  0.2929E+02
     26.741  0.6697E+00  0.2948E+02
     27.017  0.9948E+00  0.2975E+02
     27.293  0.5738E+00  0.2991E+02
     27.568  0.8678E+00  0.3015E+02
     27.844  0.9086E+00  0.3040E+02
     28.120  0.8748E+00  0.3064E+02
     28.396  0.6275E+00  0.3081E+02
     28.671  0.9715E+00  0.3108E+02
     28.947  0.1072E+01  0.3138E+02
     29.223  0.8501E+00  0.3161E+02
     29.499  0.8694E+00  0.3185E+02
     29.774  0.8639E+00  0.3209E+02
     30.050  0.4430E+00  0.3221E+02
     30.326  0.1033E+01  0.3250E+02
     30.602  0.8314E+00  0.3273E+02
     30.878  0.9801E+00  0.3300E+02
     31.153  0.9251E+00  0.3325E+02
     31.429  0.8406E+00  0.3348E+02
     31.705  0.7680E+00  0.3370E+02
     31.981  0.1070E+01  0.3399E+02
     32.256  0.7228E+00  0.3419E+02
     32.532  0.3317E+00  0.3428E+02
     32.808  0.5274E+00  0.3443E+02
     33.084  0.1010E+01  0.3471E+02
     33.359  0.8824E+00  0.3495E+02
     33.635  0.6985E+00  0.3514E+02
     33.911  0.6072E+00  0.3531E+02
     34.187  0.6967E+00  0.3550E+02
     34.463  0.7563E+00  0.3571E+02
     34.738  0.7045E+00  0.3590E+02
     35.014  0.4906E+00  0.3604E+02
     35.290  0.5807E+00  0.3620E+02
     35.566  0.3030E+00  0.3628E+02
     35.841  0.7448E+00  0.3649E+02
     36.117  0.1033E+01  0.3677E+02
     36.393  0.6400E+00  0.3695E+02
     36.669  0.9898E+00  0.3722E+02
     36.944  0.1157E+01  0.3754E+02
     37.220  0.5124E+00  0.3768E+02
     37.496  0.6626E+00  0.3787E+02
     37.772  0.7806E+00  0.3808E+02
     38.048  0.8942E+00  0.3833E+02
     38.323  0.1197E+01  0.3866E+02
     38.599  0.8402E+00  0.3889E+02
     38.875  0.6182E+00  0.3906E+02
     39.151  0.7214E+00  0.3926E+02
     39.426  0.8418E+00  0.3949E+02
     39.702  0.9354E+00  0.3975E+02
     39.978  0.8076E+00  0.3997E+02
     40.254  0.7608E+00  0.4018E+02
     40.529  0.5374E+00  0.4033E+02
     40.805  0.1019E+01  0.4061E+02
     41.081  0.8841E+00  0.4085E+02
     41.357  0.6543E+00  0.4104E+02
     41.633  0.6637E+00  0.4122E+02
     41.908  0.7764E+00  0.4143E+02
     42.184  0.8344E+00  0.4166E+02
     42.460  0.9822E+00  0.4193E+02
     42.736  0.9670E+00  0.4220E+02
     43.011  0.9795E+00  0.4247E+02
     43.287  0.6077E+00  0.4264E+02
     43.563  0.7972E+00  0.4286E+02
     43.839  0.9036E+00  0.4311E+02
     44.114  0.1202E+01  0.4344E+02
     44.390  0.4889E+00  0.4357E+02
     44.666  0.6488E+00  0.4375E+02
     44.942  0.6167E+00  0.4392E+02
     45.218  0.7753E+00  0.4414E+02
     45.493  0.8323E+00  0.4437E+02
     45.769  0.6442E+00  0.4454E+02
     46.045  0.9953E+00  0.4482E+02
     46.321  0.1117E+01  0.4513E+02
     46.596  0.1320E+01  0.4549E+02
     46.872  0.1202E+01  0.4582E+02
     47.148  0.7503E+00  0.4603E+02
     47.424  0.9118E+00  0.4628E+02
     47.699  0.8492E+00  0.4651E+02
     47.975  0.1130E+01  0.4682E+02
     48.251  0.1141E+01  0.4714E+02
     48.527  0.8352E+00  0.4737E+02
     48.803  0.1122E+01  0.4768E+02
     49.078  0.1112E+01  0.4799E+02
     49.354  0.1100E+01  0.4829E+02
     49.630  0.1010E+01  0.4857E+02
     49.906  0.6850E+00  0.4876E+02
     50.181  0.6771E+00  0.4894E+02
     50.457  0.6588E+00  0.4913E+02
     50.733  0.7237E+00  0.4932E+02
     51.009  0.1114E+01  0.4963E+02
     51.284  0.3534E+00  0.4973E+02
     51.560  0.7974E+00  0.4995E+02
     51.836  0.9192E+00  0.5020E+02
     52.112  0.6485E+00  0.5038E+02
     52.388  0.1274E+01  0.5073E+02
     52.663  0.1121E+01  0.5104E+02
     52.939  0.8986E+00  0.5129E+02
     53.215  0.1265E+01  0.5164E+02
     53.491  0.1329E+01  0.5201E+02
     53.766  0.1064E+01  0.5230E+02
     54.042  0.6465E+00  0.5248E+02
     54.318  0.7239E+00  0.5268E+02
     54.594  0.7592E+00  0.5289E+02
     54.869  0.1223E+01  0.5322E+02
     55.145  0.1082E+01  0.5352E+02
     55.421  0.1168E+01  0.5384E+02
     55.697  0.1129E+01  0.5416E+02
     55.973  0.1008E+01  0.5443E+02
     56.248  0.1142E+01  0.5475E+02
     56.524  0.1208E+01  0.5508E+02
     56.800  0.1373E+01  0.5546E+02
     57.076  0.1361E+01  0.5584E+02
     57.351  0.8002E+00  0.5606E+02
     57.627  0.1525E+01  0.5648E+02
     57.903  0.1107E+01  0.5678E+02
     58.179  0.8105E+00  0.5700E+02
     58.454  0.1161E+01  0.5733E+02
     58.730  0.9878E+00  0.5760E+02
     59.006  0.1326E+01  0.5796E+02
     59.282  0.1696E+01  0.5843E+02
     59.558  0.1399E+01  0.5882E+02
     59.833  0.1336E+01  0.5919E+02
     60.109  0.1234E+01  0.5953E+02
     60.385  0.1239E+01  0.5987E+02
     60.661  0.1725E+01  0.6034E+02
     60.936  0.1803E+01  0.6084E+02
     61.212  0.1703E+01  0.6131E+02
     61.488  0.2295E+01  0.6194E+02
     61.764  0.1792E+01  0.6244E+02
     62.039  0.1563E+01  0.6287E+02
     62.315  0.1955E+01  0.6341E+02
     62.591  0.2095E+01  0.6398E+02
     62.867  0.2387E+01  0.6464E+02
     63.143  0.2697E+01  0.6539E+02
     63.418  0.2734E+01  0.6614E+02
     63.694  0.1975E+01  0.6669E+02
     63.970  0.1760E+01  0.6717E+02
     64.246  0.1600E+01  0.6761E+02
     64.521  0.1413E+01  0.6800E+02
     64.797  0.1548E+01  0.6843E+02
     65.073  0.1729E+01  0.6891E+02
     65.349  0.1407E+01  0.6929E+02
     65.624  0.1426E+01  0.6969E+02
     65.900  0.1682E+01  0.7015E+02
     66.176  0.9876E+00  0.7042E+02
     66.452  0.1481E+01  0.7083E+02
     66.728  0.1845E+01  0.7134E+02
     67.003  0.1159E+01  0.7166E+02
     67.279  0.1115E+01  0.7197E+02
     67.555  0.8214E+00  0.7219E+02
     67.831  0.1736E+01  0.7267E+02
     68.106  0.1817E+01  0.7317E+02
     68.382  0.1559E+01  0.7360E+02
     68.658  0.1520E+01  0.7402E+02
     68.934  0.1706E+01  0.7449E+02
     69.209  0.1161E+01  0.7481E+02
     69.485  0.1196E+01  0.7514E+02
     69.761  0.1442E+01  0.7554E+02
     70.037  0.1377E+01  0.7592E+02
     70.313  0.1472E+01  0.7633E+02
     70.588  0.1498E+01  0.7674E+02
     70.864  0.1478E+01  0.7715E+02
     71.140  0.7695E+00  0.7736E+02
     71.416  0.1045E+01  0.7765E+02
     71.691  0.1854E+01  0.7816E+02
     71.967  0.1299E+01  0.7852E+02
     72.243  0.1268E+01  0.7887E+02
     72.519  0.1080E+01  0.7916E+02
     72.794  0.6679E+00  0.7935E+02
     73.070  0.1034E+01  0.7963E+02
     73.346  0.9163E+00  0.7989E+02
     73.622  0.2558E+00  0.7996E+02
     73.898  0.1025E+00  0.7999E+02
     74.173  0.5442E-01  0.8000E+02
     74.449 -0.5162E-03  0.8000E+02
     74.725 -0.2097E-03  0.8000E+02
     75.001 -0.1134E-06  0.8000E+02
     75.276 -0.1073E-11  0.8000E+02
     75.552  0.0000E+00  0.8000E+02
     75.828  0.0000E+00  0.8000E+02
     76.104  0.0000E+00  0.8000E+02
     76.379  0.0000E+00  0.8000E+02
     76.655  0.0000E+00  0.8000E+02
     76.931  0.0000E+00  0.8000E+02
     77.207  0.0000E+00  0.8000E+02
     77.483  0.0000E+00  0.8000E+02
     77.758  0.0000E+00  0.8000E+02
