 vasp.6.2.0 18Jan21 (build Mar 17 2021 09:06:54) complex                        
  
 executed on             LinuxIFC date 2021.09.09  12:02:11
 serial version


--------------------------------------------------------------------------------------------------------


 INCAR:
   ENCUT = 280.000000
   SIGMA = 0.200000
   EDIFF = 1.00e-06
   GGA = PE
   PREC = normal
   IBRION = 1
   ICHARG = 1
   ISIF = 2
   ISMEAR = 1
   KPAR = 1
   NBANDS = 40
   NSW = 0
   NCORE = 1
   LCHARG = .TRUE.

 POTCAR:    PAW_PBE Fe 06Sep2000                  
 POTCAR:    PAW_PBE Fe 06Sep2000                  
   SHA256 =  cd5a22d9368cc8b5cc476bea79732366149640da08ac9009b0e1b7fc627eea28 Fe/POTCAR             
   COPYR  = (c) Copyright 06Sep2000 Georg Kresse                                                    
   COPYR  = This file is part of the software VASP. Any use, copying, and all other rights are regul
   COPYR  = If you do not have a valid VASP license, you may not use, copy or distribute this file. 
   VRHFIN =Fe:  d7 s1                                                                               
   LEXCH  = PE                                                                                      
   EATOM  =   594.3153 eV,   43.6809 Ry                                                             
                                                                                                    
   TITEL  = PAW_PBE Fe 06Sep2000                                                                    
   LULTRA =        F    use ultrasoft PP ?                                                          
   IUNSCR =        1    unscreen: 0-lin 1-nonlin 2-no                                               
   RPACOR =    2.000    partial core radius                                                         
   POMASS =   55.847; ZVAL   =    8.000    mass and valenz                                          
   RCORE  =    2.300    outmost cutoff radius                                                       
   RWIGS  =    2.460; RWIGS  =    1.302    wigner-seitz radius (au A)                               
   ENMAX  =  267.882; ENMIN  =  200.911 eV                                                          
   RCLOC  =    1.701    cutoff for local pot                                                        
   LCOR   =        T    correct aug charges                                                         
   LPAW   =        T    paw PP                                                                      
   EAUG   =  511.368                                                                                
   DEXC   =    0.000                                                                                
   RMAX   =    2.356    core radius for proj-oper                                                   
   RAUG   =    1.300    factor for augmentation sphere                                              
   RDEP   =    2.442    radius for radial grids                                                     
   RDEPT  =    1.890    core radius for aug-charge                                                  
                                                                                                    
   Atomic configuration                                                                             
    9 entries                                                                                       
     n  l   j            E        occ.                                                              
     1  0  0.50     -6993.8440   2.0000                                                             
     2  0  0.50      -814.6047   2.0000                                                             
     2  1  1.50      -693.3689   6.0000                                                             
     3  0  0.50       -89.4732   2.0000                                                             
     3  1  1.50       -55.6373   6.0000                                                             
     3  2  2.50        -3.8151   7.0000                                                             
     4  0  0.50        -4.2551   1.0000                                                             
     4  1  1.50        -3.4015   0.0000                                                             
     4  3  2.50        -1.3606   0.0000                                                             
   Description                                                                                      
     l       E           TYP  RCUT    TYP  RCUT                                                     
     2     -3.8151135     23  2.300                                                                 
     2     -5.1756961     23  2.300                                                                 
     0     -4.2550963     23  2.300                                                                 
     0      7.2035603     23  2.300                                                                 
     1     -2.7211652     23  2.300                                                                 
     1     18.4316424     23  2.300                                                                 
  local pseudopotential read in
  partial core-charges read in
  partial kinetic energy density read in
  atomic valenz-charges read in
  non local Contribution for L=           2  read in
    real space projection operators read in
  non local Contribution for L=           2  read in
    real space projection operators read in
  non local Contribution for L=           0  read in
    real space projection operators read in
  non local Contribution for L=           0  read in
    real space projection operators read in
  non local Contribution for L=           1  read in
    real space projection operators read in
  non local Contribution for L=           1  read in
    real space projection operators read in
    PAW grid and wavefunctions read in
 
   number of l-projection  operators is LMAX  =           6
   number of lm-projection operators is LMMAX =          18
 
  PAW_PBE Fe 06Sep2000                  :
 energy of atom  1       EATOM= -594.3153
 kinetic energy error for atom=    0.0278 (will be added to EATOM!!)
 
 
 POSCAR: Fe
  positions in cartesian coordinates
  No initial velocities read in
 exchange correlation table for  LEXCH =        8
   RHO(1)=    0.500       N(1)  =     2000
   RHO(2)=  100.500       N(2)  =     4000
 


--------------------------------------------------------------------------------------------------------


 ion  position               nearest neighbor table
   1  0.000  0.000  0.000-   2 2.36   2 2.36   2 2.36   2 2.36   2 2.36   2 2.36
   2  0.333  0.667  0.500-   1 2.36   1 2.36   1 2.36   1 2.36   1 2.36   1 2.36
 
  LATTYP: Found a hexagonal cell.
 ALAT       =     2.3067000000
 C/A-ratio  =     1.6892703863
  
  Lattice vectors:
  
 A1 = (   2.3067000000,   0.0000000000,   0.0000000000)
 A2 = (  -1.1533500000,   1.9976607989,   0.0000000000)
 A3 = (   0.0000000000,   0.0000000000,   3.8966400000)


Analysis of symmetry for initial positions (statically):
=====================================================================
 Subroutine PRICEL returns:
 Original cell was already a primitive cell.
 

 Routine SETGRP: Setting up the symmetry group for a 
 hexagonal supercell.


 Subroutine GETGRP returns: Found 24 space group operations
 (whereof 12 operations were pure point group operations)
 out of a pool of 24 trial point group operations.


The static configuration has the point symmetry D_3h.
 The point group associated with its full space group is D_6h.


Analysis of symmetry for dynamics (positions and initial velocities):
=====================================================================
 Subroutine PRICEL returns:
 Original cell was already a primitive cell.
 

 Routine SETGRP: Setting up the symmetry group for a 
 hexagonal supercell.


 Subroutine GETGRP returns: Found 24 space group operations
 (whereof 12 operations were pure point group operations)
 out of a pool of 24 trial point group operations.


The dynamic configuration has the point symmetry D_3h.
 The point group associated with its full space group is D_6h.


 Subroutine INISYM returns: Found 24 space group operations
 (whereof 12 operations are pure point group operations),
 and found     1 'primitive' translations


----------------------------------------------------------------------------------------

                                     Primitive cell                                     

  volume of cell :      17.9557

  direct lattice vectors                    reciprocal lattice vectors
     2.306700000  0.000000000  0.000000000     0.433519747  0.250292743  0.000000000
    -1.153350000  1.997660799  0.000000000     0.000000000  0.500585485  0.000000000
     0.000000000  0.000000000  3.896640000     0.000000000  0.000000000  0.256631354

  length of vectors
     2.306700000  2.306700000  3.896640000     0.500585485  0.500585485  0.256631354

  position of ions in fractional coordinates (direct lattice)
     0.000000000  0.000000000  0.000000000
     0.333333333  0.666666667  0.500000000

  ion indices of the primitive-cell ions
   primitive index   ion index
                 1           1
                 2           2

----------------------------------------------------------------------------------------

 
 
 KPOINTS: KPOINTS created by Atomic Simulation Env

Automatic generation of k-mesh.
 Grid dimensions read from file:
 generate k-points for:   11   11   11

 Generating k-lattice:

  Cartesian coordinates                     Fractional coordinates (reciprocal lattice)
     0.039410886  0.022753886  0.000000000     0.090909091 -0.000000000  0.000000000
     0.000000000  0.045507771  0.000000000     0.000000000  0.090909091  0.000000000
     0.000000000  0.000000000  0.023330123     0.000000000  0.000000000  0.090909091

  Length of vectors
     0.045507771  0.045507771  0.023330123

  Shift w.r.t. Gamma in fractional coordinates (k-lattice)
     0.000000000  0.000000000  0.000000000

 
 Subroutine IBZKPT returns following result:
 ===========================================
 
 Found     96 irreducible k-points:
 
 Following reciprocal coordinates:
            Coordinates               Weight
  0.000000  0.000000  0.000000      1.000000
  0.090909  0.000000  0.000000      6.000000
  0.181818 -0.000000  0.000000      6.000000
  0.272727  0.000000  0.000000      6.000000
  0.363636  0.000000  0.000000      6.000000
  0.454545  0.000000  0.000000      6.000000
  0.090909  0.090909  0.000000      6.000000
  0.181818  0.090909  0.000000     12.000000
  0.272727  0.090909  0.000000     12.000000
  0.363636  0.090909  0.000000     12.000000
  0.454545  0.090909  0.000000      6.000000
  0.181818  0.181818  0.000000      6.000000
  0.272727  0.181818  0.000000     12.000000
  0.363636  0.181818  0.000000     12.000000
  0.272727  0.272727  0.000000      6.000000
  0.363636  0.272727  0.000000      6.000000
  0.000000  0.000000  0.090909      2.000000
  0.090909  0.000000  0.090909     12.000000
  0.181818 -0.000000  0.090909     12.000000
  0.272727  0.000000  0.090909     12.000000
  0.363636  0.000000  0.090909     12.000000
  0.454545  0.000000  0.090909     12.000000
  0.090909  0.090909  0.090909     12.000000
  0.181818  0.090909  0.090909     24.000000
  0.272727  0.090909  0.090909     24.000000
  0.363636  0.090909  0.090909     24.000000
  0.454545  0.090909  0.090909     12.000000
  0.181818  0.181818  0.090909     12.000000
  0.272727  0.181818  0.090909     24.000000
  0.363636  0.181818  0.090909     24.000000
  0.272727  0.272727  0.090909     12.000000
  0.363636  0.272727  0.090909     12.000000
  0.000000  0.000000  0.181818      2.000000
  0.090909  0.000000  0.181818     12.000000
  0.181818 -0.000000  0.181818     12.000000
  0.272727  0.000000  0.181818     12.000000
  0.363636  0.000000  0.181818     12.000000
  0.454545  0.000000  0.181818     12.000000
  0.090909  0.090909  0.181818     12.000000
  0.181818  0.090909  0.181818     24.000000
  0.272727  0.090909  0.181818     24.000000
  0.363636  0.090909  0.181818     24.000000
  0.454545  0.090909  0.181818     12.000000
  0.181818  0.181818  0.181818     12.000000
  0.272727  0.181818  0.181818     24.000000
  0.363636  0.181818  0.181818     24.000000
  0.272727  0.272727  0.181818     12.000000
  0.363636  0.272727  0.181818     12.000000
  0.000000  0.000000  0.272727      2.000000
  0.090909  0.000000  0.272727     12.000000
  0.181818 -0.000000  0.272727     12.000000
  0.272727  0.000000  0.272727     12.000000
  0.363636  0.000000  0.272727     12.000000
  0.454545  0.000000  0.272727     12.000000
  0.090909  0.090909  0.272727     12.000000
  0.181818  0.090909  0.272727     24.000000
  0.272727  0.090909  0.272727     24.000000
  0.363636  0.090909  0.272727     24.000000
  0.454545  0.090909  0.272727     12.000000
  0.181818  0.181818  0.272727     12.000000
  0.272727  0.181818  0.272727     24.000000
  0.363636  0.181818  0.272727     24.000000
  0.272727  0.272727  0.272727     12.000000
  0.363636  0.272727  0.272727     12.000000
  0.000000  0.000000  0.363636      2.000000
  0.090909  0.000000  0.363636     12.000000
  0.181818 -0.000000  0.363636     12.000000
  0.272727  0.000000  0.363636     12.000000
  0.363636  0.000000  0.363636     12.000000
  0.454545  0.000000  0.363636     12.000000
  0.090909  0.090909  0.363636     12.000000
  0.181818  0.090909  0.363636     24.000000
  0.272727  0.090909  0.363636     24.000000
  0.363636  0.090909  0.363636     24.000000
  0.454545  0.090909  0.363636     12.000000
  0.181818  0.181818  0.363636     12.000000
  0.272727  0.181818  0.363636     24.000000
  0.363636  0.181818  0.363636     24.000000
  0.272727  0.272727  0.363636     12.000000
  0.363636  0.272727  0.363636     12.000000
  0.000000  0.000000  0.454545      2.000000
  0.090909  0.000000  0.454545     12.000000
  0.181818 -0.000000  0.454545     12.000000
  0.272727  0.000000  0.454545     12.000000
  0.363636  0.000000  0.454545     12.000000
  0.454545  0.000000  0.454545     12.000000
  0.090909  0.090909  0.454545     12.000000
  0.181818  0.090909  0.454545     24.000000
  0.272727  0.090909  0.454545     24.000000
  0.363636  0.090909  0.454545     24.000000
  0.454545  0.090909  0.454545     12.000000
  0.181818  0.181818  0.454545     12.000000
  0.272727  0.181818  0.454545     24.000000
  0.363636  0.181818  0.454545     24.000000
  0.272727  0.272727  0.454545     12.000000
  0.363636  0.272727  0.454545     12.000000
 
 Following cartesian coordinates:
            Coordinates               Weight
  0.000000  0.000000  0.000000      1.000000
  0.039411  0.022754  0.000000      6.000000
  0.078822  0.045508  0.000000      6.000000
  0.118233  0.068262  0.000000      6.000000
  0.157644  0.091016  0.000000      6.000000
  0.197054  0.113769  0.000000      6.000000
  0.039411  0.068262  0.000000      6.000000
  0.078822  0.091016  0.000000     12.000000
  0.118233  0.113769  0.000000     12.000000
  0.157644  0.136523  0.000000     12.000000
  0.197054  0.159277  0.000000      6.000000
  0.078822  0.136523  0.000000      6.000000
  0.118233  0.159277  0.000000     12.000000
  0.157644  0.182031  0.000000     12.000000
  0.118233  0.204785  0.000000      6.000000
  0.157644  0.227539  0.000000      6.000000
  0.000000  0.000000  0.023330      2.000000
  0.039411  0.022754  0.023330     12.000000
  0.078822  0.045508  0.023330     12.000000
  0.118233  0.068262  0.023330     12.000000
  0.157644  0.091016  0.023330     12.000000
  0.197054  0.113769  0.023330     12.000000
  0.039411  0.068262  0.023330     12.000000
  0.078822  0.091016  0.023330     24.000000
  0.118233  0.113769  0.023330     24.000000
  0.157644  0.136523  0.023330     24.000000
  0.197054  0.159277  0.023330     12.000000
  0.078822  0.136523  0.023330     12.000000
  0.118233  0.159277  0.023330     24.000000
  0.157644  0.182031  0.023330     24.000000
  0.118233  0.204785  0.023330     12.000000
  0.157644  0.227539  0.023330     12.000000
  0.000000  0.000000  0.046660      2.000000
  0.039411  0.022754  0.046660     12.000000
  0.078822  0.045508  0.046660     12.000000
  0.118233  0.068262  0.046660     12.000000
  0.157644  0.091016  0.046660     12.000000
  0.197054  0.113769  0.046660     12.000000
  0.039411  0.068262  0.046660     12.000000
  0.078822  0.091016  0.046660     24.000000
  0.118233  0.113769  0.046660     24.000000
  0.157644  0.136523  0.046660     24.000000
  0.197054  0.159277  0.046660     12.000000
  0.078822  0.136523  0.046660     12.000000
  0.118233  0.159277  0.046660     24.000000
  0.157644  0.182031  0.046660     24.000000
  0.118233  0.204785  0.046660     12.000000
  0.157644  0.227539  0.046660     12.000000
  0.000000  0.000000  0.069990      2.000000
  0.039411  0.022754  0.069990     12.000000
  0.078822  0.045508  0.069990     12.000000
  0.118233  0.068262  0.069990     12.000000
  0.157644  0.091016  0.069990     12.000000
  0.197054  0.113769  0.069990     12.000000
  0.039411  0.068262  0.069990     12.000000
  0.078822  0.091016  0.069990     24.000000
  0.118233  0.113769  0.069990     24.000000
  0.157644  0.136523  0.069990     24.000000
  0.197054  0.159277  0.069990     12.000000
  0.078822  0.136523  0.069990     12.000000
  0.118233  0.159277  0.069990     24.000000
  0.157644  0.182031  0.069990     24.000000
  0.118233  0.204785  0.069990     12.000000
  0.157644  0.227539  0.069990     12.000000
  0.000000  0.000000  0.093320      2.000000
  0.039411  0.022754  0.093320     12.000000
  0.078822  0.045508  0.093320     12.000000
  0.118233  0.068262  0.093320     12.000000
  0.157644  0.091016  0.093320     12.000000
  0.197054  0.113769  0.093320     12.000000
  0.039411  0.068262  0.093320     12.000000
  0.078822  0.091016  0.093320     24.000000
  0.118233  0.113769  0.093320     24.000000
  0.157644  0.136523  0.093320     24.000000
  0.197054  0.159277  0.093320     12.000000
  0.078822  0.136523  0.093320     12.000000
  0.118233  0.159277  0.093320     24.000000
  0.157644  0.182031  0.093320     24.000000
  0.118233  0.204785  0.093320     12.000000
  0.157644  0.227539  0.093320     12.000000
  0.000000  0.000000  0.116651      2.000000
  0.039411  0.022754  0.116651     12.000000
  0.078822  0.045508  0.116651     12.000000
  0.118233  0.068262  0.116651     12.000000
  0.157644  0.091016  0.116651     12.000000
  0.197054  0.113769  0.116651     12.000000
  0.039411  0.068262  0.116651     12.000000
  0.078822  0.091016  0.116651     24.000000
  0.118233  0.113769  0.116651     24.000000
  0.157644  0.136523  0.116651     24.000000
  0.197054  0.159277  0.116651     12.000000
  0.078822  0.136523  0.116651     12.000000
  0.118233  0.159277  0.116651     24.000000
  0.157644  0.182031  0.116651     24.000000
  0.118233  0.204785  0.116651     12.000000
  0.157644  0.227539  0.116651     12.000000
 


--------------------------------------------------------------------------------------------------------




 Dimension of arrays:
   k-points           NKPTS =     96   k-points in BZ     NKDIM =     96   number of bands    NBANDS=     40
   number of dos      NEDOS =    301   number of ions     NIONS =      2
   non local maximal  LDIM  =      6   non local SUM 2l+1 LMDIM =     18
   total plane-waves  NPLWV =   1600
   max r-space proj   IRMAX =      1   max aug-charges    IRDMAX=   3373
   dimension x,y,z NGX =    10 NGY =   10 NGZ =   16
   dimension x,y,z NGXF=    20 NGYF=   20 NGZF=   32
   support grid    NGXF=    20 NGYF=   20 NGZF=   32
   ions per type =               2
   NGX,Y,Z   is equivalent  to a cutoff of   7.21,  7.21,  6.83 a.u.
   NGXF,Y,Z  is equivalent  to a cutoff of  14.41, 14.41, 13.65 a.u.

 SYSTEM =  unknown system                          
 POSCAR =  Fe                                      

 Startparameter for this run:
   NWRITE =      2    write-flag & timer
   PREC   = normal    normal or accurate (medium, high low for compatibility)
   ISTART =      0    job   : 0-new  1-cont  2-samecut
   ICHARG =      1    charge: 1-file 2-atom 10-const
   ISPIN  =      1    spin polarized calculation?
   LNONCOLLINEAR =      F non collinear calculations
   LSORBIT =      F    spin-orbit coupling
   INIWAV =      1    electr: 0-lowe 1-rand  2-diag
   LASPH  =      F    aspherical Exc in radial PAW
   METAGGA=      F    non-selfconsistent MetaGGA calc.

 Electronic Relaxation 1
   ENCUT  =  280.0 eV  20.58 Ry    4.54 a.u.   3.15  3.15  5.32*2*pi/ulx,y,z
   ENINI  =  280.0     initial cutoff
   ENAUG  =  511.4 eV  augmentation charge cutoff
   NELM   =     60;   NELMIN=  2; NELMDL= -5     # of ELM steps 
   EDIFF  = 0.1E-05   stopping-criterion for ELM
   LREAL  =      F    real-space projection
   NLSPLINE    = F    spline interpolate recip. space projectors
   LCOMPAT=      F    compatible to vasp.4.4
   GGA_COMPAT  = T    GGA compatible to vasp.4.4-vasp.4.6
   LMAXPAW     = -100 max onsite density
   LMAXMIX     =    2 max onsite mixed and CHGCAR
   VOSKOWN=      0    Vosko Wilk Nusair interpolation
   ROPT   =    0.00000
 Ionic relaxation
   EDIFFG = 0.1E-04   stopping-criterion for IOM
   NSW    =      0    number of steps for IOM
   NBLOCK =      1;   KBLOCK =      1    inner block; outer block 
   IBRION =     -1    ionic relax: 0-MD 1-quasi-New 2-CG
   NFREE  =      0    steps in history (QN), initial steepest desc. (CG)
   ISIF   =      2    stress and relaxation
   IWAVPR =      0    prediction:  0-non 1-charg 2-wave 3-comb
   ISYM   =      2    0-nonsym 1-usesym 2-fastsym
   LCORR  =      T    Harris-Foulkes like correction to forces

   POTIM  = 0.5000    time-step for ionic-motion
   TEIN   =    0.0    initial temperature
   TEBEG  =    0.0;   TEEND  =   0.0 temperature during run
   SMASS  =  -3.00    Nose mass-parameter (am)
   estimated Nose-frequenzy (Omega)   =  0.10E-29 period in steps = 0.13E+47 mass=  -0.122E-27a.u.
   SCALEE = 1.0000    scale energy and forces
   NPACO  =    256;   APACO  = 16.0  distance and # of slots for P.C.
   PSTRESS=    0.0 pullay stress

  Mass of Ions in am
   POMASS =  55.85
  Ionic Valenz
   ZVAL   =   8.00
  Atomic Wigner-Seitz radii
   RWIGS  =  -1.00
  virtual crystal weights 
   VCA    =   1.00
   NELECT =      16.0000    total number of electrons
   NUPDOWN=      -1.0000    fix difference up-down

 DOS related values:
   EMIN   =  10.00;   EMAX   =-10.00  energy-range for DOS
   EFERMI =   0.00
   ISMEAR =     1;   SIGMA  =   0.20  broadening in eV -4-tet -1-fermi 0-gaus

 Electronic relaxation 2 (details)
   IALGO  =     38    algorithm
   LDIAG  =      T    sub-space diagonalisation (order eigenvalues)
   LSUBROT=      F    optimize rotation matrix (better conditioning)
   TURBO    =      0    0=normal 1=particle mesh
   IRESTART =      0    0=no restart 2=restart with 2 vectors
   NREBOOT  =      0    no. of reboots
   NMIN     =      0    reboot dimension
   EREF     =   0.00    reference energy to select bands
   IMIX   =      4    mixing-type and parameters
     AMIX     =   0.40;   BMIX     =  1.00
     AMIX_MAG =   1.60;   BMIX_MAG =  1.00
     AMIN     =   0.10
     WC   =   100.;   INIMIX=   1;  MIXPRE=   1;  MAXMIX= -45

 Intra band minimization:
   WEIMIN = 0.0000     energy-eigenvalue tresh-hold
   EBREAK =  0.62E-08  absolut break condition
   DEPER  =   0.30     relativ break condition  

   TIME   =   0.40     timestep for ELM

  volume/ion in A,a.u.               =       8.98        60.59
  Fermi-wavevector in a.u.,A,eV,Ry     =   1.575362  2.977003 33.766481  2.481766
  Thomas-Fermi vector in A             =   2.676357
 
 Write flags
   LWAVE        =      T    write WAVECAR
   LDOWNSAMPLE  =      F    k-point downsampling of WAVECAR
   LCHARG       =      T    write CHGCAR
   LVTOT        =      F    write LOCPOT, total local potential
   LVHAR        =      F    write LOCPOT, Hartree potential only
   LELF         =      F    write electronic localiz. function (ELF)
   LORBIT       =      0    0 simple, 1 ext, 2 COOP (PROOUT), +10 PAW based schemes


 Dipole corrections
   LMONO  =      F    monopole corrections only (constant potential shift)
   LDIPOL =      F    correct potential (dipole corrections)
   IDIPOL =      0    1-x, 2-y, 3-z, 4-all directions 
   EPSILON=  1.0000000 bulk dielectric constant

 Exchange correlation treatment:
   GGA     =    PE    GGA type
   LEXCH   =     8    internal setting for exchange type
   VOSKOWN=      0    Vosko Wilk Nusair interpolation
   LHFCALC =     F    Hartree Fock is set to
   LHFONE  =     F    Hartree Fock one center treatment
   AEXX    =    0.0000 exact exchange contribution

 Linear response parameters
   LEPSILON=     F    determine dielectric tensor
   LRPA    =     F    only Hartree local field effects (RPA)
   LNABLA  =     F    use nabla operator in PAW spheres
   LVEL    =     F    velocity operator in full k-point grid
   LINTERFAST=   F  fast interpolation
   KINTER  =     0    interpolate to denser k-point grid
   CSHIFT  =0.1000    complex shift for real part using Kramers Kronig
   OMEGAMAX=  -1.0    maximum frequency
   DEG_THRESHOLD= 0.2000000E-02 threshold for treating states as degnerate
   RTIME   =   -0.100 relaxation time in fs
  (WPLASMAI=    0.000 imaginary part of plasma frequency in eV, 0.658/RTIME)
   DFIELD  = 0.0000000 0.0000000 0.0000000 field for delta impulse in time
 
 Orbital magnetization related:
   ORBITALMAG=     F  switch on orbital magnetization
   LCHIMAG   =     F  perturbation theory with respect to B field
   DQ        =  0.001000  dq finite difference perturbation B field
   LLRAUG    =     F  two centre corrections for induced B field



--------------------------------------------------------------------------------------------------------


 Static calculation
 charge density and potential will be updated during run
 non-spin polarized calculation
 Variant of blocked Davidson
 Davidson routine will perform the subspace rotation
 perform sub-space diagonalisation
    after iterative eigenvector-optimisation
 modified Broyden-mixing scheme, WC =      100.0
 initial mixing is a Kerker type mixing with AMIX =  0.4000 and BMIX =      1.0000
 Hartree-type preconditioning will be used
 using additional bands           32
 reciprocal scheme for non local part
 use partial core corrections
 calculate Harris-corrections to forces 
   (improved forces if not selfconsistent)
 use gradient corrections 
 use of overlap-Matrix (Vanderbilt PP)
 Methfessel and Paxton  Order N= 1 SIGMA  =   0.20


--------------------------------------------------------------------------------------------------------


  energy-cutoff  :      280.00
  volume of cell :       17.96
      direct lattice vectors                 reciprocal lattice vectors
     2.306700000  0.000000000  0.000000000     0.433519747  0.250292743  0.000000000
    -1.153350000  1.997660799  0.000000000     0.000000000  0.500585485  0.000000000
     0.000000000  0.000000000  3.896640000     0.000000000  0.000000000  0.256631354

  length of vectors
     2.306700000  2.306700000  3.896640000     0.500585485  0.500585485  0.256631354


 
 k-points in units of 2pi/SCALE and weight: KPOINTS created by Atomic Simulation Env
   0.00000000  0.00000000  0.00000000       0.001
   0.03941089  0.02275389  0.00000000       0.005
   0.07882177  0.04550777  0.00000000       0.005
   0.11823266  0.06826166  0.00000000       0.005
   0.15764354  0.09101554  0.00000000       0.005
   0.19705443  0.11376943  0.00000000       0.005
   0.03941089  0.06826166  0.00000000       0.005
   0.07882177  0.09101554  0.00000000       0.009
   0.11823266  0.11376943  0.00000000       0.009
   0.15764354  0.13652331  0.00000000       0.009
   0.19705443  0.15927720  0.00000000       0.005
   0.07882177  0.13652331  0.00000000       0.005
   0.11823266  0.15927720  0.00000000       0.009
   0.15764354  0.18203109  0.00000000       0.009
   0.11823266  0.20478497  0.00000000       0.005
   0.15764354  0.22753886  0.00000000       0.005
   0.00000000  0.00000000  0.02333012       0.002
   0.03941089  0.02275389  0.02333012       0.009
   0.07882177  0.04550777  0.02333012       0.009
   0.11823266  0.06826166  0.02333012       0.009
   0.15764354  0.09101554  0.02333012       0.009
   0.19705443  0.11376943  0.02333012       0.009
   0.03941089  0.06826166  0.02333012       0.009
   0.07882177  0.09101554  0.02333012       0.018
   0.11823266  0.11376943  0.02333012       0.018
   0.15764354  0.13652331  0.02333012       0.018
   0.19705443  0.15927720  0.02333012       0.009
   0.07882177  0.13652331  0.02333012       0.009
   0.11823266  0.15927720  0.02333012       0.018
   0.15764354  0.18203109  0.02333012       0.018
   0.11823266  0.20478497  0.02333012       0.009
   0.15764354  0.22753886  0.02333012       0.009
   0.00000000  0.00000000  0.04666025       0.002
   0.03941089  0.02275389  0.04666025       0.009
   0.07882177  0.04550777  0.04666025       0.009
   0.11823266  0.06826166  0.04666025       0.009
   0.15764354  0.09101554  0.04666025       0.009
   0.19705443  0.11376943  0.04666025       0.009
   0.03941089  0.06826166  0.04666025       0.009
   0.07882177  0.09101554  0.04666025       0.018
   0.11823266  0.11376943  0.04666025       0.018
   0.15764354  0.13652331  0.04666025       0.018
   0.19705443  0.15927720  0.04666025       0.009
   0.07882177  0.13652331  0.04666025       0.009
   0.11823266  0.15927720  0.04666025       0.018
   0.15764354  0.18203109  0.04666025       0.018
   0.11823266  0.20478497  0.04666025       0.009
   0.15764354  0.22753886  0.04666025       0.009
   0.00000000  0.00000000  0.06999037       0.002
   0.03941089  0.02275389  0.06999037       0.009
   0.07882177  0.04550777  0.06999037       0.009
   0.11823266  0.06826166  0.06999037       0.009
   0.15764354  0.09101554  0.06999037       0.009
   0.19705443  0.11376943  0.06999037       0.009
   0.03941089  0.06826166  0.06999037       0.009
   0.07882177  0.09101554  0.06999037       0.018
   0.11823266  0.11376943  0.06999037       0.018
   0.15764354  0.13652331  0.06999037       0.018
   0.19705443  0.15927720  0.06999037       0.009
   0.07882177  0.13652331  0.06999037       0.009
   0.11823266  0.15927720  0.06999037       0.018
   0.15764354  0.18203109  0.06999037       0.018
   0.11823266  0.20478497  0.06999037       0.009
   0.15764354  0.22753886  0.06999037       0.009
   0.00000000  0.00000000  0.09332049       0.002
   0.03941089  0.02275389  0.09332049       0.009
   0.07882177  0.04550777  0.09332049       0.009
   0.11823266  0.06826166  0.09332049       0.009
   0.15764354  0.09101554  0.09332049       0.009
   0.19705443  0.11376943  0.09332049       0.009
   0.03941089  0.06826166  0.09332049       0.009
   0.07882177  0.09101554  0.09332049       0.018
   0.11823266  0.11376943  0.09332049       0.018
   0.15764354  0.13652331  0.09332049       0.018
   0.19705443  0.15927720  0.09332049       0.009
   0.07882177  0.13652331  0.09332049       0.009
   0.11823266  0.15927720  0.09332049       0.018
   0.15764354  0.18203109  0.09332049       0.018
   0.11823266  0.20478497  0.09332049       0.009
   0.15764354  0.22753886  0.09332049       0.009
   0.00000000  0.00000000  0.11665062       0.002
   0.03941089  0.02275389  0.11665062       0.009
   0.07882177  0.04550777  0.11665062       0.009
   0.11823266  0.06826166  0.11665062       0.009
   0.15764354  0.09101554  0.11665062       0.009
   0.19705443  0.11376943  0.11665062       0.009
   0.03941089  0.06826166  0.11665062       0.009
   0.07882177  0.09101554  0.11665062       0.018
   0.11823266  0.11376943  0.11665062       0.018
   0.15764354  0.13652331  0.11665062       0.018
   0.19705443  0.15927720  0.11665062       0.009
   0.07882177  0.13652331  0.11665062       0.009
   0.11823266  0.15927720  0.11665062       0.018
   0.15764354  0.18203109  0.11665062       0.018
   0.11823266  0.20478497  0.11665062       0.009
   0.15764354  0.22753886  0.11665062       0.009
 
 k-points in reciprocal lattice and weights: KPOINTS created by Atomic Simulation Env
   0.00000000  0.00000000  0.00000000       0.001
   0.09090909  0.00000000  0.00000000       0.005
   0.18181818 -0.00000000  0.00000000       0.005
   0.27272727  0.00000000  0.00000000       0.005
   0.36363636  0.00000000  0.00000000       0.005
   0.45454545  0.00000000  0.00000000       0.005
   0.09090909  0.09090909  0.00000000       0.005
   0.18181818  0.09090909  0.00000000       0.009
   0.27272727  0.09090909  0.00000000       0.009
   0.36363636  0.09090909  0.00000000       0.009
   0.45454545  0.09090909  0.00000000       0.005
   0.18181818  0.18181818  0.00000000       0.005
   0.27272727  0.18181818  0.00000000       0.009
   0.36363636  0.18181818  0.00000000       0.009
   0.27272727  0.27272727  0.00000000       0.005
   0.36363636  0.27272727  0.00000000       0.005
   0.00000000  0.00000000  0.09090909       0.002
   0.09090909  0.00000000  0.09090909       0.009
   0.18181818 -0.00000000  0.09090909       0.009
   0.27272727  0.00000000  0.09090909       0.009
   0.36363636  0.00000000  0.09090909       0.009
   0.45454545  0.00000000  0.09090909       0.009
   0.09090909  0.09090909  0.09090909       0.009
   0.18181818  0.09090909  0.09090909       0.018
   0.27272727  0.09090909  0.09090909       0.018
   0.36363636  0.09090909  0.09090909       0.018
   0.45454545  0.09090909  0.09090909       0.009
   0.18181818  0.18181818  0.09090909       0.009
   0.27272727  0.18181818  0.09090909       0.018
   0.36363636  0.18181818  0.09090909       0.018
   0.27272727  0.27272727  0.09090909       0.009
   0.36363636  0.27272727  0.09090909       0.009
   0.00000000  0.00000000  0.18181818       0.002
   0.09090909  0.00000000  0.18181818       0.009
   0.18181818 -0.00000000  0.18181818       0.009
   0.27272727  0.00000000  0.18181818       0.009
   0.36363636  0.00000000  0.18181818       0.009
   0.45454545  0.00000000  0.18181818       0.009
   0.09090909  0.09090909  0.18181818       0.009
   0.18181818  0.09090909  0.18181818       0.018
   0.27272727  0.09090909  0.18181818       0.018
   0.36363636  0.09090909  0.18181818       0.018
   0.45454545  0.09090909  0.18181818       0.009
   0.18181818  0.18181818  0.18181818       0.009
   0.27272727  0.18181818  0.18181818       0.018
   0.36363636  0.18181818  0.18181818       0.018
   0.27272727  0.27272727  0.18181818       0.009
   0.36363636  0.27272727  0.18181818       0.009
   0.00000000  0.00000000  0.27272727       0.002
   0.09090909  0.00000000  0.27272727       0.009
   0.18181818 -0.00000000  0.27272727       0.009
   0.27272727  0.00000000  0.27272727       0.009
   0.36363636  0.00000000  0.27272727       0.009
   0.45454545  0.00000000  0.27272727       0.009
   0.09090909  0.09090909  0.27272727       0.009
   0.18181818  0.09090909  0.27272727       0.018
   0.27272727  0.09090909  0.27272727       0.018
   0.36363636  0.09090909  0.27272727       0.018
   0.45454545  0.09090909  0.27272727       0.009
   0.18181818  0.18181818  0.27272727       0.009
   0.27272727  0.18181818  0.27272727       0.018
   0.36363636  0.18181818  0.27272727       0.018
   0.27272727  0.27272727  0.27272727       0.009
   0.36363636  0.27272727  0.27272727       0.009
   0.00000000  0.00000000  0.36363636       0.002
   0.09090909  0.00000000  0.36363636       0.009
   0.18181818 -0.00000000  0.36363636       0.009
   0.27272727  0.00000000  0.36363636       0.009
   0.36363636  0.00000000  0.36363636       0.009
   0.45454545  0.00000000  0.36363636       0.009
   0.09090909  0.09090909  0.36363636       0.009
   0.18181818  0.09090909  0.36363636       0.018
   0.27272727  0.09090909  0.36363636       0.018
   0.36363636  0.09090909  0.36363636       0.018
   0.45454545  0.09090909  0.36363636       0.009
   0.18181818  0.18181818  0.36363636       0.009
   0.27272727  0.18181818  0.36363636       0.018
   0.36363636  0.18181818  0.36363636       0.018
   0.27272727  0.27272727  0.36363636       0.009
   0.36363636  0.27272727  0.36363636       0.009
   0.00000000  0.00000000  0.45454545       0.002
   0.09090909  0.00000000  0.45454545       0.009
   0.18181818 -0.00000000  0.45454545       0.009
   0.27272727  0.00000000  0.45454545       0.009
   0.36363636  0.00000000  0.45454545       0.009
   0.45454545  0.00000000  0.45454545       0.009
   0.09090909  0.09090909  0.45454545       0.009
   0.18181818  0.09090909  0.45454545       0.018
   0.27272727  0.09090909  0.45454545       0.018
   0.36363636  0.09090909  0.45454545       0.018
   0.45454545  0.09090909  0.45454545       0.009
   0.18181818  0.18181818  0.45454545       0.009
   0.27272727  0.18181818  0.45454545       0.018
   0.36363636  0.18181818  0.45454545       0.018
   0.27272727  0.27272727  0.45454545       0.009
   0.36363636  0.27272727  0.45454545       0.009
 
 position of ions in fractional coordinates (direct lattice) 
   0.00000000  0.00000000  0.00000000
   0.33333333  0.66666667  0.50000000
 
 position of ions in cartesian coordinates  (Angst):
   0.00000000  0.00000000  0.00000000
   0.00000000  1.33177387  1.94832000
 


--------------------------------------------------------------------------------------------------------


 k-point   1 :   0.0000 0.0000 0.0000  plane waves:     197
 k-point   2 :   0.0909 0.0000 0.0000  plane waves:     185
 k-point   3 :   0.1818-0.0000 0.0000  plane waves:     191
 k-point   4 :   0.2727 0.0000 0.0000  plane waves:     191
 k-point   5 :   0.3636 0.0000 0.0000  plane waves:     192
 k-point   6 :   0.4545 0.0000 0.0000  plane waves:     192
 k-point   7 :   0.0909 0.0909 0.0000  plane waves:     183
 k-point   8 :   0.1818 0.0909 0.0000  plane waves:     186
 k-point   9 :   0.2727 0.0909 0.0000  plane waves:     189
 k-point  10 :   0.3636 0.0909 0.0000  plane waves:     191
 k-point  11 :   0.4545 0.0909 0.0000  plane waves:     200
 k-point  12 :   0.1818 0.1818 0.0000  plane waves:     185
 k-point  13 :   0.2727 0.1818 0.0000  plane waves:     191
 k-point  14 :   0.3636 0.1818 0.0000  plane waves:     197
 k-point  15 :   0.2727 0.2727 0.0000  plane waves:     195
 k-point  16 :   0.3636 0.2727 0.0000  plane waves:     197
 k-point  17 :   0.0000 0.0000 0.0909  plane waves:     203
 k-point  18 :   0.0909 0.0000 0.0909  plane waves:     188
 k-point  19 :   0.1818-0.0000 0.0909  plane waves:     185
 k-point  20 :   0.2727 0.0000 0.0909  plane waves:     188
 k-point  21 :   0.3636 0.0000 0.0909  plane waves:     190
 k-point  22 :   0.4545 0.0000 0.0909  plane waves:     190
 k-point  23 :   0.0909 0.0909 0.0909  plane waves:     185
 k-point  24 :   0.1818 0.0909 0.0909  plane waves:     188
 k-point  25 :   0.2727 0.0909 0.0909  plane waves:     191
 k-point  26 :   0.3636 0.0909 0.0909  plane waves:     190
 k-point  27 :   0.4545 0.0909 0.0909  plane waves:     196
 k-point  28 :   0.1818 0.1818 0.0909  plane waves:     187
 k-point  29 :   0.2727 0.1818 0.0909  plane waves:     194
 k-point  30 :   0.3636 0.1818 0.0909  plane waves:     198
 k-point  31 :   0.2727 0.2727 0.0909  plane waves:     197
 k-point  32 :   0.3636 0.2727 0.0909  plane waves:     195
 k-point  33 :   0.0000 0.0000 0.1818  plane waves:     197
 k-point  34 :   0.0909 0.0000 0.1818  plane waves:     189
 k-point  35 :   0.1818-0.0000 0.1818  plane waves:     191
 k-point  36 :   0.2727 0.0000 0.1818  plane waves:     188
 k-point  37 :   0.3636 0.0000 0.1818  plane waves:     189
 k-point  38 :   0.4545 0.0000 0.1818  plane waves:     191
 k-point  39 :   0.0909 0.0909 0.1818  plane waves:     190
 k-point  40 :   0.1818 0.0909 0.1818  plane waves:     188
 k-point  41 :   0.2727 0.0909 0.1818  plane waves:     189
 k-point  42 :   0.3636 0.0909 0.1818  plane waves:     193
 k-point  43 :   0.4545 0.0909 0.1818  plane waves:     192
 k-point  44 :   0.1818 0.1818 0.1818  plane waves:     187
 k-point  45 :   0.2727 0.1818 0.1818  plane waves:     192
 k-point  46 :   0.3636 0.1818 0.1818  plane waves:     197
 k-point  47 :   0.2727 0.2727 0.1818  plane waves:     194
 k-point  48 :   0.3636 0.2727 0.1818  plane waves:     197
 k-point  49 :   0.0000 0.0000 0.2727  plane waves:     197
 k-point  50 :   0.0909 0.0000 0.2727  plane waves:     188
 k-point  51 :   0.1818-0.0000 0.2727  plane waves:     191
 k-point  52 :   0.2727 0.0000 0.2727  plane waves:     188
 k-point  53 :   0.3636 0.0000 0.2727  plane waves:     189
 k-point  54 :   0.4545 0.0000 0.2727  plane waves:     191
 k-point  55 :   0.0909 0.0909 0.2727  plane waves:     188
 k-point  56 :   0.1818 0.0909 0.2727  plane waves:     190
 k-point  57 :   0.2727 0.0909 0.2727  plane waves:     190
 k-point  58 :   0.3636 0.0909 0.2727  plane waves:     192
 k-point  59 :   0.4545 0.0909 0.2727  plane waves:     188
 k-point  60 :   0.1818 0.1818 0.2727  plane waves:     191
 k-point  61 :   0.2727 0.1818 0.2727  plane waves:     192
 k-point  62 :   0.3636 0.1818 0.2727  plane waves:     193
 k-point  63 :   0.2727 0.2727 0.2727  plane waves:     193
 k-point  64 :   0.3636 0.2727 0.2727  plane waves:     197
 k-point  65 :   0.0000 0.0000 0.3636  plane waves:     184
 k-point  66 :   0.0909 0.0000 0.3636  plane waves:     191
 k-point  67 :   0.1818-0.0000 0.3636  plane waves:     188
 k-point  68 :   0.2727 0.0000 0.3636  plane waves:     188
 k-point  69 :   0.3636 0.0000 0.3636  plane waves:     189
 k-point  70 :   0.4545 0.0000 0.3636  plane waves:     190
 k-point  71 :   0.0909 0.0909 0.3636  plane waves:     186
 k-point  72 :   0.1818 0.0909 0.3636  plane waves:     189
 k-point  73 :   0.2727 0.0909 0.3636  plane waves:     192
 k-point  74 :   0.3636 0.0909 0.3636  plane waves:     192
 k-point  75 :   0.4545 0.0909 0.3636  plane waves:     192
 k-point  76 :   0.1818 0.1818 0.3636  plane waves:     188
 k-point  77 :   0.2727 0.1818 0.3636  plane waves:     189
 k-point  78 :   0.3636 0.1818 0.3636  plane waves:     193
 k-point  79 :   0.2727 0.2727 0.3636  plane waves:     194
 k-point  80 :   0.3636 0.2727 0.3636  plane waves:     194
 k-point  81 :   0.0000 0.0000 0.4545  plane waves:     190
 k-point  82 :   0.0909 0.0000 0.4545  plane waves:     188
 k-point  83 :   0.1818-0.0000 0.4545  plane waves:     186
 k-point  84 :   0.2727 0.0000 0.4545  plane waves:     190
 k-point  85 :   0.3636 0.0000 0.4545  plane waves:     194
 k-point  86 :   0.4545 0.0000 0.4545  plane waves:     193
 k-point  87 :   0.0909 0.0909 0.4545  plane waves:     190
 k-point  88 :   0.1818 0.0909 0.4545  plane waves:     186
 k-point  89 :   0.2727 0.0909 0.4545  plane waves:     192
 k-point  90 :   0.3636 0.0909 0.4545  plane waves:     194
 k-point  91 :   0.4545 0.0909 0.4545  plane waves:     194
 k-point  92 :   0.1818 0.1818 0.4545  plane waves:     190
 k-point  93 :   0.2727 0.1818 0.4545  plane waves:     194
 k-point  94 :   0.3636 0.1818 0.4545  plane waves:     191
 k-point  95 :   0.2727 0.2727 0.4545  plane waves:     194
 k-point  96 :   0.3636 0.2727 0.4545  plane waves:     190

 maximum number of plane-waves:       203
 maximum index in each direction: 
   IXMAX=    3   IYMAX=    3   IZMAX=    5
   IXMIN=   -3   IYMIN=   -3   IZMIN=   -5


 total amount of memory used by VASP MPI-rank0    48248. kBytes
=======================================================================

   base      :      30000. kBytes
   nonl-proj :       2812. kBytes
   grid      :        721. kBytes
   one-center:         31. kBytes
   wavefun   :      14684. kBytes
 
     INWAV:  cpu time    0.0000: real time    0.0000
 Broyden mixing: mesh for mixing (old mesh)
   NGX =  7   NGY =  7   NGZ = 11
  (NGX  = 20   NGY  = 20   NGZ  = 32)
  gives a total of    539 points

 initial charge density was supplied:
 charge density of overlapping atoms calculated
 number of electron      16.0000000 magnetization 
 keeping initial charge density in first step


--------------------------------------------------------------------------------------------------------


 Maximum index for augmentation-charges         3096 (set IRDMAX)


--------------------------------------------------------------------------------------------------------


 First call to EWALD:  gamma=   0.677
 Maximum number of real-space cells 3x 3x 2
 Maximum number of reciprocal cells 2x 2x 4

    FEWALD:  cpu time    0.0008: real time    0.0008


--------------------------------------- Iteration      1(   1)  ---------------------------------------


    POTLOK:  cpu time    0.0030: real time    0.0030
    SETDIJ:  cpu time    0.0022: real time    0.0022
     EDDAV:  cpu time    0.7758: real time    0.7970
       DOS:  cpu time    0.0052: real time    0.0052
    --------------------------------------------
      LOOP:  cpu time    0.7863: real time    0.8074

 eigenvalue-minimisations  :  9464
 total energy-change (2. order) : 0.5941358E+02  (-0.2460720E+03)
 number of electron      16.0000000 magnetization 
 augmentation part       16.0000000 magnetization 

 Free energy of the ion-electron system (eV)
  ---------------------------------------------------
  alpha Z        PSCENC =       153.96480814
  Ewald energy   TEWEN  =     -1280.46585765
  -Hartree energ DENC   =      -188.35785745
  -exchange      EXHF   =         0.00000000
  -V(xc)+E(xc)   XCENC  =         9.32746999
  PAW double counting   =      1109.69170683    -1125.09647265
  entropy T*S    EENTRO =         0.00089202
  eigenvalues    EBANDS =       191.77398685
  atomic energy  EATOM  =      1188.57490811
  Solvation  Ediel_sol  =         0.00000000
  ---------------------------------------------------
  free energy    TOTEN  =        59.41358419 eV

  energy without entropy =       59.41269217  energy(sigma->0) =       59.41328685


--------------------------------------------------------------------------------------------------------




--------------------------------------- Iteration      1(   2)  ---------------------------------------


     EDDAV:  cpu time    0.6293: real time    0.6293
       DOS:  cpu time    0.0058: real time    0.0058
    --------------------------------------------
      LOOP:  cpu time    0.6351: real time    0.6351

 eigenvalue-minimisations  :  7968
 total energy-change (2. order) :-0.7413141E+02  (-0.6320326E+02)
 number of electron      16.0000000 magnetization 
 augmentation part       16.0000000 magnetization 

 Free energy of the ion-electron system (eV)
  ---------------------------------------------------
  alpha Z        PSCENC =       153.96480814
  Ewald energy   TEWEN  =     -1280.46585765
  -Hartree energ DENC   =      -188.35785745
  -exchange      EXHF   =         0.00000000
  -V(xc)+E(xc)   XCENC  =         9.32746999
  PAW double counting   =      1109.69170683    -1125.09647265
  entropy T*S    EENTRO =        -0.00146626
  eigenvalues    EBANDS =       117.64493808
  atomic energy  EATOM  =      1188.57490811
  Solvation  Ediel_sol  =         0.00000000
  ---------------------------------------------------
  free energy    TOTEN  =       -14.71782286 eV

  energy without entropy =      -14.71635660  energy(sigma->0) =      -14.71733410


--------------------------------------------------------------------------------------------------------




--------------------------------------- Iteration      1(   3)  ---------------------------------------


     EDDAV:  cpu time    0.7270: real time    0.7270
       DOS:  cpu time    0.0062: real time    0.0062
    --------------------------------------------
      LOOP:  cpu time    0.7332: real time    0.7332

 eigenvalue-minimisations  :  9624
 total energy-change (2. order) :-0.4020330E+01  (-0.3856053E+01)
 number of electron      16.0000000 magnetization 
 augmentation part       16.0000000 magnetization 

 Free energy of the ion-electron system (eV)
  ---------------------------------------------------
  alpha Z        PSCENC =       153.96480814
  Ewald energy   TEWEN  =     -1280.46585765
  -Hartree energ DENC   =      -188.35785745
  -exchange      EXHF   =         0.00000000
  -V(xc)+E(xc)   XCENC  =         9.32746999
  PAW double counting   =      1109.69170683    -1125.09647265
  entropy T*S    EENTRO =        -0.00152324
  eigenvalues    EBANDS =       113.62466554
  atomic energy  EATOM  =      1188.57490811
  Solvation  Ediel_sol  =         0.00000000
  ---------------------------------------------------
  free energy    TOTEN  =       -18.73815238 eV

  energy without entropy =      -18.73662914  energy(sigma->0) =      -18.73764464


--------------------------------------------------------------------------------------------------------




--------------------------------------- Iteration      1(   4)  ---------------------------------------


     EDDAV:  cpu time    0.6652: real time    0.6652
       DOS:  cpu time    0.0064: real time    0.0064
    --------------------------------------------
      LOOP:  cpu time    0.6716: real time    0.6716

 eigenvalue-minimisations  :  8792
 total energy-change (2. order) :-0.1421058E-01  (-0.1420439E-01)
 number of electron      16.0000000 magnetization 
 augmentation part       16.0000000 magnetization 

 Free energy of the ion-electron system (eV)
  ---------------------------------------------------
  alpha Z        PSCENC =       153.96480814
  Ewald energy   TEWEN  =     -1280.46585765
  -Hartree energ DENC   =      -188.35785745
  -exchange      EXHF   =         0.00000000
  -V(xc)+E(xc)   XCENC  =         9.32746999
  PAW double counting   =      1109.69170683    -1125.09647265
  entropy T*S    EENTRO =        -0.00150412
  eigenvalues    EBANDS =       113.61043584
  atomic energy  EATOM  =      1188.57490811
  Solvation  Ediel_sol  =         0.00000000
  ---------------------------------------------------
  free energy    TOTEN  =       -18.75236296 eV

  energy without entropy =      -18.75085884  energy(sigma->0) =      -18.75186159


--------------------------------------------------------------------------------------------------------




--------------------------------------- Iteration      1(   5)  ---------------------------------------


     EDDAV:  cpu time    0.7012: real time    0.7012
       DOS:  cpu time    0.0063: real time    0.0063
    CHARGE:  cpu time    0.0175: real time    0.0175
    MIXING:  cpu time    0.0001: real time    0.0001
    --------------------------------------------
      LOOP:  cpu time    0.7251: real time    0.7252

 eigenvalue-minimisations  :  9288
 total energy-change (2. order) :-0.9033276E-05  (-0.9034050E-05)
 number of electron      16.0000188 magnetization 
 augmentation part        7.1732504 magnetization 

 Broyden mixing:
  rms(total) = 0.19559E+01    rms(broyden)= 0.19559E+01
  rms(prec ) = 0.30589E+01
  weight for this iteration     100.00

 Free energy of the ion-electron system (eV)
  ---------------------------------------------------
  alpha Z        PSCENC =       153.96480814
  Ewald energy   TEWEN  =     -1280.46585765
  -Hartree energ DENC   =      -188.35785745
  -exchange      EXHF   =         0.00000000
  -V(xc)+E(xc)   XCENC  =         9.32746999
  PAW double counting   =      1109.69170683    -1125.09647265
  entropy T*S    EENTRO =        -0.00150412
  eigenvalues    EBANDS =       113.61042680
  atomic energy  EATOM  =      1188.57490811
  Solvation  Ediel_sol  =         0.00000000
  ---------------------------------------------------
  free energy    TOTEN  =       -18.75237200 eV

  energy without entropy =      -18.75086788  energy(sigma->0) =      -18.75187062


--------------------------------------------------------------------------------------------------------




--------------------------------------- Iteration      1(   6)  ---------------------------------------


    POTLOK:  cpu time    0.0029: real time    0.0029
    SETDIJ:  cpu time    0.0021: real time    0.0021
     EDDAV:  cpu time    0.8420: real time    0.8449
       DOS:  cpu time    0.0064: real time    0.0064
    CHARGE:  cpu time    0.0173: real time    0.0173
    MIXING:  cpu time    0.0002: real time    0.0002
    --------------------------------------------
      LOOP:  cpu time    0.8710: real time    0.8738

 eigenvalue-minimisations  : 11248
 total energy-change (2. order) : 0.2686588E+01  (-0.1342411E+00)
 number of electron      16.0000223 magnetization 
 augmentation part        8.3286118 magnetization 

 Broyden mixing:
  rms(total) = 0.13886E+00    rms(broyden)= 0.13878E+00
  rms(prec ) = 0.18307E+00
  weight for this iteration     100.00

 eigenvalues of (default mixing * dielectric matrix)
  average eigenvalue GAMMA=   1.0175
  1.0175

 Free energy of the ion-electron system (eV)
  ---------------------------------------------------
  alpha Z        PSCENC =       153.96480814
  Ewald energy   TEWEN  =     -1280.46585765
  -Hartree energ DENC   =      -157.55103447
  -exchange      EXHF   =         0.00000000
  -V(xc)+E(xc)   XCENC  =         7.81043298
  PAW double counting   =      1333.97349741    -1346.15576436
  entropy T*S    EENTRO =        -0.00015631
  eigenvalues    EBANDS =        83.78338258
  atomic energy  EATOM  =      1188.57490811
  Solvation  Ediel_sol  =         0.00000000
  ---------------------------------------------------
  free energy    TOTEN  =       -16.06578357 eV

  energy without entropy =      -16.06562726  energy(sigma->0) =      -16.06573146


--------------------------------------------------------------------------------------------------------




--------------------------------------- Iteration      1(   7)  ---------------------------------------


    POTLOK:  cpu time    0.0030: real time    0.0030
    SETDIJ:  cpu time    0.0021: real time    0.0021
     EDDAV:  cpu time    0.7317: real time    0.7317
       DOS:  cpu time    0.0064: real time    0.0064
    CHARGE:  cpu time    0.0174: real time    0.0174
    MIXING:  cpu time    0.0002: real time    0.0002
    --------------------------------------------
      LOOP:  cpu time    0.7608: real time    0.7608

 eigenvalue-minimisations  :  9712
 total energy-change (2. order) : 0.1184962E+00  (-0.6030999E-02)
 number of electron      16.0000218 magnetization 
 augmentation part        8.1712252 magnetization 

 Broyden mixing:
  rms(total) = 0.14219E+00    rms(broyden)= 0.14219E+00
  rms(prec ) = 0.21575E+00
  weight for this iteration     100.00

 eigenvalues of (default mixing * dielectric matrix)
  average eigenvalue GAMMA=   1.1489
  0.8248  1.4731

 Free energy of the ion-electron system (eV)
  ---------------------------------------------------
  alpha Z        PSCENC =       153.96480814
  Ewald energy   TEWEN  =     -1280.46585765
  -Hartree energ DENC   =      -158.70195469
  -exchange      EXHF   =         0.00000000
  -V(xc)+E(xc)   XCENC  =         7.89471900
  PAW double counting   =      1444.12878615    -1459.69028109
  entropy T*S    EENTRO =        -0.00032476
  eigenvalues    EBANDS =        88.34790944
  atomic energy  EATOM  =      1188.57490811
  Solvation  Ediel_sol  =         0.00000000
  ---------------------------------------------------
  free energy    TOTEN  =       -15.94728733 eV

  energy without entropy =      -15.94696258  energy(sigma->0) =      -15.94717908


--------------------------------------------------------------------------------------------------------




--------------------------------------- Iteration      1(   8)  ---------------------------------------


    POTLOK:  cpu time    0.0029: real time    0.0029
    SETDIJ:  cpu time    0.0021: real time    0.0021
     EDDAV:  cpu time    0.7781: real time    0.7781
       DOS:  cpu time    0.0065: real time    0.0065
    CHARGE:  cpu time    0.0170: real time    0.0170
    MIXING:  cpu time    0.0002: real time    0.0002
    --------------------------------------------
      LOOP:  cpu time    0.8068: real time    0.8068

 eigenvalue-minimisations  : 10368
 total energy-change (2. order) : 0.3546990E-01  (-0.2098737E-03)
 number of electron      16.0000219 magnetization 
 augmentation part        8.1935414 magnetization 

 Broyden mixing:
  rms(total) = 0.55432E-01    rms(broyden)= 0.55432E-01
  rms(prec ) = 0.81243E-01
  weight for this iteration     100.00

 eigenvalues of (default mixing * dielectric matrix)
  average eigenvalue GAMMA=   1.5389
  2.6945  1.0661  0.8560

 Free energy of the ion-electron system (eV)
  ---------------------------------------------------
  alpha Z        PSCENC =       153.96480814
  Ewald energy   TEWEN  =     -1280.46585765
  -Hartree energ DENC   =      -156.33449141
  -exchange      EXHF   =         0.00000000
  -V(xc)+E(xc)   XCENC  =         7.79951899
  PAW double counting   =      1549.97915945    -1567.45033999
  entropy T*S    EENTRO =        -0.00028982
  eigenvalues    EBANDS =        88.02076674
  atomic energy  EATOM  =      1188.57490811
  Solvation  Ediel_sol  =         0.00000000
  ---------------------------------------------------
  free energy    TOTEN  =       -15.91181743 eV

  energy without entropy =      -15.91152762  energy(sigma->0) =      -15.91172083


--------------------------------------------------------------------------------------------------------




--------------------------------------- Iteration      1(   9)  ---------------------------------------


    POTLOK:  cpu time    0.0030: real time    0.0030
    SETDIJ:  cpu time    0.0021: real time    0.0021
     EDDAV:  cpu time    0.7780: real time    0.7780
       DOS:  cpu time    0.0065: real time    0.0065
    CHARGE:  cpu time    0.0174: real time    0.0174
    MIXING:  cpu time    0.0002: real time    0.0002
    --------------------------------------------
      LOOP:  cpu time    0.8072: real time    0.8073

 eigenvalue-minimisations  : 10480
 total energy-change (2. order) : 0.7565280E-02  (-0.7704559E-04)
 number of electron      16.0000219 magnetization 
 augmentation part        8.2031403 magnetization 

 Broyden mixing:
  rms(total) = 0.67711E-02    rms(broyden)= 0.67707E-02
  rms(prec ) = 0.96035E-02
  weight for this iteration     100.00

 eigenvalues of (default mixing * dielectric matrix)
  average eigenvalue GAMMA=   1.6570
  2.6717  0.8622  0.9996  2.0944

 Free energy of the ion-electron system (eV)
  ---------------------------------------------------
  alpha Z        PSCENC =       153.96480814
  Ewald energy   TEWEN  =     -1280.46585765
  -Hartree energ DENC   =      -154.67147689
  -exchange      EXHF   =         0.00000000
  -V(xc)+E(xc)   XCENC  =         7.73613074
  PAW double counting   =      1641.61199649    -1660.63451962
  entropy T*S    EENTRO =        -0.00027913
  eigenvalues    EBANDS =        87.98003766
  atomic energy  EATOM  =      1188.57490811
  Solvation  Ediel_sol  =         0.00000000
  ---------------------------------------------------
  free energy    TOTEN  =       -15.90425215 eV

  energy without entropy =      -15.90397302  energy(sigma->0) =      -15.90415911


--------------------------------------------------------------------------------------------------------




--------------------------------------- Iteration      1(  10)  ---------------------------------------


    POTLOK:  cpu time    0.0029: real time    0.0029
    SETDIJ:  cpu time    0.0021: real time    0.0021
     EDDAV:  cpu time    0.6534: real time    0.6534
       DOS:  cpu time    0.0059: real time    0.0059
    CHARGE:  cpu time    0.0173: real time    0.0173
    MIXING:  cpu time    0.0002: real time    0.0002
    --------------------------------------------
      LOOP:  cpu time    0.6818: real time    0.6818

 eigenvalue-minimisations  :  8552
 total energy-change (2. order) : 0.2435886E-04  (-0.2588407E-05)
 number of electron      16.0000219 magnetization 
 augmentation part        8.2025756 magnetization 

 Broyden mixing:
  rms(total) = 0.18200E-02    rms(broyden)= 0.18197E-02
  rms(prec ) = 0.27937E-02
  weight for this iteration     100.00

 eigenvalues of (default mixing * dielectric matrix)
  average eigenvalue GAMMA=   1.6550
  2.5691  2.5691  0.8616  1.0002  1.2751

 Free energy of the ion-electron system (eV)
  ---------------------------------------------------
  alpha Z        PSCENC =       153.96480814
  Ewald energy   TEWEN  =     -1280.46585765
  -Hartree energ DENC   =      -154.80095260
  -exchange      EXHF   =         0.00000000
  -V(xc)+E(xc)   XCENC  =         7.74252986
  PAW double counting   =      1640.83284506    -1659.72825012
  entropy T*S    EENTRO =        -0.00028251
  eigenvalues    EBANDS =        87.97602391
  atomic energy  EATOM  =      1188.57490811
  Solvation  Ediel_sol  =         0.00000000
  ---------------------------------------------------
  free energy    TOTEN  =       -15.90422780 eV

  energy without entropy =      -15.90394528  energy(sigma->0) =      -15.90413362


--------------------------------------------------------------------------------------------------------




--------------------------------------- Iteration      1(  11)  ---------------------------------------


    POTLOK:  cpu time    0.0030: real time    0.0030
    SETDIJ:  cpu time    0.0022: real time    0.0022
     EDDAV:  cpu time    0.6469: real time    0.6469
       DOS:  cpu time    0.0064: real time    0.0064
    CHARGE:  cpu time    0.0173: real time    0.0173
    MIXING:  cpu time    0.0002: real time    0.0002
    --------------------------------------------
      LOOP:  cpu time    0.6760: real time    0.6760

 eigenvalue-minimisations  :  8072
 total energy-change (2. order) : 0.1362483E-04  (-0.2290406E-07)
 number of electron      16.0000219 magnetization 
 augmentation part        8.2023731 magnetization 

 Broyden mixing:
  rms(total) = 0.17408E-03    rms(broyden)= 0.17406E-03
  rms(prec ) = 0.21971E-03
  weight for this iteration     100.00

 eigenvalues of (default mixing * dielectric matrix)
  average eigenvalue GAMMA=   1.5836
  2.5775  2.5775  0.8617  1.0157  1.0157  1.4535

 Free energy of the ion-electron system (eV)
  ---------------------------------------------------
  alpha Z        PSCENC =       153.96480814
  Ewald energy   TEWEN  =     -1280.46585765
  -Hartree energ DENC   =      -154.85879134
  -exchange      EXHF   =         0.00000000
  -V(xc)+E(xc)   XCENC  =         7.74519189
  PAW double counting   =      1639.89108490    -1658.72841277
  entropy T*S    EENTRO =        -0.00028252
  eigenvalues    EBANDS =        87.97313707
  atomic energy  EATOM  =      1188.57490811
  Solvation  Ediel_sol  =         0.00000000
  ---------------------------------------------------
  free energy    TOTEN  =       -15.90421417 eV

  energy without entropy =      -15.90393165  energy(sigma->0) =      -15.90412000


--------------------------------------------------------------------------------------------------------




--------------------------------------- Iteration      1(  12)  ---------------------------------------


    POTLOK:  cpu time    0.0028: real time    0.0028
    SETDIJ:  cpu time    0.0022: real time    0.0022
     EDDAV:  cpu time    0.5036: real time    0.5036
       DOS:  cpu time    0.0065: real time    0.0065
    --------------------------------------------
      LOOP:  cpu time    0.5150: real time    0.5150

 eigenvalue-minimisations  :  5640
 total energy-change (2. order) : 0.3382543E-06  (-0.5029579E-08)
 number of electron      16.0000219 magnetization 
 augmentation part        8.2023731 magnetization 

 Free energy of the ion-electron system (eV)
  ---------------------------------------------------
  alpha Z        PSCENC =       153.96480814
  Ewald energy   TEWEN  =     -1280.46585765
  -Hartree energ DENC   =      -154.86199471
  -exchange      EXHF   =         0.00000000
  -V(xc)+E(xc)   XCENC  =         7.74533359
  PAW double counting   =      1639.93415711    -1658.76880298
  entropy T*S    EENTRO =        -0.00028235
  eigenvalues    EBANDS =        87.97351689
  atomic energy  EATOM  =      1188.57490811
  Solvation  Ediel_sol  =         0.00000000
  ---------------------------------------------------
  free energy    TOTEN  =       -15.90421383 eV

  energy without entropy =      -15.90393148  energy(sigma->0) =      -15.90411972


--------------------------------------------------------------------------------------------------------




 average (electrostatic) potential at core
  the test charge radii are     1.0103
  (the norm of the test charge is              1.0000)
       1 -41.2594       2 -41.2595
 
 
 
 E-fermi :   8.3952     XC(G=0): -14.5510     alpha+bet :-17.2652

 Fermi energy:         8.3951764997

 k-point     1 :       0.0000    0.0000    0.0000
  band No.  band energies     occupation 
      1      -1.2119      2.00000
      2       2.7014      2.00000
      3       6.1035      2.00000
      4       6.5012      2.00000
      5       6.5013      2.00000
      6       6.9462      2.00000
      7       6.9463      2.00000
      8       7.8045      2.00024
      9       7.8046      2.00024
     10       8.1484      2.07089
     11       9.2983     -0.00000
     12       9.2983     -0.00000
     13      17.6105      0.00000
     14      32.3272      0.00000
     15      34.5127      0.00000
     16      35.9463      0.00000
     17      38.6517      0.00000
     18      38.6518      0.00000
     19      39.3758      0.00000
     20      39.3760      0.00000
     21      42.2415      0.00000
     22      42.2415      0.00000
     23      42.7982      0.00000
     24      43.4144      0.00000
     25      46.7928      0.00000
     26      46.7928      0.00000
     27      48.7232      0.00000
     28      50.9798      0.00000
     29      50.9802      0.00000
     30      52.9326      0.00000
     31      52.9328      0.00000
     32      56.6512      0.00000
     33      64.5179      0.00000
     34      64.8174      0.00000
     35      65.0038      0.00000
     36      65.0048      0.00000
     37      66.6198      0.00000
     38      68.5837      0.00000
     39      68.5849      0.00000
     40      72.0428      0.00000

 k-point     2 :       0.0909    0.0000    0.0000
  band No.  band energies     occupation 
      1      -0.8566      2.00000
      2       2.9573      2.00000
      3       5.9606      2.00000
      4       6.5726      2.00000
      5       6.7218      2.00000
      6       6.8303      2.00000
      7       6.9253      2.00000
      8       7.1480      2.00000
      9       7.6666      2.00000
     10       7.7014      2.00001
     11       9.3510     -0.00000
     12      10.7566     -0.00000
     13      17.6227      0.00000
     14      31.3252      0.00000
     15      34.3262      0.00000
     16      34.7639      0.00000
     17      35.7161      0.00000
     18      37.9840      0.00000
     19      38.1718      0.00000
     20      41.8514      0.00000
     21      42.4648      0.00000
     22      42.5001      0.00000
     23      43.2548      0.00000
     24      43.9481      0.00000
     25      47.8454      0.00000
     26      47.9743      0.00000
     27      48.4836      0.00000
     28      48.7391      0.00000
     29      52.4016      0.00000
     30      54.6483      0.00000
     31      55.3749      0.00000
     32      58.0947      0.00000
     33      63.1887      0.00000
     34      64.2473      0.00000
     35      64.2960      0.00000
     36      65.4167      0.00000
     37      65.5495      0.00000
     38      69.0515      0.00000
     39      70.7819      0.00000
     40      72.0665      0.00000

 k-point     3 :       0.1818   -0.0000    0.0000
  band No.  band energies     occupation 
      1       0.1408      2.00000
      2       3.5478      2.00000
      3       5.5679      2.00000
      4       5.5761      2.00000
      5       6.4117      2.00000
      6       7.1084      2.00000
      7       7.3357      2.00000
      8       7.3388      2.00000
      9       7.3583      2.00000
     10       7.7017      2.00001
     11       9.4470     -0.00000
     12      12.8760     -0.00000
     13      17.6780      0.00000
     14      27.8039      0.00000
     15      32.6901      0.00000
     16      33.0822      0.00000
     17      33.7888      0.00000
     18      35.3226      0.00000
     19      39.0310      0.00000
     20      41.1737      0.00000
     21      41.2940      0.00000
     22      41.9024      0.00000
     23      43.9831      0.00000
     24      45.8960      0.00000
     25      47.8455      0.00000
     26      48.6141      0.00000
     27      50.3510      0.00000
     28      52.8301      0.00000
     29      55.7297      0.00000
     30      57.4867      0.00000
     31      58.0774      0.00000
     32      60.6538      0.00000
     33      61.4659      0.00000
     34      62.7857      0.00000
     35      63.0010      0.00000
     36      63.8044      0.00000
     37      66.3923      0.00000
     38      69.6217      0.00000
     39      71.9399      0.00000
     40      72.1506      0.00000

 k-point     4 :       0.2727    0.0000    0.0000
  band No.  band energies     occupation 
      1       1.5258      2.00000
      2       3.8068      2.00000
      3       4.5182      2.00000
      4       5.4446      2.00000
      5       6.2580      2.00000
      6       6.9343      2.00000
      7       6.9710      2.00000
      8       7.9691      2.01026
      9       8.2095      2.03204
     10       8.4793      0.35299
     11       9.5189     -0.00000
     12      15.1919      0.00000
     13      17.7941      0.00000
     14      23.8250      0.00000
     15      30.0833      0.00000
     16      30.1399      0.00000
     17      31.7176      0.00000
     18      34.7439      0.00000
     19      37.7247      0.00000
     20      40.6629      0.00000
     21      41.6998      0.00000
     22      41.7547      0.00000
     23      42.1882      0.00000
     24      46.3359      0.00000
     25      51.1886      0.00000
     26      53.0453      0.00000
     27      53.8712      0.00000
     28      56.1436      0.00000
     29      57.4290      0.00000
     30      58.3918      0.00000
     31      59.9066      0.00000
     32      61.5191      0.00000
     33      61.7364      0.00000
     34      62.8381      0.00000
     35      63.0780      0.00000
     36      65.3939      0.00000
     37      66.0687      0.00000
     38      70.0835      0.00000
     39      71.6994      0.00000
     40      72.1204      0.00000

 k-point     5 :       0.3636    0.0000    0.0000
  band No.  band energies     occupation 
      1       2.6927      2.00000
      2       3.5164      2.00000
      3       3.7975      2.00000
      4       5.7373      2.00000
      5       6.5625      2.00000
      6       6.6103      2.00000
      7       6.6694      2.00000
      8       9.0906     -0.00001
      9       9.2713     -0.00000
     10       9.3325     -0.00000
     11       9.5542     -0.00000
     12      17.2640      0.00000
     13      17.6141      0.00000
     14      21.1821      0.00000
     15      26.8764      0.00000
     16      28.0734      0.00000
     17      29.1682      0.00000
     18      33.6697      0.00000
     19      36.4165      0.00000
     20      39.6433      0.00000
     21      40.3577      0.00000
     22      42.7990      0.00000
     23      44.4053      0.00000
     24      46.8375      0.00000
     25      54.8946      0.00000
     26      55.0597      0.00000
     27      55.3274      0.00000
     28      58.1765      0.00000
     29      58.9051      0.00000
     30      59.5985      0.00000
     31      61.8923      0.00000
     32      62.0548      0.00000
     33      62.5424      0.00000
     34      63.1971      0.00000
     35      64.0475      0.00000
     36      65.9019      0.00000
     37      70.0727      0.00000
     38      70.4010      0.00000
     39      70.9275      0.00000
     40      71.0140      0.00000

 k-point     6 :       0.4545    0.0000    0.0000
  band No.  band energies     occupation 
      1       3.0344      2.00000
      2       3.3463      2.00000
      3       3.4329      2.00000
      4       6.3187      2.00000
      5       6.3491      2.00000
      6       6.5034      2.00000
      7       6.8925      2.00000
      8       9.5655     -0.00000
      9       9.6364     -0.00000
     10       9.8120     -0.00000
     11      11.1662     -0.00000
     12      14.9516      0.00000
     13      19.8670      0.00000
     14      21.3851      0.00000
     15      24.2272      0.00000
     16      26.6180      0.00000
     17      26.9378      0.00000
     18      32.9674      0.00000
     19      35.9887      0.00000
     20      38.4466      0.00000
     21      40.2783      0.00000
     22      43.6061      0.00000
     23      46.5215      0.00000
     24      47.3229      0.00000
     25      51.7550      0.00000
     26      56.6054      0.00000
     27      57.1348      0.00000
     28      59.9844      0.00000
     29      61.1965      0.00000
     30      61.4014      0.00000
     31      62.7917      0.00000
     32      62.9989      0.00000
     33      63.0555      0.00000
     34      65.7435      0.00000
     35      65.9812      0.00000
     36      68.1022      0.00000
     37      68.7426      0.00000
     38      68.8666      0.00000
     39      70.7252      0.00000
     40      70.8167      0.00000

 k-point     7 :       0.0909    0.0909    0.0000
  band No.  band energies     occupation 
      1      -0.1769      2.00000
      2       3.4007      2.00000
      3       5.6365      2.00000
      4       5.9375      2.00000
      5       6.6007      2.00000
      6       6.7838      2.00000
      7       7.1701      2.00000
      8       7.2088      2.00000
      9       7.5833      2.00000
     10       7.6875      2.00001
     11       9.3939     -0.00000
     12      12.2937     -0.00000
     13      17.6619      0.00000
     14      29.4426      0.00000
     15      31.0693      0.00000
     16      34.9642      0.00000
     17      35.2764      0.00000
     18      36.5831      0.00000
     19      37.0799      0.00000
     20      39.9478      0.00000
     21      41.7943      0.00000
     22      44.8446      0.00000
     23      45.1264      0.00000
     24      45.9354      0.00000
     25      46.8677      0.00000
     26      47.0443      0.00000
     27      47.3928      0.00000
     28      53.0721      0.00000
     29      55.8391      0.00000
     30      56.5036      0.00000
     31      56.6032      0.00000
     32      60.0418      0.00000
     33      61.5284      0.00000
     34      63.7050      0.00000
     35      63.8794      0.00000
     36      64.1764      0.00000
     37      65.2463      0.00000
     38      69.9919      0.00000
     39      71.8919      0.00000
     40      72.1259      0.00000

 k-point     8 :       0.1818    0.0909    0.0000
  band No.  band energies     occupation 
      1       1.0452      2.00000
      2       3.9490      2.00000
      3       4.9064      2.00000
      4       5.2171      2.00000
      5       6.3333      2.00000
      6       6.7505      2.00000
      7       7.2809      2.00000
      8       7.4138      2.00000
      9       7.9751      2.01141
     10       8.3951      1.00056
     11       9.4331     -0.00000
     12      14.3838      0.00000
     13      17.8049      0.00000
     14      25.8413      0.00000
     15      28.5398      0.00000
     16      31.8572      0.00000
     17      34.3179      0.00000
     18      34.6195      0.00000
     19      37.9584      0.00000
     20      39.6237      0.00000
     21      40.0995      0.00000
     22      44.6970      0.00000
     23      45.1506      0.00000
     24      45.6212      0.00000
     25      48.7070      0.00000
     26      49.5953      0.00000
     27      51.2637      0.00000
     28      56.6512      0.00000
     29      57.9064      0.00000
     30      59.1174      0.00000
     31      59.2145      0.00000
     32      61.1679      0.00000
     33      61.4736      0.00000
     34      62.8729      0.00000
     35      63.0915      0.00000
     36      63.6215      0.00000
     37      65.6729      0.00000
     38      70.5311      0.00000
     39      71.2286      0.00000
     40      71.9197      0.00000

 k-point     9 :       0.2727    0.0909    0.0000
  band No.  band energies     occupation 
      1       2.4232      2.00000
      2       3.8659      2.00000
      3       4.1084      2.00000
      4       5.2922      2.00000
      5       6.4115      2.00000
      6       6.4242      2.00000
      7       7.0008      2.00000
      8       8.1114      2.06211
      9       8.8692     -0.00406
     10       9.4567     -0.00000
     11       9.4603     -0.00000
     12      16.7164      0.00000
     13      17.9376      0.00000
     14      22.2169      0.00000
     15      26.7058      0.00000
     16      28.5641      0.00000
     17      31.5390      0.00000
     18      33.0139      0.00000
     19      37.5416      0.00000
     20      38.6818      0.00000
     21      40.7710      0.00000
     22      44.7081      0.00000
     23      44.7985      0.00000
     24      47.0562      0.00000
     25      50.8984      0.00000
     26      53.4856      0.00000
     27      55.5951      0.00000
     28      56.9472      0.00000
     29      57.0069      0.00000
     30      60.3283      0.00000
     31      61.0557      0.00000
     32      62.3759      0.00000
     33      62.6156      0.00000
     34      63.2274      0.00000
     35      63.9060      0.00000
     36      65.4011      0.00000
     37      68.4057      0.00000
     38      70.1116      0.00000
     39      70.1364      0.00000
     40      72.4269      0.00000

 k-point    10 :       0.3636    0.0909    0.0000
  band No.  band energies     occupation 
      1       3.1939      2.00000
      2       3.5617      2.00000
      3       3.6144      2.00000
      4       5.7959      2.00000
      5       6.2606      2.00000
      6       6.6038      2.00000
      7       6.8001      2.00000
      8       9.0871     -0.00001
      9       9.4622     -0.00000
     10       9.5119     -0.00000
     11      10.8262     -0.00000
     12      16.5003      0.00000
     13      19.1255      0.00000
     14      21.1401      0.00000
     15      25.2897      0.00000
     16      25.5948      0.00000
     17      28.3689      0.00000
     18      32.0289      0.00000
     19      36.5706      0.00000
     20      38.0587      0.00000
     21      41.4384      0.00000
     22      45.2070      0.00000
     23      46.4348      0.00000
     24      47.2340      0.00000
     25      53.6389      0.00000
     26      53.7077      0.00000
     27      56.5001      0.00000
     28      57.5911      0.00000
     29      59.5641      0.00000
     30      61.1788      0.00000
     31      61.2799      0.00000
     32      62.5498      0.00000
     33      63.1463      0.00000
     34      65.3288      0.00000
     35      66.7743      0.00000
     36      67.3169      0.00000
     37      67.6162      0.00000
     38      70.4353      0.00000
     39      71.5937      0.00000
     40      71.8454      0.00000

 k-point    11 :       0.4545    0.0909    0.0000
  band No.  band energies     occupation 
      1       3.2334      2.00000
      2       3.4477      2.00000
      3       3.5381      2.00000
      4       6.1821      2.00000
      5       6.2960      2.00000
      6       6.3674      2.00000
      7       6.9502      2.00000
      8       9.4620     -0.00000
      9       9.6295     -0.00000
     10       9.6360     -0.00000
     11      12.1545     -0.00000
     12      14.5967      0.00000
     13      20.7419      0.00000
     14      21.8192      0.00000
     15      23.7904      0.00000
     16      24.5623      0.00000
     17      26.8107      0.00000
     18      31.6689      0.00000
     19      36.1341      0.00000
[...]
     17      29.3704      0.00000
     18      30.7916      0.00000
     19      35.7980      0.00000
     20      36.3979      0.00000
     21      40.6325      0.00000
     22      41.4626      0.00000
     23      46.1074      0.00000
     24      47.2837      0.00000
     25      53.3151      0.00000
     26      55.1200      0.00000
     27      56.9330      0.00000
     28      57.6084      0.00000
     29      61.0181      0.00000
     30      61.8553      0.00000
     31      62.6768      0.00000
     32      63.2225      0.00000
     33      65.1096      0.00000
     34      65.5748      0.00000
     35      66.4465      0.00000
     36      67.1157      0.00000
     37      68.4159      0.00000
     38      70.2045      0.00000
     39      71.5957      0.00000
     40      72.0983      0.00000

 k-point    91 :       0.4545    0.0909    0.4545
  band No.  band energies     occupation 
      1       2.8905      2.00000
      2       3.0744      2.00000
      3       4.5134      2.00000
      4       4.6739      2.00000
      5       7.0642      2.00000
      6       7.5735      2.00000
      7       8.3319      1.50713
      8       8.6760     -0.06324
      9       9.5229     -0.00000
     10       9.5474     -0.00000
     11      12.0270     -0.00000
     12      12.6044     -0.00000
     13      19.2627      0.00000
     14      19.2971      0.00000
     15      27.5469      0.00000
     16      28.3863      0.00000
     17      30.2134      0.00000
     18      30.7790      0.00000
     19      35.6757      0.00000
     20      35.7250      0.00000
     21      39.9203      0.00000
     22      40.2783      0.00000
     23      46.2953      0.00000
     24      47.5073      0.00000
     25      53.6373      0.00000
     26      55.5372      0.00000
     27      59.7509      0.00000
     28      60.3084      0.00000
     29      60.4512      0.00000
     30      60.9611      0.00000
     31      62.5252      0.00000
     32      63.0368      0.00000
     33      66.4711      0.00000
     34      66.4979      0.00000
     35      67.0649      0.00000
     36      68.0576      0.00000
     37      69.5724      0.00000
     38      70.2344      0.00000
     39      71.8863      0.00000
     40      72.2560      0.00000

 k-point    92 :       0.1818    0.1818    0.4545
  band No.  band energies     occupation 
      1       3.1431      2.00000
      2       3.4145      2.00000
      3       5.1587      2.00000
      4       5.2252      2.00000
      5       5.7552      2.00000
      6       5.8348      2.00000
      7       7.4435      2.00000
      8       7.7449      2.00004
      9       9.3171     -0.00000
     10       9.4101     -0.00000
     11      10.0167     -0.00000
     12      10.6960     -0.00000
     13      25.4153      0.00000
     14      25.9201      0.00000
     15      26.2943      0.00000
     16      27.4224      0.00000
     17      28.1145      0.00000
     18      29.8571      0.00000
     19      39.8462      0.00000
     20      40.9262      0.00000
     21      41.4857      0.00000
     22      42.6354      0.00000
     23      45.1159      0.00000
     24      45.1908      0.00000
     25      51.6834      0.00000
     26      52.2251      0.00000
     27      56.0074      0.00000
     28      56.1827      0.00000
     29      58.6969      0.00000
     30      60.1122      0.00000
     31      60.9215      0.00000
     32      61.4378      0.00000
     33      62.5267      0.00000
     34      62.6973      0.00000
     35      64.6109      0.00000
     36      64.8611      0.00000
     37      68.3627      0.00000
     38      69.7840      0.00000
     39      70.5867      0.00000
     40      70.6331      0.00000

 k-point    93 :       0.2727    0.1818    0.4545
  band No.  band energies     occupation 
      1       3.4033      2.00000
      2       3.5264      2.00000
      3       4.9458      2.00000
      4       5.2093      2.00000
      5       6.0490      2.00000
      6       6.2614      2.00000
      7       7.4222      2.00000
      8       7.7086      2.00001
      9       9.4383     -0.00000
     10       9.7073     -0.00000
     11      11.6288     -0.00000
     12      12.2547     -0.00000
     13      22.2116      0.00000
     14      22.8493      0.00000
     15      25.1192      0.00000
     16      25.9276      0.00000
     17      29.0360      0.00000
     18      30.9740      0.00000
     19      37.8946      0.00000
     20      39.3739      0.00000
     21      40.9372      0.00000
     22      42.3979      0.00000
     23      45.1786      0.00000
     24      45.7584      0.00000
     25      52.9142      0.00000
     26      53.4655      0.00000
     27      57.3645      0.00000
     28      58.9727      0.00000
     29      61.1160      0.00000
     30      62.0863      0.00000
     31      62.6332      0.00000
     32      63.2408      0.00000
     33      63.9623      0.00000
     34      64.2377      0.00000
     35      64.6020      0.00000
     36      65.0641      0.00000
     37      68.9567      0.00000
     38      70.6771      0.00000
     39      70.8211      0.00000
     40      71.7615      0.00000

 k-point    94 :       0.3636    0.1818    0.4545
  band No.  band energies     occupation 
      1       3.3912      2.00000
      2       3.5787      2.00000
      3       4.7965      2.00000
      4       5.0587      2.00000
      5       6.1635      2.00000
      6       6.5781      2.00000
      7       7.8328      2.00051
      8       7.9849      2.01350
      9       9.3851     -0.00000
     10       9.5812     -0.00000
     11      13.4291     -0.00000
     12      13.9192      0.00000
     13      19.6276      0.00000
     14      20.0283      0.00000
     15      24.4446      0.00000
     16      25.2675      0.00000
     17      30.6373      0.00000
     18      31.8784      0.00000
     19      36.5491      0.00000
     20      37.6663      0.00000
     21      39.7014      0.00000
     22      41.2878      0.00000
     23      46.2074      0.00000
     24      46.6278      0.00000
     25      55.8632      0.00000
     26      56.4389      0.00000
     27      57.7639      0.00000
     28      59.4330      0.00000
     29      60.2126      0.00000
     30      60.6976      0.00000
     31      62.7655      0.00000
     32      63.3909      0.00000
     33      65.0388      0.00000
     34      65.5783      0.00000
     35      67.0144      0.00000
     36      67.7520      0.00000
     37      69.3658      0.00000
     38      69.9171      0.00000
     39      70.5780      0.00000
     40      72.1139      0.00000

 k-point    95 :       0.2727    0.2727    0.4545
  band No.  band energies     occupation 
      1       3.8318      2.00000
      2       3.9043      2.00000
      3       5.0081      2.00000
      4       5.2636      2.00000
      5       5.7207      2.00000
      6       5.9831      2.00000
      7       7.3860      2.00000
      8       7.6278      2.00000
      9       9.4015     -0.00000
     10       9.6117     -0.00000
     11      13.9286      0.00000
     12      14.5144      0.00000
     13      20.5267      0.00000
     14      21.0203      0.00000
     15      22.7191      0.00000
     16      23.1765      0.00000
     17      30.8486      0.00000
     18      32.6520      0.00000
     19      36.5373      0.00000
     20      38.1594      0.00000
     21      39.5418      0.00000
     22      40.8395      0.00000
     23      47.9068      0.00000
     24      48.3469      0.00000
     25      53.1270      0.00000
     26      53.1940      0.00000
     27      59.9074      0.00000
     28      60.4769      0.00000
     29      60.9220      0.00000
     30      61.9029      0.00000
     31      63.2288      0.00000
     32      63.4813      0.00000
     33      63.7164      0.00000
     34      64.2415      0.00000
     35      67.2298      0.00000
     36      67.8354      0.00000
     37      68.2779      0.00000
     38      68.5622      0.00000
     39      69.7039      0.00000
     40      71.9112      0.00000

 k-point    96 :       0.3636    0.2727    0.4545
  band No.  band energies     occupation 
      1       4.0516      2.00000
      2       4.2117      2.00000
      3       4.8829      2.00000
      4       4.9594      2.00000
      5       5.7852      2.00000
      6       5.9129      2.00000
      7       7.4819      2.00000
      8       7.6663      2.00000
      9       9.3603     -0.00000
     10       9.4397     -0.00000
     11      15.8328      0.00000
     12      15.9810      0.00000
     13      18.8324      0.00000
     14      19.2426      0.00000
     15      22.0787      0.00000
     16      22.5369      0.00000
     17      32.4918      0.00000
     18      33.5154      0.00000
     19      35.8263      0.00000
     20      36.0143      0.00000
     21      39.3713      0.00000
     22      40.2849      0.00000
     23      49.2958      0.00000
     24      50.0035      0.00000
     25      53.9755      0.00000
     26      54.3960      0.00000
     27      57.6441      0.00000
     28      57.9888      0.00000
     29      61.7076      0.00000
     30      62.9808      0.00000
     31      63.3722      0.00000
     32      63.5759      0.00000
     33      64.6466      0.00000
     34      65.0288      0.00000
     35      65.7465      0.00000
     36      67.0300      0.00000
     37      69.3692      0.00000
     38      71.4442      0.00000
     39      71.5035      0.00000
     40      72.4649      0.00000


--------------------------------------------------------------------------------------------------------


 soft charge-density along one line, spin component           1
         0         1         2         3         4         5         6         7         8         9
x     7.7976    0.0000    0.0825   -0.1429   -0.0555   -0.0961    0.0208    0.0000    0.0012   -0.0021
x     0.0000    0.0000
y     7.7976    0.0000    0.0825    0.1429   -0.0555    0.0961    0.0208   -0.0000    0.0012    0.0021
y     0.0000    0.0000
z     7.7976    0.0000    0.0000   -0.0000    0.2393    0.0000    0.0000   -0.0000   -0.1358   -0.0000
z     0.0000   -0.0000    0.0232   -0.0000    0.0000    0.0000    0.0000    0.0000
 total charge-density along one line
x    16.0000    0.0000    1.4357   -2.4867    0.2717    0.4706    0.0126    0.0000    0.0017   -0.0029
x    -0.0002   -0.0004    0.0003   -0.0000   -0.0000    0.0001    0.0000    0.0001   -0.0001    0.0000
x     0.0000    0.0000
y    16.0000    0.0000    1.4357    2.4867    0.2717   -0.4706    0.0126   -0.0000    0.0017    0.0029
y    -0.0002    0.0004    0.0003    0.0000   -0.0000   -0.0001    0.0000   -0.0001   -0.0001   -0.0000
y     0.0000   -0.0000
z    16.0000    0.0000    0.0000   -0.0000    5.5398    0.0000    0.0000   -0.0000    1.0340    0.0000
z     0.0000   -0.0000    0.0032   -0.0000    0.0000    0.0000    0.0059    0.0000   -0.0000    0.0000
z    -0.0020    0.0000    0.0000   -0.0000    0.0009   -0.0000   -0.0000   -0.0000   -0.0006    0.0000
z    -0.0000   -0.0000    0.0005    0.0000
 
 pseudopotential strength for first ion, spin component:           1
 -3.555  -0.000  -0.000   0.000  -0.000  -4.143  -0.000  -0.000
 -0.000  -3.550  -0.000  -0.000  -0.000  -0.000  -4.139  -0.000
 -0.000  -0.000  -3.561  -0.000  -0.000  -0.000  -0.000  -4.149
  0.000  -0.000  -0.000  -3.550  -0.000   0.000  -0.000  -0.000
 -0.000  -0.000  -0.000  -0.000  -3.555  -0.000  -0.000  -0.000
 -4.143  -0.000  -0.000   0.000  -0.000  -4.689  -0.000  -0.000
 -0.000  -4.139  -0.000  -0.000  -0.000  -0.000  -4.684  -0.000
 -0.000  -0.000  -4.149  -0.000  -0.000  -0.000  -0.000  -4.694
  0.000  -0.000  -0.000  -4.139  -0.000   0.000  -0.000  -0.000
 -0.000  -0.000  -0.000  -0.000  -4.143  -0.000  -0.000  -0.000
  0.000  -0.000   0.001   0.000  -0.000   0.000  -0.000   0.001
  0.000  -0.000   0.002   0.000  -0.000   0.000  -0.000   0.002
 -0.000   0.000   0.000   0.000  -0.002  -0.000   0.000   0.000
  0.000  -0.000   0.000   0.000   0.000   0.000  -0.000   0.000
 -0.002   0.000   0.000   0.000  -0.000  -0.002   0.000   0.000
 -0.000   0.000   0.000   0.000  -0.002  -0.000   0.000   0.000
  0.000  -0.000   0.000  -0.000   0.000   0.000  -0.000   0.000
 -0.002   0.000   0.000   0.000  -0.000  -0.002   0.000   0.000
 total augmentation occupancy for first ion, spin component:           1
  1.880  -0.000   0.000   0.000   0.000  -1.442   0.000  -0.000   0.000   0.000   0.000   0.000   0.000   0.000   0.041  -0.000
  0.000   2.178  -0.000  -0.000   0.000   0.000  -1.586  -0.000   0.000  -0.000  -0.000  -0.000  -0.000   0.000  -0.000   0.000
  0.000   0.000   1.562   0.000  -0.000  -0.000  -0.000  -1.220  -0.000   0.000  -0.010  -0.005  -0.000   0.000   0.000   0.000
  0.000  -0.000  -0.000   2.178   0.000   0.000   0.000   0.000  -1.586   0.000   0.000   0.000   0.000   0.000  -0.000   0.000
 -0.000   0.000  -0.000   0.000   1.880  -0.000   0.000   0.000  -0.000  -1.442   0.000   0.000   0.041  -0.000  -0.000  -0.002
 -1.442   0.000  -0.000   0.000  -0.000   2.381  -0.000   0.000   0.000   0.000   0.000  -0.000  -0.000  -0.000  -0.060   0.000
  0.000  -1.586  -0.000   0.000   0.000   0.000   2.349   0.000  -0.000   0.000  -0.000  -0.000  -0.000   0.000   0.000   0.000
 -0.000   0.000  -1.220  -0.000   0.000   0.000   0.000   2.243   0.000  -0.000  -0.030   0.002   0.000   0.000  -0.000  -0.000
  0.000   0.000   0.000  -1.586  -0.000   0.000  -0.000   0.000   2.349   0.000   0.000  -0.000   0.000   0.000  -0.000   0.000
 -0.000   0.000   0.000   0.000  -1.442   0.000   0.000  -0.000   0.000   2.381  -0.000   0.000  -0.060   0.000   0.000   0.002
  0.000   0.000  -0.010   0.000   0.000   0.000  -0.000  -0.030   0.000  -0.000   3.074  -0.370  -0.000   0.000   0.000  -0.000
  0.000  -0.000  -0.005   0.000   0.000  -0.000  -0.000   0.002  -0.000   0.000  -0.370   0.050   0.000   0.000   0.000   0.000
  0.000  -0.000  -0.000   0.000   0.041  -0.000   0.000   0.000   0.000  -0.060  -0.000   0.000   0.420  -0.000  -0.000  -0.033
 -0.000   0.000   0.000   0.000   0.000   0.000   0.000   0.000   0.000   0.000   0.000   0.000   0.000   0.413  -0.000   0.000
  0.041  -0.000  -0.000  -0.000  -0.000  -0.060  -0.000  -0.000  -0.000   0.000  -0.000   0.000  -0.000  -0.000   0.420   0.000
 -0.000   0.000   0.000   0.000  -0.002   0.000   0.000  -0.000   0.000   0.002   0.000   0.000  -0.033  -0.000   0.000   0.003
  0.000   0.000   0.000  -0.000   0.000   0.000  -0.000   0.000  -0.000   0.000   0.000   0.000  -0.000  -0.035   0.000  -0.000
 -0.002  -0.000  -0.000   0.000   0.000   0.002   0.000   0.000   0.000  -0.000  -0.000   0.000   0.000   0.000  -0.033  -0.000


------------------------ aborting loop because EDIFF is reached ----------------------------------------


    CHARGE:  cpu time    0.0174: real time    0.0174
    FORLOC:  cpu time    0.0002: real time    0.0002
    FORNL :  cpu time    0.0971: real time    0.0971
    STRESS:  cpu time    0.1371: real time    0.1371
    FORCOR:  cpu time    0.0031: real time    0.0031
    FORHAR:  cpu time    0.0007: real time    0.0007
    MIXING:  cpu time    0.0002: real time    0.0002

  FORCE on cell =-STRESS in cart. coord.  units (eV):
  Direction    XX          YY          ZZ          XY          YZ          ZX
  --------------------------------------------------------------------------------------
  Alpha Z   153.96481   153.96481   153.96481
  Ewald    -420.65408  -420.65408  -439.15817     0.00000    -0.00000     0.00000
  Hartree    53.74068    53.74069    47.37875    -0.00000    -0.00000    -0.00000
  E(xc)     -79.94874   -79.94876   -79.80698     0.00015     0.00000     0.00000
  Local     119.91647   119.91665   143.53117    -0.00072     0.00000    -0.00000
  n-local   -49.76756   -49.48541   -51.18726    -4.51435     1.59403     1.12498
  augment    75.15737    75.15706    75.24170     0.00087    -0.00000     0.00000
  Kinetic   157.28321   151.28461   152.21426     0.82936    -1.09758     0.04134
  Fock        0.00000     0.00000     0.00000     0.00000     0.00000     0.00000
  -------------------------------------------------------------------------------------
  Total       6.83387     6.83387     2.17828    -0.00000     0.00000     0.00000
  in kB     609.78105   609.78105   194.36637    -0.00000     0.00000     0.00000
  external pressure =      471.31 kB  Pullay stress =        0.00 kB


 VOLUME and BASIS-vectors are now :
 -----------------------------------------------------------------------------
  energy-cutoff  :      280.00
  volume of cell :       17.96
      direct lattice vectors                 reciprocal lattice vectors
     2.306700000  0.000000000  0.000000000     0.433519747  0.250292743  0.000000000
    -1.153350000  1.997660799  0.000000000     0.000000000  0.500585485  0.000000000
     0.000000000  0.000000000  3.896640000     0.000000000  0.000000000  0.256631354

  length of vectors
     2.306700000  2.306700000  3.896640000     0.500585485  0.500585485  0.256631354


 FORCES acting on ions
    electron-ion (+dipol)            ewald-force                    non-local-force                 convergence-correction
 -----------------------------------------------------------------------------------------------
   0.915E-07 -.857E-06 -.395E-14   0.765E-12 -.442E-12 -.242E-13   0.210E-16 -.235E-17 0.367E-19   -.110E-07 0.633E-08 0.593E-14
   -.612E-05 0.403E-05 0.473E-13   -.761E-12 0.440E-12 0.241E-13   -.202E-16 0.130E-17 -.127E-19   0.111E-07 -.640E-08 0.325E-13
 -----------------------------------------------------------------------------------------------
   -.602E-05 0.317E-05 0.434E-13   0.368E-14 -.128E-14 -.689E-17   0.730E-18 -.105E-17 0.239E-19   0.103E-09 -.602E-10 0.384E-13
 
 
 POSITION                                       TOTAL-FORCE (eV/Angst)
 -----------------------------------------------------------------------------------
      0.00000      0.00000      0.00000        -0.000000     -0.000000     -0.000000
      0.00000      1.33177      1.94832         0.000000      0.000000      0.000000
 -----------------------------------------------------------------------------------
    total drift:                               -0.000006      0.000003      0.000000


--------------------------------------------------------------------------------------------------------



  FREE ENERGIE OF THE ION-ELECTRON SYSTEM (eV)
  ---------------------------------------------------
  free  energy   TOTEN  =       -15.90421383 eV

  energy  without entropy=      -15.90393148  energy(sigma->0) =      -15.90411972
 


--------------------------------------------------------------------------------------------------------


    POTLOK:  cpu time    0.0051: real time    0.0051


--------------------------------------------------------------------------------------------------------


 writing wavefunctions
     LOOP+:  cpu time    8.9682: real time    8.9925
    4ORBIT:  cpu time    0.0000: real time    0.0000

 total amount of memory used by VASP MPI-rank0    48248. kBytes
=======================================================================

   base      :      30000. kBytes
   nonl-proj :       2812. kBytes
   grid      :        721. kBytes
   one-center:         31. kBytes
   wavefun   :      14684. kBytes
 
  
  
 General timing and accounting informations for this job:
 ========================================================
  
                  Total CPU time used (sec):        9.136
                            User time (sec):        9.084
                          System time (sec):        0.052
                         Elapsed time (sec):        9.149
  
                   Maximum memory used (kb):       53088.
                   Average memory used (kb):          N/A
  
                          Minor page faults:         6871
                          Major page faults:            0
                 Voluntary context switches:           26
