<?xml version="1.0" encoding="ISO-8859-1"?>
<modeling>
 <generator>
  <i name="program" type="string">vasp </i>
  <i name="version" type="string">6.2.0  </i>
  <i name="subversion" type="string">18Jan21 (build Mar 17 2021 09:06:54) complex                          serial </i>
  <i name="platform" type="string">LinuxIFC </i>
  <i name="date" type="string">2021 09 09 </i>
  <i name="time" type="string">12:02:11 </i>
 </generator>
 <incar>
  <i type="string" name="PREC">normal</i>
  <i type="int" name="ICHARG">     1</i>
  <i type="int" name="IBRION">     1</i>
  <i name="EDIFF">      0.00000100</i>
  <i type="int" name="NSW">     0</i>
  <i type="int" name="ISIF">     2</i>
  <i name="ENCUT">    280.00000000</i>
  <i type="int" name="NBANDS">    40</i>
  <i type="int" name="ISMEAR">     1</i>
  <i name="SIGMA">      0.20000000</i>
  <i type="logical" name="LCHARG"> T  </i>
  <i type="int" name="KPAR">     1</i>
  <i type="int" name="NCORE">     1</i>
  <i type="string" name="GGA">PE</i>
 </incar>
 <primitive_cell>
  <structure name="primitive_cell" >
   <crystal>
    <varray name="basis" >
     <v>       2.30670000       0.00000000       0.00000000 </v>
     <v>      -1.15335000       1.99766080       0.00000000 </v>
     <v>       0.00000000       0.00000000       3.89664000 </v>
    </varray>
    <i name="volume">     17.95573335 </i>
    <varray name="rec_basis" >
     <v>       0.43351975       0.25029274       0.00000000 </v>
     <v>       0.00000000       0.50058549       0.00000000 </v>
     <v>       0.00000000       0.00000000       0.25663135 </v>
    </varray>
   </crystal>
   <varray name="positions" >
    <v>       0.00000000       0.00000000       0.00000000 </v>
    <v>       0.33333333       0.66666667       0.50000000 </v>
   </varray>
  </structure>
  <varray name="primitive_index" >
   <v type="int" >        1 </v>
   <v type="int" >        2 </v>
  </varray>
 </primitive_cell>
 <kpoints>
  <generation param="Monkhorst-Pack">
   <v type="int" name="divisions">      11       11       11 </v>
   <v name="usershift">      0.00000000       0.00000000       0.00000000 </v>
   <v name="genvec1">      0.09090909      -0.00000000       0.00000000 </v>
   <v name="genvec2">      0.00000000       0.09090909       0.00000000 </v>
   <v name="genvec3">      0.00000000       0.00000000       0.09090909 </v>
   <v name="shift">      0.00000000       0.00000000       0.00000000 </v>
  </generation>
  <varray name="kpointlist" >
   <v>       0.00000000       0.00000000       0.00000000 </v>
   <v>       0.09090909       0.00000000       0.00000000 </v>
   <v>       0.18181818      -0.00000000       0.00000000 </v>
   <v>       0.27272727       0.00000000       0.00000000 </v>
   <v>       0.36363636       0.00000000       0.00000000 </v>
   <v>       0.45454545       0.00000000       0.00000000 </v>
   <v>       0.09090909       0.09090909       0.00000000 </v>
   <v>       0.18181818       0.09090909       0.00000000 </v>
   <v>       0.27272727       0.09090909       0.00000000 </v>
   <v>       0.36363636       0.09090909       0.00000000 </v>
   <v>       0.45454545       0.09090909       0.00000000 </v>
   <v>       0.18181818       0.18181818       0.00000000 </v>
   <v>       0.27272727       0.18181818       0.00000000 </v>
   <v>       0.36363636       0.18181818       0.00000000 </v>
   <v>       0.27272727       0.27272727       0.00000000 </v>
   <v>       0.36363636       0.27272727       0.00000000 </v>
   <v>       0.00000000       0.00000000       0.09090909 </v>
   <v>       0.09090909       0.00000000       0.09090909 </v>
   <v>       0.18181818      -0.00000000       0.09090909 </v>
   <v>       0.27272727       0.00000000       0.09090909 </v>
   <v>       0.36363636       0.00000000       0.09090909 </v>
   <v>       0.45454545       0.00000000       0.09090909 </v>
   <v>       0.09090909       0.09090909       0.09090909 </v>
   <v>       0.18181818       0.09090909       0.09090909 </v>
   <v>       0.27272727       0.09090909       0.09090909 </v>
   <v>       0.36363636       0.09090909       0.09090909 </v>
   <v>       0.45454545       0.09090909       0.09090909 </v>
   <v>       0.18181818       0.18181818       0.09090909 </v>
   <v>       0.27272727       0.18181818       0.09090909 </v>
   <v>       0.36363636       0.18181818       0.09090909 </v>
   <v>       0.27272727       0.27272727       0.09090909 </v>
   <v>       0.36363636       0.27272727       0.09090909 </v>
   <v>       0.00000000       0.00000000       0.18181818 </v>
   <v>       0.09090909       0.00000000       0.18181818 </v>
   <v>       0.18181818      -0.00000000       0.18181818 </v>
   <v>       0.27272727       0.00000000       0.18181818 </v>
   <v>       0.36363636       0.00000000       0.18181818 </v>
   <v>       0.45454545       0.00000000       0.18181818 </v>
   <v>       0.09090909       0.09090909       0.18181818 </v>
   <v>       0.18181818       0.09090909       0.18181818 </v>
   <v>       0.27272727       0.09090909       0.18181818 </v>
   <v>       0.36363636       0.09090909       0.18181818 </v>
   <v>       0.45454545       0.09090909       0.18181818 </v>
   <v>       0.18181818       0.18181818       0.18181818 </v>
   <v>       0.27272727       0.18181818       0.18181818 </v>
   <v>       0.36363636       0.18181818       0.18181818 </v>
   <v>       0.27272727       0.27272727       0.18181818 </v>
   <v>       0.36363636       0.27272727       0.18181818 </v>
   <v>       0.00000000       0.00000000       0.27272727 </v>
   <v>       0.09090909       0.00000000       0.27272727 </v>
   <v>       0.18181818      -0.00000000       0.27272727 </v>
   <v>       0.27272727       0.00000000       0.27272727 </v>
   <v>       0.36363636       0.00000000       0.27272727 </v>
   <v>       0.45454545       0.00000000       0.27272727 </v>
   <v>       0.09090909       0.09090909       0.27272727 </v>
   <v>       0.18181818       0.09090909       0.27272727 </v>
   <v>       0.27272727       0.09090909       0.27272727 </v>
   <v>       0.36363636       0.09090909       0.27272727 </v>
   <v>       0.45454545       0.09090909       0.27272727 </v>
   <v>       0.18181818       0.18181818       0.27272727 </v>
   <v>       0.27272727       0.18181818       0.27272727 </v>
   <v>       0.36363636       0.18181818       0.27272727 </v>
   <v>       0.27272727       0.27272727       0.27272727 </v>
   <v>       0.36363636       0.27272727       0.27272727 </v>
   <v>       0.00000000       0.00000000       0.36363636 </v>
   <v>       0.09090909       0.00000000       0.36363636 </v>
   <v>       0.18181818      -0.00000000       0.36363636 </v>
   <v>       0.27272727       0.00000000       0.36363636 </v>
   <v>       0.36363636       0.00000000       0.36363636 </v>
   <v>       0.45454545       0.00000000       0.36363636 </v>
   <v>       0.09090909       0.09090909       0.36363636 </v>
   <v>       0.18181818       0.09090909       0.36363636 </v>
   <v>       0.27272727       0.09090909       0.36363636 </v>
   <v>       0.36363636       0.09090909       0.36363636 </v>
   <v>       0.45454545       0.09090909       0.36363636 </v>
   <v>       0.18181818       0.18181818       0.36363636 </v>
   <v>       0.27272727       0.18181818       0.36363636 </v>
   <v>       0.36363636       0.18181818       0.36363636 </v>
   <v>       0.27272727       0.27272727       0.36363636 </v>
   <v>       0.36363636       0.27272727       0.36363636 </v>
   <v>       0.00000000       0.00000000       0.45454545 </v>
   <v>       0.09090909       0.00000000       0.45454545 </v>
   <v>       0.18181818      -0.00000000       0.45454545 </v>
   <v>       0.27272727       0.00000000       0.45454545 </v>
   <v>       0.36363636       0.00000000       0.45454545 </v>
   <v>       0.45454545       0.00000000       0.45454545 </v>
   <v>       0.09090909       0.09090909       0.45454545 </v>
   <v>       0.18181818       0.09090909       0.45454545 </v>
   <v>       0.27272727       0.09090909       0.45454545 </v>
   <v>       0.36363636       0.09090909       0.45454545 </v>
   <v>       0.45454545       0.09090909       0.45454545 </v>
   <v>       0.18181818       0.18181818       0.45454545 </v>
   <v>       0.27272727       0.18181818       0.45454545 </v>
   <v>       0.36363636       0.18181818       0.45454545 </v>
   <v>       0.27272727       0.27272727       0.45454545 </v>
   <v>       0.36363636       0.27272727       0.45454545 </v>
  </varray>
  <varray name="weights" >
   <v>       0.00075131 </v>
   <v>       0.00450789 </v>
   <v>       0.00450789 </v>
   <v>       0.00450789 </v>
   <v>       0.00450789 </v>
   <v>       0.00450789 </v>
   <v>       0.00450789 </v>
   <v>       0.00901578 </v>
   <v>       0.00901578 </v>
   <v>       0.00901578 </v>
   <v>       0.00450789 </v>
   <v>       0.00450789 </v>
   <v>       0.00901578 </v>
   <v>       0.00901578 </v>
   <v>       0.00450789 </v>
   <v>       0.00450789 </v>
   <v>       0.00150263 </v>
   <v>       0.00901578 </v>
   <v>       0.00901578 </v>
   <v>       0.00901578 </v>
   <v>       0.00901578 </v>
   <v>       0.00901578 </v>
   <v>       0.00901578 </v>
   <v>       0.01803156 </v>
   <v>       0.01803156 </v>
   <v>       0.01803156 </v>
   <v>       0.00901578 </v>
   <v>       0.00901578 </v>
   <v>       0.01803156 </v>
   <v>       0.01803156 </v>
   <v>       0.00901578 </v>
   <v>       0.00901578 </v>
   <v>       0.00150263 </v>
   <v>       0.00901578 </v>
   <v>       0.00901578 </v>
   <v>       0.00901578 </v>
   <v>       0.00901578 </v>
   <v>       0.00901578 </v>
   <v>       0.00901578 </v>
   <v>       0.01803156 </v>
   <v>       0.01803156 </v>
   <v>       0.01803156 </v>
   <v>       0.00901578 </v>
   <v>       0.00901578 </v>
   <v>       0.01803156 </v>
   <v>       0.01803156 </v>
   <v>       0.00901578 </v>
   <v>       0.00901578 </v>
   <v>       0.00150263 </v>
   <v>       0.00901578 </v>
   <v>       0.00901578 </v>
   <v>       0.00901578 </v>
   <v>       0.00901578 </v>
   <v>       0.00901578 </v>
   <v>       0.00901578 </v>
   <v>       0.01803156 </v>
   <v>       0.01803156 </v>
   <v>       0.01803156 </v>
   <v>       0.00901578 </v>
   <v>       0.00901578 </v>
   <v>       0.01803156 </v>
   <v>       0.01803156 </v>
   <v>       0.00901578 </v>
   <v>       0.00901578 </v>
   <v>       0.00150263 </v>
   <v>       0.00901578 </v>
   <v>       0.00901578 </v>
   <v>       0.00901578 </v>
   <v>       0.00901578 </v>
   <v>       0.00901578 </v>
   <v>       0.00901578 </v>
   <v>       0.01803156 </v>
   <v>       0.01803156 </v>
   <v>       0.01803156 </v>
   <v>       0.00901578 </v>
   <v>       0.00901578 </v>
   <v>       0.01803156 </v>
   <v>       0.01803156 </v>
   <v>       0.00901578 </v>
   <v>       0.00901578 </v>
   <v>       0.00150263 </v>
   <v>       0.00901578 </v>
   <v>       0.00901578 </v>
   <v>       0.00901578 </v>
   <v>       0.00901578 </v>
   <v>       0.00901578 </v>
   <v>       0.00901578 </v>
   <v>       0.01803156 </v>
   <v>       0.01803156 </v>
   <v>       0.01803156 </v>
   <v>       0.00901578 </v>
   <v>       0.00901578 </v>
   <v>       0.01803156 </v>
   <v>       0.01803156 </v>
   <v>       0.00901578 </v>
   <v>       0.00901578 </v>
  </varray>
 </kpoints>
 <parameters>
  <separator name="general" >
   <i type="string" name="SYSTEM">unknown system</i>
   <i type="logical" name="LCOMPAT"> F  </i>
  </separator>
  <separator name="electronic" >
   <i type="string" name="PREC">normal</i>
   <i name="ENMAX">    280.00000000</i>
   <i name="ENAUG">    511.36800000</i>
   <i name="EDIFF">      0.00000100</i>
   <i type="int" name="IALGO">    38</i>
   <i type="int" name="IWAVPR">     0</i>
   <i type="int" name="NBANDS">    40</i>
   <i type="int" name="NBANDSLOW">    -1</i>
   <i type="int" name="NBANDSHIGH">    -1</i>
   <i name="NELECT">     16.00000000</i>
   <i type="int" name="TURBO">     0</i>
   <i type="int" name="IRESTART">     0</i>
   <i type="int" name="NREBOOT">     0</i>
   <i type="int" name="NMIN">     0</i>
   <i name="EREF">      0.00000000</i>
   <separator name="electronic smearing" >
    <i type="int" name="ISMEAR">     1</i>
    <i name="SIGMA">      0.20000000</i>
    <i name="KSPACING">      0.50000000</i>
    <i type="logical" name="KGAMMA"> T  </i>
    <i type="logical" name="KBLOWUP"> T  </i>
   </separator>
   <separator name="electronic projectors" >
    <i type="logical" name="LREAL"> F  </i>
    <v name="ROPT">      0.00000000</v>
    <i type="int" name="LMAXPAW">  -100</i>
    <i type="int" name="LMAXMIX">     2</i>
    <i type="logical" name="NLSPLINE"> F  </i>
   </separator>
   <separator name="electronic startup" >
    <i type="int" name="ISTART">     0</i>
    <i type="int" name="ICHARG">     1</i>
    <i type="int" name="INIWAV">     1</i>
   </separator>
   <separator name="electronic spin" >
    <i type="int" name="ISPIN">     1</i>
    <i type="logical" name="LNONCOLLINEAR"> F  </i>
    <v name="MAGMOM">      1.00000000      1.00000000</v>
    <i name="NUPDOWN">     -1.00000000</i>
    <i type="logical" name="LSORBIT"> F  </i>
    <v name="SAXIS">      0.00000000      0.00000000      1.00000000</v>
    <i type="logical" name="LSPIRAL"> F  </i>
    <v name="QSPIRAL">      0.00000000      0.00000000      0.00000000</v>
    <i type="logical" name="LZEROZ"> F  </i>
   </separator>
   <separator name="electronic exchange-correlation" >
    <i type="logical" name="LASPH"> F  </i>
    <i type="logical" name="LMETAGGA"> F  </i>
   </separator>
   <separator name="electronic convergence" >
    <i type="int" name="NELM">    60</i>
    <i type="int" name="NELMDL">    -5</i>
    <i type="int" name="NELMIN">     2</i>
    <i name="ENINI">    280.00000000</i>
    <separator name="electronic convergence detail" >
     <i type="logical" name="LDIAG"> T  </i>
     <i type="logical" name="LSUBROT"> F  </i>
     <i name="WEIMIN">      0.00000000</i>
     <i name="EBREAK">      0.00000001</i>
     <i name="DEPER">      0.30000000</i>
     <i type="int" name="NRMM">     4</i>
     <i name="TIME">      0.40000000</i>
    </separator>
   </separator>
   <separator name="electronic mixer" >
    <i name="AMIX">      0.40000000</i>
    <i name="BMIX">      1.00000000</i>
    <i name="AMIN">      0.10000000</i>
    <i name="AMIX_MAG">      1.60000000</i>
    <i name="BMIX_MAG">      1.00000000</i>
    <separator name="electronic mixer details" >
     <i type="int" name="IMIX">     4</i>
     <i type="logical" name="MIXFIRST"> F  </i>
     <i type="int" name="MAXMIX">   -45</i>
     <i name="WC">    100.00000000</i>
     <i type="int" name="INIMIX">     1</i>
     <i type="int" name="MIXPRE">     1</i>
     <i type="int" name="MREMOVE">     5</i>
    </separator>
   </separator>
   <separator name="electronic dipolcorrection" >
    <i type="logical" name="LDIPOL"> F  </i>
    <i type="logical" name="LMONO"> F  </i>
    <i type="int" name="IDIPOL">     0</i>
    <i name="EPSILON">      1.00000000</i>
    <v name="DIPOL">   -100.00000000   -100.00000000   -100.00000000</v>
    <i name="EFIELD">      0.00000000</i>
   </separator>
  </separator>
  <separator name="grids" >
   <i type="int" name="NGX">    10</i>
   <i type="int" name="NGY">    10</i>
   <i type="int" name="NGZ">    16</i>
   <i type="int" name="NGXF">    20</i>
   <i type="int" name="NGYF">    20</i>
   <i type="int" name="NGZF">    32</i>
   <i type="logical" name="ADDGRID"> F  </i>
  </separator>
  <separator name="ionic" >
   <i type="int" name="NSW">     0</i>
   <i type="int" name="IBRION">    -1</i>
   <i type="int" name="MDALGO">     0</i>
   <i type="int" name="ISIF">     2</i>
   <i name="PSTRESS">      0.00000000</i>
   <i name="EDIFFG">      0.00001000</i>
   <i type="int" name="NFREE">     0</i>
   <i name="POTIM">      0.50000000</i>
   <i name="SMASS">     -3.00000000</i>
   <i name="SCALEE">      1.00000000</i>
  </separator>
  <separator name="ionic md" >
   <i name="TEBEG">      0.00010000</i>
   <i name="TEEND">      0.00010000</i>
   <i type="int" name="NBLOCK">     1</i>
   <i type="int" name="KBLOCK">     1</i>
   <i type="int" name="NPACO">   256</i>
   <i name="APACO">     16.00000000</i>
  </separator>
  <separator name="symmetry" >
   <i type="int" name="ISYM">     2</i>
   <i name="SYMPREC">      0.00001000</i>
  </separator>
  <separator name="dos" >
   <i type="int" name="LORBIT">     0</i>
   <v name="RWIGS">     -1.00000000</v>
   <i type="int" name="NEDOS">   301</i>
   <i name="EMIN">     10.00000000</i>
   <i name="EMAX">    -10.00000000</i>
   <i name="EFERMI">      0.00000000</i>
  </separator>
  <separator name="writing" >
   <i type="int" name="NWRITE">     2</i>
   <i type="logical" name="LWAVE"> T  </i>
   <i type="logical" name="LDOWNSAMPLE"> F  </i>
   <i type="logical" name="LCHARG"> T  </i>
   <i type="logical" name="LPARD"> F  </i>
   <i type="logical" name="LVTOT"> F  </i>
   <i type="logical" name="LVHAR"> F  </i>
   <i type="logical" name="LELF"> F  </i>
   <i type="logical" name="LOPTICS"> F  </i>
   <v name="STM">      0.00000000      0.00000000      0.00000000      0.00000000      0.00000000      0.00000000      0.00000000</v>
  </separator>
  <separator name="performance" >
   <i type="int" name="NPAR">     1</i>
   <i type="int" name="NSIM">     4</i>
   <i type="int" name="NBLK">    -1</i>
   <i type="logical" name="LPLANE"> T  </i>
   <i type="logical" name="LSCALAPACK"> F  </i>
   <i type="logical" name="LSCAAWARE"> F  </i>
   <i type="logical" name="LSCALU"> F  </i>
   <i type="logical" name="LASYNC"> F  </i>
   <i type="logical" name="LORBITALREAL"> F  </i>
  </separator>
  <separator name="miscellaneous" >
   <i type="int" name="IDIOT">     3</i>
   <i type="int" name="PHON_NSTRUCT">    -1</i>
   <i type="logical" name="LMUSIC"> F  </i>
   <v name="POMASS">     55.84700000</v>
   <v name="DARWINR">      0.00000000</v>
   <v name="DARWINV">      1.00000000</v>
   <i type="logical" name="LCORR"> T  </i>
  </separator>
  <i type="logical" name="GGA_COMPAT"> T  </i>
  <i type="logical" name="LBERRY"> F  </i>
  <i type="int" name="ICORELEVEL">     0</i>
  <i type="logical" name="LDAU"> F  </i>
  <i type="int" name="I_CONSTRAINED_M">     0</i>
  <separator name="electronic exchange-correlation" >
   <i type="string" name="GGA">PE</i>
   <i type="int" name="VOSKOWN">     0</i>
   <i type="logical" name="LHFCALC"> F  </i>
   <i type="string" name="PRECFOCK"></i>
   <i type="logical" name="LSYMGRAD"> F  </i>
   <i type="logical" name="LHFONE"> F  </i>
   <i type="logical" name="LRHFCALC"> F  </i>
   <i type="logical" name="LTHOMAS"> F  </i>
   <i type="logical" name="LMODELHF"> F  </i>
   <i type="logical" name="LFOCKACE"> F  </i>
   <i name="ENCUT4O">     -1.00000000</i>
   <i type="int" name="EXXOEP">     0</i>
   <i type="int" name="FOURORBIT">     0</i>
   <i name="AEXX">      0.00000000</i>
   <i name="HFALPHA">      0.00000000</i>
   <i name="MCALPHA">      0.00000000</i>
   <i name="ALDAX">      1.00000000</i>
   <i name="AGGAX">      1.00000000</i>
   <i name="ALDAC">      1.00000000</i>
   <i name="AGGAC">      1.00000000</i>
   <i type="int" name="NKREDX">     1</i>
   <i type="int" name="NKREDY">     1</i>
   <i type="int" name="NKREDZ">     1</i>
   <i type="logical" name="SHIFTRED"> F  </i>
   <i type="logical" name="ODDONLY"> F  </i>
   <i type="logical" name="EVENONLY"> F  </i>
   <i type="int" name="LMAXFOCK">     0</i>
   <i type="int" name="NMAXFOCKAE">     0</i>
   <i type="logical" name="LFOCKAEDFT"> F  </i>
   <i name="HFSCREEN">      0.00000000</i>
   <i name="HFSCREENC">      0.00000000</i>
   <i type="int" name="NBANDSGWLOW">     0</i>
  </separator>
  <separator name="vdW DFT" >
   <i type="logical" name="LUSE_VDW"> F  </i>
   <i name="Zab_VDW">     -0.84910000</i>
   <i name="PARAM1">      0.12340000</i>
   <i name="PARAM2">      1.00000000</i>
   <i name="PARAM3">      0.00000000</i>
  </separator>
  <separator name="model GW" >
   <i type="int" name="MODEL_GW">     0</i>
   <i name="MODEL_EPS0">      5.38672000</i>
   <i name="MODEL_ALPHA">      1.00000000</i>
  </separator>
  <separator name="linear response parameters" >
   <i type="logical" name="LEPSILON"> F  </i>
   <i type="logical" name="LRPA"> F  </i>
   <i type="logical" name="LNABLA"> F  </i>
   <i type="logical" name="LVEL"> F  </i>
   <i type="int" name="KINTER">     0</i>
   <i name="CSHIFT">      0.10000000</i>
   <i name="OMEGAMAX">     -1.00000000</i>
   <i name="DEG_THRESHOLD">      0.00200000</i>
   <i name="RTIME">     -0.10000000</i>
   <i name="WPLASMAI">      0.00000000</i>
   <v name="DFIELD">      0.00000000      0.00000000      0.00000000</v>
   <v name="WPLASMA">      0.00000000      0.00000000      0.00000000      0.00000000      0.00000000      0.00000000      0.00000000      0.00000000      0.00000000</v>
  </separator>
  <separator name="orbital magnetization" >
   <i type="logical" name="NUCIND"> F  </i>
   <v name="MAGPOS">      0.00000000      0.00000000      0.00000000</v>
   <i type="logical" name="LNICSALL"> T  </i>
   <i type="logical" name="ORBITALMAG"> F  </i>
   <i type="logical" name="LMAGBLOCH"> F  </i>
   <i type="logical" name="LCHIMAG"> F  </i>
   <i type="logical" name="LGAUGE"> T  </i>
   <i type="int" name="MAGATOM">     0</i>
   <v name="MAGDIPOL">      0.00000000      0.00000000      0.00000000</v>
   <v name="AVECCONST">      0.00000000      0.00000000      0.00000000</v>
  </separator>
  <separator name="response functions" >
   <i type="logical" name="LFINITE_TEMPERATURE"> F  </i>
   <i type="logical" name="LADDER"> F  </i>
   <i type="logical" name="LRPAFORCE"> F  </i>
   <i type="logical" name="LFXC"> F  </i>
   <i type="logical" name="LHARTREE"> T  </i>
   <i type="int" name="IBSE">     0</i>
   <v type="int" name="KPOINT">    -1     0     0     0</v>
   <i type="logical" name="LTCTC"> F  </i>
   <i type="logical" name="LTCTE"> F  </i>
   <i type="logical" name="LTETE"> F  </i>
   <i type="logical" name="LTRIPLET"> F  </i>
   <i type="logical" name="LFXCEPS"> F  </i>
   <i type="logical" name="LFXHEG"> F  </i>
   <i type="int" name="NATURALO">     2</i>
   <i type="logical" name="LHOLEGF"> F  </i>
   <i type="logical" name="L2ORDER"> F  </i>
   <i type="logical" name="LDMP1"> F  </i>
   <i type="logical" name="LMP2LT"> F  </i>
   <i type="logical" name="LSMP2LT"> F  </i>
   <i type="logical" name="LGWLF"> F  </i>
   <i name="ENCUTGW">     -2.00000000</i>
   <i name="ENCUTGWSOFT">     -2.00000000</i>
   <i name="ENCUTLF">     -1.00000000</i>
   <i type="logical" name="LESF_SPLINES"> F  </i>
   <i type="int" name="LMAXMP2">    -1</i>
   <i name="SCISSOR">      0.00000000</i>
   <i type="int" name="NOMEGA">     0</i>
   <i type="int" name="NOMEGAR">     0</i>
   <i type="int" name="NBANDSGW">    -1</i>
   <i type="int" name="NBANDSO">    -1</i>
   <i type="int" name="NBANDSV">    -1</i>
   <i type="int" name="NELM">     1</i>
   <i type="int" name="NELMHF">     1</i>
   <i type="int" name="DIM">     3</i>
   <i type="int" name="IESPILON">     4</i>
   <i type="int" name="ANTIRES">     0</i>
   <i name="OMEGAMAX">    -30.00000000</i>
   <i name="OMEGAMIN">    -30.00000000</i>
   <i name="OMEGATL">   -200.00000000</i>
   <i type="int" name="OMEGAGRID">     0</i>
   <i name="CSHIFT">     -0.10000000</i>
   <i type="logical" name="LSELFENERGY"> F  </i>
   <i type="logical" name="LSPECTRAL"> F  </i>
   <i type="logical" name="LSPECTRALGW"> F  </i>
   <i type="logical" name="LSINGLES"> F  </i>
   <i type="logical" name="LFERMIGW"> F  </i>
   <i type="logical" name="ODDONLYGW"> F  </i>
   <i type="logical" name="EVENONLYGW"> F  </i>
   <i type="int" name="NKREDLFX">     1</i>
   <i type="int" name="NKREDLFY">     1</i>
   <i type="int" name="NKREDLFZ">     1</i>
   <i type="int" name="MAXMEM">  2800</i>
   <i type="int" name="TELESCOPE">     0</i>
   <i type="int" name="NTAUPAR">    -1</i>
   <i type="int" name="NOMEGAPAR">    -1</i>
   <i name="DAMP_NEWTON">      0.80000001</i>
   <i name="LAMBDA">      1.00000000</i>
  </separator>
  <separator name="External order field" >
   <i name="OFIELD_KAPPA">      0.00000000</i>
   <v name="OFIELD_K">      0.00000000      0.00000000      0.00000000</v>
   <i name="OFIELD_Q6_NEAR">      0.00000000</i>
   <i name="OFIELD_Q6_FAR">      0.00000000</i>
   <i name="OFIELD_A">      0.00000000</i>
  </separator>
 </parameters>
 <atominfo>
  <atoms>       2 </atoms>
  <types>       1 </types>
  <array name="atoms" >
   <dimension dim="1">ion</dimension>
   <field type="string">element</field>
   <field type="int">atomtype</field>
   <set>
    <rc><c>Fe</c><c>   1</c></rc>
    <rc><c>Fe</c><c>   1</c></rc>
   </set>
  </array>
  <array name="atomtypes" >
   <dimension dim="1">type</dimension>
   <field type="int">atomspertype</field>
   <field type="string">element</field>
   <field>mass</field>
   <field>valence</field>
   <field type="string">pseudopotential</field>
   <set>
    <rc><c>   2</c><c>Fe</c><c>     55.84700000</c><c>      8.00000000</c><c>  PAW_PBE Fe 06Sep2000                  </c></rc>
   </set>
  </array>
 </atominfo>
 <structure name="initialpos" >
  <crystal>
   <varray name="basis" >
    <v>       2.30670000       0.00000000       0.00000000 </v>
    <v>      -1.15335000       1.99766080       0.00000000 </v>
    <v>       0.00000000       0.00000000       3.89664000 </v>
   </varray>
   <i name="volume">     17.95573335 </i>
   <varray name="rec_basis" >
    <v>       0.43351975       0.25029274       0.00000000 </v>
    <v>       0.00000000       0.50058549       0.00000000 </v>
    <v>       0.00000000       0.00000000       0.25663135 </v>
   </varray>
  </crystal>
  <varray name="positions" >
   <v>       0.00000000       0.00000000       0.00000000 </v>
   <v>       0.33333333       0.66666667       0.50000000 </v>
  </varray>
 </structure>
 <calculation>
  <scstep>
   <time name="dav">    0.78    0.80</time>
   <time name="total">    0.79    0.81</time>
   <energy>
    <i name="alphaZ">    153.96480814 </i>
    <i name="ewald">  -1280.46585765 </i>
    <i name="hartreedc">   -188.35785745 </i>
    <i name="XCdc">      9.32746999 </i>
    <i name="pawpsdc">   1109.69170683 </i>
    <i name="pawaedc">  -1125.09647265 </i>
    <i name="eentropy">      0.00089202 </i>
    <i name="bandstr">    191.77398685 </i>
    <i name="atom">   1188.57490811 </i>
    <i name="e_fr_energy">     59.41358419 </i>
    <i name="e_wo_entrp">     59.41269217 </i>
    <i name="e_0_energy">     59.41328685 </i>
   </energy>
  </scstep>
  <scstep>
   <time name="dav">    0.63    0.63</time>
   <time name="total">    0.64    0.64</time>
   <energy>
    <i name="e_fr_energy">    -14.71782286 </i>
    <i name="e_wo_entrp">    -14.71635660 </i>
    <i name="e_0_energy">    -14.71733410 </i>
   </energy>
  </scstep>
  <scstep>
   <time name="dav">    0.73    0.73</time>
   <time name="total">    0.73    0.73</time>
   <energy>
    <i name="e_fr_energy">    -18.73815238 </i>
    <i name="e_wo_entrp">    -18.73662914 </i>
    <i name="e_0_energy">    -18.73764464 </i>
   </energy>
  </scstep>
  <scstep>
   <time name="dav">    0.67    0.67</time>
   <time name="total">    0.67    0.67</time>
   <energy>
    <i name="e_fr_energy">    -18.75236296 </i>
    <i name="e_wo_entrp">    -18.75085884 </i>
    <i name="e_0_energy">    -18.75186159 </i>
   </energy>
  </scstep>
  <scstep>
   <time name="dav">    0.70    0.70</time>
   <time name="total">    0.73    0.73</time>
   <energy>
    <i name="e_fr_energy">    -18.75237200 </i>
    <i name="e_wo_entrp">    -18.75086788 </i>
    <i name="e_0_energy">    -18.75187062 </i>
   </energy>
  </scstep>
  <scstep>
   <time name="dav">    0.84    0.84</time>
   <time name="total">    0.87    0.87</time>
   <energy>
    <i name="e_fr_energy">    -16.06578357 </i>
    <i name="e_wo_entrp">    -16.06562726 </i>
    <i name="e_0_energy">    -16.06573146 </i>
   </energy>
  </scstep>
  <scstep>
   <time name="dav">    0.73    0.73</time>
   <time name="total">    0.76    0.76</time>
   <energy>
    <i name="e_fr_energy">    -15.94728733 </i>
    <i name="e_wo_entrp">    -15.94696258 </i>
    <i name="e_0_energy">    -15.94717908 </i>
   </energy>
  </scstep>
  <scstep>
   <time name="dav">    0.78    0.78</time>
   <time name="total">    0.81    0.81</time>
   <energy>
    <i name="e_fr_energy">    -15.91181743 </i>
    <i name="e_wo_entrp">    -15.91152762 </i>
    <i name="e_0_energy">    -15.91172083 </i>
   </energy>
  </scstep>
  <scstep>
   <time name="dav">    0.78    0.78</time>
   <time name="total">    0.81    0.81</time>
   <energy>
    <i name="e_fr_energy">    -15.90425215 </i>
    <i name="e_wo_entrp">    -15.90397302 </i>
    <i name="e_0_energy">    -15.90415911 </i>
   </energy>
  </scstep>
  <scstep>
   <time name="dav">    0.65    0.65</time>
   <time name="total">    0.68    0.68</time>
   <energy>
    <i name="e_fr_energy">    -15.90422780 </i>
    <i name="e_wo_entrp">    -15.90394528 </i>
    <i name="e_0_energy">    -15.90413362 </i>
   </energy>
  </scstep>
  <scstep>
   <time name="dav">    0.65    0.65</time>
   <time name="total">    0.68    0.68</time>
   <energy>
    <i name="e_fr_energy">    -15.90421417 </i>
    <i name="e_wo_entrp">    -15.90393165 </i>
    <i name="e_0_energy">    -15.90412000 </i>
   </energy>
  </scstep>
  <scstep>
   <time name="dav">    0.50    0.50</time>
   <time name="total">    0.51    0.52</time>
   <energy>
    <i name="alphaZ">    153.96480814 </i>
    <i name="ewald">  -1280.46585765 </i>
    <i name="hartreedc">   -154.86199471 </i>
    <i name="XCdc">      7.74533359 </i>
    <i name="pawpsdc">   1639.93415711 </i>
    <i name="pawaedc">  -1658.76880298 </i>
    <i name="eentropy">     -0.00028235 </i>
    <i name="bandstr">     87.97351689 </i>
    <i name="atom">   1188.57490811 </i>
    <i name="e_fr_energy">    -15.90421383 </i>
    <i name="e_wo_entrp">    -15.90393148 </i>
    <i name="e_0_energy">    -15.90411972 </i>
   </energy>
  </scstep>
  <structure>
   <crystal>
    <varray name="basis" >
     <v>       2.30670000       0.00000000       0.00000000 </v>
     <v>      -1.15335000       1.99766080       0.00000000 </v>
     <v>       0.00000000       0.00000000       3.89664000 </v>
    </varray>
    <i name="volume">     17.95573335 </i>
    <varray name="rec_basis" >
     <v>       0.43351975       0.25029274       0.00000000 </v>
     <v>       0.00000000       0.50058549       0.00000000 </v>
     <v>       0.00000000       0.00000000       0.25663135 </v>
    </varray>
   </crystal>
   <varray name="positions" >
    <v>       0.00000000       0.00000000       0.00000000 </v>
    <v>       0.33333333       0.66666667       0.50000000 </v>
   </varray>
  </structure>
  <varray name="forces" >
   <v>      -0.00000000      -0.00000000      -0.00000000 </v>
   <v>       0.00000000       0.00000000       0.00000000 </v>
  </varray>
  <varray name="stress" >
   <v>     609.78104896      -0.00000000       0.00000000 </v>
   <v>      -0.00000000     609.78104896      -0.00000000 </v>
   <v>       0.00000000       0.00000000     194.36637214 </v>
  </varray>
  <energy>
   <i name="e_fr_energy">    -15.90421383 </i>
   <i name="e_wo_entrp">    -15.90393148 </i>
   <i name="e_0_energy">    -15.90411972 </i>
  </energy>
  <time name="totalsc">    8.97    8.99</time>
  <eigenvalues>
   <array>
    <dimension dim="1">band</dimension>
    <dimension dim="2">kpoint</dimension>
    <dimension dim="3">spin</dimension>
    <field>eigene</field>
    <field>occ</field>
    <set>
     <set comment="spin 1">
      <set comment="kpoint 1">
       <r>   -1.2119    1.0000 </r>
       <r>    2.7014    1.0000 </r>
       <r>    6.1035    1.0000 </r>
       <r>    6.5012    1.0000 </r>
       <r>    6.5013    1.0000 </r>
       <r>    6.9462    1.0000 </r>
       <r>    6.9463    1.0000 </r>
       <r>    7.8045    1.0001 </r>
       <r>    7.8046    1.0001 </r>
       <r>    8.1484    1.0354 </r>
       <r>    9.2983   -0.0000 </r>
       <r>    9.2983   -0.0000 </r>
       <r>   17.6105    0.0000 </r>
       <r>   32.3272    0.0000 </r>
       <r>   34.5127    0.0000 </r>
       <r>   35.9463    0.0000 </r>
       <r>   38.6517    0.0000 </r>
       <r>   38.6518    0.0000 </r>
       <r>   39.3758    0.0000 </r>
       <r>   39.3760    0.0000 </r>
       <r>   42.2415    0.0000 </r>
       <r>   42.2415    0.0000 </r>
       <r>   42.7982    0.0000 </r>
       <r>   43.4144    0.0000 </r>
       <r>   46.7928    0.0000 </r>
       <r>   46.7928    0.0000 </r>
       <r>   48.7232    0.0000 </r>
       <r>   50.9798    0.0000 </r>
       <r>   50.9802    0.0000 </r>
       <r>   52.9326    0.0000 </r>
       <r>   52.9328    0.0000 </r>
       <r>   56.6512    0.0000 </r>
       <r>   64.5179    0.0000 </r>
       <r>   64.8174    0.0000 </r>
       <r>   65.0038    0.0000 </r>
       <r>   65.0048    0.0000 </r>
       <r>   66.6198    0.0000 </r>
       <r>   68.5837    0.0000 </r>
       <r>   68.5849    0.0000 </r>
       <r>   72.0428    0.0000 </r>
      </set>
      <set comment="kpoint 2">
       <r>   -0.8566    1.0000 </r>
       <r>    2.9573    1.0000 </r>
       <r>    5.9606    1.0000 </r>
       <r>    6.5726    1.0000 </r>
       <r>    6.7218    1.0000 </r>
       <r>    6.8303    1.0000 </r>
       <r>    6.9253    1.0000 </r>
       <r>    7.1480    1.0000 </r>
       <r>    7.6666    1.0000 </r>
       <r>    7.7014    1.0000 </r>
       <r>    9.3510   -0.0000 </r>
       <r>   10.7566   -0.0000 </r>
       <r>   17.6227    0.0000 </r>
       <r>   31.3252    0.0000 </r>
       <r>   34.3262    0.0000 </r>
       <r>   34.7639    0.0000 </r>
       <r>   35.7161    0.0000 </r>
       <r>   37.9840    0.0000 </r>
       <r>   38.1718    0.0000 </r>
       <r>   41.8514    0.0000 </r>
       <r>   42.4648    0.0000 </r>
       <r>   42.5001    0.0000 </r>
       <r>   43.2548    0.0000 </r>
       <r>   43.9481    0.0000 </r>
       <r>   47.8454    0.0000 </r>
       <r>   47.9743    0.0000 </r>
       <r>   48.4836    0.0000 </r>
       <r>   48.7391    0.0000 </r>
       <r>   52.4016    0.0000 </r>
       <r>   54.6483    0.0000 </r>
       <r>   55.3749    0.0000 </r>
       <r>   58.0947    0.0000 </r>
       <r>   63.1887    0.0000 </r>
       <r>   64.2473    0.0000 </r>
       <r>   64.2960    0.0000 </r>
       <r>   65.4167    0.0000 </r>
       <r>   65.5495    0.0000 </r>
       <r>   69.0515    0.0000 </r>
       <r>   70.7819    0.0000 </r>
       <r>   72.0665    0.0000 </r>
      </set>
      <set comment="kpoint 3">
       <r>    0.1408    1.0000 </r>
       <r>    3.5478    1.0000 </r>
       <r>    5.5679    1.0000 </r>
       <r>    5.5761    1.0000 </r>
       <r>    6.4117    1.0000 </r>
       <r>    7.1084    1.0000 </r>
       <r>    7.3357    1.0000 </r>
       <r>    7.3388    1.0000 </r>
       <r>    7.3583    1.0000 </r>
       <r>    7.7017    1.0000 </r>
       <r>    9.4470   -0.0000 </r>
       <r>   12.8760   -0.0000 </r>
       <r>   17.6780    0.0000 </r>
       <r>   27.8039    0.0000 </r>
       <r>   32.6901    0.0000 </r>
       <r>   33.0822    0.0000 </r>
       <r>   33.7888    0.0000 </r>
       <r>   35.3226    0.0000 </r>
       <r>   39.0310    0.0000 </r>
       <r>   41.1737    0.0000 </r>
       <r>   41.2940    0.0000 </r>
       <r>   41.9024    0.0000 </r>
       <r>   43.9831    0.0000 </r>
       <r>   45.8960    0.0000 </r>
       <r>   47.8455    0.0000 </r>
       <r>   48.6141    0.0000 </r>
       <r>   50.3510    0.0000 </r>
       <r>   52.8301    0.0000 </r>
       <r>   55.7297    0.0000 </r>
       <r>   57.4867    0.0000 </r>
       <r>   58.0774    0.0000 </r>
       <r>   60.6538    0.0000 </r>
       <r>   61.4659    0.0000 </r>
       <r>   62.7857    0.0000 </r>
       <r>   63.0010    0.0000 </r>
       <r>   63.8044    0.0000 </r>
       <r>   66.3923    0.0000 </r>
       <r>   69.6217    0.0000 </r>
       <r>   71.9399    0.0000 </r>
       <r>   72.1506    0.0000 </r>
      </set>
      <set comment="kpoint 4">
       <r>    1.5258    1.0000 </r>
       <r>    3.8068    1.0000 </r>
       <r>    4.5182    1.0000 </r>
       <r>    5.4446    1.0000 </r>
       <r>    6.2580    1.0000 </r>
       <r>    6.9343    1.0000 </r>
       <r>    6.9710    1.0000 </r>
       <r>    7.9691    1.0051 </r>
       <r>    8.2095    1.0160 </r>
       <r>    8.4793    0.1765 </r>
       <r>    9.5189   -0.0000 </r>
       <r>   15.1919    0.0000 </r>
       <r>   17.7941    0.0000 </r>
       <r>   23.8250    0.0000 </r>
       <r>   30.0833    0.0000 </r>
       <r>   30.1399    0.0000 </r>
       <r>   31.7176    0.0000 </r>
       <r>   34.7439    0.0000 </r>
       <r>   37.7247    0.0000 </r>
       <r>   40.6629    0.0000 </r>
       <r>   41.6998    0.0000 </r>
       <r>   41.7547    0.0000 </r>
       <r>   42.1882    0.0000 </r>
       <r>   46.3359    0.0000 </r>
       <r>   51.1886    0.0000 </r>
       <r>   53.0453    0.0000 </r>
       <r>   53.8712    0.0000 </r>
       <r>   56.1436    0.0000 </r>
       <r>   57.4290    0.0000 </r>
       <r>   58.3918    0.0000 </r>
       <r>   59.9066    0.0000 </r>
       <r>   61.5191    0.0000 </r>
       <r>   61.7364    0.0000 </r>
       <r>   62.8381    0.0000 </r>
       <r>   63.0780    0.0000 </r>
       <r>   65.3939    0.0000 </r>
       <r>   66.0687    0.0000 </r>
       <r>   70.0835    0.0000 </r>
       <r>   71.6994    0.0000 </r>
       <r>   72.1204    0.0000 </r>
      </set>
      <set comment="kpoint 5">
       <r>    2.6927    1.0000 </r>
       <r>    3.5164    1.0000 </r>
       <r>    3.7975    1.0000 </r>
       <r>    5.7373    1.0000 </r>
       <r>    6.5625    1.0000 </r>
       <r>    6.6103    1.0000 </r>
       <r>    6.6694    1.0000 </r>
       <r>    9.0906   -0.0000 </r>
       <r>    9.2713   -0.0000 </r>
       <r>    9.3325   -0.0000 </r>
       <r>    9.5542   -0.0000 </r>
       <r>   17.2640    0.0000 </r>
       <r>   17.6141    0.0000 </r>
       <r>   21.1821    0.0000 </r>
       <r>   26.8764    0.0000 </r>
       <r>   28.0734    0.0000 </r>
       <r>   29.1682    0.0000 </r>
       <r>   33.6697    0.0000 </r>
       <r>   36.4165    0.0000 </r>
       <r>   39.6433    0.0000 </r>
       <r>   40.3577    0.0000 </r>
       <r>   42.7990    0.0000 </r>
       <r>   44.4053    0.0000 </r>
       <r>   46.8375    0.0000 </r>
       <r>   54.8946    0.0000 </r>
       <r>   55.0597    0.0000 </r>
       <r>   55.3274    0.0000 </r>
       <r>   58.1765    0.0000 </r>
       <r>   58.9051    0.0000 </r>
       <r>   59.5985    0.0000 </r>
       <r>   61.8923    0.0000 </r>
       <r>   62.0548    0.0000 </r>
       <r>   62.5424    0.0000 </r>
       <r>   63.1971    0.0000 </r>
       <r>   64.0475    0.0000 </r>
       <r>   65.9019    0.0000 </r>
       <r>   70.0727    0.0000 </r>
       <r>   70.4010    0.0000 </r>
       <r>   70.9275    0.0000 </r>
       <r>   71.0140    0.0000 </r>
      </set>
      <set comment="kpoint 6">
       <r>    3.0344    1.0000 </r>
       <r>    3.3463    1.0000 </r>
       <r>    3.4329    1.0000 </r>
       <r>    6.3187    1.0000 </r>
       <r>    6.3491    1.0000 </r>
       <r>    6.5034    1.0000 </r>
       <r>    6.8925    1.0000 </r>
       <r>    9.5655   -0.0000 </r>
       <r>    9.6364   -0.0000 </r>
       <r>    9.8120   -0.0000 </r>
       <r>   11.1662   -0.0000 </r>
       <r>   14.9516    0.0000 </r>
       <r>   19.8670    0.0000 </r>
       <r>   21.3851    0.0000 </r>
       <r>   24.2272    0.0000 </r>
       <r>   26.6180    0.0000 </r>
       <r>   26.9378    0.0000 </r>
       <r>   32.9674    0.0000 </r>
       <r>   35.9887    0.0000 </r>
       <r>   38.4466    0.0000 </r>
       <r>   40.2783    0.0000 </r>
       <r>   43.6061    0.0000 </r>
       <r>   46.5215    0.0000 </r>
       <r>   47.3229    0.0000 </r>
       <r>   51.7550    0.0000 </r>
       <r>   56.6054    0.0000 </r>
       <r>   57.1348    0.0000 </r>
       <r>   59.9844    0.0000 </r>
       <r>   61.1965    0.0000 </r>
       <r>   61.4014    0.0000 </r>
       <r>   62.7917    0.0000 </r>
       <r>   62.9989    0.0000 </r>
       <r>   63.0555    0.0000 </r>
       <r>   65.7435    0.0000 </r>
       <r>   65.9812    0.0000 </r>
       <r>   68.1022    0.0000 </r>
       <r>   68.7426    0.0000 </r>
       <r>   68.8666    0.0000 </r>
       <r>   70.7252    0.0000 </r>
       <r>   70.8167    0.0000 </r>
      </set>
      <set comment="kpoint 7">
       <r>   -0.1769    1.0000 </r>
       <r>    3.4007    1.0000 </r>
       <r>    5.6365    1.0000 </r>
       <r>    5.9375    1.0000 </r>
       <r>    6.6007    1.0000 </r>
       <r>    6.7838    1.0000 </r>
       <r>    7.1701    1.0000 </r>
       <r>    7.2088    1.0000 </r>
       <r>    7.5833    1.0000 </r>
       <r>    7.6875    1.0000 </r>
       <r>    9.3939   -0.0000 </r>
       <r>   12.2937   -0.0000 </r>
       <r>   17.6619    0.0000 </r>
       <r>   29.4426    0.0000 </r>
       <r>   31.0693    0.0000 </r>
       <r>   34.9642    0.0000 </r>
       <r>   35.2764    0.0000 </r>
       <r>   36.5831    0.0000 </r>
       <r>   37.0799    0.0000 </r>
       <r>   39.9478    0.0000 </r>
       <r>   41.7943    0.0000 </r>
       <r>   44.8446    0.0000 </r>
       <r>   45.1264    0.0000 </r>
       <r>   45.9354    0.0000 </r>
       <r>   46.8677    0.0000 </r>
       <r>   47.0443    0.0000 </r>
       <r>   47.3928    0.0000 </r>
       <r>   53.0721    0.0000 </r>
       <r>   55.8391    0.0000 </r>
       <r>   56.5036    0.0000 </r>
       <r>   56.6032    0.0000 </r>
       <r>   60.0418    0.0000 </r>
       <r>   61.5284    0.0000 </r>
       <r>   63.7050    0.0000 </r>
       <r>   63.8794    0.0000 </r>
       <r>   64.1764    0.0000 </r>
       <r>   65.2463    0.0000 </r>
       <r>   69.9919    0.0000 </r>
       <r>   71.8919    0.0000 </r>
       <r>   72.1259    0.0000 </r>
      </set>
      <set comment="kpoint 8">
       <r>    1.0452    1.0000 </r>
       <r>    3.9490    1.0000 </r>
       <r>    4.9064    1.0000 </r>
       <r>    5.2171    1.0000 </r>
       <r>    6.3333    1.0000 </r>
       <r>    6.7505    1.0000 </r>
       <r>    7.2809    1.0000 </r>
       <r>    7.4138    1.0000 </r>
       <r>    7.9751    1.0057 </r>
       <r>    8.3951    0.5003 </r>
       <r>    9.4331   -0.0000 </r>
       <r>   14.3838    0.0000 </r>
       <r>   17.8049    0.0000 </r>
       <r>   25.8413    0.0000 </r>
       <r>   28.5398    0.0000 </r>
       <r>   31.8572    0.0000 </r>
       <r>   34.3179    0.0000 </r>
       <r>   34.6195    0.0000 </r>
       <r>   37.9584    0.0000 </r>
       <r>   39.6237    0.0000 </r>
       <r>   40.0995    0.0000 </r>
       <r>   44.6970    0.0000 </r>
       <r>   45.1506    0.0000 </r>
       <r>   45.6212    0.0000 </r>
       <r>   48.7070    0.0000 </r>
       <r>   49.5953    0.0000 </r>
       <r>   51.2637    0.0000 </r>
       <r>   56.6512    0.0000 </r>
       <r>   57.9064    0.0000 </r>
       <r>   59.1174    0.0000 </r>
       <r>   59.2145    0.0000 </r>
       <r>   61.1679    0.0000 </r>
       <r>   61.4736    0.0000 </r>
       <r>   62.8729    0.0000 </r>
       <r>   63.0915    0.0000 </r>
       <r>   63.6215    0.0000 </r>
       <r>   65.6729    0.0000 </r>
       <r>   70.5311    0.0000 </r>
       <r>   71.2286    0.0000 </r>
       <r>   71.9197    0.0000 </r>
      </set>
      <set comment="kpoint 9">
       <r>    2.4232    1.0000 </r>
       <r>    3.8659    1.0000 </r>
       <r>    4.1084    1.0000 </r>
       <r>    5.2922    1.0000 </r>
       <r>    6.4115    1.0000 </r>
       <r>    6.4242    1.0000 </r>
       <r>    7.0008    1.0000 </r>
       <r>    8.1114    1.0311 </r>
       <r>    8.8692   -0.0020 </r>
       <r>    9.4567   -0.0000 </r>
       <r>    9.4603   -0.0000 </r>
       <r>   16.7164    0.0000 </r>
       <r>   17.9376    0.0000 </r>
       <r>   22.2169    0.0000 </r>
       <r>   26.7058    0.0000 </r>
       <r>   28.5641    0.0000 </r>
       <r>   31.5390    0.0000 </r>
       <r>   33.0139    0.0000 </r>
       <r>   37.5416    0.0000 </r>
       <r>   38.6818    0.0000 </r>
       <r>   40.7710    0.0000 </r>
       <r>   44.7081    0.0000 </r>
       <r>   44.7985    0.0000 </r>
       <r>   47.0562    0.0000 </r>
       <r>   50.8984    0.0000 </r>
       <r>   53.4856    0.0000 </r>
       <r>   55.5951    0.0000 </r>
       <r>   56.9472    0.0000 </r>
       <r>   57.0069    0.0000 </r>
       <r>   60.3283    0.0000 </r>
       <r>   61.0557    0.0000 </r>
       <r>   62.3759    0.0000 </r>
       <r>   62.6156    0.0000 </r>
       <r>   63.2274    0.0000 </r>
       <r>   63.9060    0.0000 </r>
       <r>   65.4011    0.0000 </r>
       <r>   68.4057    0.0000 </r>
       <r>   70.1116    0.0000 </r>
       <r>   70.1364    0.0000 </r>
       <r>   72.4269    0.0000 </r>
      </set>
      <set comment="kpoint 10">
       <r>    3.1939    1.0000 </r>
       <r>    3.5617    1.0000 </r>
       <r>    3.6144    1.0000 </r>
       <r>    5.7959    1.0000 </r>
       <r>    6.2606    1.0000 </r>
       <r>    6.6038    1.0000 </r>
       <r>    6.8001    1.0000 </r>
       <r>    9.0871   -0.0000 </r>
       <r>    9.4622   -0.0000 </r>
       <r>    9.5119   -0.0000 </r>
       <r>   10.8262   -0.0000 </r>
       <r>   16.5003    0.0000 </r>
       <r>   19.1255    0.0000 </r>
       <r>   21.1401    0.0000 </r>
       <r>   25.2897    0.0000 </r>
       <r>   25.5948    0.0000 </r>
       <r>   28.3689    0.0000 </r>
       <r>   32.0289    0.0000 </r>
       <r>   36.5706    0.0000 </r>
       <r>   38.0587    0.0000 </r>
       <r>   41.4384    0.0000 </r>
       <r>   45.2070    0.0000 </r>
       <r>   46.4348    0.0000 </r>
       <r>   47.2340    0.0000 </r>
       <r>   53.6389    0.0000 </r>
       <r>   53.7077    0.0000 </r>
       <r>   56.5001    0.0000 </r>
       <r>   57.5911    0.0000 </r>
       <r>   59.5641    0.0000 </r>
       <r>   61.1788    0.0000 </r>
       <r>   61.2799    0.0000 </r>
       <r>   62.5498    0.0000 </r>
       <r>   63.1463    0.0000 </r>
       <r>   65.3288    0.0000 </r>
       <r>   66.7743    0.0000 </r>
       <r>   67.3169    0.0000 </r>
       <r>   67.6162    0.0000 </r>
       <r>   70.4353    0.0000 </r>
       <r>   71.5937    0.0000 </r>
       <r>   71.8454    0.0000 </r>
      </set>
      <set comment="kpoint 11">
       <r>    3.2334    1.0000 </r>
       <r>    3.4477    1.0000 </r>
       <r>    3.5381    1.0000 </r>
       <r>    6.1821    1.0000 </r>
       <r>    6.2960    1.0000 </r>
       <r>    6.3674    1.0000 </r>
       <r>    6.9502    1.0000 </r>
       <r>    9.4620   -0.0000 </r>
       <r>    9.6295   -0.0000 </r>
       <r>    9.6360   -0.0000 </r>
       <r>   12.1545   -0.0000 </r>
       <r>   14.5967    0.0000 </r>
       <r>   20.7419    0.0000 </r>
       <r>   21.8192    0.0000 </r>
       <r>   23.7904    0.0000 </r>
       <r>   24.5623    0.0000 </r>
       <r>   26.8107    0.0000 </r>
       <r>   31.6689    0.0000 </r>
       <r>   36.1341    0.0000 </r>
       <r>   37.8743    0.0000 </r>
       <r>   41.5211    0.0000 </r>
       <r>   45.8119    0.0000 </r>
       <r>   46.4985    0.0000 </r>
       <r>   48.3047    0.0000 </r>
       <r>   51.3742    0.0000 </r>
       <r>   55.9059    0.0000 </r>
       <r>   56.4549    0.0000 </r>
       <r>   59.1273    0.0000 </r>
       <r>   60.3166    0.0000 </r>
       <r>   60.4374    0.0000 </r>
       <r>   63.1091    0.0000 </r>
       <r>   63.1122    0.0000 </r>
       <r>   63.4878    0.0000 </r>
       <r>   64.0210    0.0000 </r>
       <r>   67.8502    0.0000 </r>
       <r>   69.0720    0.0000 </r>
       <r>   69.2737    0.0000 </r>
       <r>   69.6424    0.0000 </r>
       <r>   70.3596    0.0000 </r>
       <r>   72.3884    0.0000 </r>
      </set>
      <set comment="kpoint 12">
       <r>    2.3496    1.0000 </r>
       <r>    4.2890    1.0000 </r>
       <r>    4.3916    1.0000 </r>
       <r>    4.7003    1.0000 </r>
       <r>    6.2619    1.0000 </r>
       <r>    6.4128    1.0000 </r>
       <r>    7.1895    1.0000 </r>
       <r>    7.5709    1.0000 </r>
       <r>    8.8490   -0.0030 </r>
       <r>    9.3566   -0.0000 </r>
       <r>    9.5245   -0.0000 </r>
       <r>   16.4284    0.0000 </r>
       <r>   18.1824    0.0000 </r>
       <r>   23.7348    0.0000 </r>
       <r>   24.7309    0.0000 </r>
       <r>   29.8906    0.0000 </r>
       <r>   31.8328    0.0000 </r>
       <r>   33.9397    0.0000 </r>
       <r>   34.8327    0.0000 </r>
       <r>   40.6449    0.0000 </r>
       <r>   41.3613    0.0000 </r>
       <r>   45.5192    0.0000 </r>
       <r>   46.2535    0.0000 </r>
       <r>   48.1855    0.0000 </r>
       <r>   48.6983    0.0000 </r>
       <r>   50.8139    0.0000 </r>
       <r>   52.6410    0.0000 </r>
       <r>   57.9811    0.0000 </r>
       <r>   58.4182    0.0000 </r>
       <r>   60.0453    0.0000 </r>
       <r>   60.0653    0.0000 </r>
       <r>   62.3166    0.0000 </r>
       <r>   62.5397    0.0000 </r>
       <r>   64.2974    0.0000 </r>
       <r>   65.0536    0.0000 </r>
       <r>   65.4320    0.0000 </r>
       <r>   65.8794    0.0000 </r>
       <r>   69.7658    0.0000 </r>
       <r>   70.1190    0.0000 </r>
       <r>   73.2128    0.0000 </r>
      </set>
      <set comment="kpoint 13">
       <r>    3.5422    1.0000 </r>
       <r>    3.8485    1.0000 </r>
       <r>    4.1060    1.0000 </r>
       <r>    4.9250    1.0000 </r>
       <r>    6.0133    1.0000 </r>
       <r>    6.7246    1.0000 </r>
       <r>    6.7685    1.0000 </r>
       <r>    8.1837    1.0301 </r>
       <r>    9.2897   -0.0000 </r>
       <r>    9.4731   -0.0000 </r>
       <r>   10.9436   -0.0000 </r>
       <r>   18.2860    0.0000 </r>
       <r>   18.7686    0.0000 </r>
       <r>   21.0710    0.0000 </r>
       <r>   23.0239    0.0000 </r>
       <r>   27.4196    0.0000 </r>
       <r>   30.0544    0.0000 </r>
       <r>   30.5321    0.0000 </r>
       <r>   33.4795    0.0000 </r>
       <r>   41.8539    0.0000 </r>
       <r>   42.6074    0.0000 </r>
       <r>   46.1936    0.0000 </r>
       <r>   48.0303    0.0000 </r>
       <r>   48.6604    0.0000 </r>
       <r>   50.6733    0.0000 </r>
       <r>   52.1715    0.0000 </r>
       <r>   53.9730    0.0000 </r>
       <r>   56.1962    0.0000 </r>
       <r>   59.0206    0.0000 </r>
       <r>   59.9617    0.0000 </r>
       <r>   61.1636    0.0000 </r>
       <r>   62.2305    0.0000 </r>
       <r>   63.4053    0.0000 </r>
       <r>   64.8389    0.0000 </r>
       <r>   66.7444    0.0000 </r>
       <r>   67.2459    0.0000 </r>
       <r>   68.9015    0.0000 </r>
       <r>   70.3678    0.0000 </r>
       <r>   71.5331    0.0000 </r>
       <r>   72.6104    0.0000 </r>
      </set>
      <set comment="kpoint 14">
       <r>    3.6238    1.0000 </r>
       <r>    3.7846    1.0000 </r>
       <r>    3.9882    1.0000 </r>
       <r>    5.4936    1.0000 </r>
       <r>    6.0398    1.0000 </r>
       <r>    6.3405    1.0000 </r>
       <r>    7.0228    1.0000 </r>
       <r>    8.9404   -0.0004 </r>
       <r>    9.2512   -0.0000 </r>
       <r>    9.5519   -0.0000 </r>
       <r>   12.6681   -0.0000 </r>
       <r>   16.0269    0.0000 </r>
       <r>   21.1253    0.0000 </r>
       <r>   21.3337    0.0000 </r>
       <r>   22.4286    0.0000 </r>
       <r>   24.8141    0.0000 </r>
       <r>   27.6293    0.0000 </r>
       <r>   29.3166    0.0000 </r>
       <r>   32.8058    0.0000 </r>
       <r>   41.6984    0.0000 </r>
       <r>   44.0413    0.0000 </r>
       <r>   46.7480    0.0000 </r>
       <r>   48.5247    0.0000 </r>
       <r>   49.0330    0.0000 </r>
       <r>   52.7115    0.0000 </r>
       <r>   53.3720    0.0000 </r>
       <r>   55.1017    0.0000 </r>
       <r>   55.2220    0.0000 </r>
       <r>   58.9458    0.0000 </r>
       <r>   59.9685    0.0000 </r>
       <r>   60.5795    0.0000 </r>
       <r>   62.9846    0.0000 </r>
       <r>   63.4177    0.0000 </r>
       <r>   63.5300    0.0000 </r>
       <r>   67.8258    0.0000 </r>
       <r>   68.6374    0.0000 </r>
       <r>   70.3732    0.0000 </r>
       <r>   70.7674    0.0000 </r>
       <r>   72.0160    0.0000 </r>
       <r>   73.0891    0.0000 </r>
      </set>
      <set comment="kpoint 15">
       <r>    3.7455    1.0000 </r>
       <r>    4.2375    1.0000 </r>
       <r>    4.5797    1.0000 </r>
       <r>    4.6404    1.0000 </r>
       <r>    5.8571    1.0000 </r>
       <r>    6.3692    1.0000 </r>
       <r>    7.0812    1.0000 </r>
       <r>    8.4889    0.1476 </r>
       <r>    9.1442   -0.0000 </r>
       <r>    9.5309   -0.0000 </r>
       <r>   12.8086   -0.0000 </r>
       <r>   18.2449    0.0000 </r>
       <r>   18.6937    0.0000 </r>
       <r>   21.1584    0.0000 </r>
       <r>   22.4843    0.0000 </r>
       <r>   26.6179    0.0000 </r>
       <r>   27.1391    0.0000 </r>
       <r>   29.2973    0.0000 </r>
       <r>   30.2666    0.0000 </r>
       <r>   44.1183    0.0000 </r>
       <r>   45.2338    0.0000 </r>
       <r>   48.0746    0.0000 </r>
       <r>   49.2289    0.0000 </r>
       <r>   50.6558    0.0000 </r>
       <r>   50.8253    0.0000 </r>
       <r>   50.9601    0.0000 </r>
       <r>   53.7829    0.0000 </r>
       <r>   56.4089    0.0000 </r>
       <r>   56.8231    0.0000 </r>
       <r>   58.8794    0.0000 </r>
       <r>   60.4534    0.0000 </r>
       <r>   63.1060    0.0000 </r>
       <r>   63.4393    0.0000 </r>
       <r>   63.5513    0.0000 </r>
       <r>   67.6539    0.0000 </r>
       <r>   68.8250    0.0000 </r>
       <r>   68.9958    0.0000 </r>
       <r>   71.1637    0.0000 </r>
       <r>   72.8753    0.0000 </r>
       <r>   73.1201    0.0000 </r>
      </set>
      <set comment="kpoint 16">
       <r>    3.7271    1.0000 </r>
       <r>    4.3642    1.0000 </r>
       <r>    4.4438    1.0000 </r>
       <r>    5.0009    1.0000 </r>
       <r>    5.9336    1.0000 </r>
       <r>    6.0686    1.0000 </r>
       <r>    7.2548    1.0000 </r>
       <r>    8.8936   -0.0012 </r>
       <r>    9.0881   -0.0000 </r>
       <r>    9.2232   -0.0000 </r>
       <r>   14.6186    0.0000 </r>
       <r>   16.1367    0.0000 </r>
       <r>   18.3102    0.0000 </r>
       <r>   23.2433    0.0000 </r>
       <r>   23.4296    0.0000 </r>
       <r>   24.6481    0.0000 </r>
       <r>   26.5945    0.0000 </r>
       <r>   27.7142    0.0000 </r>
       <r>   29.6257    0.0000 </r>
       <r>   44.5822    0.0000 </r>
       <r>   47.2285    0.0000 </r>
       <r>   48.5158    0.0000 </r>
       <r>   49.4089    0.0000 </r>
       <r>   50.1335    0.0000 </r>
       <r>   51.7211    0.0000 </r>
       <r>   51.9676    0.0000 </r>
       <r>   54.6597    0.0000 </r>
       <r>   55.2669    0.0000 </r>
       <r>   55.4634    0.0000 </r>
       <r>   58.8213    0.0000 </r>
       <r>   60.1770    0.0000 </r>
       <r>   60.6767    0.0000 </r>
       <r>   63.6645    0.0000 </r>
       <r>   63.7125    0.0000 </r>
       <r>   67.9265    0.0000 </r>
       <r>   68.9825    0.0000 </r>
       <r>   71.4270    0.0000 </r>
       <r>   71.6558    0.0000 </r>
       <r>   71.7597    0.0000 </r>
       <r>   72.4929    0.0000 </r>
      </set>
      <set comment="kpoint 17">
       <r>   -1.1179    1.0000 </r>
       <r>    2.6887    1.0000 </r>
       <r>    6.0694    1.0000 </r>
       <r>    6.4814    1.0000 </r>
       <r>    6.4815    1.0000 </r>
       <r>    6.9181    1.0000 </r>
       <r>    6.9182    1.0000 </r>
       <r>    7.8648    1.0006 </r>
       <r>    7.8648    1.0006 </r>
       <r>    7.8815    1.0008 </r>
       <r>    9.2897   -0.0000 </r>
       <r>    9.2897   -0.0000 </r>
       <r>   18.0261    0.0000 </r>
       <r>   32.1663    0.0000 </r>
       <r>   34.2067    0.0000 </r>
       <r>   35.7303    0.0000 </r>
       <r>   38.6974    0.0000 </r>
       <r>   38.6975    0.0000 </r>
       <r>   39.3829    0.0000 </r>
       <r>   39.3831    0.0000 </r>
       <r>   42.1699    0.0000 </r>
       <r>   42.1700    0.0000 </r>
       <r>   42.9459    0.0000 </r>
       <r>   43.7276    0.0000 </r>
       <r>   46.3926    0.0000 </r>
       <r>   46.3927    0.0000 </r>
       <r>   49.0718    0.0000 </r>
       <r>   51.2559    0.0000 </r>
       <r>   51.2563    0.0000 </r>
       <r>   53.3608    0.0000 </r>
       <r>   53.3610    0.0000 </r>
       <r>   56.4296    0.0000 </r>
       <r>   63.5007    0.0000 </r>
       <r>   64.6680    0.0000 </r>
       <r>   64.8404    0.0000 </r>
       <r>   64.8414    0.0000 </r>
       <r>   67.6290    0.0000 </r>
       <r>   67.6299    0.0000 </r>
       <r>   67.9227    0.0000 </r>
       <r>   72.5769    0.0000 </r>
      </set>
      <set comment="kpoint 18">
       <r>   -0.7650    1.0000 </r>
       <r>    2.9500    1.0000 </r>
       <r>    5.9588    1.0000 </r>
       <r>    6.5022    1.0000 </r>
       <r>    6.6239    1.0000 </r>
       <r>    6.6946    1.0000 </r>
       <r>    7.0029    1.0000 </r>
       <r>    7.1156    1.0000 </r>
       <r>    7.7407    1.0000 </r>
       <r>    7.7597    1.0000 </r>
       <r>    9.3385   -0.0000 </r>
       <r>   10.5661   -0.0000 </r>
       <r>   18.0757    0.0000 </r>
       <r>   31.2943    0.0000 </r>
       <r>   34.0304    0.0000 </r>
       <r>   34.5662    0.0000 </r>
       <r>   35.7890    0.0000 </r>
       <r>   37.2559    0.0000 </r>
       <r>   38.8799    0.0000 </r>
       <r>   41.5255    0.0000 </r>
       <r>   42.2538    0.0000 </r>
       <r>   42.5773    0.0000 </r>
       <r>   43.2795    0.0000 </r>
       <r>   44.4294    0.0000 </r>
       <r>   47.4263    0.0000 </r>
       <r>   47.8518    0.0000 </r>
       <r>   49.0775    0.0000 </r>
       <r>   49.2663    0.0000 </r>
       <r>   52.3206    0.0000 </r>
       <r>   54.9552    0.0000 </r>
       <r>   55.6781    0.0000 </r>
       <r>   57.9362    0.0000 </r>
       <r>   62.0301    0.0000 </r>
       <r>   64.0197    0.0000 </r>
       <r>   64.4533    0.0000 </r>
       <r>   64.9324    0.0000 </r>
       <r>   66.8337    0.0000 </r>
       <r>   68.2667    0.0000 </r>
       <r>   69.6679    0.0000 </r>
       <r>   72.3089    0.0000 </r>
      </set>
      <set comment="kpoint 19">
       <r>    0.2222    1.0000 </r>
       <r>    3.5571    1.0000 </r>
       <r>    5.4632    1.0000 </r>
       <r>    5.5954    1.0000 </r>
       <r>    6.3700    1.0000 </r>
       <r>    6.9684    1.0000 </r>
       <r>    7.1898    1.0000 </r>
       <r>    7.5023    1.0000 </r>
       <r>    7.5495    1.0000 </r>
       <r>    7.7066    1.0000 </r>
       <r>    9.4266   -0.0000 </r>
       <r>   12.4903   -0.0000 </r>
       <r>   18.2541    0.0000 </r>
       <r>   27.8648    0.0000 </r>
       <r>   32.6169    0.0000 </r>
       <r>   32.8003    0.0000 </r>
       <r>   34.0482    0.0000 </r>
       <r>   34.9068    0.0000 </r>
       <r>   39.1006    0.0000 </r>
       <r>   40.6996    0.0000 </r>
       <r>   40.7239    0.0000 </r>
       <r>   42.4922    0.0000 </r>
       <r>   44.2823    0.0000 </r>
       <r>   46.6245    0.0000 </r>
       <r>   48.1859    0.0000 </r>
       <r>   48.6836    0.0000 </r>
       <r>   50.1776    0.0000 </r>
       <r>   52.8864    0.0000 </r>
       <r>   55.5436    0.0000 </r>
       <r>   57.6775    0.0000 </r>
       <r>   58.4202    0.0000 </r>
       <r>   59.9244    0.0000 </r>
       <r>   60.7617    0.0000 </r>
       <r>   62.4589    0.0000 </r>
       <r>   63.6513    0.0000 </r>
       <r>   64.4624    0.0000 </r>
       <r>   66.3504    0.0000 </r>
       <r>   69.1046    0.0000 </r>
       <r>   71.2778    0.0000 </r>
       <r>   71.9577    0.0000 </r>
      </set>
      <set comment="kpoint 20">
       <r>    1.5773    1.0000 </r>
       <r>    3.8285    1.0000 </r>
       <r>    4.4812    1.0000 </r>
       <r>    5.4584    1.0000 </r>
       <r>    6.1829    1.0000 </r>
       <r>    6.9770    1.0000 </r>
       <r>    6.9988    1.0000 </r>
       <r>    8.0072    1.0097 </r>
       <r>    8.2261    1.0007 </r>
       <r>    8.4540    0.2626 </r>
       <r>    9.4919   -0.0000 </r>
       <r>   14.4602    0.0000 </r>
       <r>   18.6588    0.0000 </r>
       <r>   23.9005    0.0000 </r>
       <r>   29.6494    0.0000 </r>
       <r>   30.2093    0.0000 </r>
       <r>   32.0721    0.0000 </r>
       <r>   34.6036    0.0000 </r>
       <r>   37.7387    0.0000 </r>
       <r>   39.6354    0.0000 </r>
       <r>   40.6696    0.0000 </r>
       <r>   42.7676    0.0000 </r>
       <r>   42.8054    0.0000 </r>
       <r>   47.3912    0.0000 </r>
       <r>   51.3346    0.0000 </r>
       <r>   52.9790    0.0000 </r>
       <r>   53.5269    0.0000 </r>
       <r>   54.7344    0.0000 </r>
       <r>   57.8350    0.0000 </r>
       <r>   59.0821    0.0000 </r>
       <r>   60.2860    0.0000 </r>
       <r>   61.4424    0.0000 </r>
       <r>   61.6140    0.0000 </r>
       <r>   62.0732    0.0000 </r>
       <r>   63.8674    0.0000 </r>
       <r>   65.0848    0.0000 </r>
       <r>   66.2730    0.0000 </r>
       <r>   69.6770    0.0000 </r>
       <r>   70.7473    0.0000 </r>
       <r>   72.3802    0.0000 </r>
      </set>
      <set comment="kpoint 21">
       <r>    2.6629    1.0000 </r>
       <r>    3.4895    1.0000 </r>
       <r>    3.9204    1.0000 </r>
       <r>    5.5084    1.0000 </r>
       <r>    6.6002    1.0000 </r>
       <r>    6.7141    1.0000 </r>
       <r>    6.8593    1.0000 </r>
       <r>    9.0987   -0.0000 </r>
       <r>    9.2062   -0.0000 </r>
       <r>    9.2891   -0.0000 </r>
       <r>    9.5474   -0.0000 </r>
       <r>   15.9279    0.0000 </r>
       <r>   18.8840    0.0000 </r>
       <r>   21.3713    0.0000 </r>
       <r>   26.4538    0.0000 </r>
       <r>   28.2175    0.0000 </r>
       <r>   29.6299    0.0000 </r>
       <r>   33.6546    0.0000 </r>
       <r>   36.4344    0.0000 </r>
       <r>   38.3739    0.0000 </r>
       <r>   41.6638    0.0000 </r>
       <r>   41.8582    0.0000 </r>
       <r>   44.2529    0.0000 </r>
       <r>   48.1906    0.0000 </r>
       <r>   53.2215    0.0000 </r>
       <r>   54.8515    0.0000 </r>
       <r>   56.7667    0.0000 </r>
       <r>   57.2446    0.0000 </r>
       <r>   58.8984    0.0000 </r>
       <r>   60.4005    0.0000 </r>
       <r>   61.7943    0.0000 </r>
       <r>   62.1112    0.0000 </r>
       <r>   62.5320    0.0000 </r>
       <r>   63.4419    0.0000 </r>
       <r>   64.1551    0.0000 </r>
       <r>   65.8715    0.0000 </r>
       <r>   69.6491    0.0000 </r>
       <r>   69.9179    0.0000 </r>
       <r>   70.4916    0.0000 </r>
       <r>   71.7450    0.0000 </r>
      </set>
      <set comment="kpoint 22">
       <r>    2.9701    1.0000 </r>
       <r>    3.1385    1.0000 </r>
       <r>    3.7907    1.0000 </r>
       <r>    5.6256    1.0000 </r>
       <r>    6.5528    1.0000 </r>
       <r>    6.8839    1.0000 </r>
       <r>    7.1332    1.0000 </r>
       <r>    9.4691   -0.0000 </r>
       <r>    9.6493   -0.0000 </r>
       <r>    9.8180   -0.0000 </r>
       <r>   11.0634   -0.0000 </r>
       <r>   14.7586    0.0000 </r>
       <r>   19.6588    0.0000 </r>
       <r>   21.4307    0.0000 </r>
       <r>   24.3890    0.0000 </r>
       <r>   27.0400    0.0000 </r>
       <r>   27.0932    0.0000 </r>
       <r>   32.9872    0.0000 </r>
       <r>   35.9940    0.0000 </r>
       <r>   37.4872    0.0000 </r>
       <r>   41.2475    0.0000 </r>
       <r>   43.3420    0.0000 </r>
       <r>   44.6621    0.0000 </r>
       <r>   49.2562    0.0000 </r>
       <r>   51.4544    0.0000 </r>
       <r>   56.5999    0.0000 </r>
       <r>   57.4263    0.0000 </r>
       <r>   59.7889    0.0000 </r>
       <r>   60.4448    0.0000 </r>
       <r>   61.4891    0.0000 </r>
       <r>   62.6769    0.0000 </r>
       <r>   63.0128    0.0000 </r>
       <r>   63.6196    0.0000 </r>
       <r>   65.2901    0.0000 </r>
       <r>   66.8603    0.0000 </r>
       <r>   68.0202    0.0000 </r>
       <r>   68.2245    0.0000 </r>
       <r>   69.9761    0.0000 </r>
       <r>   70.7856    0.0000 </r>
       <r>   70.8350    0.0000 </r>
      </set>
      <set comment="kpoint 23">
       <r>   -0.0916    1.0000 </r>
       <r>    3.4047    1.0000 </r>
       <r>    5.6535    1.0000 </r>
       <r>    5.7972    1.0000 </r>
       <r>    6.6156    1.0000 </r>
       <r>    6.6511    1.0000 </r>
       <r>    7.1132    1.0000 </r>
       <r>    7.3296    1.0000 </r>
       <r>    7.6097    1.0000 </r>
       <r>    7.7609    1.0000 </r>
       <r>    9.3768   -0.0000 </r>
       <r>   11.9696   -0.0000 </r>
       <r>   18.1926    0.0000 </r>
       <r>   29.4780    0.0000 </r>
       <r>   31.1276    0.0000 </r>
       <r>   34.3961    0.0000 </r>
       <r>   34.7808    0.0000 </r>
       <r>   36.8729    0.0000 </r>
       <r>   37.5765    0.0000 </r>
       <r>   39.2062    0.0000 </r>
       <r>   42.0081    0.0000 </r>
       <r>   44.9612    0.0000 </r>
       <r>   45.4229    0.0000 </r>
       <r>   45.7462    0.0000 </r>
       <r>   46.1054    0.0000 </r>
       <r>   47.9733    0.0000 </r>
       <r>   48.1071    0.0000 </r>
       <r>   52.9217    0.0000 </r>
       <r>   55.5751    0.0000 </r>
       <r>   56.6729    0.0000 </r>
       <r>   57.0742    0.0000 </r>
       <r>   59.7794    0.0000 </r>
       <r>   60.3711    0.0000 </r>
       <r>   63.8845    0.0000 </r>
       <r>   63.9778    0.0000 </r>
       <r>   64.1623    0.0000 </r>
       <r>   65.7350    0.0000 </r>
       <r>   69.4857    0.0000 </r>
       <r>   70.9136    0.0000 </r>
       <r>   71.8371    0.0000 </r>
      </set>
      <set comment="kpoint 24">
       <r>    1.1125    1.0000 </r>
       <r>    3.9747    1.0000 </r>
       <r>    4.8260    1.0000 </r>
       <r>    5.2461    1.0000 </r>
       <r>    6.2882    1.0000 </r>
       <r>    6.7081    1.0000 </r>
       <r>    7.2950    1.0000 </r>
       <r>    7.4441    1.0000 </r>
       <r>    8.0510    1.0176 </r>
       <r>    8.3698    0.6065 </r>
       <r>    9.4144   -0.0000 </r>
       <r>   13.8110   -0.0000 </r>
       <r>   18.5316    0.0000 </r>
       <r>   25.9090    0.0000 </r>
       <r>   28.6138    0.0000 </r>
       <r>   31.4999    0.0000 </r>
       <r>   33.8496    0.0000 </r>
       <r>   35.0950    0.0000 </r>
       <r>   38.3464    0.0000 </r>
       <r>   38.4867    0.0000 </r>
       <r>   40.4294    0.0000 </r>
       <r>   43.9509    0.0000 </r>
       <r>   45.8748    0.0000 </r>
       <r>   46.3927    0.0000 </r>
       <r>   48.8087    0.0000 </r>
       <r>   49.5381    0.0000 </r>
       <r>   51.5255    0.0000 </r>
       <r>   56.0348    0.0000 </r>
       <r>   57.4972    0.0000 </r>
       <r>   59.3187    0.0000 </r>
       <r>   59.5491    0.0000 </r>
       <r>   60.7655    0.0000 </r>
       <r>   60.9681    0.0000 </r>
       <r>   62.9454    0.0000 </r>
       <r>   63.3956    0.0000 </r>
       <r>   64.0381    0.0000 </r>
       <r>   65.7341    0.0000 </r>
       <r>   70.2271    0.0000 </r>
       <r>   71.3090    0.0000 </r>
       <r>   71.6873    0.0000 </r>
      </set>
      <set comment="kpoint 25">
       <r>    2.4400    1.0000 </r>
       <r>    3.8835    1.0000 </r>
       <r>    4.1154    1.0000 </r>
       <r>    5.2778    1.0000 </r>
       <r>    6.2558    1.0000 </r>
       <r>    6.6382    1.0000 </r>
       <r>    6.9954    1.0000 </r>
       <r>    8.1191    1.0325 </r>
       <r>    8.9018   -0.0010 </r>
       <r>    9.2587   -0.0000 </r>
       <r>    9.5895   -0.0000 </r>
       <r>   15.6282    0.0000 </r>
       <r>   19.1128    0.0000 </r>
       <r>   22.3047    0.0000 </r>
       <r>   26.7762    0.0000 </r>
       <r>   28.2035    0.0000 </r>
       <r>   31.8757    0.0000 </r>
       <r>   32.8610    0.0000 </r>
       <r>   37.8174    0.0000 </r>
       <r>   38.5381    0.0000 </r>
       <r>   40.0211    0.0000 </r>
       <r>   43.7546    0.0000 </r>
       <r>   45.9009    0.0000 </r>
       <r>   48.0054    0.0000 </r>
       <r>   50.8567    0.0000 </r>
       <r>   52.6685    0.0000 </r>
       <r>   55.1845    0.0000 </r>
       <r>   56.5703    0.0000 </r>
       <r>   58.3022    0.0000 </r>
       <r>   59.6373    0.0000 </r>
       <r>   61.6574    0.0000 </r>
       <r>   62.0824    0.0000 </r>
       <r>   62.5633    0.0000 </r>
       <r>   63.1076    0.0000 </r>
       <r>   64.3708    0.0000 </r>
       <r>   65.3359    0.0000 </r>
       <r>   68.3143    0.0000 </r>
       <r>   69.7312    0.0000 </r>
       <r>   70.8748    0.0000 </r>
       <r>   71.3918    0.0000 </r>
      </set>
      <set comment="kpoint 26">
       <r>    3.0920    1.0000 </r>
       <r>    3.4593    1.0000 </r>
       <r>    3.8982    1.0000 </r>
       <r>    5.4613    1.0000 </r>
       <r>    6.4223    1.0000 </r>
       <r>    6.7834    1.0000 </r>
       <r>    6.8670    1.0000 </r>
       <r>    9.0665   -0.0000 </r>
       <r>    9.3794   -0.0000 </r>
       <r>    9.5336   -0.0000 </r>
       <r>   10.8073   -0.0000 </r>
       <r>   16.0360    0.0000 </r>
       <r>   19.2161    0.0000 </r>
       <r>   21.5301    0.0000 </r>
       <r>   25.0477    0.0000 </r>
       <r>   25.7153    0.0000 </r>
       <r>   28.8286    0.0000 </r>
       <r>   31.8302    0.0000 </r>
       <r>   36.7496    0.0000 </r>
       <r>   38.0466    0.0000 </r>
       <r>   40.9650    0.0000 </r>
       <r>   44.0894    0.0000 </r>
       <r>   46.4567    0.0000 </r>
       <r>   48.8496    0.0000 </r>
       <r>   52.3509    0.0000 </r>
       <r>   54.1588    0.0000 </r>
       <r>   56.1609    0.0000 </r>
       <r>   58.3693    0.0000 </r>
       <r>   59.9571    0.0000 </r>
       <r>   61.1035    0.0000 </r>
       <r>   61.1811    0.0000 </r>
       <r>   62.5063    0.0000 </r>
       <r>   63.1388    0.0000 </r>
       <r>   65.1534    0.0000 </r>
       <r>   66.7405    0.0000 </r>
       <r>   67.5877    0.0000 </r>
       <r>   67.9628    0.0000 </r>
       <r>   70.2038    0.0000 </r>
       <r>   70.6670    0.0000 </r>
       <r>   72.7950    0.0000 </r>
      </set>
      <set comment="kpoint 27">
       <r>    3.1546    1.0000 </r>
       <r>    3.2584    1.0000 </r>
       <r>    3.9031    1.0000 </r>
       <r>    5.5773    1.0000 </r>
       <r>    6.3531    1.0000 </r>
       <r>    6.9343    1.0000 </r>
       <r>    7.0076    1.0000 </r>
       <r>    9.3706   -0.0000 </r>
       <r>    9.6240   -0.0000 </r>
       <r>    9.6512   -0.0000 </r>
       <r>   12.0827   -0.0000 </r>
       <r>   14.5084    0.0000 </r>
       <r>   20.5454    0.0000 </r>
       <r>   21.3274    0.0000 </r>
       <r>   24.4547    0.0000 </r>
       <r>   24.7653    0.0000 </r>
       <r>   27.1314    0.0000 </r>
       <r>   31.4730    0.0000 </r>
       <r>   36.3024    0.0000 </r>
       <r>   37.8789    0.0000 </r>
       <r>   41.2813    0.0000 </r>
       <r>   44.5741    0.0000 </r>
       <r>   46.1386    0.0000 </r>
       <r>   50.3884    0.0000 </r>
       <r>   50.8338    0.0000 </r>
       <r>   55.0632    0.0000 </r>
       <r>   57.0858    0.0000 </r>
       <r>   59.2249    0.0000 </r>
       <r>   60.5642    0.0000 </r>
       <r>   60.7080    0.0000 </r>
       <r>   62.7251    0.0000 </r>
       <r>   62.9506    0.0000 </r>
       <r>   63.7583    0.0000 </r>
       <r>   64.3916    0.0000 </r>
       <r>   67.1562    0.0000 </r>
       <r>   68.8603    0.0000 </r>
       <r>   69.2379    0.0000 </r>
       <r>   70.0177    0.0000 </r>
       <r>   70.9306    0.0000 </r>
       <r>   72.3422    0.0000 </r>
      </set>
      <set comment="kpoint 28">
       <r>    2.3864    1.0000 </r>
       <r>    4.2199    1.0000 </r>
       <r>    4.4620    1.0000 </r>
       <r>    4.7248    1.0000 </r>
       <r>    6.2496    1.0000 </r>
       <r>    6.4090    1.0000 </r>
       <r>    7.1439    1.0000 </r>
       <r>    7.6267    1.0000 </r>
       <r>    8.8999   -0.0010 </r>
       <r>    9.1918   -0.0000 </r>
       <r>    9.6305   -0.0000 </r>
       <r>   15.4937    0.0000 </r>
       <r>   19.2338    0.0000 </r>
       <r>   23.8128    0.0000 </r>
       <r>   24.8245    0.0000 </r>
       <r>   29.5561    0.0000 </r>
       <r>   31.3600    0.0000 </r>
       <r>   34.3952    0.0000 </r>
       <r>   35.2821    0.0000 </r>
       <r>   39.4963    0.0000 </r>
       <r>   41.6572    0.0000 </r>
       <r>   45.4479    0.0000 </r>
       <r>   46.8875    0.0000 </r>
       <r>   48.0322    0.0000 </r>
       <r>   48.3478    0.0000 </r>
       <r>   51.5494    0.0000 </r>
       <r>   52.6369    0.0000 </r>
       <r>   57.1435    0.0000 </r>
       <r>   58.3156    0.0000 </r>
       <r>   59.5155    0.0000 </r>
       <r>   61.5061    0.0000 </r>
       <r>   62.2763    0.0000 </r>
       <r>   62.4903    0.0000 </r>
       <r>   64.0704    0.0000 </r>
       <r>   64.1764    0.0000 </r>
       <r>   66.0293    0.0000 </r>
       <r>   66.2927    0.0000 </r>
       <r>   70.2349    0.0000 </r>
       <r>   70.2514    0.0000 </r>
       <r>   72.3028    0.0000 </r>
      </set>
      <set comment="kpoint 29">
       <r>    3.4752    1.0000 </r>
       <r>    3.9009    1.0000 </r>
       <r>    4.1431    1.0000 </r>
       <r>    4.9281    1.0000 </r>
       <r>    6.0611    1.0000 </r>
       <r>    6.6528    1.0000 </r>
       <r>    6.8248    1.0000 </r>
       <r>    8.2033    1.0204 </r>
       <r>    9.1917   -0.0000 </r>
       <r>    9.5125   -0.0000 </r>
       <r>   10.9713   -0.0000 </r>
       <r>   17.0512    0.0000 </r>
       <r>   19.8350    0.0000 </r>
       <r>   21.3782    0.0000 </r>
       <r>   23.1216    0.0000 </r>
       <r>   27.0337    0.0000 </r>
       <r>   29.6004    0.0000 </r>
       <r>   31.0846    0.0000 </r>
       <r>   33.9943    0.0000 </r>
       <r>   40.9827    0.0000 </r>
       <r>   42.4768    0.0000 </r>
       <r>   46.0349    0.0000 </r>
       <r>   48.1253    0.0000 </r>
       <r>   49.0138    0.0000 </r>
       <r>   50.6494    0.0000 </r>
       <r>   51.6109    0.0000 </r>
       <r>   54.7140    0.0000 </r>
       <r>   56.2497    0.0000 </r>
       <r>   58.5158    0.0000 </r>
       <r>   60.6968    0.0000 </r>
       <r>   61.3510    0.0000 </r>
       <r>   62.2443    0.0000 </r>
       <r>   63.3310    0.0000 </r>
       <r>   64.7850    0.0000 </r>
       <r>   66.6002    0.0000 </r>
       <r>   67.4712    0.0000 </r>
       <r>   68.6870    0.0000 </r>
       <r>   70.4980    0.0000 </r>
       <r>   71.6044    0.0000 </r>
       <r>   72.6062    0.0000 </r>
      </set>
      <set comment="kpoint 30">
       <r>    3.4921    1.0000 </r>
       <r>    3.8213    1.0000 </r>
       <r>    4.1794    1.0000 </r>
       <r>    5.2784    1.0000 </r>
       <r>    6.0789    1.0000 </r>
       <r>    6.4433    1.0000 </r>
       <r>    7.0835    1.0000 </r>
       <r>    8.9422   -0.0004 </r>
       <r>    9.1532   -0.0000 </r>
       <r>    9.5777   -0.0000 </r>
       <r>   12.6909   -0.0000 </r>
       <r>   15.9313    0.0000 </r>
       <r>   20.4042    0.0000 </r>
       <r>   21.9008    0.0000 </r>
       <r>   22.3847    0.0000 </r>
       <r>   25.0192    0.0000 </r>
       <r>   28.1109    0.0000 </r>
       <r>   28.8992    0.0000 </r>
       <r>   33.3487    0.0000 </r>
       <r>   41.5265    0.0000 </r>
       <r>   43.3097    0.0000 </r>
       <r>   45.4237    0.0000 </r>
       <r>   49.1581    0.0000 </r>
       <r>   49.9466    0.0000 </r>
       <r>   52.2435    0.0000 </r>
       <r>   53.0677    0.0000 </r>
       <r>   54.7040    0.0000 </r>
       <r>   56.6931    0.0000 </r>
       <r>   59.2647    0.0000 </r>
       <r>   59.7984    0.0000 </r>
       <r>   60.8918    0.0000 </r>
       <r>   62.8030    0.0000 </r>
       <r>   63.1971    0.0000 </r>
       <r>   64.0094    0.0000 </r>
       <r>   67.8131    0.0000 </r>
       <r>   68.5202    0.0000 </r>
       <r>   70.1908    0.0000 </r>
       <r>   70.7097    0.0000 </r>
       <r>   71.6516    0.0000 </r>
       <r>   73.0806    0.0000 </r>
      </set>
      <set comment="kpoint 31">
       <r>    3.7439    1.0000 </r>
       <r>    4.2528    1.0000 </r>
       <r>    4.5812    1.0000 </r>
       <r>    4.6403    1.0000 </r>
       <r>    5.9330    1.0000 </r>
       <r>    6.2974    1.0000 </r>
       <r>    7.0900    1.0000 </r>
       <r>    8.5179    0.0740 </r>
       <r>    9.0415   -0.0000 </r>
       <r>    9.5621   -0.0000 </r>
       <r>   12.8606   -0.0000 </r>
       <r>   17.9279    0.0000 </r>
       <r>   18.7817    0.0000 </r>
       <r>   20.9405    0.0000 </r>
       <r>   23.0198    0.0000 </r>
       <r>   26.3291    0.0000 </r>
       <r>   26.6512    0.0000 </r>
       <r>   29.9061    0.0000 </r>
       <r>   30.8679    0.0000 </r>
       <r>   42.8935    0.0000 </r>
       <r>   45.4226    0.0000 </r>
       <r>   47.7290    0.0000 </r>
       <r>   48.2569    0.0000 </r>
       <r>   49.9954    0.0000 </r>
       <r>   51.0772    0.0000 </r>
       <r>   52.6663    0.0000 </r>
       <r>   54.4583    0.0000 </r>
       <r>   56.3091    0.0000 </r>
       <r>   56.8727    0.0000 </r>
       <r>   59.0029    0.0000 </r>
       <r>   60.8206    0.0000 </r>
       <r>   62.9554    0.0000 </r>
       <r>   63.1293    0.0000 </r>
       <r>   64.0420    0.0000 </r>
       <r>   67.6588    0.0000 </r>
       <r>   68.7934    0.0000 </r>
       <r>   68.8459    0.0000 </r>
       <r>   71.3225    0.0000 </r>
       <r>   72.8499    0.0000 </r>
       <r>   73.0560    0.0000 </r>
      </set>
      <set comment="kpoint 32">
       <r>    3.7407    1.0000 </r>
       <r>    4.3915    1.0000 </r>
       <r>    4.4778    1.0000 </r>
       <r>    4.9470    1.0000 </r>
       <r>    5.9188    1.0000 </r>
       <r>    6.0775    1.0000 </r>
       <r>    7.2617    1.0000 </r>
       <r>    8.9185   -0.0007 </r>
       <r>    8.9812   -0.0001 </r>
       <r>    9.2538   -0.0000 </r>
       <r>   14.7129    0.0000 </r>
       <r>   16.1338    0.0000 </r>
       <r>   18.3312    0.0000 </r>
       <r>   22.6659    0.0000 </r>
       <r>   22.9696    0.0000 </r>
       <r>   25.2545    0.0000 </r>
       <r>   26.4226    0.0000 </r>
       <r>   28.2071    0.0000 </r>
       <r>   30.2446    0.0000 </r>
       <r>   43.8066    0.0000 </r>
       <r>   46.1206    0.0000 </r>
       <r>   47.6935    0.0000 </r>
       <r>   48.8953    0.0000 </r>
       <r>   50.9572    0.0000 </r>
       <r>   52.1653    0.0000 </r>
       <r>   53.1628    0.0000 </r>
       <r>   54.7844    0.0000 </r>
       <r>   55.2269    0.0000 </r>
       <r>   56.2723    0.0000 </r>
       <r>   58.6348    0.0000 </r>
       <r>   60.0463    0.0000 </r>
       <r>   61.0410    0.0000 </r>
       <r>   63.6720    0.0000 </r>
       <r>   63.7381    0.0000 </r>
       <r>   67.9232    0.0000 </r>
       <r>   68.9814    0.0000 </r>
       <r>   71.1836    0.0000 </r>
       <r>   71.3254    0.0000 </r>
       <r>   72.1743    0.0000 </r>
       <r>   73.1003    0.0000 </r>
      </set>
      <set comment="kpoint 33">
       <r>   -0.8403    1.0000 </r>
       <r>    2.6311    1.0000 </r>
       <r>    5.9813    1.0000 </r>
       <r>    6.4394    1.0000 </r>
       <r>    6.4395    1.0000 </r>
       <r>    6.8412    1.0000 </r>
       <r>    6.8413    1.0000 </r>
       <r>    7.2348    1.0000 </r>
       <r>    8.0288    1.0132 </r>
       <r>    8.0288    1.0132 </r>
       <r>    9.2601   -0.0000 </r>
       <r>    9.2602   -0.0000 </r>
       <r>   19.1490    0.0000 </r>
       <r>   31.5727    0.0000 </r>
       <r>   33.5580    0.0000 </r>
       <r>   35.2000    0.0000 </r>
       <r>   38.8307    0.0000 </r>
       <r>   38.8308    0.0000 </r>
       <r>   39.4035    0.0000 </r>
       <r>   39.4037    0.0000 </r>
       <r>   42.0136    0.0000 </r>
[...]
       <r>   24.4446    0.0000 </r>
       <r>   25.2675    0.0000 </r>
       <r>   30.6373    0.0000 </r>
       <r>   31.8784    0.0000 </r>
       <r>   36.5491    0.0000 </r>
       <r>   37.6663    0.0000 </r>
       <r>   39.7014    0.0000 </r>
       <r>   41.2878    0.0000 </r>
       <r>   46.2074    0.0000 </r>
       <r>   46.6278    0.0000 </r>
       <r>   55.8632    0.0000 </r>
       <r>   56.4389    0.0000 </r>
       <r>   57.7639    0.0000 </r>
       <r>   59.4330    0.0000 </r>
       <r>   60.2126    0.0000 </r>
       <r>   60.6976    0.0000 </r>
       <r>   62.7655    0.0000 </r>
       <r>   63.3909    0.0000 </r>
       <r>   65.0388    0.0000 </r>
       <r>   65.5783    0.0000 </r>
       <r>   67.0144    0.0000 </r>
       <r>   67.7520    0.0000 </r>
       <r>   69.3658    0.0000 </r>
       <r>   69.9171    0.0000 </r>
       <r>   70.5780    0.0000 </r>
       <r>   72.1139    0.0000 </r>
      </set>
      <set comment="kpoint 95">
       <r>    3.8318    1.0000 </r>
       <r>    3.9043    1.0000 </r>
       <r>    5.0081    1.0000 </r>
       <r>    5.2636    1.0000 </r>
       <r>    5.7207    1.0000 </r>
       <r>    5.9831    1.0000 </r>
       <r>    7.3860    1.0000 </r>
       <r>    7.6278    1.0000 </r>
       <r>    9.4015   -0.0000 </r>
       <r>    9.6117   -0.0000 </r>
       <r>   13.9286    0.0000 </r>
       <r>   14.5144    0.0000 </r>
       <r>   20.5267    0.0000 </r>
       <r>   21.0203    0.0000 </r>
       <r>   22.7191    0.0000 </r>
       <r>   23.1765    0.0000 </r>
       <r>   30.8486    0.0000 </r>
       <r>   32.6520    0.0000 </r>
       <r>   36.5373    0.0000 </r>
       <r>   38.1594    0.0000 </r>
       <r>   39.5418    0.0000 </r>
       <r>   40.8395    0.0000 </r>
       <r>   47.9068    0.0000 </r>
       <r>   48.3469    0.0000 </r>
       <r>   53.1270    0.0000 </r>
       <r>   53.1940    0.0000 </r>
       <r>   59.9074    0.0000 </r>
       <r>   60.4769    0.0000 </r>
       <r>   60.9220    0.0000 </r>
       <r>   61.9029    0.0000 </r>
       <r>   63.2288    0.0000 </r>
       <r>   63.4813    0.0000 </r>
       <r>   63.7164    0.0000 </r>
       <r>   64.2415    0.0000 </r>
       <r>   67.2298    0.0000 </r>
       <r>   67.8354    0.0000 </r>
       <r>   68.2779    0.0000 </r>
       <r>   68.5622    0.0000 </r>
       <r>   69.7039    0.0000 </r>
       <r>   71.9112    0.0000 </r>
      </set>
      <set comment="kpoint 96">
       <r>    4.0516    1.0000 </r>
       <r>    4.2117    1.0000 </r>
       <r>    4.8829    1.0000 </r>
       <r>    4.9594    1.0000 </r>
       <r>    5.7852    1.0000 </r>
       <r>    5.9129    1.0000 </r>
       <r>    7.4819    1.0000 </r>
       <r>    7.6663    1.0000 </r>
       <r>    9.3603   -0.0000 </r>
       <r>    9.4397   -0.0000 </r>
       <r>   15.8328    0.0000 </r>
       <r>   15.9810    0.0000 </r>
       <r>   18.8324    0.0000 </r>
       <r>   19.2426    0.0000 </r>
       <r>   22.0787    0.0000 </r>
       <r>   22.5369    0.0000 </r>
       <r>   32.4918    0.0000 </r>
       <r>   33.5154    0.0000 </r>
       <r>   35.8263    0.0000 </r>
       <r>   36.0143    0.0000 </r>
       <r>   39.3713    0.0000 </r>
       <r>   40.2849    0.0000 </r>
       <r>   49.2958    0.0000 </r>
       <r>   50.0035    0.0000 </r>
       <r>   53.9755    0.0000 </r>
       <r>   54.3960    0.0000 </r>
       <r>   57.6441    0.0000 </r>
       <r>   57.9888    0.0000 </r>
       <r>   61.7076    0.0000 </r>
       <r>   62.9808    0.0000 </r>
       <r>   63.3722    0.0000 </r>
       <r>   63.5759    0.0000 </r>
       <r>   64.6466    0.0000 </r>
       <r>   65.0288    0.0000 </r>
       <r>   65.7465    0.0000 </r>
       <r>   67.0300    0.0000 </r>
       <r>   69.3692    0.0000 </r>
       <r>   71.4442    0.0000 </r>
       <r>   71.5035    0.0000 </r>
       <r>   72.4649    0.0000 </r>
      </set>
     </set>
    </set>
   </array>
  </eigenvalues>
  <separator name="orbital magnetization" >
   <v name="MAGDIPOLOUT">      0.00000000      0.00000000      0.00000000</v>
  </separator>
  <dos>
   <i name="efermi">      8.39517650 </i>
   <total>
    <array>
     <dimension dim="1">gridpoints</dimension>
     <dimension dim="2">spin</dimension>
     <field>energy</field>
     <field>total</field>
     <field>integrated</field>
     <set>
      <set comment="spin 1">
       <r>    -4.9724     0.0000     0.0000 </r>
       <r>    -4.6967     0.0000     0.0000 </r>
       <r>    -4.4209     0.0000     0.0000 </r>
       <r>    -4.1451     0.0000     0.0000 </r>
       <r>    -3.8693     0.0000     0.0000 </r>
       <r>    -3.5936     0.0000     0.0000 </r>
       <r>    -3.3178     0.0000     0.0000 </r>
       <r>    -3.0420    -0.0000    -0.0000 </r>
       <r>    -2.7663    -0.0000    -0.0000 </r>
       <r>    -2.4905    -0.0000    -0.0000 </r>
       <r>    -2.2147    -0.0000    -0.0000 </r>
       <r>    -1.9390    -0.0000    -0.0000 </r>
       <r>    -1.6632    -0.0000    -0.0000 </r>
       <r>    -1.3874    -0.0004    -0.0001 </r>
       <r>    -1.1117     0.0083     0.0022 </r>
       <r>    -0.8359     0.0469     0.0151 </r>
       <r>    -0.5601     0.0888     0.0396 </r>
       <r>    -0.2844     0.0585     0.0557 </r>
       <r>    -0.0086     0.1306     0.0917 </r>
       <r>     0.2672     0.1714     0.1390 </r>
       <r>     0.5430     0.1569     0.1823 </r>
       <r>     0.8187     0.0985     0.2094 </r>
       <r>     1.0945     0.1936     0.2628 </r>
       <r>     1.3703     0.3212     0.3514 </r>
       <r>     1.6460     0.2501     0.4204 </r>
       <r>     1.9218     0.2957     0.5019 </r>
       <r>     2.1976     0.2132     0.5607 </r>
       <r>     2.4733     0.5230     0.7049 </r>
       <r>     2.7491     1.2689     1.0549 </r>
       <r>     3.0249     1.6237     1.5026 </r>
       <r>     3.3006     1.8616     2.0160 </r>
       <r>     3.5764     2.7667     2.7790 </r>
       <r>     3.8522     2.2852     3.4092 </r>
       <r>     4.1280     2.4132     4.0747 </r>
       <r>     4.4037     1.8893     4.5957 </r>
       <r>     4.6795     2.8230     5.3742 </r>
       <r>     4.9553     2.6581     6.1072 </r>
       <r>     5.2310     2.6997     6.8517 </r>
       <r>     5.5068     2.1738     7.4512 </r>
       <r>     5.7826     1.7119     7.9233 </r>
       <r>     6.0583     2.9579     8.7390 </r>
       <r>     6.3341     3.4594     9.6930 </r>
       <r>     6.6099     3.4042    10.6317 </r>
       <r>     6.8856     3.4920    11.5947 </r>
       <r>     7.1614     3.9906    12.6952 </r>
       <r>     7.4372     3.2436    13.5897 </r>
       <r>     7.7130     2.4389    14.2623 </r>
       <r>     7.9887     2.3415    14.9080 </r>
       <r>     8.2645     2.7656    15.6706 </r>
       <r>     8.5403     2.2021    16.2779 </r>
       <r>     8.8160     1.9124    16.8053 </r>
       <r>     9.0918     3.6596    17.8145 </r>
       <r>     9.3676     4.4628    19.0452 </r>
       <r>     9.6433     4.6731    20.3339 </r>
       <r>     9.9191     2.8890    21.1306 </r>
       <r>    10.1949     0.3856    21.2369 </r>
       <r>    10.4706     0.0739    21.2573 </r>
       <r>    10.7464     0.7190    21.4555 </r>
       <r>    11.0222     0.9378    21.7142 </r>
       <r>    11.2979     0.5436    21.8641 </r>
       <r>    11.5737     0.2056    21.9208 </r>
       <r>    11.8495     0.7139    22.1176 </r>
       <r>    12.1253     0.4056    22.2295 </r>
       <r>    12.4010     0.2029    22.2854 </r>
       <r>    12.6768     0.3321    22.3770 </r>
       <r>    12.9526     0.8634    22.6151 </r>
       <r>    13.2283     0.4911    22.7505 </r>
       <r>    13.5041     0.3360    22.8432 </r>
       <r>    13.7799     0.1720    22.8907 </r>
       <r>    14.0556     0.4302    23.0093 </r>
       <r>    14.3314     0.3797    23.1140 </r>
       <r>    14.6072     0.5359    23.2618 </r>
       <r>    14.8829     0.2125    23.3204 </r>
       <r>    15.1587     0.3062    23.4048 </r>
       <r>    15.4345     0.2073    23.4620 </r>
       <r>    15.7103     0.4183    23.5774 </r>
       <r>    15.9860     0.4266    23.6950 </r>
       <r>    16.2618     0.5396    23.8438 </r>
       <r>    16.5376     0.0848    23.8672 </r>
       <r>    16.8133     0.0761    23.8882 </r>
       <r>    17.0891     0.1187    23.9209 </r>
       <r>    17.3649     0.1199    23.9540 </r>
       <r>    17.6406     0.0675    23.9726 </r>
       <r>    17.9164     0.2170    24.0324 </r>
       <r>    18.1922     0.2446    24.0999 </r>
       <r>    18.4679     0.3929    24.2082 </r>
       <r>    18.7437     0.3488    24.3044 </r>
       <r>    19.0195     0.2557    24.3749 </r>
       <r>    19.2952     0.6890    24.5649 </r>
       <r>    19.5710     0.9583    24.8292 </r>
       <r>    19.8468     0.7172    25.0270 </r>
       <r>    20.1226     0.6870    25.2164 </r>
       <r>    20.3983     0.3085    25.3015 </r>
       <r>    20.6741     0.7041    25.4957 </r>
       <r>    20.9499     0.5548    25.6487 </r>
       <r>    21.2256     0.8728    25.8894 </r>
       <r>    21.5014     0.7334    26.0916 </r>
       <r>    21.7772     0.4891    26.2265 </r>
       <r>    22.0529     0.6468    26.4049 </r>
       <r>    22.3287     0.8271    26.6330 </r>
       <r>    22.6045     0.7045    26.8272 </r>
       <r>    22.8802     0.5689    26.9841 </r>
       <r>    23.1560     0.7248    27.1840 </r>
       <r>    23.4318     0.6300    27.3577 </r>
       <r>    23.7076     0.6020    27.5237 </r>
       <r>    23.9833     0.6050    27.6906 </r>
       <r>    24.2591     0.3277    27.7810 </r>
       <r>    24.5349     0.6308    27.9549 </r>
       <r>    24.8106     0.4798    28.0872 </r>
       <r>    25.0864     0.6907    28.2777 </r>
       <r>    25.3622     0.7189    28.4760 </r>
       <r>    25.6379     0.4227    28.5925 </r>
       <r>    25.9137     0.7936    28.8114 </r>
       <r>    26.1895     0.9444    29.0718 </r>
       <r>    26.4652     0.8035    29.2934 </r>
       <r>    26.7410     0.6697    29.4781 </r>
       <r>    27.0168     0.9948    29.7524 </r>
       <r>    27.2926     0.5738    29.9106 </r>
       <r>    27.5683     0.8678    30.1500 </r>
       <r>    27.8441     0.9086    30.4005 </r>
       <r>    28.1199     0.8748    30.6418 </r>
       <r>    28.3956     0.6275    30.8148 </r>
       <r>    28.6714     0.9715    31.0827 </r>
       <r>    28.9472     1.0722    31.3784 </r>
       <r>    29.2229     0.8501    31.6129 </r>
       <r>    29.4987     0.8694    31.8526 </r>
       <r>    29.7745     0.8639    32.0909 </r>
       <r>    30.0502     0.4430    32.2130 </r>
       <r>    30.3260     1.0331    32.4979 </r>
       <r>    30.6018     0.8314    32.7272 </r>
       <r>    30.8775     0.9801    32.9975 </r>
       <r>    31.1533     0.9251    33.2526 </r>
       <r>    31.4291     0.8406    33.4844 </r>
       <r>    31.7049     0.7680    33.6962 </r>
       <r>    31.9806     1.0705    33.9914 </r>
       <r>    32.2564     0.7228    34.1908 </r>
       <r>    32.5322     0.3317    34.2822 </r>
       <r>    32.8079     0.5274    34.4277 </r>
       <r>    33.0837     1.0098    34.7061 </r>
       <r>    33.3595     0.8824    34.9495 </r>
       <r>    33.6352     0.6985    35.1421 </r>
       <r>    33.9110     0.6072    35.3095 </r>
       <r>    34.1868     0.6967    35.5017 </r>
       <r>    34.4625     0.7563    35.7102 </r>
       <r>    34.7383     0.7045    35.9045 </r>
       <r>    35.0141     0.4906    36.0398 </r>
       <r>    35.2899     0.5807    36.1999 </r>
       <r>    35.5656     0.3030    36.2835 </r>
       <r>    35.8414     0.7448    36.4889 </r>
       <r>    36.1172     1.0334    36.7739 </r>
       <r>    36.3929     0.6400    36.9503 </r>
       <r>    36.6687     0.9898    37.2233 </r>
       <r>    36.9445     1.1567    37.5423 </r>
       <r>    37.2202     0.5124    37.6836 </r>
       <r>    37.4960     0.6626    37.8663 </r>
       <r>    37.7718     0.7806    38.0816 </r>
       <r>    38.0475     0.8942    38.3282 </r>
       <r>    38.3233     1.1968    38.6582 </r>
       <r>    38.5991     0.8402    38.8899 </r>
       <r>    38.8749     0.6182    39.0604 </r>
       <r>    39.1506     0.7214    39.2594 </r>
       <r>    39.4264     0.8418    39.4915 </r>
       <r>    39.7022     0.9354    39.7495 </r>
       <r>    39.9779     0.8076    39.9722 </r>
       <r>    40.2537     0.7608    40.1820 </r>
       <r>    40.5295     0.5374    40.3302 </r>
       <r>    40.8052     1.0186    40.6111 </r>
       <r>    41.0810     0.8841    40.8549 </r>
       <r>    41.3568     0.6543    41.0354 </r>
       <r>    41.6325     0.6637    41.2184 </r>
       <r>    41.9083     0.7764    41.4325 </r>
       <r>    42.1841     0.8344    41.6626 </r>
       <r>    42.4598     0.9822    41.9335 </r>
       <r>    42.7356     0.9670    42.2002 </r>
       <r>    43.0114     0.9795    42.4703 </r>
       <r>    43.2872     0.6077    42.6379 </r>
       <r>    43.5629     0.7972    42.8577 </r>
       <r>    43.8387     0.9036    43.1069 </r>
       <r>    44.1145     1.2020    43.4384 </r>
       <r>    44.3902     0.4889    43.5732 </r>
       <r>    44.6660     0.6488    43.7521 </r>
       <r>    44.9418     0.6167    43.9222 </r>
       <r>    45.2175     0.7753    44.1360 </r>
       <r>    45.4933     0.8323    44.3655 </r>
       <r>    45.7691     0.6442    44.5432 </r>
       <r>    46.0448     0.9953    44.8176 </r>
       <r>    46.3206     1.1165    45.1255 </r>
       <r>    46.5964     1.3197    45.4895 </r>
       <r>    46.8722     1.2017    45.8208 </r>
       <r>    47.1479     0.7503    46.0278 </r>
       <r>    47.4237     0.9118    46.2792 </r>
       <r>    47.6995     0.8492    46.5134 </r>
       <r>    47.9752     1.1298    46.8249 </r>
       <r>    48.2510     1.1405    47.1395 </r>
       <r>    48.5268     0.8352    47.3698 </r>
       <r>    48.8025     1.1221    47.6792 </r>
       <r>    49.0783     1.1119    47.9859 </r>
       <r>    49.3541     1.0997    48.2891 </r>
       <r>    49.6298     1.0103    48.5677 </r>
       <r>    49.9056     0.6850    48.7567 </r>
       <r>    50.1814     0.6771    48.9434 </r>
       <r>    50.4571     0.6588    49.1251 </r>
       <r>    50.7329     0.7237    49.3246 </r>
       <r>    51.0087     1.1135    49.6317 </r>
       <r>    51.2845     0.3534    49.7292 </r>
       <r>    51.5602     0.7974    49.9491 </r>
       <r>    51.8360     0.9192    50.2026 </r>
       <r>    52.1118     0.6485    50.3814 </r>
       <r>    52.3875     1.2736    50.7326 </r>
       <r>    52.6633     1.1209    51.0418 </r>
       <r>    52.9391     0.8986    51.2895 </r>
       <r>    53.2148     1.2654    51.6385 </r>
       <r>    53.4906     1.3291    52.0050 </r>
       <r>    53.7664     1.0640    52.2984 </r>
       <r>    54.0421     0.6465    52.4767 </r>
       <r>    54.3179     0.7239    52.6764 </r>
       <r>    54.5937     0.7592    52.8857 </r>
       <r>    54.8695     1.2232    53.2230 </r>
       <r>    55.1452     1.0825    53.5216 </r>
       <r>    55.4210     1.1685    53.8438 </r>
       <r>    55.6968     1.1289    54.1551 </r>
       <r>    55.9725     1.0081    54.4331 </r>
       <r>    56.2483     1.1422    54.7481 </r>
       <r>    56.5241     1.2081    55.0812 </r>
       <r>    56.7998     1.3727    55.4598 </r>
       <r>    57.0756     1.3612    55.8351 </r>
       <r>    57.3514     0.8002    56.0558 </r>
       <r>    57.6271     1.5245    56.4762 </r>
       <r>    57.9029     1.1069    56.7814 </r>
       <r>    58.1787     0.8105    57.0049 </r>
       <r>    58.4545     1.1611    57.3251 </r>
       <r>    58.7302     0.9878    57.5975 </r>
       <r>    59.0060     1.3262    57.9633 </r>
       <r>    59.2818     1.6962    58.4310 </r>
       <r>    59.5575     1.3988    58.8168 </r>
       <r>    59.8333     1.3360    59.1852 </r>
       <r>    60.1091     1.2340    59.5255 </r>
       <r>    60.3848     1.2391    59.8672 </r>
       <r>    60.6606     1.7252    60.3429 </r>
       <r>    60.9364     1.8033    60.8402 </r>
       <r>    61.2121     1.7028    61.3098 </r>
       <r>    61.4879     2.2952    61.9427 </r>
       <r>    61.7637     1.7917    62.4368 </r>
       <r>    62.0394     1.5625    62.8677 </r>
       <r>    62.3152     1.9548    63.4068 </r>
       <r>    62.5910     2.0951    63.9846 </r>
       <r>    62.8668     2.3866    64.6427 </r>
       <r>    63.1425     2.6973    65.3866 </r>
       <r>    63.4183     2.7338    66.1405 </r>
       <r>    63.6941     1.9755    66.6852 </r>
       <r>    63.9698     1.7595    67.1705 </r>
       <r>    64.2456     1.5995    67.6116 </r>
       <r>    64.5214     1.4132    68.0013 </r>
       <r>    64.7971     1.5480    68.4282 </r>
       <r>    65.0729     1.7293    68.9051 </r>
       <r>    65.3487     1.4065    69.2930 </r>
       <r>    65.6244     1.4264    69.6863 </r>
       <r>    65.9002     1.6820    70.1502 </r>
       <r>    66.1760     0.9876    70.4225 </r>
       <r>    66.4518     1.4813    70.8310 </r>
       <r>    66.7275     1.8447    71.3397 </r>
       <r>    67.0033     1.1590    71.6594 </r>
       <r>    67.2791     1.1146    71.9667 </r>
       <r>    67.5548     0.8214    72.1933 </r>
       <r>    67.8306     1.7359    72.6720 </r>
       <r>    68.1064     1.8168    73.1730 </r>
       <r>    68.3821     1.5594    73.6030 </r>
       <r>    68.6579     1.5205    74.0223 </r>
       <r>    68.9337     1.7064    74.4929 </r>
       <r>    69.2094     1.1612    74.8131 </r>
       <r>    69.4852     1.1957    75.1428 </r>
       <r>    69.7610     1.4418    75.5404 </r>
       <r>    70.0368     1.3770    75.9202 </r>
       <r>    70.3125     1.4724    76.3262 </r>
       <r>    70.5883     1.4982    76.7394 </r>
       <r>    70.8641     1.4778    77.1469 </r>
       <r>    71.1398     0.7695    77.3591 </r>
       <r>    71.4156     1.0454    77.6474 </r>
       <r>    71.6914     1.8543    78.1587 </r>
       <r>    71.9671     1.2989    78.5169 </r>
       <r>    72.2429     1.2677    78.8665 </r>
       <r>    72.5187     1.0798    79.1643 </r>
       <r>    72.7944     0.6679    79.3485 </r>
       <r>    73.0702     1.0342    79.6337 </r>
       <r>    73.3460     0.9163    79.8864 </r>
       <r>    73.6217     0.2558    79.9569 </r>
       <r>    73.8975     0.1025    79.9852 </r>
       <r>    74.1733     0.0544    80.0002 </r>
       <r>    74.4491    -0.0005    80.0001 </r>
       <r>    74.7248    -0.0002    80.0000 </r>
       <r>    75.0006    -0.0000    80.0000 </r>
       <r>    75.2764    -0.0000    80.0000 </r>
       <r>    75.5521     0.0000    80.0000 </r>
       <r>    75.8279     0.0000    80.0000 </r>
       <r>    76.1037     0.0000    80.0000 </r>
       <r>    76.3794     0.0000    80.0000 </r>
       <r>    76.6552     0.0000    80.0000 </r>
       <r>    76.9310     0.0000    80.0000 </r>
       <r>    77.2067     0.0000    80.0000 </r>
       <r>    77.4825     0.0000    80.0000 </r>
       <r>    77.7583     0.0000    80.0000 </r>
      </set>
     </set>
    </array>
   </total>
  </dos>
 </calculation>
 <structure name="finalpos" >
  <crystal>
   <varray name="basis" >
    <v>       2.30670000       0.00000000       0.00000000 </v>
    <v>      -1.15335000       1.99766080       0.00000000 </v>
    <v>       0.00000000       0.00000000       3.89664000 </v>
   </varray>
   <i name="volume">     17.95573335 </i>
   <varray name="rec_basis" >
    <v>       0.43351975       0.25029274       0.00000000 </v>
    <v>       0.00000000       0.50058549       0.00000000 </v>
    <v>       0.00000000       0.00000000       0.25663135 </v>
   </varray>
  </crystal>
  <varray name="positions" >
   <v>       0.00000000       0.00000000       0.00000000 </v>
   <v>       0.33333333       0.66666667       0.50000000 </v>
  </varray>
 </structure>
</modeling>
