unknown system                          
   1.00000000000000     
     3.635000    0.000000    0.000000
     0.000000    3.635000    0.000000
     0.000000    0.000000    3.635000
   Cu
     4
Direct
  0.000000  0.000000  0.000000
  0.500000  0.500000  0.000000
  0.500000  0.000000  0.500000
  0.000000  0.500000  0.500000
 
   20   20   20
 0.66071862265E+03 0.57297150899E+03 0.37120792674E+03 0.17748875664E+03 0.70214712081E+02
 0.38359161076E+02 0.21460429921E+02 0.85107946764E+01 0.72227022398E+01 0.13937818846E+02
 0.18056152232E+02 0.13937818846E+02 0.72227022398E+01 0.85107946764E+01 0.21460429921E+02
 0.38359161076E+02 0.70214712081E+02 0.17748875664E+03 0.37120792674E+03 0.57297150899E+03
 0.57297150899E+03 0.49565678932E+03 0.31932960519E+03 0.15277901699E+03 0.62811571538E+02
 0.35999542948E+02 0.19924076542E+02 0.82595721642E+01 0.64391099810E+01 0.11027322890E+02
 0.13937818846E+02 0.11027322890E+02 0.64391099810E+01 0.82595721642E+01 0.19924076542E+02
 0.35999542948E+02 0.62811571538E+02 0.15277901699E+03 0.31932960519E+03 0.49565678932E+03
 0.37120792674E+03 0.31932960519E+03 0.20392860038E+03 0.10029011690E+03 0.48023238180E+02
 0.29884930366E+02 0.15954094685E+02 0.75609002863E+01 0.54247575646E+01 0.64391099810E+01
 0.72227022398E+01 0.64391099810E+01 0.54247575646E+01 0.75609002863E+01 0.15954094685E+02
 0.29884930366E+02 0.48023238180E+02 0.10029011690E+03 0.20392860038E+03 0.31932960519E+03
 0.17748875664E+03 0.15277901699E+03 0.10029011690E+03 0.57197846656E+02 0.36046336719E+02
 0.22076507051E+02 0.11739731549E+02 0.76614635206E+01 0.75609002863E+01 0.82595721642E+01
 0.85107946764E+01 0.82595721642E+01 0.75609002863E+01 0.76614635206E+01 0.11739731549E+02
 0.22076507051E+02 0.36046336719E+02 0.57197846656E+02 0.10029011690E+03 0.15277901699E+03
 0.70214712081E+02 0.62811571538E+02 0.48023238180E+02 0.36046336719E+02 0.25345887553E+02
 0.15547850829E+02 0.10738050526E+02 0.11739731549E+02 0.15954094685E+02 0.19924076542E+02
 0.21460429921E+02 0.19924076542E+02 0.15954094685E+02 0.11739731549E+02 0.10738050526E+02
 0.15547850829E+02 0.25345887553E+02 0.36046336719E+02 0.48023238180E+02 0.62811571538E+02
 0.38359161076E+02 0.35999542948E+02 0.29884930366E+02 0.22076507051E+02 0.15547850829E+02
 0.13004195555E+02 0.15547850829E+02 0.22076507051E+02 0.29884930366E+02 0.35999542948E+02
 0.38359161076E+02 0.35999542948E+02 0.29884930366E+02 0.22076507051E+02 0.15547850829E+02
 0.13004195555E+02 0.15547850829E+02 0.22076507051E+02 0.29884930366E+02 0.35999542948E+02
 0.21460429921E+02 0.19924076542E+02 0.15954094685E+02 0.11739731549E+02 0.10738050526E+02
 0.15547850829E+02 0.25345887553E+02 0.36046336719E+02 0.48023238180E+02 0.62811571538E+02
 0.70214712081E+02 0.62811571538E+02 0.48023238180E+02 0.36046336719E+02 0.25345887553E+02
 0.15547850829E+02 0.10738050526E+02 0.11739731549E+02 0.15954094685E+02 0.19924076542E+02
 0.85107946764E+01 0.82595721642E+01 0.75609002863E+01 0.76614635206E+01 0.11739731549E+02
 0.22076507051E+02 0.36046336719E+02 0.57197846656E+02 0.10029011690E+03 0.15277901699E+03
 0.17748875664E+03 0.15277901699E+03 0.10029011690E+03 0.57197846656E+02 0.36046336719E+02
 0.22076507051E+02 0.11739731549E+02 0.76614635206E+01 0.75609002863E+01 0.82595721642E+01
 0.72227022398E+01 0.64391099810E+01 0.54247575646E+01 0.75609002863E+01 0.15954094685E+02
 0.29884930366E+02 0.48023238180E+02 0.10029011690E+03 0.20392860038E+03 0.31932960519E+03
 0.37120792674E+03 0.31932960519E+03 0.20392860038E+03 0.10029011690E+03 0.48023238180E+02
 0.29884930366E+02 0.15954094685E+02 0.75609002863E+01 0.54247575646E+01 0.64391099810E+01
 0.13937818846E+02 0.11027322890E+02 0.64391099810E+01 0.82595721642E+01 0.19924076542E+02
 0.35999542948E+02 0.62811571538E+02 0.15277901699E+03 0.31932960519E+03 0.49565678932E+03
 0.57297150899E+03 0.49565678932E+03 0.31932960519E+03 0.15277901699E+03 0.62811571538E+02
 0.35999542948E+02 0.19924076542E+02 0.82595721642E+01 0.64391099810E+01 0.11027322890E+02
 0.18056152232E+02 0.13937818846E+02 0.72227022398E+01 0.85107946764E+01 0.21460429921E+02
 0.38359161076E+02 0.70214712081E+02 0.17748875664E+03 0.37120792674E+03 0.57297150899E+03
 0.66071862265E+03 0.57297150899E+03 0.37120792674E+03 0.17748875664E+03 0.70214712081E+02
 0.38359161076E+02 0.21460429921E+02 0.85107946764E+01 0.72227022398E+01 0.13937818846E+02
 0.13937818846E+02 0.11027322890E+02 0.64391099810E+01 0.82595721642E+01 0.19924076542E+02
 0.35999542948E+02 0.62811571538E+02 0.15277901699E+03 0.31932960519E+03 0.49565678932E+03
 0.57297150899E+03 0.49565678932E+03 0.31932960519E+03 0.15277901699E+03 0.62811571538E+02
 0.35999542948E+02 0.19924076542E+02 0.82595721642E+01 0.64391099810E+01 0.11027322890E+02
 0.72227022398E+01 0.64391099810E+01 0.54247575646E+01 0.75609002863E+01 0.15954094685E+02
 0.29884930366E+02 0.48023238180E+02 0.10029011690E+03 0.20392860038E+03 0.31932960519E+03
 0.37120792674E+03 0.31932960519E+03 0.20392860038E+03 0.10029011690E+03 0.48023238180E+02
 0.29884930366E+02 0.15954094685E+02 0.75609002863E+01 0.54247575646E+01 0.64391099810E+01
 0.85107946764E+01 0.82595721642E+01 0.75609002863E+01 0.76614635206E+01 0.11739731549E+02
 0.22076507051E+02 0.36046336719E+02 0.57197846656E+02 0.10029011690E+03 0.15277901699E+03
 0.17748875664E+03 0.15277901699E+03 0.10029011690E+03 0.57197846656E+02 0.36046336719E+02
 0.22076507051E+02 0.11739731549E+02 0.76614635206E+01 0.75609002863E+01 0.82595721642E+01
 0.21460429921E+02 0.19924076542E+02 0.15954094685E+02 0.11739731549E+02 0.10738050526E+02
 0.15547850829E+02 0.25345887553E+02 0.36046336719E+02 0.48023238180E+02 0.62811571538E+02
 0.70214712081E+02 0.62811571538E+02 0.48023238180E+02 0.36046336719E+02 0.25345887553E+02
 0.15547850829E+02 0.10738050526E+02 0.11739731549E+02 0.15954094685E+02 0.19924076542E+02
 0.38359161076E+02 0.35999542948E+02 0.29884930366E+02 0.22076507051E+02 0.15547850829E+02
 0.13004195555E+02 0.15547850829E+02 0.22076507051E+02 0.29884930366E+02 0.35999542948E+02
 0.38359161076E+02 0.35999542948E+02 0.29884930366E+02 0.22076507051E+02 0.15547850829E+02
 0.13004195555E+02 0.15547850829E+02 0.22076507051E+02 0.29884930366E+02 0.35999542948E+02
 0.70214712081E+02 0.62811571538E+02 0.48023238180E+02 0.36046336719E+02 0.25345887553E+02
 0.15547850829E+02 0.10738050526E+02 0.11739731549E+02 0.15954094685E+02 0.19924076542E+02
 0.21460429921E+02 0.19924076542E+02 0.15954094685E+02 0.11739731549E+02 0.10738050526E+02
 0.15547850829E+02 0.25345887553E+02 0.36046336719E+02 0.48023238180E+02 0.62811571538E+02
 0.17748875664E+03 0.15277901699E+03 0.10029011690E+03 0.57197846656E+02 0.36046336719E+02
 0.22076507051E+02 0.11739731549E+02 0.76614635206E+01 0.75609002863E+01 0.82595721642E+01
 0.85107946764E+01 0.82595721642E+01 0.75609002863E+01 0.76614635206E+01 0.11739731549E+02
 0.22076507051E+02 0.36046336719E+02 0.57197846656E+02 0.10029011690E+03 0.15277901699E+03
 0.37120792674E+03 0.31932960519E+03 0.20392860038E+03 0.10029011690E+03 0.48023238180E+02
 0.29884930366E+02 0.15954094685E+02 0.75609002863E+01 0.54247575646E+01 0.64391099810E+01
 0.72227022398E+01 0.64391099810E+01 0.54247575646E+01 0.75609002863E+01 0.15954094685E+02
 0.29884930366E+02 0.48023238180E+02 0.10029011690E+03 0.20392860038E+03 0.31932960519E+03
 0.57297150899E+03 0.49565678932E+03 0.31932960519E+03 0.15277901699E+03 0.62811571538E+02
 0.35999542948E+02 0.19924076542E+02 0.82595721642E+01 0.64391099810E+01 0.11027322890E+02
 0.13937818846E+02 0.11027322890E+02 0.64391099810E+01 0.82595721642E+01 0.19924076542E+02
 0.35999542948E+02 0.62811571538E+02 0.15277901699E+03 0.31932960519E+03 0.49565678932E+03
 0.57297150899E+03 0.49565678932E+03 0.31932960519E+03 0.15277901699E+03 0.62811571538E+02
 0.35999542948E+02 0.19924076542E+02 0.82595721642E+01 0.64391099810E+01 0.11027322890E+02
 0.13937818846E+02 0.11027322890E+02 0.64391099810E+01 0.82595721642E+01 0.19924076542E+02
 0.35999542948E+02 0.62811571538E+02 0.15277901699E+03 0.31932960519E+03 0.49565678932E+03
 0.49565678932E+03 0.42786900672E+03 0.27446188531E+03 0.13181983497E+03 0.56570507530E+02
 0.33686078450E+02 0.18556327116E+02 0.82406915709E+01 0.61630505078E+01 0.90866407751E+01
 0.11027322890E+02 0.90866407751E+01 0.61630505078E+01 0.82406915709E+01 0.18556327116E+02
 0.33686078450E+02 0.56570507530E+02 0.13181983497E+03 0.27446188531E+03 0.42786900672E+03
 0.31932960519E+03 0.27446188531E+03 0.17533988412E+03 0.87587776261E+02 0.44091905035E+02
 0.27717659430E+02 0.15048781767E+02 0.79571171408E+01 0.59592079130E+01 0.61630505078E+01
 0.64391099810E+01 0.61630505078E+01 0.59592079130E+01 0.79571171408E+01 0.15048781767E+02
 0.27717659430E+02 0.44091905035E+02 0.87587776261E+02 0.17533988412E+03 0.27446188531E+03
 0.15277901699E+03 0.13181983497E+03 0.87587776261E+02 0.51683314335E+02 0.33604232894E+02
 0.20469916155E+02 0.11357508699E+02 0.80555121872E+01 0.79571171408E+01 0.82406915709E+01
 0.82595721642E+01 0.82406915709E+01 0.79571171408E+01 0.80555121872E+01 0.11357508699E+02
 0.20469916155E+02 0.33604232894E+02 0.51683314335E+02 0.87587776261E+02 0.13181983497E+03
 0.62811571538E+02 0.56570507530E+02 0.44091905035E+02 0.33604232894E+02 0.23532072769E+02
 0.14711240220E+02 0.10482224956E+02 0.11357508699E+02 0.15048781767E+02 0.18556327116E+02
 0.19924076542E+02 0.18556327116E+02 0.15048781767E+02 0.11357508699E+02 0.10482224956E+02
 0.14711240220E+02 0.23532072769E+02 0.33604232894E+02 0.44091905035E+02 0.56570507530E+02
 0.35999542948E+02 0.33686078450E+02 0.27717659430E+02 0.20469916155E+02 0.14711240220E+02
 0.12536378581E+02 0.14711240220E+02 0.20469916155E+02 0.27717659430E+02 0.33686078450E+02
 0.35999542948E+02 0.33686078450E+02 0.27717659430E+02 0.20469916155E+02 0.14711240220E+02
 0.12536378581E+02 0.14711240220E+02 0.20469916155E+02 0.27717659430E+02 0.33686078450E+02
 0.19924076542E+02 0.18556327116E+02 0.15048781767E+02 0.11357508699E+02 0.10482224956E+02
 0.14711240220E+02 0.23532072769E+02 0.33604232894E+02 0.44091905035E+02 0.56570507530E+02
 0.62811571538E+02 0.56570507530E+02 0.44091905035E+02 0.33604232894E+02 0.23532072769E+02
 0.14711240220E+02 0.10482224956E+02 0.11357508699E+02 0.15048781767E+02 0.18556327116E+02
 0.82595721642E+01 0.82406915709E+01 0.79571171408E+01 0.80555121872E+01 0.11357508699E+02
 0.20469916155E+02 0.33604232894E+02 0.51683314335E+02 0.87587776261E+02 0.13181983497E+03
 0.15277901699E+03 0.13181983497E+03 0.87587776261E+02 0.51683314335E+02 0.33604232894E+02
 0.20469916155E+02 0.11357508699E+02 0.80555121872E+01 0.79571171408E+01 0.82406915709E+01
 0.64391099810E+01 0.61630505078E+01 0.59592079130E+01 0.79571171408E+01 0.15048781767E+02
 0.27717659430E+02 0.44091905035E+02 0.87587776261E+02 0.17533988412E+03 0.27446188531E+03
 0.31932960519E+03 0.27446188531E+03 0.17533988412E+03 0.87587776261E+02 0.44091905035E+02
 0.27717659430E+02 0.15048781767E+02 0.79571171408E+01 0.59592079130E+01 0.61630505078E+01
 0.11027322890E+02 0.90866407751E+01 0.61630505078E+01 0.82406915709E+01 0.18556327116E+02
 0.33686078450E+02 0.56570507530E+02 0.13181983497E+03 0.27446188531E+03 0.42786900672E+03
 0.49565678932E+03 0.42786900672E+03 0.27446188531E+03 0.13181983497E+03 0.56570507530E+02
 0.33686078450E+02 0.18556327116E+02 0.82406915709E+01 0.61630505078E+01 0.90866407751E+01
 0.13937818846E+02 0.11027322890E+02 0.64391099810E+01 0.82595721642E+01 0.19924076542E+02
 0.35999542948E+02 0.62811571538E+02 0.15277901699E+03 0.31932960519E+03 0.49565678932E+03
 0.57297150899E+03 0.49565678932E+03 0.31932960519E+03 0.15277901699E+03 0.62811571538E+02
 0.35999542948E+02 0.19924076542E+02 0.82595721642E+01 0.64391099810E+01 0.11027322890E+02
 0.11027322890E+02 0.90866407751E+01 0.61630505078E+01 0.82406915709E+01 0.18556327116E+02
 0.33686078450E+02 0.56570507530E+02 0.13181983497E+03 0.27446188531E+03 0.42786900672E+03
 0.49565678932E+03 0.42786900672E+03 0.27446188531E+03 0.13181983497E+03 0.56570507530E+02
 0.33686078450E+02 0.18556327116E+02 0.82406915709E+01 0.61630505078E+01 0.90866407751E+01
 0.64391099810E+01 0.61630505078E+01 0.59592079130E+01 0.79571171408E+01 0.15048781767E+02
 0.27717659430E+02 0.44091905035E+02 0.87587776261E+02 0.17533988412E+03 0.27446188531E+03
 0.31932960519E+03 0.27446188531E+03 0.17533988412E+03 0.87587776261E+02 0.44091905035E+02
 0.27717659430E+02 0.15048781767E+02 0.79571171408E+01 0.59592079130E+01 0.61630505078E+01
 0.82595721642E+01 0.82406915709E+01 0.79571171408E+01 0.80555121872E+01 0.11357508699E+02
 0.20469916155E+02 0.33604232894E+02 0.51683314335E+02 0.87587776261E+02 0.13181983497E+03
 0.15277901699E+03 0.13181983497E+03 0.87587776261E+02 0.51683314335E+02 0.33604232894E+02
 0.20469916155E+02 0.11357508699E+02 0.80555121872E+01 0.79571171408E+01 0.82406915709E+01
 0.19924076542E+02 0.18556327116E+02 0.15048781767E+02 0.11357508699E+02 0.10482224956E+02
 0.14711240220E+02 0.23532072769E+02 0.33604232894E+02 0.44091905035E+02 0.56570507530E+02
 0.62811571538E+02 0.56570507530E+02 0.44091905035E+02 0.33604232894E+02 0.23532072769E+02
 0.14711240220E+02 0.10482224956E+02 0.11357508699E+02 0.15048781767E+02 0.18556327116E+02
 0.35999542948E+02 0.33686078450E+02 0.27717659430E+02 0.20469916155E+02 0.14711240220E+02
 0.12536378581E+02 0.14711240220E+02 0.20469916155E+02 0.27717659430E+02 0.33686078450E+02
 0.35999542948E+02 0.33686078450E+02 0.27717659430E+02 0.20469916155E+02 0.14711240220E+02
 0.12536378581E+02 0.14711240220E+02 0.20469916155E+02 0.27717659430E+02 0.33686078450E+02
 0.62811571538E+02 0.56570507530E+02 0.44091905035E+02 0.33604232894E+02 0.23532072769E+02
 0.14711240220E+02 0.10482224956E+02 0.11357508699E+02 0.15048781767E+02 0.18556327116E+02
 0.19924076542E+02 0.18556327116E+02 0.15048781767E+02 0.11357508699E+02 0.10482224956E+02
 0.14711240220E+02 0.23532072769E+02 0.33604232894E+02 0.44091905035E+02 0.56570507530E+02
 0.15277901699E+03 0.13181983497E+03 0.87587776261E+02 0.51683314335E+02 0.33604232894E+02
 0.20469916155E+02 0.11357508699E+02 0.80555121872E+01 0.79571171408E+01 0.82406915709E+01
 0.82595721642E+01 0.82406915709E+01 0.79571171408E+01 0.80555121872E+01 0.11357508699E+02
 0.20469916155E+02 0.33604232894E+02 0.51683314335E+02 0.87587776261E+02 0.13181983497E+03
 0.31932960519E+03 0.27446188531E+03 0.17533988412E+03 0.87587776261E+02 0.44091905035E+02
 0.27717659430E+02 0.15048781767E+02 0.79571171408E+01 0.59592079130E+01 0.61630505078E+01
 0.64391099810E+01 0.61630505078E+01 0.59592079130E+01 0.79571171408E+01 0.15048781767E+02
 0.27717659430E+02 0.44091905035E+02 0.87587776261E+02 0.17533988412E+03 0.27446188531E+03
 0.49565678932E+03 0.42786900672E+03 0.27446188531E+03 0.13181983497E+03 0.56570507530E+02
 0.33686078450E+02 0.18556327116E+02 0.82406915709E+01 0.61630505078E+01 0.90866407751E+01
 0.11027322890E+02 0.90866407751E+01 0.61630505078E+01 0.82406915709E+01 0.18556327116E+02
 0.33686078450E+02 0.56570507530E+02 0.13181983497E+03 0.27446188531E+03 0.42786900672E+03
 0.37120792674E+03 0.31932960519E+03 0.20392860038E+03 0.10029011690E+03 0.48023238180E+02
 0.29884930366E+02 0.15954094685E+02 0.75609002863E+01 0.54247575646E+01 0.64391099810E+01
 0.72227022398E+01 0.64391099810E+01 0.54247575646E+01 0.75609002863E+01 0.15954094685E+02
 0.29884930366E+02 0.48023238180E+02 0.10029011690E+03 0.20392860038E+03 0.31932960519E+03
 0.31932960519E+03 0.27446188531E+03 0.17533988412E+03 0.87587776261E+02 0.44091905035E+02
 0.27717659430E+02 0.15048781767E+02 0.79571171408E+01 0.59592079130E+01 0.61630505078E+01
 0.64391099810E+01 0.61630505078E+01 0.59592079130E+01 0.79571171408E+01 0.15048781767E+02
 0.27717659430E+02 0.44091905035E+02 0.87587776261E+02 0.17533988412E+03 0.27446188531E+03
 0.20392860038E+03 0.17533988412E+03 0.11357268484E+03 0.61283197190E+02 0.35941223960E+02
 0.22454581714E+02 0.12781914736E+02 0.84730050416E+01 0.69904727048E+01 0.59592079130E+01
 0.54247575646E+01 0.59592079130E+01 0.69904727048E+01 0.84730050416E+01 0.12781914736E+02
 0.22454581714E+02 0.35941223960E+02 0.61283197190E+02 0.11357268484E+03 0.17533988412E+03
 0.10029011690E+03 0.87587776261E+02 0.61283197190E+02 0.40334266404E+02 0.27601063899E+02
 0.16770882410E+02 0.10472309534E+02 0.86750253052E+01 0.84730050416E+01 0.79571171408E+01
 0.75609002863E+01 0.79571171408E+01 0.84730050416E+01 0.86750253052E+01 0.10472309534E+02
 0.16770882410E+02 0.27601063899E+02 0.40334266404E+02 0.61283197190E+02 0.87587776261E+02
 0.48023238180E+02 0.44091905035E+02 0.35941223960E+02 0.27601063899E+02 0.19205704953E+02
 0.12837541504E+02 0.99822985065E+01 0.10472309534E+02 0.12781914736E+02 0.15048781767E+02
 0.15954094685E+02 0.15048781767E+02 0.12781914736E+02 0.10472309534E+02 0.99822985065E+01
 0.12837541504E+02 0.19205704953E+02 0.27601063899E+02 0.35941223960E+02 0.44091905035E+02
 0.29884930366E+02 0.27717659430E+02 0.22454581714E+02 0.16770882410E+02 0.12837541504E+02
 0.11492093121E+02 0.12837541504E+02 0.16770882410E+02 0.22454581714E+02 0.27717659430E+02
 0.29884930366E+02 0.27717659430E+02 0.22454581714E+02 0.16770882410E+02 0.12837541504E+02
 0.11492093121E+02 0.12837541504E+02 0.16770882410E+02 0.22454581714E+02 0.27717659430E+02
 0.15954094685E+02 0.15048781767E+02 0.12781914736E+02 0.10472309534E+02 0.99822985065E+01
 0.12837541504E+02 0.19205704953E+02 0.27601063899E+02 0.35941223960E+02 0.44091905035E+02
 0.48023238180E+02 0.44091905035E+02 0.35941223960E+02 0.27601063899E+02 0.19205704953E+02
 0.12837541504E+02 0.99822985065E+01 0.10472309534E+02 0.12781914736E+02 0.15048781767E+02
 0.75609002863E+01 0.79571171408E+01 0.84730050416E+01 0.86750253052E+01 0.10472309534E+02
 0.16770882410E+02 0.27601063899E+02 0.40334266404E+02 0.61283197190E+02 0.87587776261E+02
 0.10029011690E+03 0.87587776261E+02 0.61283197190E+02 0.40334266404E+02 0.27601063899E+02
 0.16770882410E+02 0.10472309534E+02 0.86750253052E+01 0.84730050416E+01 0.79571171408E+01
 0.54247575646E+01 0.59592079130E+01 0.69904727048E+01 0.84730050416E+01 0.12781914736E+02
 0.22454581714E+02 0.35941223960E+02 0.61283197190E+02 0.11357268484E+03 0.17533988412E+03
 0.20392860038E+03 0.17533988412E+03 0.11357268484E+03 0.61283197190E+02 0.35941223960E+02
 0.22454581714E+02 0.12781914736E+02 0.84730050416E+01 0.69904727048E+01 0.59592079130E+01
 0.64391099810E+01 0.61630505078E+01 0.59592079130E+01 0.79571171408E+01 0.15048781767E+02
 0.27717659430E+02 0.44091905035E+02 0.87587776261E+02 0.17533988412E+03 0.27446188531E+03
 0.31932960519E+03 0.27446188531E+03 0.17533988412E+03 0.87587776261E+02 0.44091905035E+02
 0.27717659430E+02 0.15048781767E+02 0.79571171408E+01 0.59592079130E+01 0.61630505078E+01
 0.72227022398E+01 0.64391099810E+01 0.54247575646E+01 0.75609002863E+01 0.15954094685E+02
 0.29884930366E+02 0.48023238180E+02 0.10029011690E+03 0.20392860038E+03 0.31932960519E+03
 0.37120792674E+03 0.31932960519E+03 0.20392860038E+03 0.10029011690E+03 0.48023238180E+02
 0.29884930366E+02 0.15954094685E+02 0.75609002863E+01 0.54247575646E+01 0.64391099810E+01
 0.64391099810E+01 0.61630505078E+01 0.59592079130E+01 0.79571171408E+01 0.15048781767E+02
 0.27717659430E+02 0.44091905035E+02 0.87587776261E+02 0.17533988412E+03 0.27446188531E+03
 0.31932960519E+03 0.27446188531E+03 0.17533988412E+03 0.87587776261E+02 0.44091905035E+02
 0.27717659430E+02 0.15048781767E+02 0.79571171408E+01 0.59592079130E+01 0.61630505078E+01
 0.54247575646E+01 0.59592079130E+01 0.69904727048E+01 0.84730050416E+01 0.12781914736E+02
 0.22454581714E+02 0.35941223960E+02 0.61283197190E+02 0.11357268484E+03 0.17533988412E+03
 0.20392860038E+03 0.17533988412E+03 0.11357268484E+03 0.61283197190E+02 0.35941223960E+02
 0.22454581714E+02 0.12781914736E+02 0.84730050416E+01 0.69904727048E+01 0.59592079130E+01
 0.75609002863E+01 0.79571171408E+01 0.84730050416E+01 0.86750253052E+01 0.10472309534E+02
 0.16770882410E+02 0.27601063899E+02 0.40334266404E+02 0.61283197190E+02 0.87587776261E+02
 0.10029011690E+03 0.87587776261E+02 0.61283197190E+02 0.40334266404E+02 0.27601063899E+02
 0.16770882410E+02 0.10472309534E+02 0.86750253052E+01 0.84730050416E+01 0.79571171408E+01
 0.15954094685E+02 0.15048781767E+02 0.12781914736E+02 0.10472309534E+02 0.99822985065E+01
 0.12837541504E+02 0.19205704953E+02 0.27601063899E+02 0.35941223960E+02 0.44091905035E+02
 0.48023238180E+02 0.44091905035E+02 0.35941223960E+02 0.27601063899E+02 0.19205704953E+02
 0.12837541504E+02 0.99822985065E+01 0.10472309534E+02 0.12781914736E+02 0.15048781767E+02
 0.29884930366E+02 0.27717659430E+02 0.22454581714E+02 0.16770882410E+02 0.12837541504E+02
 0.11492093121E+02 0.12837541504E+02 0.16770882410E+02 0.22454581714E+02 0.27717659430E+02
 0.29884930366E+02 0.27717659430E+02 0.22454581714E+02 0.16770882410E+02 0.12837541504E+02
 0.11492093121E+02 0.12837541504E+02 0.16770882410E+02 0.22454581714E+02 0.27717659430E+02
 0.48023238180E+02 0.44091905035E+02 0.35941223960E+02 0.27601063899E+02 0.19205704953E+02
 0.12837541504E+02 0.99822985065E+01 0.10472309534E+02 0.12781914736E+02 0.15048781767E+02
 0.15954094685E+02 0.15048781767E+02 0.12781914736E+02 0.10472309534E+02 0.99822985065E+01
 0.12837541504E+02 0.19205704953E+02 0.27601063899E+02 0.35941223960E+02 0.44091905035E+02
 0.10029011690E+03 0.87587776261E+02 0.61283197190E+02 0.40334266404E+02 0.27601063899E+02
 0.16770882410E+02 0.10472309534E+02 0.86750253052E+01 0.84730050416E+01 0.79571171408E+01
 0.75609002863E+01 0.79571171408E+01 0.84730050416E+01 0.86750253052E+01 0.10472309534E+02
 0.16770882410E+02 0.27601063899E+02 0.40334266404E+02 0.61283197190E+02 0.87587776261E+02
 0.20392860038E+03 0.17533988412E+03 0.11357268484E+03 0.61283197190E+02 0.35941223960E+02
 0.22454581714E+02 0.12781914736E+02 0.84730050416E+01 0.69904727048E+01 0.59592079130E+01
 0.54247575646E+01 0.59592079130E+01 0.69904727048E+01 0.84730050416E+01 0.12781914736E+02
 0.22454581714E+02 0.35941223960E+02 0.61283197190E+02 0.11357268484E+03 0.17533988412E+03
 0.31932960519E+03 0.27446188531E+03 0.17533988412E+03 0.87587776261E+02 0.44091905035E+02
 0.27717659430E+02 0.15048781767E+02 0.79571171408E+01 0.59592079130E+01 0.61630505078E+01
 0.64391099810E+01 0.61630505078E+01 0.59592079130E+01 0.79571171408E+01 0.15048781767E+02
 0.27717659430E+02 0.44091905035E+02 0.87587776261E+02 0.17533988412E+03 0.27446188531E+03
 0.17748875664E+03 0.15277901699E+03 0.10029011690E+03 0.57197846656E+02 0.36046336719E+02
 0.22076507051E+02 0.11739731549E+02 0.76614635206E+01 0.75609002863E+01 0.82595721642E+01
 0.85107946764E+01 0.82595721642E+01 0.75609002863E+01 0.76614635206E+01 0.11739731549E+02
 0.22076507051E+02 0.36046336719E+02 0.57197846656E+02 0.10029011690E+03 0.15277901699E+03
 0.15277901699E+03 0.13181983497E+03 0.87587776261E+02 0.51683314335E+02 0.33604232894E+02
 0.20469916155E+02 0.11357508699E+02 0.80555121872E+01 0.79571171408E+01 0.82406915709E+01
 0.82595721642E+01 0.82406915709E+01 0.79571171408E+01 0.80555121872E+01 0.11357508699E+02
 0.20469916155E+02 0.33604232894E+02 0.51683314335E+02 0.87587776261E+02 0.13181983497E+03
 0.10029011690E+03 0.87587776261E+02 0.61283197190E+02 0.40334266404E+02 0.27601063899E+02
 0.16770882410E+02 0.10472309534E+02 0.86750253052E+01 0.84730050416E+01 0.79571171408E+01
 0.75609002863E+01 0.79571171408E+01 0.84730050416E+01 0.86750253052E+01 0.10472309534E+02
 0.16770882410E+02 0.27601063899E+02 0.40334266404E+02 0.61283197190E+02 0.87587776261E+02
 0.57197846656E+02 0.51683314335E+02 0.40334266404E+02 0.30103739334E+02 0.20531927818E+02
 0.13212776935E+02 0.96932326482E+01 0.89023075242E+01 0.86750253052E+01 0.80555121872E+01
 0.76614635206E+01 0.80555121872E+01 0.86750253052E+01 0.89023075242E+01 0.96932326482E+01
 0.13212776935E+02 0.20531927818E+02 0.30103739334E+02 0.40334266404E+02 0.51683314335E+02
 0.36046336719E+02 0.33604232894E+02 0.27601063899E+02 0.20531927818E+02 0.14710850122E+02
 0.11154675091E+02 0.96957146496E+01 0.96932326482E+01 0.10472309534E+02 0.11357508699E+02
 0.11739731549E+02 0.11357508699E+02 0.10472309534E+02 0.96932326482E+01 0.96957146496E+01
 0.11154675091E+02 0.14710850122E+02 0.20531927818E+02 0.27601063899E+02 0.33604232894E+02
 0.22076507051E+02 0.20469916155E+02 0.16770882410E+02 0.13212776935E+02 0.11154675091E+02
 0.10562235873E+02 0.11154675091E+02 0.13212776935E+02 0.16770882410E+02 0.20469916155E+02
 0.22076507051E+02 0.20469916155E+02 0.16770882410E+02 0.13212776935E+02 0.11154675091E+02
 0.10562235873E+02 0.11154675091E+02 0.13212776935E+02 0.16770882410E+02 0.20469916155E+02
 0.11739731549E+02 0.11357508699E+02 0.10472309534E+02 0.96932326482E+01 0.96957146496E+01
 0.11154675091E+02 0.14710850122E+02 0.20531927818E+02 0.27601063899E+02 0.33604232894E+02
 0.36046336719E+02 0.33604232894E+02 0.27601063899E+02 0.20531927818E+02 0.14710850122E+02
 0.11154675091E+02 0.96957146496E+01 0.96932326482E+01 0.10472309534E+02 0.11357508699E+02
 0.76614635206E+01 0.80555121872E+01 0.86750253052E+01 0.89023075242E+01 0.96932326482E+01
 0.13212776935E+02 0.20531927818E+02 0.30103739334E+02 0.40334266404E+02 0.51683314335E+02
 0.57197846656E+02 0.51683314335E+02 0.40334266404E+02 0.30103739334E+02 0.20531927818E+02
 0.13212776935E+02 0.96932326482E+01 0.89023075242E+01 0.86750253052E+01 0.80555121872E+01
 0.75609002863E+01 0.79571171408E+01 0.84730050416E+01 0.86750253052E+01 0.10472309534E+02
 0.16770882410E+02 0.27601063899E+02 0.40334266404E+02 0.61283197190E+02 0.87587776261E+02
 0.10029011690E+03 0.87587776261E+02 0.61283197190E+02 0.40334266404E+02 0.27601063899E+02
 0.16770882410E+02 0.10472309534E+02 0.86750253052E+01 0.84730050416E+01 0.79571171408E+01
 0.82595721642E+01 0.82406915709E+01 0.79571171408E+01 0.80555121872E+01 0.11357508699E+02
 0.20469916155E+02 0.33604232894E+02 0.51683314335E+02 0.87587776261E+02 0.13181983497E+03
 0.15277901699E+03 0.13181983497E+03 0.87587776261E+02 0.51683314335E+02 0.33604232894E+02
 0.20469916155E+02 0.11357508699E+02 0.80555121872E+01 0.79571171408E+01 0.82406915709E+01
 0.85107946764E+01 0.82595721642E+01 0.75609002863E+01 0.76614635206E+01 0.11739731549E+02
 0.22076507051E+02 0.36046336719E+02 0.57197846656E+02 0.10029011690E+03 0.15277901699E+03
 0.17748875664E+03 0.15277901699E+03 0.10029011690E+03 0.57197846656E+02 0.36046336719E+02
 0.22076507051E+02 0.11739731549E+02 0.76614635206E+01 0.75609002863E+01 0.82595721642E+01
 0.82595721642E+01 0.82406915709E+01 0.79571171408E+01 0.80555121872E+01 0.11357508699E+02
 0.20469916155E+02 0.33604232894E+02 0.51683314335E+02 0.87587776261E+02 0.13181983497E+03
 0.15277901699E+03 0.13181983497E+03 0.87587776261E+02 0.51683314335E+02 0.33604232894E+02
 0.20469916155E+02 0.11357508699E+02 0.80555121872E+01 0.79571171408E+01 0.82406915709E+01
 0.75609002863E+01 0.79571171408E+01 0.84730050416E+01 0.86750253052E+01 0.10472309534E+02
 0.16770882410E+02 0.27601063899E+02 0.40334266404E+02 0.61283197190E+02 0.87587776261E+02
 0.10029011690E+03 0.87587776261E+02 0.61283197190E+02 0.40334266404E+02 0.27601063899E+02
 0.16770882410E+02 0.10472309534E+02 0.86750253052E+01 0.84730050416E+01 0.79571171408E+01
 0.76614635206E+01 0.80555121872E+01 0.86750253052E+01 0.89023075242E+01 0.96932326482E+01
 0.13212776935E+02 0.20531927818E+02 0.30103739334E+02 0.40334266404E+02 0.51683314335E+02
 0.57197846656E+02 0.51683314335E+02 0.40334266404E+02 0.30103739334E+02 0.20531927818E+02
 0.13212776935E+02 0.96932326482E+01 0.89023075242E+01 0.86750253052E+01 0.80555121872E+01
 0.11739731549E+02 0.11357508699E+02 0.10472309534E+02 0.96932326482E+01 0.96957146496E+01
 0.11154675091E+02 0.14710850122E+02 0.20531927818E+02 0.27601063899E+02 0.33604232894E+02
 0.36046336719E+02 0.33604232894E+02 0.27601063899E+02 0.20531927818E+02 0.14710850122E+02
 0.11154675091E+02 0.96957146496E+01 0.96932326482E+01 0.10472309534E+02 0.11357508699E+02
 0.22076507051E+02 0.20469916155E+02 0.16770882410E+02 0.13212776935E+02 0.11154675091E+02
 0.10562235873E+02 0.11154675091E+02 0.13212776935E+02 0.16770882410E+02 0.20469916155E+02
 0.22076507051E+02 0.20469916155E+02 0.16770882410E+02 0.13212776935E+02 0.11154675091E+02
 0.10562235873E+02 0.11154675091E+02 0.13212776935E+02 0.16770882410E+02 0.20469916155E+02
 0.36046336719E+02 0.33604232894E+02 0.27601063899E+02 0.20531927818E+02 0.14710850122E+02
 0.11154675091E+02 0.96957146496E+01 0.96932326482E+01 0.10472309534E+02 0.11357508699E+02
 0.11739731549E+02 0.11357508699E+02 0.10472309534E+02 0.96932326482E+01 0.96957146496E+01
 0.11154675091E+02 0.14710850122E+02 0.20531927818E+02 0.27601063899E+02 0.33604232894E+02
 0.57197846656E+02 0.51683314335E+02 0.40334266404E+02 0.30103739334E+02 0.20531927818E+02
 0.13212776935E+02 0.96932326482E+01 0.89023075242E+01 0.86750253052E+01 0.80555121872E+01
 0.76614635206E+01 0.80555121872E+01 0.86750253052E+01 0.89023075242E+01 0.96932326482E+01
 0.13212776935E+02 0.20531927818E+02 0.30103739334E+02 0.40334266404E+02 0.51683314335E+02
 0.10029011690E+03 0.87587776261E+02 0.61283197190E+02 0.40334266404E+02 0.27601063899E+02
 0.16770882410E+02 0.10472309534E+02 0.86750253052E+01 0.84730050416E+01 0.79571171408E+01
 0.75609002863E+01 0.79571171408E+01 0.84730050416E+01 0.86750253052E+01 0.10472309534E+02
 0.16770882410E+02 0.27601063899E+02 0.40334266404E+02 0.61283197190E+02 0.87587776261E+02
 0.15277901699E+03 0.13181983497E+03 0.87587776261E+02 0.51683314335E+02 0.33604232894E+02
 0.20469916155E+02 0.11357508699E+02 0.80555121872E+01 0.79571171408E+01 0.82406915709E+01
 0.82595721642E+01 0.82406915709E+01 0.79571171408E+01 0.80555121872E+01 0.11357508699E+02
 0.20469916155E+02 0.33604232894E+02 0.51683314335E+02 0.87587776261E+02 0.13181983497E+03
 0.70214712081E+02 0.62811571538E+02 0.48023238180E+02 0.36046336719E+02 0.25345887553E+02
 0.15547850829E+02 0.10738050526E+02 0.11739731549E+02 0.15954094685E+02 0.19924076542E+02
 0.21460429921E+02 0.19924076542E+02 0.15954094685E+02 0.11739731549E+02 0.10738050526E+02
 0.15547850829E+02 0.25345887553E+02 0.36046336719E+02 0.48023238180E+02 0.62811571538E+02
 0.62811571538E+02 0.56570507530E+02 0.44091905035E+02 0.33604232894E+02 0.23532072769E+02