   4   4   0   0
  0.1200752E+02  0.3635000E-09  0.3635000E-09  0.3635000E-09  0.5000000E-15
  1.000000000000000E-004
  CAR 
 unknown system                          
     26.15922050    -10.98869974  301     10.15804354      1.00000000
    -10.989  0.0000E+00  0.0000E+00
    -10.865  0.0000E+00  0.0000E+00
    -10.741  0.0000E+00  0.0000E+00
    -10.617 -0.9526E-29 -0.1180E-29
    -10.493 -0.1435E-24 -0.1777E-25
    -10.370 -0.9977E-21 -0.1236E-21
    -10.246 -0.3196E-17 -0.3959E-18
    -10.122 -0.4566E-14 -0.5658E-15
     -9.998 -0.3061E-11 -0.3796E-12
     -9.874 -0.9349E-09 -0.1161E-09
     -9.750 -0.1290E-06 -0.1608E-07
     -9.627 -0.7913E-05 -0.9959E-06
     -9.503 -0.2092E-03 -0.2690E-04
     -9.379 -0.2193E-02 -0.2985E-03
     -9.255 -0.6357E-02 -0.1086E-02
     -9.131  0.1798E-01  0.1141E-02
     -9.007  0.9956E-01  0.1347E-01
     -8.884  0.1196E+00  0.2828E-01
     -8.760  0.3895E-01  0.3310E-01
     -8.636 -0.4775E-02  0.3251E-01
     -8.512 -0.3605E-02  0.3206E-01
     -8.388 -0.4735E-03  0.3200E-01
     -8.265 -0.2340E-04  0.3200E-01
     -8.141 -0.5750E-06  0.3200E-01
     -8.017 -0.8552E-05  0.3200E-01
     -7.893 -0.3792E-03  0.3195E-01
     -7.769 -0.7089E-02  0.3107E-01
     -7.645 -0.4886E-01  0.2502E-01
     -7.522 -0.4402E-01  0.1957E-01
     -7.398  0.5414E+00  0.8662E-01
     -7.274  0.1406E+01  0.2607E+00
     -7.150  0.1033E+01  0.3885E+00
     -7.026  0.8492E+00  0.4937E+00
     -6.902  0.2259E+01  0.7734E+00
     -6.779  0.3567E+01  0.1215E+01
     -6.655  0.3546E+01  0.1654E+01
     -6.531  0.2192E+01  0.1926E+01
     -6.407  0.1584E+01  0.2122E+01
     -6.283  0.2579E+01  0.2441E+01
     -6.159  0.3400E+01  0.2862E+01
     -6.036  0.3157E+01  0.3253E+01
     -5.912  0.2592E+01  0.3574E+01
     -5.788  0.2464E+01  0.3879E+01
     -5.664  0.2013E+01  0.4128E+01
     -5.540  0.1932E+01  0.4368E+01
     -5.417  0.3748E+01  0.4832E+01
     -5.293  0.3980E+01  0.5325E+01
     -5.169  0.3093E+01  0.5708E+01
     -5.045  0.3507E+01  0.6142E+01
     -4.921  0.4171E+01  0.6658E+01
     -4.797  0.2850E+01  0.7011E+01
     -4.674  0.2873E+01  0.7367E+01
     -4.550  0.6502E+01  0.8172E+01
     -4.426  0.5683E+01  0.8876E+01
     -4.302  0.1361E+01  0.9044E+01
     -4.178  0.1041E+01  0.9173E+01
     -4.054  0.4530E+01  0.9734E+01
     -3.931  0.7559E+01  0.1067E+02
     -3.807  0.5604E+01  0.1136E+02
     -3.683  0.1736E+01  0.1158E+02
     -3.559  0.1548E+01  0.1177E+02
     -3.435  0.2432E+01  0.1207E+02
     -3.311  0.2697E+01  0.1241E+02
     -3.188  0.3731E+01  0.1287E+02
     -3.064  0.4394E+01  0.1341E+02
     -2.940  0.3474E+01  0.1384E+02
     -2.816  0.1605E+01  0.1404E+02
     -2.692  0.3415E+00  0.1408E+02
     -2.569  0.1064E+01  0.1421E+02
     -2.445  0.2106E+01  0.1448E+02
     -2.321  0.1836E+01  0.1470E+02
     -2.197  0.2024E+01  0.1495E+02
     -2.073  0.3272E+01  0.1536E+02
     -1.949  0.5322E+01  0.1602E+02
     -1.826  0.7852E+01  0.1699E+02
     -1.702  0.7159E+01  0.1788E+02
     -1.578  0.3448E+01  0.1830E+02
     -1.454  0.1144E+01  0.1845E+02
     -1.330  0.1474E+01  0.1863E+02
     -1.206  0.2359E+01  0.1892E+02
     -1.083  0.1667E+01  0.1913E+02
     -0.959  0.4761E+00  0.1918E+02
     -0.835  0.2891E+00  0.1922E+02
     -0.711  0.3835E+00  0.1927E+02
     -0.587  0.1243E+01  0.1942E+02
     -0.463  0.3025E+01  0.1980E+02
     -0.340  0.3748E+01  0.2026E+02
     -0.216  0.4011E+01  0.2076E+02
     -0.092  0.6282E+01  0.2154E+02
      0.032  0.6495E+01  0.2234E+02
      0.156  0.4421E+01  0.2289E+02
      0.280  0.2861E+01  0.2324E+02
      0.403  0.1773E+01  0.2346E+02
      0.527  0.1540E+01  0.2365E+02
      0.651  0.1017E+01  0.2378E+02
      0.775  0.2003E+00  0.2380E+02
      0.899  0.4669E+00  0.2386E+02
      1.022  0.8854E+00  0.2397E+02
      1.146  0.9394E+00  0.2409E+02
      1.270  0.1783E+01  0.2431E+02
      1.394  0.2704E+01  0.2464E+02
      1.518  0.4446E+01  0.2519E+02
      1.642  0.5652E+01  0.2589E+02
      1.765  0.4094E+01  0.2640E+02
      1.889  0.2181E+01  0.2667E+02
      2.013  0.1915E+01  0.2691E+02
      2.137  0.2063E+01  0.2716E+02
      2.261  0.3378E+01  0.2758E+02
      2.385  0.4299E+01  0.2811E+02
      2.508  0.2230E+01  0.2839E+02
      2.632  0.1430E+01  0.2857E+02
      2.756  0.2445E+01  0.2887E+02
      2.880  0.2099E+01  0.2913E+02
      3.004  0.1523E+01  0.2932E+02
      3.128  0.2093E+01  0.2958E+02
      3.251  0.2575E+01  0.2989E+02
      3.375  0.2526E+01  0.3021E+02
      3.499  0.2493E+01  0.3052E+02
      3.623  0.1862E+01  0.3075E+02
      3.747  0.1233E+01  0.3090E+02
      3.870  0.1853E+01  0.3113E+02
      3.994  0.2676E+01  0.3146E+02
      4.118  0.3292E+01  0.3187E+02
      4.242  0.2146E+01  0.3213E+02
      4.366  0.2908E+00  0.3217E+02
      4.490 -0.1562E+00  0.3215E+02
      4.613 -0.4591E-01  0.3214E+02
      4.737 -0.5027E-02  0.3214E+02
      4.861 -0.9534E-02  0.3214E+02
      4.985 -0.3175E-01  0.3214E+02
      5.109 -0.1160E-01  0.3214E+02
      5.233  0.2452E+00  0.3217E+02
      5.356  0.1397E+01  0.3234E+02
      5.480  0.2924E+01  0.3270E+02
      5.604  0.2089E+01  0.3296E+02
      5.728  0.1133E+01  0.3310E+02
      5.852  0.3145E+01  0.3349E+02
      5.976  0.4641E+01  0.3407E+02
      6.099  0.3753E+01  0.3453E+02
      6.223  0.3451E+01  0.3496E+02
      6.347  0.4723E+01  0.3554E+02
      6.471  0.6460E+01  0.3634E+02
      6.595  0.5141E+01  0.3698E+02
      6.718  0.1921E+01  0.3722E+02
      6.842  0.3508E-01  0.3722E+02
      6.966 -0.2201E+00  0.3719E+02
      7.090  0.2109E+01  0.3746E+02
      7.214  0.6528E+01  0.3826E+02
      7.338  0.8378E+01  0.3930E+02
      7.461  0.5478E+01  0.3998E+02
      7.585  0.1436E+01  0.4016E+02
      7.709 -0.1768E+00  0.4014E+02
      7.833 -0.1616E+00  0.4012E+02
      7.957 -0.5275E-01  0.4011E+02
      8.081 -0.8689E-01  0.4010E+02
      8.204  0.1754E+00  0.4012E+02
      8.328  0.1164E+01  0.4026E+02
      8.452  0.1494E+01  0.4045E+02
      8.576  0.1503E+01  0.4063E+02
      8.700  0.3201E+01  0.4103E+02
      8.824  0.3056E+01  0.4141E+02
      8.947  0.1433E+01  0.4159E+02
      9.071  0.2277E+01  0.4187E+02
      9.195  0.2416E+01  0.4217E+02
      9.319  0.1588E+01  0.4236E+02
      9.443  0.3271E+01  0.4277E+02
      9.566  0.3875E+01  0.4325E+02
      9.690  0.1552E+01  0.4344E+02
      9.814 -0.1386E+00  0.4342E+02
      9.938 -0.3592E+00  0.4338E+02
     10.062  0.1293E+01  0.4354E+02
     10.186  0.5110E+01  0.4417E+02
     10.309  0.5513E+01  0.4486E+02
     10.433  0.1724E+01  0.4507E+02
     10.557 -0.2555E-01  0.4507E+02
     10.681  0.2066E+00  0.4509E+02
     10.805  0.1726E+00  0.4511E+02
     10.929  0.1246E+01  0.4527E+02
     11.052  0.4361E+01  0.4581E+02
     11.176  0.6268E+01  0.4658E+02
     11.300  0.5165E+01  0.4722E+02
     11.424  0.3342E+01  0.4764E+02
     11.548  0.4308E+01  0.4817E+02
     11.672  0.5137E+01  0.4881E+02
     11.795  0.2556E+01  0.4912E+02
     11.919  0.6901E+00  0.4921E+02
     12.043  0.1168E+00  0.4922E+02
     12.167  0.2113E-01  0.4923E+02
     12.291  0.1330E+01  0.4939E+02
     12.414  0.2906E+01  0.4975E+02
     12.538  0.2499E+01  0.5006E+02
     12.662  0.1650E+01  0.5026E+02
     12.786  0.1451E+01  0.5044E+02
     12.910  0.1578E+01  0.5064E+02
     13.034  0.1663E+01  0.5084E+02
     13.157  0.1966E+01  0.5109E+02
     13.281  0.2967E+01  0.5146E+02
     13.405  0.2007E+01  0.5170E+02
     13.529  0.1693E+00  0.5172E+02
     13.653  0.6800E+00  0.5181E+02
     13.777  0.3148E+01  0.5220E+02
     13.900  0.4152E+01  0.5271E+02
     14.024  0.2200E+01  0.5299E+02
     14.148  0.7005E+00  0.5307E+02
     14.272  0.5298E+00  0.5314E+02
     14.396  0.4985E+00  0.5320E+02
     14.520  0.1070E+01  0.5333E+02
     14.643  0.1873E+01  0.5356E+02
     14.767  0.1917E+01  0.5380E+02
     14.891  0.1828E+01  0.5403E+02
     15.015  0.3051E+01  0.5441E+02
     15.139  0.2669E+01  0.5474E+02
     15.262  0.1464E+01  0.5492E+02
     15.386  0.2429E+01  0.5522E+02
     15.510  0.2315E+01  0.5550E+02
     15.634  0.5840E+00  0.5558E+02
     15.758  0.2562E+00  0.5561E+02
     15.882  0.1263E+01  0.5576E+02
     16.005  0.1192E+01  0.5591E+02
     16.129  0.4530E+00  0.5597E+02
     16.253  0.1314E+01  0.5613E+02
     16.377  0.2150E+01  0.5640E+02
     16.501  0.9650E+00  0.5652E+02
     16.625  0.1463E+00  0.5654E+02
     16.748  0.1561E+01  0.5673E+02
     16.872  0.2980E+01  0.5710E+02
     16.996  0.2784E+01  0.5744E+02
     17.120  0.3465E+01  0.5787E+02
     17.244  0.3851E+01  0.5835E+02
     17.368  0.1743E+01  0.5856E+02
     17.491  0.1780E-01  0.5857E+02
     17.615 -0.1482E+00  0.5855E+02
     17.739 -0.3139E-01  0.5854E+02
     17.863 -0.2371E-01  0.5854E+02
     17.987 -0.7751E-01  0.5853E+02
     18.111  0.1232E+00  0.5855E+02
     18.234  0.1013E+01  0.5867E+02
     18.358  0.1668E+01  0.5888E+02
     18.482  0.1713E+01  0.5909E+02
     18.606  0.1426E+01  0.5927E+02
     18.730  0.4693E+00  0.5933E+02
     18.853 -0.6442E-01  0.5932E+02
     18.977 -0.4465E-01  0.5931E+02
     19.101  0.9371E-01  0.5932E+02
     19.225  0.1923E+00  0.5935E+02
     19.349  0.1071E+00  0.5936E+02
     19.473  0.4883E-02  0.5936E+02
     19.596 -0.8310E-02  0.5936E+02
     19.720 -0.1721E-02  0.5936E+02
     19.844 -0.1209E-03  0.5936E+02
     19.968 -0.7525E-04  0.5936E+02
     20.092 -0.2026E-02  0.5936E+02
     20.216 -0.2289E-01  0.5936E+02
     20.339 -0.7589E-01  0.5935E+02
     20.463  0.1663E+00  0.5937E+02
     20.587  0.1121E+01  0.5951E+02
     20.711  0.1475E+01  0.5969E+02
     20.835  0.5403E+00  0.5976E+02
     20.959 -0.4570E-01  0.5975E+02
     21.082 -0.4798E-01  0.5974E+02
     21.206 -0.6858E-02  0.5974E+02
     21.330 -0.3625E-03  0.5974E+02
     21.454 -0.8080E-05  0.5974E+02
     21.578 -0.7938E-07  0.5974E+02
     21.701 -0.3506E-09  0.5974E+02
     21.825 -0.7037E-12  0.5974E+02
     21.949 -0.6886E-15  0.5974E+02
     22.073  0.0000E+00  0.5974E+02
     22.197  0.0000E+00  0.5974E+02
     22.321  0.0000E+00  0.5974E+02
     22.444 -0.5927E-31  0.5974E+02
     22.568 -0.1530E-26  0.5974E+02
     22.692 -0.1823E-22  0.5974E+02
     22.816 -0.1002E-18  0.5974E+02
     22.940 -0.2537E-15  0.5974E+02
     23.064 -0.2856E-12  0.5974E+02
     23.187 -0.1509E-09  0.5974E+02
     23.311 -0.3626E-07  0.5974E+02
     23.435 -0.3921E-05  0.5974E+02
     23.559 -0.1872E-03  0.5974E+02
     23.683 -0.3788E-02  0.5974E+02
     23.807 -0.2884E-01  0.5974E+02
     23.930 -0.3820E-01  0.5974E+02
     24.054  0.3116E+00  0.5977E+02
     24.178  0.9566E+00  0.5989E+02
     24.302  0.7965E+00  0.5999E+02
     24.426  0.1439E+00  0.6001E+02
     24.549 -0.5086E-01  0.6000E+02
     24.673 -0.1755E-01  0.6000E+02
     24.797 -0.1673E-02  0.6000E+02
     24.921 -0.6330E-04  0.6000E+02
     25.045 -0.1032E-05  0.6000E+02
     25.169 -0.7479E-08  0.6000E+02
     25.292 -0.2449E-10  0.6000E+02
     25.416 -0.3672E-13  0.6000E+02
     25.540  0.0000E+00  0.6000E+02
     25.664  0.0000E+00  0.6000E+02
     25.788  0.0000E+00  0.6000E+02
     25.912  0.0000E+00  0.6000E+02
     26.035  0.0000E+00  0.6000E+02
     26.159  0.0000E+00  0.6000E+02
