unknown system                          
   1.00000000000000     
     2.236800    0.000000    0.000000
    -1.118400    1.937126    0.000000
     0.000000    0.000000    4.054080
   Fe
     2
Direct
  0.000000  0.000000  0.000000
  0.333333  0.666667  0.500000
 
   20   20   36
  147.47      140.32      120.96      94.581      67.127      43.324      25.845      15.332      10.647      9.3598    
  9.0723      9.3599      10.647      15.332      25.845      43.324      67.127      94.581      120.96      140.32    
  140.32      140.32      127.10      104.37      77.769      52.615      32.538      19.141      12.132      9.6576    
  9.0649      9.0648      9.6575      12.132      19.140      32.537      52.614      77.770      104.37      127.10    
  120.97      127.08      120.96      104.37      81.678      58.000      37.496      22.585      13.827      10.094    
  9.0700      8.7909      9.0698      10.094      13.827      22.585      37.494      57.999      81.680      104.37    
  94.579      104.31      104.31      94.581      77.769      58.000      39.327      24.632      15.182      10.582    
  9.0835      8.5789      8.5788      9.0834      10.582      15.183      24.632      39.325      57.998      77.766    
  67.122      77.687      81.567      77.692      67.127      52.615      37.496      24.632      15.699      10.908    
  9.1095      8.4446      8.2055      8.4445      9.1095      10.909      15.701      24.634      37.496      52.611    
  43.323      52.544      57.877      57.878      52.547      43.324      32.538      22.585      15.182      10.908    
  9.1249      8.3825      7.9832      7.9832      8.3822      9.1242      10.908      15.184      22.589      32.541    
  25.849      32.506      37.416      39.224      37.414      32.502      25.845      19.141      13.827      10.582    
  9.1095      8.3825      7.9108      7.7496      7.9110      8.3819      9.1077      10.580      13.827      19.143    
  15.332      19.143      22.570      24.597      24.595      22.566      19.140      15.332      12.132      10.094    
  9.0835      8.4446      7.9832      7.7496      7.7500      7.9839      8.4445      9.0816      10.091      12.130    
  10.643      12.151      13.858      15.214      15.729      15.213      13.858      12.153      10.647      9.6576    
  9.0700      8.5789      8.2055      7.9832      7.9110      7.9839      8.2072      8.5807      9.0700      9.6548    
  9.3598      9.6833      10.144      10.651      10.988      10.989      10.653      10.148      9.6860      9.3598    
  9.0648      8.7909      8.5788      8.4445      8.3822      8.3819      8.4445      8.5807      8.7943      9.0675    
  9.0762      9.0972      9.1293      9.1680      9.2137      9.2372      9.2155      9.1699      9.1291      9.0945    
  9.0723      9.0648      9.0698      9.0834      9.1095      9.1242      9.1077      9.0816      9.0700      9.0675    
  9.3598      9.0972      8.8552      8.6730      8.5638      8.5170      8.5173      8.5638      8.6711      8.8518    
  9.0946      9.3599      9.6575      10.094      10.582      10.909      10.908      10.580      10.091      9.6548    
  10.643      9.6833      9.1293      8.6730      8.3315      8.1325      8.0687      8.1318      8.3299      8.6712    
  9.1293      9.6861      10.647      12.132      13.827      15.183      15.701      15.184      13.827      12.130    
  15.332      12.151      10.144      9.1680      8.5638      8.1325      7.9163      7.9159      8.1318      8.5638    
  9.1698      10.147      12.153      15.332      19.140      22.585      24.632      24.634      22.589      19.143    
  25.849      19.143      13.858      10.651      9.2137      8.5170      8.0687      7.9159      8.0685      8.5176    
  9.2155      10.653      13.858      19.140      25.845      32.537      37.494      39.325      37.496      32.541    
  43.323      32.506      22.570      15.214      10.988      9.2372      8.5173      8.1318      8.1318      8.5176    
  9.2380      10.988      15.212      22.566      32.503      43.324      52.614      57.999      57.998      52.611    
  67.122      52.544      37.416      24.597      15.729      10.989      9.2155      8.5637      8.3299      8.5638    
  9.2155      10.988      15.728      24.595      37.416      52.547      67.127      77.770      81.680      77.766    
  94.579      77.687      57.877      39.224      24.595      15.213      10.653      9.1699      8.6711      8.6712    
  9.1698      10.653      15.212      24.595      39.225      57.880      77.690      94.581      104.37      104.37    
  120.97      104.31      81.567      57.878      37.414      22.566      13.858      10.148      9.1291      8.8518    
  9.1293      10.147      13.858      22.566      37.416      57.880      81.565      104.31      120.96      127.10    
  140.32      127.08      104.31      77.692      52.547      32.502      19.140      12.153      9.6860      9.0945    
  9.0946      9.6861      12.153      19.140      32.503      52.547      77.690      104.31      127.07      140.32    
  140.19      133.40      115.00      89.905      63.779      41.151      24.600      14.728      10.396      9.2129    
  8.9293      9.2129      10.396      14.728      24.600      41.151      63.779      89.905      115.00      133.40    
  133.41      133.40      120.83      99.214      73.897      49.967      30.915      18.279      11.748      9.4825    
  8.9157      8.9156      9.4824      11.748      18.279      30.914      49.966      73.899      99.219      120.84    
  115.01      120.82      115.00      99.214      77.615      55.081      35.603      21.507      13.306      9.8677    
  8.9174      8.6440      8.9173      9.8677      13.306      21.506      35.601      55.080      77.617      99.219    
  89.903      99.170      99.171      89.905      73.897      55.081      37.335      23.429      14.558      10.303    
  8.9285      8.4362      8.4361      8.9285      10.303      14.559      23.429      37.334      55.078      73.895    
  63.774      73.836      77.531      73.840      63.779      49.967      35.603      23.429      15.038      10.596    
  8.9483      8.3058      8.0739      8.3057      8.9483      10.597      15.040      23.430      35.603      49.964    
  41.150      49.920      54.996      54.997      49.922      41.151      30.915      21.507      14.558      10.596    
  8.9603      8.2459      7.8595      7.8595      8.2456      8.9596      10.596      14.560      21.510      30.917    
  24.603      30.906      35.565      37.282      35.563      30.903      24.600      18.279      13.306      10.303    
  8.9483      8.2459      7.7899      7.6347      7.7901      8.2453      8.9465      10.301      13.306      18.282    
  14.728      18.303      21.532      23.446      23.444      21.528      18.300      14.728      11.748      9.8677    
  8.9285      8.3058      7.8595      7.6347      7.6351      7.8602      8.3057      8.9268      9.8646      11.745    
  10.392      11.785      13.373      14.640      15.122      14.639      13.373      11.788      10.396      9.4825    
  8.9174      8.4362      8.0739      7.8595      7.7901      7.8602      8.0754      8.4379      8.9174      9.4799    
  9.2128      9.5245      9.9496      10.416      10.726      10.727      10.418      9.9528      9.5270      9.2129    
  8.9157      8.6440      8.4361      8.3057      8.2456      8.2453      8.3057      8.4379      8.6472      8.9182    
  8.9331      8.9631      9.0056      9.0528      9.0991      9.1216      9.1008      9.0545      9.0054      8.9604    
  8.9293      8.9156      8.9173      8.9285      8.9483      8.9596      8.9465      8.9268      8.9174      8.9182    
  9.2128      8.9631      8.7360      8.5677      8.4687      8.4272      8.4275      8.4687      8.5659      8.7328    
  8.9605      9.2129      9.4824      9.8677      10.303      10.597      10.596      10.301      9.8646      9.4799    
  10.392      9.5245      9.0056      8.5677      8.2424      8.0539      7.9936      8.0532      8.2409      8.5660    
  9.0056      9.5271      10.396      11.748      13.306      14.559      15.040      14.560      13.306      11.745    
  14.728      11.785      9.9497      9.0528      8.4687      8.0539      7.8467      7.8463      8.0532      8.4688    
  9.0545      9.9527      11.788      14.728      18.279      21.506      23.429      23.430      21.510      18.282    
  24.603      18.303      13.373      10.416      9.0991      8.4272      7.9936      7.8463      7.9935      8.4278    
  9.1008      10.417      13.373      18.300      24.600      30.914      35.601      37.334      35.603      30.917    
  41.150      30.906      21.532      14.640      10.726      9.1216      8.4275      8.0532      8.0532      8.4278    
  9.1223      10.727      14.638      21.528      30.904      41.151      49.966      55.080      55.078      49.964    
  63.774      49.920      35.565      23.446      15.122      10.727      9.1008      8.4687      8.2409      8.4688    
  9.1008      10.727      15.121      23.444      35.565      49.923      63.779      73.899      77.617      73.895    
  89.903      73.836      54.996      37.282      23.444      14.639      10.418      9.0545      8.5659      8.5660    
  9.0545      10.417      14.638      23.444      37.284      54.998      73.838      89.905      99.219      99.219    
  115.01      99.170      77.531      54.997      35.563      21.528      13.373      9.9528      9.0054      8.7328    
  9.0056      9.9526      13.373      21.528      35.565      54.998      77.529      99.166      115.00      120.84    
  133.41      120.82      99.171      73.840      49.922      30.903      18.300      11.788      9.5270      8.9604    
  8.9605      9.5271      11.788      18.300      30.904      49.923      73.838      99.166      120.81      133.40    
  120.52      114.68      98.852      77.223      54.706      35.293      21.281      13.149      9.7468      8.8090    
  8.5393      8.8091      9.7468      13.149      21.281      35.293      54.706      77.223      98.852      114.68    
  114.69      114.68      103.87      85.235      63.398      42.807      26.561      16.005      10.754      9.0187    
  8.5069      8.5068      9.0186      10.754      16.005      26.561      42.806      63.400      85.239      103.87    
  98.855      103.86      98.852      85.235      66.594      47.178      30.509      18.640      11.948      9.2793    
  8.4970      8.2411      8.4969      9.2794      11.948      18.640      30.508      47.177      66.596      85.239    
  77.222      85.225      85.225      77.223      63.398      47.178      31.973      20.223      12.926      9.5793    
  8.5018      8.0437      8.0436      8.5017      9.5796      12.927      20.223      31.972      47.175      63.396    
  54.701      63.391      66.585      63.395      54.706      42.807      30.509      20.223      13.304      9.7868    
  8.5109      7.9224      7.7112      7.9223      8.5109      9.7872      13.305      20.224      30.509      42.804    
  35.293      42.825      47.198      47.200      42.827      35.293      26.561      18.640      12.926      9.7868    
  8.5162      7.8674      7.5178      7.5178      7.8672      8.5156      9.7867      12.927      18.643      26.563    
  21.284      26.617      30.589      32.058      30.588      26.615      21.281      16.005      11.948      9.5793    
  8.5109      7.8674      7.4556      7.3171      7.4558      7.8670      8.5095      9.5779      11.948      16.007    
  13.149      16.088      18.778      20.386      20.384      18.775      16.085      13.149      10.754      9.2793    
  8.5018      7.9224      7.5178      7.3171      7.3174      7.5184      7.9223      8.5003      9.2768      10.751    
  9.7435      10.843      12.116      13.144      13.539      13.144      12.116      10.845      9.7468      9.0187    
  8.4970      8.0437      7.7112      7.5178      7.4558      7.5184      7.7124      8.0450      8.4970      9.0164    
  8.8090      9.1071      9.4514      9.8173      10.061      10.062      9.8190      9.4539      9.1092      8.8090    
  8.5069      8.2411      8.0436      7.9223      7.8673      7.8670      7.9223      8.0450      8.2438      8.5091    
  8.5424      8.5975      8.6683      8.7411      8.7973      8.8201      8.7987      8.7425      8.6682      8.5953    
  8.5392      8.5068      8.4969      8.5017      8.5109      8.5156      8.5095      8.5003      8.4970      8.5091    
  8.8090      8.5975      8.4137      8.2848      8.2146      8.1879      8.1881      8.2146      8.2833      8.4110    
  8.5954      8.8091      9.0186      9.2794      9.5796      9.7872      9.7867      9.5779      9.2768      9.0164    
  9.7435      9.1071      8.6684      8.2848      8.0062      7.8478      7.7978      7.8473      8.0050      8.2834    
  8.6684      9.1093      9.7468      10.754      11.948      12.927      13.305      12.927      11.948      10.751    
  13.149      10.843      9.4514      8.7411      8.2146      7.8478      7.6668      7.6665      7.8473      8.2147    
  8.7425      9.4539      10.845      13.149      16.005      18.640      20.223      20.224      18.643      16.007    
  21.284      16.088      12.116      9.8173      8.7973      8.1879      7.7978      7.6665      7.7977      8.1883    
  8.7987      9.8187      12.116      16.085      21.281      26.561      30.508      31.972      30.509      26.563    
  35.293      26.617      18.778      13.144      10.061      8.8201      8.1881      7.8473      7.8473      8.1883    
  8.8206      10.061      13.143      18.776      26.616      35.293      42.806      47.177      47.175      42.804    
  54.701      42.825      30.589      20.386      13.539      10.062      8.7987      8.2146      8.0050      8.2147    
  8.7987      10.061      13.538      20.384      30.589      42.827      54.706      63.400      66.596      63.396    
  77.222      63.391      47.198      32.058      20.384      13.144      9.8190      8.7425      8.2833      8.2834    
  8.7425      9.8187      13.143      20.384      32.059      47.200      63.393      77.223      85.239      85.239    
  98.855      85.225      66.585      47.200      30.588      18.775      12.116      9.4540      8.6682      8.4110    
  8.6683      9.4539      12.116      18.776      30.589      47.200      66.583      85.221      98.852      103.87    
  114.69      103.86      85.225      63.395      42.827      26.615      16.085      10.845      9.1092      8.5953    
  8.5954      9.1093      10.845      16.085      26.616      42.827      63.393      85.221      103.86      114.68    
  93.763      89.210      76.841      59.932      42.385      27.440      16.949      11.173      8.9449      8.2415    
  7.9983      8.2415      8.9450      11.173      16.949      27.440      42.385      59.932      76.841      89.210    
  89.212      89.210      80.752      66.171      49.107      33.142      20.799      13.098      9.5302      8.3944    
  7.9370      7.9369      8.3943      9.5302      13.098      20.798      33.141      49.108      66.174      80.756    
  76.843      80.767      76.841      66.171      51.583      36.480      23.720      14.928      10.257      8.5324    
  7.9050      7.6794      7.9048      8.5324      10.257      14.928      23.719      36.479      51.584      66.174    
  59.931      66.209      66.209      59.932      49.107      36.480      24.810      16.045      10.875      8.6783    
  7.8946      7.4933      7.4932      7.8945      8.6785      10.875      16.045      24.809      36.478      49.105    
  42.382      49.176      51.678      49.178      42.385      33.142      23.720      16.045      11.117      8.7826    
  7.8946      7.3808      7.2014      7.3807      7.8946      8.7829      11.118      16.046      23.720      33.140    
  27.440      33.250      36.648      36.648      33.252      27.440      20.799      14.928      10.875      8.7826    
  7.8958      7.3301      7.0350      7.0351      7.3300      7.8954      8.7825      10.876      14.930      20.800    
  16.951      20.945      23.962      25.085      23.961      20.943      16.949      13.098      10.257      8.6783    
  7.8946      7.3301      6.9821      6.8671      6.9823      7.3298      7.8936      8.6773      10.257      13.100    
  11.173      13.262      15.222      16.408      16.407      15.220      13.260      11.173      9.5302      8.5324    
  7.8946      7.3808      7.0350      6.8671      6.8673      7.0354      7.3807      7.8935      8.5305      9.5286    
  8.9425      9.6922      10.566      11.285      11.563      11.284      10.566      9.6939      8.9449      8.3944    
  7.9050      7.4933      7.2014      7.0351      6.9823      7.0354      7.2021      7.4943      7.9050      8.3927    
  8.2414      8.5496      8.8334      9.0946      9.2629      9.2632      9.0958      8.8353      8.5511      8.2415    
  7.9370      7.6794      7.4932      7.3807      7.3300      7.3298      7.3807      7.4943      7.6814      7.9385    
  8.0006      8.0905      8.1978      8.3028      8.3806      8.4098      8.3816      8.3038      8.1977      8.0889    
  7.9983      7.9369      7.9048      7.8945      7.8946      7.8954      7.8936      7.8935      7.9050      7.9385    
  8.2414      8.0905      7.9703      7.8973      7.8670      7.8605      7.8607      7.8671      7.8963      7.9684    
  8.0890      8.2415      8.3943      8.5324      8.6785      8.7829      8.7825      8.6773      8.5305      8.3927    
  8.9425      8.5496      8.1978      7.8973      7.6878      7.5730      7.5377      7.5727      7.6870      7.8964    
  8.1978      8.5512      8.9450      9.5302      10.257      10.875      11.118      10.876      10.257      9.5286    
  11.173      9.6922      8.8334      8.3028      7.8670      7.5730      7.4308      7.4306      7.5726      7.8671    
  8.3038      8.8352      9.6938      11.173      13.098      14.928      16.045      16.046      14.930      13.100    
  16.951      13.262      10.566      9.0946      8.3806      7.8605      7.5377      7.4306      7.5375      7.8607    
  8.3816      9.0956      10.566      13.260      16.949      20.798      23.719      24.809      23.720      20.800    
  27.440      20.945      15.222      11.285      9.2629      8.4098      7.8607      7.5727      7.5726      7.8607    
  8.4102      9.2630      11.284      15.220      20.943      27.440      33.141      36.479      36.478      33.140    
  42.382      33.250      23.962      16.408      11.563      9.2632      8.3816      7.8671      7.6870      7.8671    
  8.3816      9.2630      11.562      16.407      23.962      33.252      42.385      49.108      51.584      49.105    
  59.931      49.176      36.648      25.085      16.407      11.284      9.0958      8.3038      7.8963      7.8964    
  8.3038      9.0956      11.284      16.407      25.086      36.649      49.177      59.932      66.174      66.174    
  76.843      66.209      51.678      36.648      23.961      15.220      10.566      8.8353      8.1977      7.9684    
  8.1978      8.8352      10.566      15.220      23.962      36.649      51.677      66.206      76.841      80.756    
  89.212      80.767      66.209      49.178      33.252      20.943      13.260      9.6939      8.5511      8.0889    
  8.0890      8.5512      9.6938      13.260      20.943      33.252      49.177      66.206      80.763      89.210    
  65.979      62.749      53.981      42.038      29.786      19.620      12.838      9.4196      8.1901      7.6215    
  7.4178      7.6215      8.1902      9.4196      12.838      19.620      29.786      42.038      53.981      62.749    
  62.750      62.749      56.741      46.406      34.405      23.389      15.198      10.437      8.4485      7.7095    
  7.3228      7.3227      7.7094      8.4486      10.437      15.198      23.389      34.405      46.408      56.743    
  53.982      56.773      53.981      46.406      36.115      25.624      17.038      11.457      8.7620      7.7838    
  7.2600      7.0753      7.2598      7.7837      8.7622      11.457      17.037      25.624      36.116      46.408    
  42.038      46.492      46.492      42.038      34.405      25.624      17.732      12.097      9.0427      7.8334    
  7.2243      6.8974      6.8973      7.2242      7.8334      9.0429      12.097      17.731      25.623      34.404    
  29.784      34.549      36.315      34.551      29.786      23.389      17.038      12.097      9.1565      7.8619    
  7.2074      6.7886      6.6470      6.7887      7.2074      7.8620      9.1569      12.098      17.038      23.388    
  19.620      23.588      25.938      25.938      23.589      19.620      15.198      11.457      9.0427      7.8619    
  7.2027      6.7388      6.5064      6.5065      6.7389      7.2025      7.8619      9.0434      11.458      15.199    
  12.840      15.433      17.440      18.195      17.439      15.432      12.838      10.437      8.7620      7.8334    
  7.2074      6.7388      6.4618      6.3721      6.4620      6.7387      7.2069      7.8328      8.7622      10.438    
  9.4195      10.682      11.905      12.660      12.659      11.904      10.681      9.4196      8.4485      7.7838    
  7.2243      6.7886      6.5064      6.3721      6.3722      6.5065      6.7886      7.2236      7.7826      8.4475    
  8.1885      8.6850      9.2143      9.6463      9.8143      9.6459      9.2143      8.6861      8.1901      7.7095    
  7.2600      6.8974      6.6470      6.5065      6.4620      6.5065      6.6474      6.8979      7.2600      7.7084    
  7.6215      7.9348      8.2196      8.4354      8.5562      8.5564      8.4360      8.2207      7.9357      7.6215    
  7.3228      7.0753      6.8973      6.7887      6.7389      6.7387      6.7885      6.8979      7.0766      7.3238    
  7.4192      7.5432      7.6822      7.8130      7.9075      7.9423      7.9081      7.8135      7.6820      7.5421    
  7.4178      7.3227      7.2598      7.2242      7.2074      7.2025      7.2069      7.2236      7.2600      7.3238    
  7.6215      7.5432      7.4931      7.4777      7.4867      7.4994      7.4996      7.4868      7.4771      7.4918    
  7.5422      7.6215      7.7094      7.7837      7.8334      7.8620      7.8619      7.8328      7.7826      7.7084    
  8.1885      7.9348      7.6822      7.4777      7.3438      7.2753      7.2554      7.2752      7.3434      7.4772    
  7.6822      7.9358      8.1902      8.4486      8.7622      9.0429      9.1569      9.0434      8.7622      8.4475    
  9.4195      8.6850      8.2196      7.8130      7.4867      7.2753      7.1761      7.1760      7.2751      7.4867    
  7.8136      8.2207      8.6860      9.4196      10.437      11.457      12.097      12.098      11.458      10.438    
  12.840      10.682      9.2143      8.4354      7.9075      7.4994      7.2554      7.1760      7.2552      7.4995    
  7.9081      8.4359      9.2141      10.681      12.838      15.198      17.037      17.731      17.038      15.199    
  19.620      15.433      11.905      9.6463      8.5562      7.9423      7.4996      7.2752      7.2751      7.4995    
  7.9425      8.5563      9.6457      11.904      15.432      19.620      23.389      25.624      25.623      23.388    
  29.784      23.588      17.440      12.660      9.8143      8.5564      7.9081      7.4868      7.3434      7.4867    
  7.9081      8.5563      9.8139      12.660      17.440      23.589      29.786      34.405      36.116      34.404    
  42.038      34.549      25.938      18.195      12.659      9.6459      8.4360      7.8135      7.4771      7.4772    
  7.8136      8.4359      9.6457      12.660      18.196      25.939      34.550      42.038      46.408      46.408    
  53.982      46.492      36.315      25.938      17.439      11.904      9.2143      8.2207      7.6820      7.4918    
  7.6822      8.2207      9.2141      11.904      17.440      25.939      36.314      46.490      53.981      56.743    
  62.750      56.773      46.492      34.551      23.589      15.432      10.681      8.6861      7.9357      7.5421    
  7.5422      7.9358      8.6860      10.681      15.432      23.589      34.550      46.490      56.771      62.749    
  41.927      39.870      34.312      26.837      19.365      13.465      9.8508      8.2241      7.5038      7.0462    
  6.8893      7.0462      7.5038      8.2241      9.8508      13.465      19.365      26.837      34.312      39.870    
  39.870      39.870      36.044      29.522      22.094      15.530      10.972      8.5942      7.6324      7.0625    
  6.7621      6.7621      7.0625      7.6325      8.5944      10.972      15.530      22.094      29.522      36.045    
  34.313      36.090      34.312      29.522      23.115      16.784      11.887      8.9899      7.7209      7.0772    
  6.6651      6.5256      6.6650      7.0772      7.7211      8.9899      11.887      16.784      23.115      29.522    
  26.837      29.642      29.642      26.837      22.094      16.784      12.241      9.2512      7.7874      7.0845    
  6.5983      6.3515      6.3515      6.5982      7.0845      7.7874      9.2511      12.240      16.784      22.093    
  19.364      22.293      23.389      22.293      19.365      15.530      11.887      9.2512      7.8147      7.0862    
  6.5595      6.2410      6.1366      6.2410      6.5595      7.0862      7.8148      9.2514      11.887      15.530    
  13.464      15.793      17.202      17.203      15.794      13.465      10.972      8.9899      7.7874      7.0862    
  6.5468      6.1883      6.0154      6.0155      6.1884      6.5468      7.0861      7.7877      8.9906      10.972    
  9.8516      11.271      12.406      12.840      12.406      11.270      9.8508      8.5942      7.7209      7.0845    
  6.5595      6.1883      5.9767      5.9093      5.9768      6.1883      6.5593      7.0843      7.7211      8.5948    
  8.2240      8.9010      9.5540      9.9628      9.9625      9.5534      8.9006      8.2241      7.6324      7.0772    
  6.5983      6.2410      6.0153      5.9093      5.9094      6.0154      6.2409      6.5980      7.0767      7.6319    
  7.5029      7.9295      8.2872      8.5433      8.6391      8.5431      8.2872      7.9300      7.5038      7.0625    
  6.6651      6.3515      6.1366      6.0155      5.9768      6.0154      6.1367      6.3518      6.6651      7.0620    
  7.0461      7.3477      7.6273      7.8426      7.9595      7.9596      7.8428      7.6277      7.3482      7.0462    
  6.7621      6.5256      6.3515      6.2410      6.1884      6.1883      6.2409      6.3518      6.5263      6.7626    
  6.8900      7.0409      7.2005      7.3452      7.4474      7.4845      7.4476      7.3454      7.2004      7.0404    
  6.8893      6.7621      6.6650      6.5982      6.5595      6.5468      6.5593      6.5980      6.6651      6.7626    
  7.0461      7.0409      7.0558      7.0900      7.1305      7.1579      7.1580      7.1306      7.0897      7.0552    
  7.0405      7.0462      7.0625      7.0772      7.0845      7.0862      7.0861      7.0843      7.0767      7.0620    
  7.5029      7.3477      7.2005      7.0900      7.0256      6.9981      6.9916      6.9982      7.0256      7.0898    
  7.2005      7.3483      7.5038      7.6325      7.7211      7.7874      7.8148      7.7877      7.7211      7.6319    
  8.2240      7.9295      7.6273      7.3452      7.1305      6.9981      6.9386      6.9386      6.9981      7.1305    
  7.3455      7.6278      7.9299      8.2241      8.5944      8.9899      9.2511      9.2514      8.9906      8.5948    
  9.8516      8.9010      8.2872      7.8426      7.4474      7.1579      6.9916      6.9386      6.9914      7.1579    
  7.4476      7.8428      8.2870      8.9004      9.8508      10.972      11.887      12.240      11.887      10.972    
  13.464      11.271      9.5540      8.5433      7.9595      7.4845      7.1580      6.9982      6.9981      7.1579    
  7.4845      7.9596      8.5430      9.5534      11.270      13.465      15.530      16.784      16.784      15.530    
  19.364      15.793      12.406      9.9628      8.6391      7.9596      7.4476      7.1306      7.0256      7.1305    
  7.4476      7.9596      8.6390      9.9626      12.406      15.794      19.365      22.094      23.115      22.093    
  26.837      22.293      17.202      12.840      9.9625      8.5431      7.8428      7.3454      7.0897      7.0898    
  7.3455      7.8428      8.5430      9.9626      12.840      17.203      22.293      26.837      29.522      29.522    
  34.313      29.642      23.389      17.203      12.406      9.5534      8.2872      7.6277      7.2004      7.0552    
  7.2005      7.6278      8.2870      9.5534      12.406      17.203      23.389      29.641      34.312      36.045    
  39.870      36.090      29.642      22.293      15.794      11.270      8.9006      7.9300      7.3482      7.0404    
  7.0405      7.3483      7.9299      8.9004      11.270      15.794      22.293      29.641      36.089      39.870    
  24.304      23.174      20.155      16.202      12.441      9.7080      8.2098      7.4626      6.9189      6.5839    
  6.4731      6.5839      6.9189      7.4626      8.2098      9.7080      12.441      16.202      20.155      23.174    
  23.174      23.174      21.077      17.569      13.724      10.544      8.5512      7.5743      6.9611      6.5304    
  6.3160      6.3159      6.5304      6.9611      7.5745      8.5513      10.544      13.724      17.569      21.077    
  20.156      21.128      20.155      17.569      14.214      11.075      8.8505      7.6520      6.9838      6.4853    