unknown system                          
   1.00000000000000     
     2.236800    0.000000    0.000000
    -1.118400    1.937126    0.000000
     0.000000    0.000000    4.054080
   Fe
     2
Direct
  0.000000  0.000000  0.000000
  0.333333  0.666667  0.500000
 
   20   20   36
 0.14746783728E+03 0.14032084459E+03 0.12096269454E+03 0.94580893984E+02 0.67127305741E+02
 0.43323583055E+02 0.25844862241E+02 0.15331773263E+02 0.10647422765E+02 0.93598438250E+01
 0.90722663892E+01 0.93598685279E+01 0.10647445937E+02 0.15331777063E+02 0.25844859447E+02
 0.43323597206E+02 0.67127337149E+02 0.94580918309E+02 0.12096269520E+03 0.14032083386E+03
 0.14032351380E+03 0.14032084342E+03 0.12709804509E+03 0.10436944805E+03 0.77768577821E+02
 0.52614859884E+02 0.32538459442E+02 0.19140797945E+02 0.12132228736E+02 0.96575659569E+01
 0.90648500036E+01 0.90647590480E+01 0.96574795311E+01 0.12132224267E+02 0.19140366278E+02
 0.32537299180E+02 0.52614128196E+02 0.77770434555E+02 0.10437460497E+03 0.12710402156E+03
 0.12096664605E+03 0.12707729816E+03 0.12096269522E+03 0.10436944949E+03 0.81678326764E+02
 0.58000440614E+02 0.37496283134E+02 0.22585440683E+02 0.13827117972E+02 0.10093887829E+02
 0.90699577985E+01 0.87909170586E+01 0.90697819941E+01 0.10093976043E+02 0.13827270456E+02
 0.22584687935E+02 0.37494456520E+02 0.57999312320E+02 0.81680122690E+02 0.10437396365E+03
 0.94579060358E+02 0.10431294467E+03 0.10431357079E+03 0.94580896794E+02 0.77768576822E+02
 0.58000439078E+02 0.39326523021E+02 0.24632065990E+02 0.15181811983E+02 0.10581680713E+02
 0.90834510624E+01 0.85789481465E+01 0.85788409869E+01 0.90834399269E+01 0.10582190056E+02
 0.15182557338E+02 0.24632074781E+02 0.39325079547E+02 0.57997849010E+02 0.77765896662E+02
 0.67121557757E+02 0.77687271300E+02 0.81566972879E+02 0.77691776073E+02 0.67127305530E+02
 0.52614856871E+02 0.37496284587E+02 0.24632067495E+02 0.15699211362E+02 0.10908321002E+02
 0.91095422554E+01 0.84446390320E+01 0.82055431418E+01 0.84445297238E+01 0.91095453448E+01
 0.10908980776E+02 0.15700885009E+02 0.24633932731E+02 0.37496285063E+02 0.52611448253E+02
 0.43322850919E+02 0.52543940417E+02 0.57877028795E+02 0.57878488063E+02 0.52546609393E+02
 0.43323581569E+02 0.32538460156E+02 0.22585443594E+02 0.15181809880E+02 0.10908319515E+02
 0.91249108045E+01 0.83825170840E+01 0.79832009255E+01 0.79831951066E+01 0.83822001799E+01
 0.91241812644E+01 0.10908234490E+02 0.15183669002E+02 0.22588755481E+02 0.32540725409E+02
 0.25848810297E+02 0.32505629965E+02 0.37415787700E+02 0.39223970882E+02 0.37413989691E+02
 0.32502230827E+02 0.25844860963E+02 0.19140799252E+02 0.13827116428E+02 0.10581677820E+02
 0.91095448417E+01 0.83825184562E+01 0.79108340447E+01 0.77495829553E+01 0.79110032990E+01
 0.83818770717E+01 0.91077168017E+01 0.10579908928E+02 0.13827270456E+02 0.19143469398E+02
 0.15331782047E+02 0.19143028574E+02 0.22569707440E+02 0.24596743862E+02 0.24594908688E+02
 0.22565682019E+02 0.19139944339E+02 0.15331771804E+02 0.12132229571E+02 0.10093886470E+02
 0.90834531793E+01 0.84446416955E+01 0.79831980329E+01 0.77495818518E+01 0.77500011500E+01
 0.79839463763E+01 0.84445347073E+01 0.90815769934E+01 0.10090649800E+02 0.12129549308E+02
 0.10643322600E+02 0.12150826775E+02 0.13857708021E+02 0.15213759908E+02 0.15729361591E+02
 0.15212655408E+02 0.13857707543E+02 0.12153485322E+02 0.10647424659E+02 0.96575672674E+01
 0.90699571646E+01 0.85789494079E+01 0.82055407205E+01 0.79831930494E+01 0.79110065324E+01
 0.79839472118E+01 0.82071991972E+01 0.85806989370E+01 0.90699544818E+01 0.96547995883E+01
 0.93597607855E+01 0.96832852446E+01 0.10144199746E+02 0.10651152776E+02 0.10988112329E+02
 0.10988842764E+02 0.10653402460E+02 0.10147505082E+02 0.96859554624E+01 0.93598462008E+01
 0.90648477948E+01 0.87909159486E+01 0.85788416656E+01 0.84445289697E+01 0.83822030205E+01
 0.83818785401E+01 0.84445312896E+01 0.85806983542E+01 0.87943460607E+01 0.90675467331E+01
 0.90762172387E+01 0.90972092628E+01 0.91292679311E+01 0.91680220206E+01 0.92136754717E+01
 0.92372397236E+01 0.92154723986E+01 0.91698665471E+01 0.91291173220E+01 0.90944548005E+01
 0.90722654493E+01 0.90647571086E+01 0.90697846769E+01 0.90834411066E+01 0.91095448417E+01
 0.91241815744E+01 0.91077137123E+01 0.90815760562E+01 0.90699577985E+01 0.90675470026E+01
 0.93597576492E+01 0.90972092641E+01 0.88551787870E+01 0.86729563890E+01 0.85637608194E+01
 0.85169959627E+01 0.85173121753E+01 0.85637506178E+01 0.86711198502E+01 0.88517971172E+01
 0.90945580324E+01 0.93598677673E+01 0.96574810916E+01 0.10093977629E+02 0.10582187174E+02
 0.10908979625E+02 0.10908234826E+02 0.10579908939E+02 0.10090652745E+02 0.96547998383E+01
 0.10643319875E+02 0.96832855921E+01 0.91292707930E+01 0.86729562234E+01 0.83315228228E+01
 0.81325078779E+01 0.80686903607E+01 0.81317696280E+01 0.83298777877E+01 0.86712060260E+01
 0.91292693630E+01 0.96860632047E+01 0.10647445105E+02 0.12132224587E+02 0.13827268469E+02
 0.15182556166E+02 0.15700887864E+02 0.15183669933E+02 0.13827270013E+02 0.12129548793E+02
 0.15331782586E+02 0.12150827745E+02 0.10144202167E+02 0.91680213241E+01 0.85637584437E+01
 0.81325081751E+01 0.79162722682E+01 0.79158680824E+01 0.81317789510E+01 0.85638461166E+01
 0.91698401680E+01 0.10147388017E+02 0.12153494645E+02 0.15331776144E+02 0.19140366751E+02
 0.22584687985E+02 0.24632076818E+02 0.24633933263E+02 0.22588752620E+02 0.19143468565E+02
 0.25848813090E+02 0.19143029376E+02 0.13857707422E+02 0.10651151578E+02 0.92136736331E+01
 0.85169969488E+01 0.80686922226E+01 0.79158677358E+01 0.80685383197E+01 0.85176398549E+01
 0.92154723986E+01 0.10652880862E+02 0.13857535055E+02 0.19140363178E+02 0.25844860963E+02
 0.32537300014E+02 0.37494456043E+02 0.39325078926E+02 0.37496283134E+02 0.32540725530E+02
 0.43322852735E+02 0.32505629387E+02 0.22569704893E+02 0.15213759192E+02 0.10988113134E+02
 0.92372411401E+01 0.85173134135E+01 0.81317685321E+01 0.81317775578E+01 0.85176401070E+01
 0.92379870998E+01 0.10988220186E+02 0.15211925088E+02 0.22566417323E+02 0.32503384325E+02
 0.43323597535E+02 0.52614126551E+02 0.57999311448E+02 0.57997849674E+02 0.52611449621E+02
 0.67121557113E+02 0.52543938569E+02 0.37415786218E+02 0.24596744745E+02 0.15729363788E+02
 0.10988843454E+02 0.92154714108E+01 0.85637491207E+01 0.83298770861E+01 0.85638469952E+01
 0.92154732494E+01 0.10988220071E+02 0.15727736301E+02 0.24594903705E+02 0.37415787468E+02
 0.52547355679E+02 0.67127336295E+02 0.77770434772E+02 0.81680124542E+02 0.77765897878E+02
 0.94579058747E+02 0.77687269996E+02 0.57877029529E+02 0.39223972927E+02 0.24594909508E+02
 0.15212654275E+02 0.10653400671E+02 0.91698658842E+01 0.86711209863E+01 0.86712073277E+01
 0.91698402015E+01 0.10652880271E+02 0.15211924671E+02 0.24594903641E+02 0.39225382941E+02
 0.57879577014E+02 0.77689940835E+02 0.94580919507E+02 0.10437460599E+03 0.10437396323E+03
 0.12096664539E+03 0.10431294547E+03 0.81566974177E+02 0.57878489173E+02 0.37413988440E+02
 0.22565679692E+02 0.13857707422E+02 0.10147506371E+02 0.91291187521E+01 0.88517977302E+01
 0.91292679311E+01 0.10147386885E+02 0.13857535533E+02 0.22566417542E+02 0.37415787700E+02
 0.57879577390E+02 0.81565144336E+02 0.10430841796E+03 0.12096269522E+03 0.12710401992E+03
 0.14032351405E+03 0.12707730034E+03 0.10431357089E+03 0.77691774696E+02 0.52546608031E+02
 0.32502229605E+02 0.19139946059E+02 0.12153487885E+02 0.96859550547E+01 0.90944536258E+01
 0.90945568565E+01 0.96860624495E+01 0.12153496238E+02 0.19140364095E+02 0.32503383681E+02
 0.52547356165E+02 0.77689940763E+02 0.10430841726E+03 0.12707130744E+03 0.14032083294E+03
 0.14019373747E+03 0.13340360687E+03 0.11500223625E+03 0.89905070010E+02 0.63779081034E+02
 0.41151091806E+02 0.24599764544E+02 0.14727531853E+02 0.10395545595E+02 0.92128957644E+01
 0.89293276315E+01 0.92129204526E+01 0.10395569166E+02 0.14727536353E+02 0.24599761761E+02
 0.41151104513E+02 0.63779110179E+02 0.89905092820E+02 0.11500223691E+03 0.13340359678E+03
 0.13340612711E+03 0.13340360571E+03 0.12083407693E+03 0.99214350077E+02 0.73897262877E+02
 0.49966884733E+02 0.30915088459E+02 0.18279326586E+02 0.11747878328E+02 0.94824917266E+01
 0.89156792720E+01 0.89155884679E+01 0.94824055281E+01 0.11747886787E+02 0.18278949559E+02
 0.30914022683E+02 0.49966205252E+02 0.73899010141E+02 0.99219210217E+02 0.12083971662E+03
 0.11500596844E+03 0.12081784966E+03 0.11500223693E+03 0.99214351513E+02 0.77615156086E+02
 0.55080919277E+02 0.35602948170E+02 0.21506524257E+02 0.13306002533E+02 0.98676682054E+01
 0.89174420183E+01 0.86439659549E+01 0.89172616776E+01 0.98677432917E+01 0.13306159171E+02
 0.21505837393E+02 0.35601236694E+02 0.55079848246E+02 0.77616839136E+02 0.99218608093E+02
 0.89903344339E+02 0.99169983548E+02 0.99170571492E+02 0.89905072817E+02 0.73897261878E+02
 0.55080917742E+02 0.37335127916E+02 0.23428619123E+02 0.14558476060E+02 0.10302521615E+02
 0.89285282549E+01 0.84362265580E+01 0.84361196314E+01 0.89285042839E+01 0.10302988333E+02
 0.14559167759E+02 0.23428615683E+02 0.37333753085E+02 0.55078464278E+02 0.73894731335E+02
 0.63773665247E+02 0.73835539053E+02 0.77530671561E+02 0.73839786891E+02 0.63779080821E+02
 0.49966881722E+02 0.35602949622E+02 0.23428620628E+02 0.15038074833E+02 0.10595989550E+02
 0.89482530329E+01 0.83058022879E+01 0.80738664372E+01 0.83057061226E+01 0.89482561084E+01
 0.10596595878E+02 0.15039629186E+02 0.23430364164E+02 0.35602950097E+02 0.49963674927E+02
 0.41150411882E+02 0.49919614169E+02 0.54995741249E+02 0.54997121327E+02 0.49922134167E+02
 0.41151090320E+02 0.30915089174E+02 0.21506527170E+02 0.14558473964E+02 0.10595988066E+02
 0.89602709622E+01 0.82458552495E+01 0.78594601291E+01 0.78594672259E+01 0.82455805060E+01
 0.89595949784E+01 0.10595903247E+02 0.14560223608E+02 0.21509662474E+02 0.30917245639E+02
 0.24603493290E+02 0.30905879520E+02 0.35565036416E+02 0.37282434145E+02 0.35563351278E+02
 0.30902681553E+02 0.24599763270E+02 0.18279327899E+02 0.13306000997E+02 0.10302518727E+02
 0.89482556129E+01 0.82458566167E+01 0.77898960436E+01 0.76346769416E+01 0.77900698417E+01
 0.82452686496E+01 0.89465427046E+01 0.10300859077E+02 0.13306159171E+02 0.18281860659E+02
 0.14727528418E+02 0.18302816184E+02 0.21531531394E+02 0.23445859017E+02 0.23444131800E+02
 0.21527745322E+02 0.18299921747E+02 0.14727530403E+02 0.11747879169E+02 0.98676668510E+01
 0.89285303640E+01 0.83058049392E+01 0.78594572342E+01 0.76346758385E+01 0.76350656515E+01
 0.78601519221E+01 0.83056981875E+01 0.89267637378E+01 0.98646187777E+01 0.11745348527E+02
 0.10391660606E+02 0.11784992472E+02 0.13372715810E+02 0.14639559824E+02 0.15122217308E+02
 0.14638511080E+02 0.13372715337E+02 0.11787514278E+02 0.10395547493E+02 0.94824930387E+01
 0.89174413794E+01 0.84362278062E+01 0.80738640092E+01 0.78594651693E+01 0.77900730752E+01
 0.78601527604E+01 0.80754028094E+01 0.84378681125E+01 0.89174387092E+01 0.94798752033E+01
 0.92128129446E+01 0.95244997156E+01 0.99496497455E+01 0.10415878184E+02 0.10726469174E+02
 0.10727147407E+02 0.10417979091E+02 0.99527557125E+01 0.95270209626E+01 0.92128981400E+01
 0.89156770619E+01 0.86439648359E+01 0.84361202983E+01 0.83057053663E+01 0.82455833497E+01
 0.82452701262E+01 0.83056947800E+01 0.84378675312E+01 0.86472059120E+01 0.89182263007E+01
 0.89330591600E+01 0.89630516087E+01 0.90055590731E+01 0.90528114828E+01 0.90990735233E+01
 0.91216435950E+01 0.91007575790E+01 0.90545358280E+01 0.90054043165E+01 0.89604463393E+01
 0.89293266920E+01 0.89155865240E+01 0.89172643478E+01 0.89285054589E+01 0.89482556129E+01
 0.89595953010E+01 0.89465396291E+01 0.89267628037E+01 0.89174420183E+01 0.89182265669E+01
 0.92128098078E+01 0.89630516095E+01 0.87359749016E+01 0.85676662853E+01 0.84687184992E+01
 0.84272257848E+01 0.84275306179E+01 0.84687205278E+01 0.85659377064E+01 0.87327805991E+01
 0.89605492660E+01 0.92129196913E+01 0.94824070821E+01 0.98677448726E+01 0.10302985459E+02
 0.10596594740E+02 0.10595903594E+02 0.10300859090E+02 0.98646217129E+01 0.94798754450E+01
 0.10391657877E+02 0.95245000611E+01 0.90055619332E+01 0.85676661212E+01 0.82424051915E+01
 0.80538823469E+01 0.79936400419E+01 0.80532085266E+01 0.82408771786E+01 0.85660236630E+01
 0.90055605068E+01 0.95271284705E+01 0.10395568335E+02 0.11747887104E+02 0.13306157187E+02
 0.14559166595E+02 0.15039632047E+02 0.14560224542E+02 0.13306158723E+02 0.11745348003E+02
 0.14727528947E+02 0.11784993438E+02 0.99496521660E+01 0.90528107908E+01 0.84687161283E+01
 0.80538826441E+01 0.78466920242E+01 0.78463164325E+01 0.80532056211E+01 0.84688035789E+01
 0.90545217635E+01 0.99526511101E+01 0.11787511373E+02 0.14727535433E+02 0.18278950029E+02
 0.21505837445E+02 0.23428617722E+02 0.23430364698E+02 0.21509659612E+02 0.18281859816E+02
 0.24603496072E+02 0.18302816983E+02 0.13372715216E+02 0.10415876992E+02 0.90990716902E+01
 0.84272267709E+01 0.79936419021E+01 0.78463160870E+01 0.79934838516E+01 0.84278176929E+01
 0.91007575790E+01 0.10417498552E+02 0.13372538305E+02 0.18300286843E+02 0.24599763270E+02
 0.30914023511E+02 0.35601236218E+02 0.37333752467E+02 0.35602948170E+02 0.30917245753E+02
 0.41150413690E+02 0.30905878940E+02 0.21531528853E+02 0.14639559115E+02 0.10726469982E+02
 0.91216450116E+01 0.84275318555E+01 0.80532074333E+01 0.80532042306E+01 0.84278179444E+01
 0.91223386814E+01 0.10726576799E+02 0.14637832964E+02 0.21528415504E+02 0.30903740444E+02
 0.41151104835E+02 0.49966203606E+02 0.55079847378E+02 0.55078464944E+02 0.49963676292E+02
 0.63773664603E+02 0.49919612321E+02 0.35565034936E+02 0.23445859904E+02 0.15122219508E+02
 0.10727148099E+02 0.91007565930E+01 0.84687190338E+01 0.82408764789E+01 0.84688044559E+01
 0.91007584262E+01 0.10726576682E+02 0.15120709437E+02 0.23444139735E+02 0.35565036181E+02
 0.49922826798E+02 0.63779109322E+02 0.73899010359E+02 0.77616840989E+02 0.73894732552E+02
 0.89903342730E+02 0.73835537748E+02 0.54995741982E+02 0.37282436191E+02 0.23444132624E+02
 0.14638509951E+02 0.10417977304E+02 0.90545351654E+01 0.85659388411E+01 0.85660249618E+01
 0.90545217929E+01 0.10417497956E+02 0.14637832544E+02 0.23444139672E+02 0.37283780650E+02
 0.54998155976E+02 0.73838059611E+02 0.89905094018E+02 0.99219211242E+02 0.99218607682E+02
 0.11500596778E+03 0.99169984345E+02 0.77530672856E+02 0.54997122438E+02 0.35563350033E+02
 0.21527743001E+02 0.13372715216E+02 0.99527569963E+01 0.90054057430E+01 0.87327812091E+01
 0.90055590731E+01 0.99526499734E+01 0.13372538779E+02 0.21528415723E+02 0.35565036416E+02
 0.54998156354E+02 0.77528958157E+02 0.99165715275E+02 0.11500223693E+03 0.12083971499E+03
 0.13340612736E+03 0.12081785183E+03 0.99170571591E+02 0.73839785517E+02 0.49922132811E+02
 0.30902680335E+02 0.18299923462E+02 0.11787516833E+02 0.95270205502E+01 0.89604451637E+01
 0.89605480896E+01 0.95271277127E+01 0.11787512961E+02 0.18300287759E+02 0.30903739806E+02
 0.49922827290E+02 0.73838059542E+02 0.99165714578E+02 0.12081219672E+03 0.13340359587E+03
 0.12051857460E+03 0.11468414531E+03 0.98852118013E+02 0.77222986273E+02 0.54705786283E+02
 0.35293151928E+02 0.21281134485E+02 0.13148852091E+02 0.97468161336E+01 0.88090371253E+01
 0.85392500513E+01 0.88090614136E+01 0.97468402952E+01 0.13148858161E+02 0.21281131730E+02
 0.35293160976E+02 0.54705809594E+02 0.77223005142E+02 0.98852118663E+02 0.11468413692E+03
 0.11468625912E+03 0.11468414415E+03 0.10386745259E+03 0.85235179485E+02 0.63398377999E+02
 0.42806531351E+02 0.26561321707E+02 0.16005019859E+02 0.10753619896E+02 0.90186506590E+01
 0.85069284945E+01 0.85068390267E+01 0.90185658992E+01 0.10753661105E+02 0.16004785966E+02
 0.26560507982E+02 0.42805992172E+02 0.63399827821E+02 0.85239231774E+02 0.10387217418E+03
 0.98855251661E+02 0.10386395338E+03 0.98852118690E+02 0.85235180914E+02 0.66594327608E+02
 0.47177565523E+02 0.30509388020E+02 0.18640462081E+02 0.11947965099E+02 0.92793294570E+01
 0.84970471978E+01 0.82411015570E+01 0.84968573130E+01 0.92793704222E+01 0.11948130732E+02
 0.18639950365E+02 0.30507987998E+02 0.47176651646E+02 0.66595705039E+02 0.85238735864E+02
 0.77221554104E+02 0.85224796786E+02 0.85225281179E+02 0.77222989067E+02 0.63398376999E+02
 0.47177563994E+02 0.31972768965E+02 0.20222694819E+02 0.12926025252E+02 0.95792933674E+01
 0.85017821009E+01 0.80436945176E+01 0.80435894050E+01 0.85017258844E+01 0.95796467252E+01
 0.12926572977E+02 0.20222660196E+02 0.31971583504E+02 0.47175484566E+02 0.63396254575E+02
 0.54701274648E+02 0.63391167702E+02 0.66584720122E+02 0.63394715596E+02 0.54705786064E+02
 0.42806528349E+02 0.30509389471E+02 0.20222696324E+02 0.13303759192E+02 0.97867624983E+01
 0.85109434552E+01 0.79223939059E+01 0.77112230402E+01 0.79223322575E+01 0.85109464937E+01
 0.97872262495E+01 0.13304993093E+02 0.20224111234E+02 0.30509389945E+02 0.42803869964E+02
 0.35292612313E+02 0.42824780446E+02 0.47198438956E+02 0.47199602564E+02 0.42826894005E+02
 0.35293150443E+02 0.26561322426E+02 0.18640464999E+02 0.12926023174E+02 0.97867610208E+01
 0.85161703002E+01 0.78674128606E+01 0.75178084123E+01 0.75178482287E+01 0.78672482124E+01
 0.85156377624E+01 0.97866775863E+01 0.12927475352E+02 0.18643117146E+02 0.26563178854E+02
 0.21284264729E+02 0.26617424871E+02 0.30589276541E+02 0.32058036655E+02 0.30587897016E+02
 0.26614773608E+02 0.21281133224E+02 0.16005021188E+02 0.11947963587E+02 0.95792904950E+01
 0.85109460174E+01 0.78674142140E+01 0.74555804481E+01 0.73170514616E+01 0.74557638115E+01
 0.78669683907E+01 0.85095445463E+01 0.95779268458E+01 0.11948130732E+02 0.16007177015E+02
 0.13148817500E+02 0.16087504959E+02 0.18778392377E+02 0.20385593948E+02 0.20384160240E+02
 0.18775256573E+02 0.16085125020E+02 0.13148850667E+02 0.10753620756E+02 0.92793281147E+01
 0.85017841884E+01 0.79223965240E+01 0.75178055121E+01 0.73170503599E+01 0.73173609643E+01
 0.75183562307E+01 0.79222915962E+01 0.85003155077E+01 0.92767929655E+01 0.10751498236E+02
 0.97435207012E+01 0.10842693776E+02 0.12115755040E+02 0.13144437775E+02 0.13538761062E+02
 0.13143542257E+02 0.12115754580E+02 0.10844840350E+02 0.97468180443E+01 0.90186519741E+01
 0.84970465451E+01 0.80436957302E+01 0.77112205942E+01 0.75178461733E+01 0.74557670435E+01
 0.75183570755E+01 0.77124383921E+01 0.80450404429E+01 0.84970439084E+01 0.90164436911E+01
 0.88089557239E+01 0.91070966509E+01 0.94513851247E+01 0.98173495975E+01 0.10061245954E+02
 0.10061783901E+02 0.98190489391E+01 0.94539499489E+01 0.91092114771E+01 0.88090394977E+01
 0.85069262804E+01 0.82411004136E+01 0.80435900404E+01 0.79223314954E+01 0.78672510623E+01
 0.78669698871E+01 0.79222882162E+01 0.80450398658E+01 0.82438253647E+01 0.85090669246E+01
 0.85423830498E+01 0.85975444581E+01 0.86683496587E+01 0.87411268617E+01 0.87973322421E+01
 0.88200821735E+01 0.87987106869E+01 0.87425265272E+01 0.86681859219E+01 0.85953470317E+01
 0.85392491110E+01 0.85068370706E+01 0.84968599497E+01 0.85017270471E+01 0.85109460174E+01
 0.85156381170E+01 0.85095415078E+01 0.85003145829E+01 0.84970471978E+01 0.85090671827E+01
 0.88089525874E+01 0.85975444573E+01 0.84136509536E+01 0.82847574266E+01 0.82145899343E+01
 0.81878602987E+01 0.81881329087E+01 0.82146231444E+01 0.82833223618E+01 0.84109680490E+01
 0.85954480497E+01 0.88090606496E+01 0.90185674362E+01 0.92793719914E+01 0.95796438744E+01
 0.97872251461E+01 0.97866779604E+01 0.95779268674E+01 0.92767958770E+01 0.90164439129E+01
 0.97435179630E+01 0.91070969909E+01 0.86683525124E+01 0.82847572658E+01 0.80062454920E+01
 0.78478296423E+01 0.77978236628E+01 0.78473272827E+01 0.80050320725E+01 0.82834068997E+01
 0.86683510940E+01 0.91093171669E+01 0.97468394675E+01 0.10753661417E+02 0.11948128759E+02
 0.12926571837E+02 0.13304995967E+02 0.12927476290E+02 0.11948130271E+02 0.10751497688E+02
 0.13148818007E+02 0.10842694733E+02 0.94513875430E+01 0.87411261798E+01 0.82145875751E+01
 0.78478299389E+01 0.76668482769E+01 0.76665495696E+01 0.78472931983E+01 0.82146735979E+01
 0.87425441316E+01 0.94538783435E+01 0.10844806266E+02 0.13148857244E+02 0.16004786431E+02
 0.18639950420E+02 0.20222662240E+02 0.20224111773E+02 0.18643114283E+02 0.16007176152E+02
 0.21284267483E+02 0.16087505749E+02 0.12115754455E+02 0.98173484214E+01 0.87973304219E+01
 0.81878612832E+01 0.77978255179E+01 0.76665492276E+01 0.77976584906E+01 0.81883133356E+01
 0.87987106869E+01 0.98186782845E+01 0.12115567985E+02 0.16085349324E+02 0.21281133224E+02
 0.26560508798E+02 0.30507987523E+02 0.31971582892E+02 0.30509388020E+02 0.26563178950E+02
 0.35292614103E+02 0.26617424287E+02 0.18778389851E+02 0.13144437082E+02 0.10061246769E+02
 0.88200835878E+01 0.81881341441E+01 0.78473261977E+01 0.78472918166E+01 0.81883135865E+01
 0.88206364793E+01 0.10061351765E+02 0.13143004431E+02 0.18775753737E+02 0.26615580275E+02
 0.35293161280E+02 0.42805990523E+02 0.47176650781E+02 0.47175485231E+02 0.42803871317E+02
 0.54701274002E+02 0.42824778600E+02 0.30589275071E+02 0.20385594844E+02 0.13538763265E+02
 0.10061784595E+02 0.87987097054E+01 0.82146216596E+01 0.80050313807E+01 0.82146744722E+01
 0.87987115256E+01 0.10061351644E+02 0.13537568374E+02 0.20384200902E+02 0.30589276299E+02
 0.42827442668E+02 0.54705808727E+02 0.63399828037E+02 0.66595706891E+02 0.63396255791E+02
 0.77221552503E+02 0.63391166399E+02 0.47198439688E+02 0.32058038705E+02 0.20384161074E+02
 0.13143541137E+02 0.98190471569E+01 0.87425258661E+01 0.82833234951E+01 0.82834081938E+01
 0.87425441523E+01 0.98186776784E+01 0.13143004005E+02 0.20384200838E+02 0.32059201584E+02
 0.47200487672E+02 0.63393281826E+02 0.77223006334E+02 0.85239232803E+02 0.85238735464E+02
 0.98855251011E+02 0.85224797579E+02 0.66584721414E+02 0.47199603679E+02 0.30587895788E+02
 0.18775254264E+02 0.12115754455E+02 0.94539512197E+01 0.86681873402E+01 0.84109686545E+01
 0.86683496587E+01 0.94538771961E+01 0.12115568444E+02 0.18775753954E+02 0.30589276541E+02
 0.47200488054E+02 0.66583318175E+02 0.85221232379E+02 0.98852118690E+02 0.10387217256E+03
 0.11468625938E+03 0.10386395555E+03 0.85225281277E+02 0.63394714232E+02 0.42826892663E+02
 0.26614772399E+02 0.16085126721E+02 0.10844842880E+02 0.91092110537E+01 0.85953458565E+01
 0.85954468754E+01 0.91093164035E+01 0.10844807839E+02 0.16085350235E+02 0.26615579650E+02
 0.42827443172E+02 0.63393281765E+02 0.85221231686E+02 0.10385922120E+03 0.11468413601E+03
 0.93763197218E+02 0.89210004956E+02 0.76840730266E+02 0.59931653846E+02 0.42384988009E+02
 0.27439995545E+02 0.16948628281E+02 0.11173490290E+02 0.89449435626E+01 0.82414767600E+01
 0.79983368104E+01 0.82414990396E+01 0.89449665329E+01 0.11173497173E+02 0.16948625561E+02
 0.27440000657E+02 0.42385004607E+02 0.59931668023E+02 0.76840730908E+02 0.89209998625E+02
 0.89211560518E+02 0.89210003800E+02 0.80752214372E+02 0.66171273838E+02 0.49106783453E+02
 0.33141565486E+02 0.20798812819E+02 0.13097941373E+02 0.95301650743E+01 0.83943651031E+01
 0.79369662737E+01 0.79368813000E+01 0.83942845581E+01 0.95302435981E+01 0.13097886379E+02
 0.20798328359E+02 0.33141212806E+02 0.49107828422E+02 0.66174221900E+02 0.80755676876E+02
 0.76843041290E+02 0.80766765112E+02 0.76840730934E+02 0.66171275256E+02 0.51583219135E+02
 0.36479915514E+02 0.23720160975E+02 0.14928178507E+02 0.10257213943E+02 0.85323628249E+01
 0.79050220251E+01 0.76794156003E+01 0.79048277148E+01 0.85323623318E+01 0.10257385233E+02
 0.14927893730E+02 0.23719180667E+02 0.36479220038E+02 0.51584183584E+02 0.66173869715E+02
 0.59930621850E+02 0.66208678856E+02 0.66209022729E+02 0.59931656613E+02 0.49106782452E+02
 0.36479913993E+02 0.24809945915E+02 0.16044596289E+02 0.10874502765E+02 0.86782877968E+01
 0.78946035562E+01 0.74933147810E+01 0.74932158589E+01 0.78945117446E+01 0.86784945739E+01
 0.10874860050E+02 0.16044525162E+02 0.24809026515E+02 0.36478352132E+02 0.49105220356E+02
 0.42381711989E+02 0.49175516208E+02 0.51678089305E+02 0.49178105660E+02 0.42384987778E+02
 0.33141562499E+02 0.23720162427E+02 0.16044597795E+02 0.11117044759E+02 0.87825950882E+01
 0.78946048703E+01 0.73807561442E+01 0.72013558871E+01 0.73807379475E+01 0.78946078606E+01
 0.87828725650E+01 0.11117853291E+02 0.16045571335E+02 0.23720162903E+02 0.33139650913E+02
 0.27439642430E+02 0.33250318344E+02 0.36647577939E+02 0.36648442972E+02 0.33251873647E+02
 0.27439994067E+02 0.20798813552E+02 0.14928181435E+02 0.10874500715E+02 0.87825936215E+01
 0.78957905266E+01 0.73300634317E+01 0.70350415001E+01 0.70351186016E+01 0.73300349398E+01
 0.78954466767E+01 0.87825143382E+01 0.10875547995E+02 0.14930166035E+02 0.20800248479E+02
 0.16950935943E+02 0.20944723446E+02 0.23962221312E+02 0.25085250101E+02 0.23961254785E+02
 0.20942816901E+02 0.16948627047E+02 0.13097942728E+02 0.10257212466E+02 0.86782849467E+01
 0.78946074070E+01 0.73300647661E+01 0.69820648811E+01 0.68670632118E+01 0.69822527021E+01
 0.73298031800E+01 0.78936256253E+01 0.86773219345E+01 0.10257385233E+02 0.13099574739E+02
 0.11173419220E+02 0.13261919849E+02 0.15221855401E+02 0.16408370253E+02 0.16407336734E+02
 0.15219604845E+02 0.13260236980E+02 0.11173488906E+02 0.95301659593E+01 0.85323614990E+01
 0.78946056124E+01 0.73807587171E+01 0.70350385949E+01 0.68670621121E+01 0.68672676316E+01
 0.70353988755E+01 0.73806599947E+01 0.78935435249E+01 0.85305262062E+01 0.95286037522E+01
 0.89424651049E+01 0.96922270654E+01 0.10566345866E+02 0.11284615371E+02 0.11562551300E+02
 0.11283933569E+02 0.10566345428E+02 0.96938519212E+01 0.89449454883E+01 0.83943664180E+01
 0.79050213526E+01 0.74933159459E+01 0.72013534188E+01 0.70351165477E+01 0.69822559265E+01
 0.70353997269E+01 0.72021470770E+01 0.74942620314E+01 0.79050187602E+01 0.83927226650E+01
 0.82413995472E+01 0.85495698369E+01 0.88334218934E+01 0.90946437701E+01 0.92628863709E+01
 0.92632378456E+01 0.90958041342E+01 0.88352514665E+01 0.85511264200E+01 0.82414791204E+01
 0.79369640518E+01 0.76794144245E+01 0.74932164535E+01 0.73807371775E+01 0.73300377915E+01
 0.73298046974E+01 0.73806566518E+01 0.74942614610E+01 0.76814291711E+01 0.79385426855E+01
 0.80006471930E+01 0.80905192363E+01 0.81978206583E+01 0.83028041724E+01 0.83806154098E+01
 0.84098339899E+01 0.83815808632E+01 0.83037671546E+01 0.81976512685E+01 0.80888842395E+01
 0.79983358633E+01 0.79368793281E+01 0.79048303073E+01 0.78945128910E+01 0.78946074070E+01
 0.78954470684E+01 0.78936226350E+01 0.78935426151E+01 0.79050220251E+01 0.79385429354E+01
 0.82413964165E+01 0.80905192334E+01 0.79703436388E+01 0.78973239832E+01 0.78670083795E+01
 0.78604690470E+01 0.78606939823E+01 0.78670780911E+01 0.78962891017E+01 0.79683636839E+01
 0.80889793516E+01 0.82414982694E+01 0.83942860745E+01 0.85323638897E+01 0.86784917571E+01
 0.87828715047E+01 0.87825147447E+01 0.86773219679E+01 0.85305290900E+01 0.83927228666E+01
 0.89424623622E+01 0.85495701696E+01 0.81978234983E+01 0.78973238249E+01 0.76877524543E+01
 0.75729523793E+01 0.75376668056E+01 0.75726729850E+01 0.76869576624E+01 0.78963694453E+01
 0.81978220863E+01 0.85512259124E+01 0.89449657159E+01 0.95302439121E+01 0.10257383284E+02
 0.10874858942E+02 0.11117856176E+02 0.10875548938E+02 0.10257384760E+02 0.95286031813E+01
 0.11173419702E+02 0.96922280100E+01 0.88334243029E+01 0.83028034988E+01 0.78670060341E+01
 0.75729526736E+01 0.74308245960E+01 0.74306281848E+01 0.75726023974E+01 0.78670878470E+01
 0.83038229736E+01 0.88352225617E+01 0.96937813336E+01 0.11173496271E+02 0.13097886849E+02
 0.14927893795E+02 0.16044527208E+02 0.16045571874E+02 0.14930163173E+02 0.13099573853E+02
 0.16950938664E+02 0.13261920629E+02 0.10566345291E+02 0.90946426089E+01 0.83806136019E+01
 0.78604700255E+01 0.75376686526E+01 0.74306278483E+01 0.75374959878E+01 0.78607397989E+01
 0.83815808632E+01 0.90955784817E+01 0.10566154383E+02 0.13260285187E+02 0.16948627047E+02
 0.20798329165E+02 0.23719180192E+02 0.24809025903E+02 0.23720160975E+02 0.20800248552E+02
 0.27439644198E+02 0.20944722863E+02 0.15221852899E+02 0.11284614693E+02 0.92628871867E+01
 0.84098353952E+01 0.78606952130E+01 0.75726719137E+01 0.75726010317E+01 0.78607400511E+01
 0.84102001061E+01 0.92629859905E+01 0.11283582221E+02 0.15219878240E+02 0.20943294715E+02
 0.27440000946E+02 0.33141211152E+02 0.36479219168E+02 0.36478352784E+02 0.33139652245E+02
 0.42381711342E+02 0.33250316511E+02 0.23962219864E+02 0.16408371161E+02 0.11562553499E+02
 0.92632385343E+01 0.83815798861E+01 0.78670766218E+01 0.76869569878E+01 0.78670887230E+01
 0.83815816941E+01 0.92629858634E+01 0.11561776061E+02 0.16407414686E+02 0.23962221069E+02
 0.33252231874E+02 0.42385003729E+02 0.49107828624E+02 0.51584185420E+02 0.49105221560E+02
 0.59930620260E+02 0.49175514918E+02 0.36647578682E+02 0.25085252158E+02 0.16407337575E+02
 0.11283932454E+02 0.90958023552E+01 0.83037664974E+01 0.78962902387E+01 0.78963707405E+01
 0.83038229900E+01 0.90955778639E+01 0.11283581784E+02 0.16407414619E+02 0.25086157220E+02
 0.36649118331E+02 0.49177072074E+02 0.59931669199E+02 0.66174222920E+02 0.66173869317E+02
 0.76843040648E+02 0.66208679651E+02 0.51678090603E+02 0.36648444099E+02 0.23961253579E+02
 0.15219602549E+02 0.10566345291E+02 0.88352527181E+01 0.81976526805E+01 0.79683642924E+01
 0.81978206583E+01 0.88352214038E+01 0.10566154821E+02 0.15219878445E+02 0.23962221312E+02
 0.36649118716E+02 0.51677107070E+02 0.66206077554E+02 0.76840730934E+02 0.80755675268E+02
 0.89211560772E+02 0.80766767273E+02 0.66209022838E+02 0.49178104321E+02 0.33251872328E+02
 0.20942815699E+02 0.13260238653E+02 0.96938544140E+01 0.85511259860E+01 0.80888830735E+01
 0.80889781886E+01 0.85512251457E+01 0.96937828818E+01 0.13260286080E+02 0.20943294097E+02
 0.33252232387E+02 0.49177072025E+02 0.66206076867E+02 0.80763295217E+02 0.89209997724E+02
 0.65978996022E+02 0.62749045779E+02 0.53980586948E+02 0.42038243015E+02 0.29785993399E+02
 0.19619973977E+02 0.12838123527E+02 0.94196025336E+01 0.81901388801E+01 0.76215318548E+01
 0.74177687187E+01 0.76215487672E+01 0.81901561372E+01 0.94196072865E+01 0.12838120836E+02
 0.19619977366E+02 0.29786005819E+02 0.42038253851E+02 0.53980587583E+02 0.62749041067E+02
 0.62750022287E+02 0.62749044625E+02 0.56740506856E+02 0.46405978867E+02 0.34404850664E+02
 0.23389279374E+02 0.15198410925E+02 0.10437142918E+02 0.84484779357E+01 0.77094824393E+01