   2   2   0   0
  0.8783088E+01  0.2236800E-09  0.2236800E-09  0.4054080E-09  0.5000000E-15
  1.000000000000000E-004
  CAR 
 unknown system                          
     79.23146353     -4.85312714  301      8.74063262      1.00000000
     -4.853  0.0000E+00  0.0000E+00
     -4.573  0.0000E+00  0.0000E+00
     -4.293  0.0000E+00  0.0000E+00
     -4.012  0.0000E+00  0.0000E+00
     -3.732  0.0000E+00  0.0000E+00
     -3.452  0.0000E+00  0.0000E+00
     -3.171  0.0000E+00  0.0000E+00
     -2.891 -0.3836E-39 -0.1075E-39
     -2.611 -0.9584E-29 -0.2686E-29
     -2.331 -0.4577E-20 -0.1283E-20
     -2.050 -0.3990E-13 -0.1118E-13
     -1.770 -0.6590E-08 -0.1847E-08
     -1.490 -0.1910E-04 -0.5355E-05
     -1.209 -0.4182E-03 -0.1226E-03
     -0.929  0.8856E-02  0.2360E-02
     -0.649  0.4184E-01  0.1409E-01
     -0.369  0.9583E-01  0.4094E-01
     -0.088  0.5218E-01  0.5557E-01
      0.192  0.1276E+00  0.9134E-01
      0.472  0.1527E+00  0.1341E+00
      0.753  0.1928E+00  0.1882E+00
      1.033  0.8663E-01  0.2125E+00
      1.313  0.1713E+00  0.2605E+00
      1.593  0.3044E+00  0.3458E+00
      1.874  0.2821E+00  0.4248E+00
      2.154  0.3241E+00  0.5157E+00
      2.434  0.2374E+00  0.5822E+00
      2.714  0.4471E+00  0.7075E+00
      2.995  0.1697E+01  0.1183E+01
      3.275  0.1893E+01  0.1714E+01
      3.555  0.2106E+01  0.2304E+01
      3.836  0.2342E+01  0.2961E+01
      4.116  0.2602E+01  0.3690E+01
      4.396  0.2102E+01  0.4279E+01
      4.676  0.2334E+01  0.4933E+01
      4.957  0.2683E+01  0.5685E+01
      5.237  0.2661E+01  0.6431E+01
      5.517  0.2623E+01  0.7166E+01
      5.798  0.2047E+01  0.7740E+01
      6.078  0.1722E+01  0.8223E+01
      6.358  0.3352E+01  0.9162E+01
      6.638  0.2902E+01  0.9975E+01
      6.919  0.3052E+01  0.1083E+02
      7.199  0.3108E+01  0.1170E+02
      7.479  0.2606E+01  0.1243E+02
      7.760  0.3042E+01  0.1328E+02
      8.040  0.2829E+01  0.1408E+02
      8.320  0.2739E+01  0.1485E+02
      8.600  0.2871E+01  0.1565E+02
      8.881  0.2447E+01  0.1634E+02
      9.161  0.2666E+01  0.1708E+02
      9.441  0.3599E+01  0.1809E+02
      9.722  0.4044E+01  0.1923E+02
     10.002  0.3191E+01  0.2012E+02
     10.282  0.3181E+01  0.2101E+02
     10.562  0.8508E+00  0.2125E+02
     10.843  0.2454E+00  0.2132E+02
     11.123  0.4635E+00  0.2145E+02
     11.403  0.4711E+00  0.2158E+02
     11.684  0.6206E+00  0.2175E+02
     11.964  0.8428E+00  0.2199E+02
     12.244  0.4111E+00  0.2211E+02
     12.524  0.3486E+00  0.2220E+02
     12.805  0.3576E+00  0.2230E+02
     13.085  0.4097E+00  0.2242E+02
     13.365  0.3096E+00  0.2251E+02
     13.645  0.4552E+00  0.2263E+02
     13.926  0.6173E+00  0.2281E+02
     14.206  0.3540E+00  0.2291E+02
     14.486  0.4788E+00  0.2304E+02
     14.767  0.4231E+00  0.2316E+02
     15.047  0.1030E+00  0.2319E+02
     15.327  0.3433E+00  0.2328E+02
     15.607  0.3400E+00  0.2338E+02
     15.888  0.3604E+00  0.2348E+02
     16.168  0.2805E+00  0.2356E+02
     16.448  0.2062E+00  0.2362E+02
     16.729  0.3052E+00  0.2370E+02
     17.009  0.3714E+00  0.2381E+02
     17.289  0.4677E+00  0.2394E+02
     17.569  0.2700E+00  0.2401E+02
     17.850  0.2530E+00  0.2408E+02
     18.130  0.1592E+00  0.2413E+02
     18.410  0.1019E+00  0.2416E+02
     18.691  0.1379E+00  0.2420E+02
     18.971  0.3731E+00  0.2430E+02
     19.251  0.2231E+00  0.2436E+02
     19.531  0.3143E+00  0.2445E+02
     19.812  0.4208E+00  0.2457E+02
     20.092  0.6182E+00  0.2474E+02
     20.372  0.9221E+00  0.2500E+02
     20.653  0.8794E+00  0.2525E+02
     20.933  0.5377E+00  0.2540E+02
     21.213  0.3441E+00  0.2549E+02
     21.493  0.6971E+00  0.2569E+02
     21.774  0.4666E+00  0.2582E+02
     22.054  0.6965E+00  0.2601E+02
     22.334  0.9222E+00  0.2627E+02
     22.615  0.7059E+00  0.2647E+02
     22.895  0.5887E+00  0.2664E+02
     23.175  0.3347E+00  0.2673E+02
     23.455  0.7346E+00  0.2694E+02
     23.736  0.7153E+00  0.2714E+02
     24.016  0.6105E+00  0.2731E+02
     24.296  0.5444E+00  0.2746E+02
     24.576  0.5298E+00  0.2761E+02
     24.857  0.6177E+00  0.2778E+02
     25.137  0.4495E+00  0.2791E+02
     25.417  0.7860E+00  0.2813E+02
     25.698  0.7310E+00  0.2833E+02
     25.978  0.4116E+00  0.2845E+02
     26.258  0.6675E+00  0.2864E+02
     26.538  0.5472E+00  0.2879E+02
     26.819  0.6591E+00  0.2897E+02
     27.099  0.1053E+01  0.2927E+02
     27.379  0.1062E+01  0.2957E+02
     27.660  0.7056E+00  0.2976E+02
     27.940  0.6426E+00  0.2994E+02
     28.220  0.7870E+00  0.3016E+02
     28.500  0.6706E+00  0.3035E+02
     28.781  0.1132E+01  0.3067E+02
     29.061  0.9550E+00  0.3094E+02
     29.341  0.6033E+00  0.3111E+02
     29.622  0.1142E+01  0.3143E+02
     29.902  0.5155E+00  0.3157E+02
     30.182  0.9224E+00  0.3183E+02
     30.462  0.1529E+01  0.3226E+02
     30.743  0.9235E+00  0.3252E+02
     31.023  0.4496E+00  0.3264E+02
     31.303  0.6537E+00  0.3283E+02
     31.584  0.8755E+00  0.3307E+02
     31.864  0.8416E+00  0.3331E+02
     32.144  0.8124E+00  0.3354E+02
     32.424  0.9188E+00  0.3379E+02
     32.705  0.8239E+00  0.3402E+02
     32.985  0.7328E+00  0.3423E+02
     33.265  0.7489E+00  0.3444E+02
     33.546  0.6702E+00  0.3463E+02
     33.826  0.6443E+00  0.3481E+02
     34.106  0.4988E+00  0.3495E+02
     34.386  0.6233E+00  0.3512E+02
     34.667  0.4909E+00  0.3526E+02
     34.947  0.8836E+00  0.3551E+02
     35.227  0.5719E+00  0.3567E+02
     35.507  0.4982E+00  0.3581E+02
     35.788  0.6647E+00  0.3599E+02
     36.068  0.7729E+00  0.3621E+02
     36.348  0.6027E+00  0.3638E+02
     36.629  0.1008E+01  0.3666E+02
     36.909  0.4483E+00  0.3679E+02
     37.189  0.7379E+00  0.3699E+02
     37.469  0.5565E+00  0.3715E+02
     37.750  0.6144E+00  0.3732E+02
     38.030  0.7511E+00  0.3753E+02
     38.310  0.1047E+01  0.3783E+02
     38.591  0.1113E+01  0.3814E+02
     38.871  0.7621E+00  0.3835E+02
     39.151  0.5891E+00  0.3852E+02
     39.431  0.7776E+00  0.3874E+02
     39.712  0.1125E+01  0.3905E+02
     39.992  0.9472E+00  0.3932E+02
     40.272  0.7390E+00  0.3952E+02
     40.553  0.1022E+01  0.3981E+02
     40.833  0.1091E+01  0.4012E+02
     41.113  0.1184E+01  0.4045E+02
     41.393  0.9158E+00  0.4070E+02
     41.674  0.8854E+00  0.4095E+02
     41.954  0.1012E+01  0.4124E+02
     42.234  0.5612E+00  0.4139E+02
     42.515  0.5024E+00  0.4153E+02
     42.795  0.7094E+00  0.4173E+02
     43.075  0.8140E+00  0.4196E+02
     43.355  0.5891E+00  0.4213E+02
     43.636  0.4644E+00  0.4226E+02
     43.916  0.7825E+00  0.4248E+02
     44.196  0.8497E+00  0.4271E+02
     44.476  0.9793E+00  0.4299E+02
     44.757  0.7032E+00  0.4319E+02
     45.037  0.6049E+00  0.4335E+02
     45.317  0.7006E+00  0.4355E+02
     45.598  0.7944E+00  0.4377E+02
     45.878  0.5495E+00  0.4393E+02
     46.158  0.8219E+00  0.4416E+02
     46.438  0.6934E+00  0.4435E+02
     46.719  0.1023E+01  0.4464E+02
     46.999  0.9860E+00  0.4492E+02
     47.279  0.9849E+00  0.4519E+02
     47.560  0.1434E+01  0.4559E+02
     47.840  0.9344E+00  0.4585E+02
     48.120  0.7987E+00  0.4608E+02
     48.400  0.1146E+01  0.4640E+02
     48.681  0.1142E+01  0.4672E+02
     48.961  0.1192E+01  0.4705E+02
     49.241  0.9895E+00  0.4733E+02
     49.522  0.1034E+01  0.4762E+02
     49.802  0.9045E+00  0.4788E+02
     50.082  0.6976E+00  0.4807E+02
     50.362  0.8033E+00  0.4830E+02
     50.643  0.8330E+00  0.4853E+02
     50.923  0.9775E+00  0.4880E+02
     51.203  0.1056E+01  0.4910E+02
     51.484  0.1018E+01  0.4938E+02
     51.764  0.5676E+00  0.4954E+02
     52.044  0.5388E+00  0.4969E+02
     52.324  0.1402E+01  0.5009E+02
     52.605  0.1041E+01  0.5038E+02
     52.885  0.8389E+00  0.5061E+02
     53.165  0.5713E+00  0.5077E+02
     53.446  0.8475E+00  0.5101E+02
     53.726  0.1359E+01  0.5139E+02
     54.006  0.1023E+01  0.5168E+02
     54.286  0.7562E+00  0.5189E+02
     54.567  0.6588E+00  0.5208E+02
     54.847  0.9446E+00  0.5234E+02
     55.127  0.9677E+00  0.5261E+02
     55.407  0.9800E+00  0.5289E+02
     55.688  0.9805E+00  0.5316E+02
     55.968  0.1572E+01  0.5360E+02
     56.248  0.1063E+01  0.5390E+02
     56.529  0.1194E+01  0.5424E+02
     56.809  0.1217E+01  0.5458E+02
     57.089  0.1301E+01  0.5494E+02
     57.369  0.1073E+01  0.5524E+02
     57.650  0.1092E+01  0.5555E+02
     57.930  0.1119E+01  0.5586E+02
     58.210  0.6877E+00  0.5605E+02
     58.491  0.9091E+00  0.5631E+02
     58.771  0.1184E+01  0.5664E+02
     59.051  0.1579E+01  0.5708E+02
     59.331  0.9979E+00  0.5736E+02
     59.612  0.1236E+01  0.5771E+02
     59.892  0.1415E+01  0.5811E+02
     60.172  0.1346E+01  0.5848E+02
     60.453  0.1442E+01  0.5889E+02
     60.733  0.1443E+01  0.5929E+02
     61.013  0.1772E+01  0.5979E+02
     61.293  0.1293E+01  0.6015E+02
     61.574  0.1390E+01  0.6054E+02
     61.854  0.1870E+01  0.6106E+02
     62.134  0.2303E+01  0.6171E+02
     62.415  0.1706E+01  0.6219E+02
     62.695  0.1676E+01  0.6266E+02
     62.975  0.1999E+01  0.6322E+02
     63.255  0.1727E+01  0.6370E+02
     63.536  0.1919E+01  0.6424E+02
     63.816  0.2799E+01  0.6502E+02
     64.096  0.2843E+01  0.6582E+02
     64.377  0.2427E+01  0.6650E+02
     64.657  0.2241E+01  0.6713E+02
     64.937  0.1792E+01  0.6763E+02
     65.217  0.1400E+01  0.6802E+02
     65.498  0.1525E+01  0.6845E+02
     65.778  0.1895E+01  0.6898E+02
     66.058  0.1070E+01  0.6928E+02
     66.338  0.9904E+00  0.6956E+02
     66.619  0.1305E+01  0.6993E+02
     66.899  0.1469E+01  0.7034E+02
     67.179  0.1420E+01  0.7074E+02
     67.460  0.1291E+01  0.7110E+02
     67.740  0.1194E+01  0.7143E+02
     68.020  0.1274E+01  0.7179E+02
     68.300  0.1788E+01  0.7229E+02
     68.581  0.1499E+01  0.7271E+02
     68.861  0.1336E+01  0.7308E+02
     69.141  0.1189E+01  0.7342E+02
     69.422  0.1274E+01  0.7378E+02
     69.702  0.1131E+01  0.7409E+02
     69.982  0.1609E+01  0.7454E+02
     70.262  0.1105E+01  0.7485E+02
     70.543  0.1277E+01  0.7521E+02
     70.823  0.1964E+01  0.7576E+02
     71.103  0.9767E+00  0.7604E+02
     71.384  0.1324E+01  0.7641E+02
     71.664  0.1683E+01  0.7688E+02
     71.944  0.1764E+01  0.7737E+02
     72.224  0.1149E+01  0.7769E+02
     72.505  0.8405E+00  0.7793E+02
     72.785  0.1116E+01  0.7824E+02
     73.065  0.1042E+01  0.7854E+02
     73.346  0.9732E+00  0.7881E+02
     73.626  0.1077E+01  0.7911E+02
     73.906  0.1011E+01  0.7939E+02
     74.186  0.9307E+00  0.7965E+02
     74.467  0.5247E+00  0.7980E+02
     74.747  0.3888E+00  0.7991E+02
     75.027  0.2296E+00  0.7997E+02
     75.308  0.6647E-01  0.7999E+02
     75.588  0.2526E-01  0.8000E+02
     75.868 -0.3277E-03  0.8000E+02
     76.148 -0.8920E-04  0.8000E+02
     76.429 -0.3675E-07  0.8000E+02
     76.709 -0.2343E-12  0.8000E+02
     76.989  0.0000E+00  0.8000E+02
     77.269  0.0000E+00  0.8000E+02
     77.550  0.0000E+00  0.8000E+02
     77.830  0.0000E+00  0.8000E+02
     78.110  0.0000E+00  0.8000E+02
     78.391  0.0000E+00  0.8000E+02
     78.671  0.0000E+00  0.8000E+02
     78.951  0.0000E+00  0.8000E+02
     79.231  0.0000E+00  0.8000E+02
