    2    2    1    1
  0.8783088E+01  0.2236800E-09  0.2236800E-09  0.4054080E-09  0.5000000E-15
  1.000000000000000E-004
  CAR 
 unknown system                          
     16     96     40
 
  0.0000000E+00  0.0000000E+00  0.0000000E+00  0.7513148E-03
    1       -1.031100   1.000000
    2        2.821907   1.000000
    3        5.790165   1.000000
    4        6.781791   1.000000
    5        6.781807   1.000000
    6        7.125549   1.000000
    7        7.125566   1.000000
    8        7.572256   1.000000
    9        8.498176   1.035434
   10        8.498186   1.035433
   11        9.675703  -0.000000
   12        9.675714  -0.000000
   13       17.126729   0.000000
   14       32.905559   0.000000
   15       33.891414   0.000000
   16       37.068374   0.000000
   17       41.152849   0.000000
   18       41.152873   0.000000
   19       41.170136   0.000000
   20       41.834349   0.000000
   21       41.834374   0.000000
   22       43.753367   0.000000
   23       43.753376   0.000000
   24       44.780549   0.000000
   25       48.045900   0.000000
   26       48.045908   0.000000
   27       48.945149   0.000000
   28       53.272021   0.000000
   29       53.272081   0.000000
   30       54.777653   0.000000
   31       54.777706   0.000000
   32       57.412064   0.000000
   33       64.567330   0.000000
   34       64.747522   0.000000
   35       65.292324   0.000000
   36       65.292350   0.000000
   37       66.257360   0.000000
   38       69.053845   0.000000
   39       69.053884   0.000000
   40       70.016882   0.000000
 
  0.9090909E-01  0.1628592E-16  0.0000000E+00  0.4507889E-02
    1       -0.651233   1.000000
    2        3.120998   1.000000
    3        5.861699   1.000000
    4        6.650504   1.000000
    5        6.690714   1.000000
    6        6.971064   1.000000
    7        7.022724   1.000000
    8        7.352122   1.000000
    9        8.275742   1.002447
   10        8.358641   1.010577
   11        9.710510  -0.000000
   12       10.847225  -0.000000
   13       17.139175   0.000000
   14       32.945424   0.000000
   15       33.353538   0.000000
   16       35.845133   0.000000
   17       37.965442   0.000000
   18       39.267765   0.000000
   19       39.796441   0.000000
   20       40.966703   0.000000
   21       43.194702   0.000000
   22       44.342675   0.000000
   23       45.012115   0.000000
   24       45.608990   0.000000
   25       49.277556   0.000000
   26       49.531392   0.000000
   27       50.320561   0.000000
   28       50.594557   0.000000
   29       53.554963   0.000000
   30       56.367618   0.000000
   31       57.132246   0.000000
   32       59.025767   0.000000
   33       63.078500   0.000000
   34       64.256353   0.000000
   35       64.348836   0.000000
   36       64.841927   0.000000
   37       65.667300   0.000000
   38       69.385109   0.000000
   39       70.115572   0.000000
   40       71.181289   0.000000
 
  0.1818182E+00  0.1862744E-16  0.0000000E+00  0.4507889E-02
    1        0.407892   1.000000
    2        3.803996   1.000000
    3        5.468657   1.000000
    4        5.780100   1.000000
    5        6.363176   1.000000
    6        7.068752   1.000000
    7        7.707079   1.000000
    8        7.761102   1.000000
    9        7.991060   1.000001
   10        8.031336   1.000003
   11        9.761573  -0.000000
   12       12.864816  -0.000000
   13       17.229915   0.000000
   14       29.409573   0.000000
   15       34.218269   0.000000
   16       34.517779   0.000000
   17       34.834572   0.000000
   18       34.912479   0.000000
   19       40.217959   0.000000
   20       40.899394   0.000000
   21       41.574032   0.000000
   22       42.343150   0.000000
   23       46.078736   0.000000
   24       47.013778   0.000000
   25       50.247183   0.000000
   26       50.890363   0.000000
   27       52.127083   0.000000
   28       54.495817   0.000000
   29       57.155692   0.000000
   30       58.651910   0.000000
   31       59.858801   0.000000
   32       61.276599   0.000000
   33       62.163487   0.000000
   34       62.650137   0.000000
   35       63.005134   0.000000
   36       63.585947   0.000000
   37       67.143751   0.000000
   38       70.263066   0.000000
   39       70.349799   0.000000
   40       71.272010   0.000000
 
  0.2727273E+00  0.2797447E-16  0.0000000E+00  0.4507889E-02
    1        1.843197   1.000000
    2        4.019753   1.000000
    3        4.488012   1.000000
    4        5.823432   1.000000
    5        6.177384   1.000000
    6        7.125183   1.000000
    7        7.659533   1.000000
    8        8.034458   1.000004
    9        8.677536   0.752823
   10        8.885820   0.031397
   11        9.777813  -0.000000
   12       15.137215   0.000000
   13       17.445945   0.000000
   14       25.215876   0.000000
   15       30.631611   0.000000
   16       32.127936   0.000000
   17       32.891805   0.000000
   18       34.980295   0.000000
   19       38.721493   0.000000
   20       40.930501   0.000000
   21       41.698905   0.000000
   22       41.975275   0.000000
   23       43.452915   0.000000
   24       46.698308   0.000000
   25       53.861675   0.000000
   26       55.044188   0.000000
   27       55.929947   0.000000
   28       56.947000   0.000000
   29       57.238964   0.000000
   30       59.425579   0.000000
   31       60.619054   0.000000
   32       62.299269   0.000000
   33       62.488152   0.000000
   34       62.876693   0.000000
   35       63.996436   0.000000
   36       67.103980   0.000000
   37       67.676018   0.000000
   38       70.480935   0.000000
   39       71.015462   0.000000
   40       71.363027   0.000000
 
  0.3636364E+00  0.2015745E-16  0.0000000E+00  0.4507889E-02
    1        2.934094   1.000000
    2        3.647340   1.000000
    3        3.824834   1.000000
    4        6.023162   1.000000
    5        6.569786   1.000000
    6        6.829234   1.000000
    7        7.351923   1.000000
    8        9.619551  -0.000000
    9        9.663025  -0.000000
   10        9.765093  -0.000000
   11        9.790147  -0.000000
   12       17.379823   0.000000
   13       17.547272   0.000000
   14       22.071787   0.000000
   15       27.136094   0.000000
   16       29.991300   0.000000
   17       30.051129   0.000000
   18       34.280940   0.000000
   19       37.713720   0.000000
   20       41.166089   0.000000
   21       41.306688   0.000000
   22       42.859220   0.000000
   23       42.882820   0.000000
   24       46.569611   0.000000
   25       53.835227   0.000000
   26       55.980367   0.000000
   27       57.056888   0.000000
   28       60.122930   0.000000
   29       60.403017   0.000000
   30       60.429447   0.000000
   31       61.348718   0.000000
   32       63.581226   0.000000
   33       64.028712   0.000000
   34       64.718009   0.000000
   35       65.655414   0.000000
   36       67.228836   0.000000
   37       70.319521   0.000000
   38       71.226682   0.000000
   39       71.389924   0.000000
   40       71.912994   0.000000
 
  0.4545455E+00  0.2943786E-16  0.0000000E+00  0.4507889E-02
    1        3.130709   1.000000
    2        3.452354   1.000000
    3        3.494038   1.000000
    4        6.251004   1.000000
    5        6.743458   1.000000
    6        7.133687   1.000000
    7        7.178518   1.000000
    8        9.748465  -0.000000
    9       10.282605  -0.000000
   10       10.398884  -0.000000
   11       11.657620  -0.000000
   12       15.560568   0.000000
   13       19.805492   0.000000
   14       21.849066   0.000000
   15       24.368717   0.000000
   16       27.137945   0.000000
   17       28.877566   0.000000
   18       33.642502   0.000000
   19       37.371577   0.000000
   20       39.867614   0.000000
   21       41.107073   0.000000
   22       43.853712   0.000000
   23       45.418492   0.000000
   24       45.806523   0.000000
   25       50.485217   0.000000
   26       56.841685   0.000000
   27       57.572503   0.000000
   28       60.703997   0.000000
   29       61.872079   0.000000
   30       62.972904   0.000000
   31       63.917754   0.000000
   32       64.174807   0.000000
   33       64.805511   0.000000
   34       66.633371   0.000000
   35       67.667403   0.000000
   36       69.567406   0.000000
   37       70.465276   0.000000
   38       70.527212   0.000000
   39       73.487487   0.000000
   40       74.033336   0.000000
 
  0.9090909E-01  0.9090909E-01  0.0000000E+00  0.4507889E-02
    1        0.072793   1.000000
    2        3.642471   1.000000
    3        5.790302   1.000000
    4        5.794515   1.000000
    5        6.636000   1.000000
    6        6.683244   1.000000
    7        7.525660   1.000000
    8        7.776000   1.000000
    9        7.848700   1.000000
   10        8.286815   1.003051
   11        9.706302  -0.000000
   12       12.306527  -0.000000
   13       17.200371   0.000000
   14       31.075978   0.000000
   15       32.807525   0.000000
   16       34.087932   0.000000
   17       36.201257   0.000000
   18       38.575531   0.000000
   19       38.603649   0.000000
   20       40.033386   0.000000
   21       40.744321   0.000000
   22       46.110500   0.000000
   23       47.011983   0.000000
   24       47.870144   0.000000
   25       48.133704   0.000000
   26       49.030134   0.000000
   27       49.284176   0.000000
   28       55.040346   0.000000
   29       57.225465   0.000000
   30       58.062063   0.000000
   31       58.200768   0.000000
   32       60.923678   0.000000
   33       61.461994   0.000000
   34       63.221130   0.000000
   35       63.712936   0.000000
   36       64.568662   0.000000
   37       65.507474   0.000000
   38       70.183212   0.000000
   39       70.587133   0.000000
   40       71.572375   0.000000
 
  0.1818182E+00  0.9090909E-01  0.0000000E+00  0.9015778E-02
    1        1.361951   1.000000
    2        4.261811   1.000000
    3        4.847080   1.000000
    4        5.496468   1.000000
    5        6.272265   1.000000
    6        7.183954   1.000000
    7        7.188842   1.000000
    8        7.954852   1.000000
    9        8.421071   1.023167
   10        8.777321   0.347619
   11        9.678480  -0.000000
   12       14.349827   0.000000
   13       17.404187   0.000000
   14       27.351871   0.000000
   15       30.243635   0.000000
   16       32.523473   0.000000
   17       34.549121   0.000000
   18       36.044510   0.000000
   19       38.662500   0.000000
   20       39.266262   0.000000
   21       40.524435   0.000000
   22       45.467710   0.000000
   23       45.607161   0.000000
   24       47.573728   0.000000
   25       50.510931   0.000000
   26       51.101557   0.000000
   27       53.540259   0.000000
   28       57.552464   0.000000
   29       58.771619   0.000000
   30       59.645338   0.000000
   31       60.291198   0.000000
   32       61.909516   0.000000
   33       62.089048   0.000000
   34       62.960825   0.000000
   35       64.421716   0.000000
   36       64.754631   0.000000
   37       66.494067   0.000000
   38       70.103654   0.000000
   39       71.279306   0.000000
   40       72.105563   0.000000
 
  0.2727273E+00  0.9090909E-01  0.0000000E+00  0.9015778E-02
    1        2.758161   1.000000
    2        4.067616   1.000000
    3        4.124343   1.000000
    4        5.662488   1.000000
    5        6.422338   1.000000
    6        6.674991   1.000000
    7        7.497630   1.000000
    8        8.207016   1.000529
    9        9.397241  -0.000018
   10        9.643850  -0.000000
   11        9.983145  -0.000000
   12       16.668807   0.000000
   13       17.770196   0.000000
   14       23.444033   0.000000
   15       28.381774   0.000000
   16       28.963182   0.000000
   17       32.600824   0.000000
   18       33.602535   0.000000
   19       38.667678   0.000000
   20       40.041982   0.000000
   21       40.105711   0.000000
   22       44.559118   0.000000
   23       44.860090   0.000000
   24       48.220522   0.000000
   25       52.607509   0.000000
   26       54.926944   0.000000
   27       56.180384   0.000000
   28       56.182657   0.000000
   29       58.891353   0.000000
   30       60.799541   0.000000
   31       60.840336   0.000000
   32       63.607404   0.000000
   33       64.533383   0.000000
   34       64.925086   0.000000
   35       65.205046   0.000000
   36       66.600411   0.000000
   37       69.695102   0.000000
   38       70.803114   0.000000
   39       70.926009   0.000000
   40       72.548465   0.000000
 
  0.3636364E+00  0.9090909E-01  0.0000000E+00  0.9015778E-02
    1        3.382737   1.000000
    2        3.687443   1.000000
    3        3.724455   1.000000
    4        6.237297   1.000000
    5        6.336145   1.000000
    6        6.939574   1.000000
    7        7.123267   1.000000
    8        9.406613  -0.000013
    9        9.606692  -0.000000
   10       10.058498  -0.000000
   11       11.459982  -0.000000
   12       17.065207   0.000000
   13       19.087497   0.000000
   14       21.698404   0.000000
   15       25.806514   0.000000
   16       26.858734   0.000000
   17       29.201675   0.000000
   18       32.644292   0.000000
   19       37.762688   0.000000
   20       39.568143   0.000000
   21       41.837293   0.000000
   22       44.649636   0.000000
   23       45.431661   0.000000
   24       47.342849   0.000000
   25       52.496042   0.000000
   26       55.177228   0.000000
   27       56.688546   0.000000
   28       58.397731   0.000000
   29       60.674571   0.000000
   30       61.759416   0.000000
   31       62.841061   0.000000
   32       63.894109   0.000000
   33       64.327174   0.000000
   34       67.322226   0.000000
   35       68.332722   0.000000
   36       68.539898   0.000000
   37       69.411743   0.000000
   38       71.950843   0.000000
   39       72.097718   0.000000
   40       73.767933   0.000000
 
  0.4545455E+00  0.9090909E-01  0.0000000E+00  0.4507889E-02
    1        3.349527   1.000000
    2        3.542570   1.000000
    3        3.683463   1.000000
    4        6.218648   1.000000
    5        6.788137   1.000000
    6        6.981178   1.000000
    7        7.022423   1.000000
    8        9.590812  -0.000000
    9       10.100124  -0.000000
   10       10.139184  -0.000000
   11       12.840304  -0.000000
   12       15.352123   0.000000
   13       20.722141   0.000000
   14       22.311141   0.000000
   15       23.925510   0.000000
   16       25.854168   0.000000
   17       27.709409   0.000000
   18       32.292836   0.000000
   19       37.354377   0.000000
   20       39.409803   0.000000
   21       42.316225   0.000000
   22       45.230144   0.000000
   23       46.317133   0.000000
   24       46.807684   0.000000
   25       50.423251   0.000000
   26       56.142077   0.000000
   27       57.214184   0.000000
   28       58.683523   0.000000
   29       62.105300   0.000000
   30       62.351385   0.000000
   31       64.133545   0.000000
   32       64.229057   0.000000
   33       64.931324   0.000000
   34       66.606080   0.000000
   35       68.492442   0.000000
   36       71.036368   0.000000
   37       71.188637   0.000000
   38       71.303557   0.000000
   39       71.497926   0.000000
   40       74.031875   0.000000
 
  0.1818182E+00  0.1818182E+00  0.0000000E+00  0.4507889E-02
    1        2.736418   1.000000
    2        4.301849   1.000000
    3        4.793837   1.000000
    4        4.933745   1.000000
    5        6.379008   1.000000
    6        6.612149   1.000000
    7        7.477205   1.000000
    8        7.640022   1.000000
    9        9.363395  -0.000049
   10        9.501848  -0.000001
   11       10.074619  -0.000000
   12       16.398512   0.000000
   13       17.936041   0.000000
   14       25.178119   0.000000
   15       26.216687   0.000000
   16       30.454620   0.000000
   17       32.309201   0.000000
   18       35.146347   0.000000
   19       35.747285   0.000000
   20       39.391400   0.000000
   21       41.986866   0.000000
   22       46.714246   0.000000
   23       47.584976   0.000000
   24       48.971025   0.000000
   25       50.105034   0.000000
   26       52.220551   0.000000
   27       53.147358   0.000000
   28       57.402715   0.000000
   29       59.625273   0.000000
   30       59.902410   0.000000
   31       60.231829   0.000000
   32       63.841961   0.000000
   33       63.873436   0.000000
   34       65.311150   0.000000
   35       66.334510   0.000000
   36       67.726620   0.000000
   37       67.993833   0.000000
   38       70.059246   0.000000
   39       70.693245   0.000000
   40       73.761456   0.000000
 
  0.2727273E+00  0.1818182E+00  0.0000000E+00  0.9015778E-02
    1        3.933505   1.000000
    2        3.953232   1.000000
    3        4.353107   1.000000
    4        5.320687   1.000000
    5        6.266520   1.000000
    6        6.748204   1.000000
    7        7.117937   1.000000
    8        8.224807   1.000807
    9        9.352205  -0.000067
   10        9.955201  -0.000000
   11       11.668067  -0.000000
   12       18.614656   0.000000
   13       18.765007   0.000000
   14       22.096695   0.000000
   15       24.377304   0.000000
   16       27.781034   0.000000
   17       30.515355   0.000000
   18       31.414575   0.000000
   19       34.467741   0.000000
   20       41.785537   0.000000
   21       42.481686   0.000000
   22       46.526959   0.000000
   23       48.411426   0.000000
   24       50.434055   0.000000
   25       51.057921   0.000000
   26       53.045498   0.000000
   27       54.449378   0.000000
   28       55.555656   0.000000
   29       58.772629   0.000000
   30       60.535261   0.000000
   31       62.742048   0.000000
   32       63.827834   0.000000
   33       64.566762   0.000000
   34       67.165403   0.000000
   35       68.413439   0.000000
   36       68.512377   0.000000
   37       70.472699   0.000000
   38       71.211552   0.000000
   39       73.334559   0.000000
   40       74.768504   0.000000
 
  0.3636364E+00  0.1818182E+00  0.0000000E+00  0.9015778E-02
    1        3.796822   1.000000
    2        4.001099   1.000000
    3        4.278034   1.000000
    4        6.022377   1.000000
    5        6.202211   1.000000
    6        6.647340   1.000000
    7        7.086498   1.000000
    8        9.149221  -0.006942
    9        9.267164  -0.000627
   10        9.919536  -0.000000
   11       13.519404  -0.000000
   12       16.961030   0.000000
   13       21.166297   0.000000
   14       22.276687   0.000000
   15       23.381327   0.000000
   16       25.021295   0.000000
   17       28.264869   0.000000
   18       29.791827   0.000000
   19       33.795873   0.000000
   20       42.591729   0.000000
   21       44.175696   0.000000
   22       46.545016   0.000000
   23       47.488250   0.000000
   24       48.972593   0.000000
   25       53.007592   0.000000
   26       53.557631   0.000000
   27       55.019689   0.000000
   28       56.573449   0.000000
   29       60.571139   0.000000
   30       61.306428   0.000000
   31       62.147416   0.000000
   32       64.143267   0.000000
   33       64.377917   0.000000
   34       65.499948   0.000000
   35       69.135409   0.000000
   36       70.666269   0.000000
   37       71.407146   0.000000
   38       73.081726   0.000000
   39       73.128053   0.000000
   40       73.220547   0.000000
 
  0.2727273E+00  0.2727273E+00  0.0000000E+00  0.4507889E-02
    1        3.975609   1.000000
    2        4.594727   1.000000
    3        4.976290   1.000000
    4        5.050455   1.000000
    5        6.070831   1.000000
    6        6.584054   1.000000
    7        7.116041   1.000000
    8        8.551141   1.018780
    9        9.097624  -0.015017
   10        9.866935  -0.000000
   11       13.704431  -0.000000
   12       19.225466   0.000000
   13       19.920645   0.000000
   14       21.227625   0.000000
   15       23.115265   0.000000
   16       26.989674   0.000000
   17       27.418856   0.000000
   18       30.135444   0.000000
   19       31.005139   0.000000
   20       43.540223   0.000000
   21       44.545390   0.000000
   22       49.495580   0.000000
   23       50.045891   0.000000
   24       50.470224   0.000000
   25       50.979009   0.000000
   26       51.361209   0.000000
   27       54.513367   0.000000
   28       56.895219   0.000000
   29       57.055969   0.000000
   30       61.139607   0.000000
   31       61.456960   0.000000
   32       64.316260   0.000000
   33       64.542649   0.000000
   34       65.380027   0.000000
   35       69.504633   0.000000
   36       70.740864   0.000000
   37       70.860444   0.000000
   38       71.454532   0.000000
   39       72.888296   0.000000
   40       75.409437   0.000000
 
  0.3636364E+00  0.2727273E+00  0.0000000E+00  0.4507889E-02
    1        4.029066   1.000000
    2        4.700670   1.000000
    3        4.865824   1.000000
    4        5.460162   1.000000
    5        6.167924   1.000000
    6        6.174359   1.000000
    7        7.287317   1.000000
    8        9.000238  -0.034710
    9        9.038298  -0.028169
   10        9.436686  -0.000005
   11       15.616955   0.000000
   12       17.229308   0.000000
   13       19.528940   0.000000
   14       23.381030   0.000000
   15       24.102567   0.000000
   16       24.878186   0.000000
   17       26.930258   0.000000
   18       28.308451   0.000000
   19       30.381328   0.000000
   20       43.837058   0.000000
   21       47.283834   0.000000
   22       48.062379   0.000000
   23       49.573694   0.000000
   24       49.805457   0.000000
   25       51.294341   0.000000
   26       52.917623   0.000000
   27       56.285019   0.000000
   28       57.038811   0.000000
   29       57.264553   0.000000
   30       60.610184   0.000000
   31       61.331062   0.000000
   32       62.044411   0.000000
   33       64.546276   0.000000
   34       64.799837   0.000000
   35       68.838888   0.000000
   36       70.825005   0.000000
   37       71.802186   0.000000
   38       72.333514   0.000000
   39       73.469712   0.000000
   40       74.525705   0.000000
 
  0.0000000E+00  0.0000000E+00  0.9090909E-01  0.1502630E-02
    1       -0.944258   1.000000
    2        2.798326   1.000000
    3        5.767201   1.000000
    4        6.775650   1.000000
    5        6.775666   1.000000
    6        7.108524   1.000000
    7        7.108541   1.000000
    8        7.352869   1.000000
    9        8.536458   1.027160
   10        8.536468   1.027155
   11        9.663786  -0.000000
   12        9.663797  -0.000000
   13       17.495692   0.000000
   14       32.238174   0.000000
   15       34.083543   0.000000
   16       36.893148   0.000000
   17       41.167305   0.000000
   18       41.167328   0.000000
   19       41.584799   0.000000
   20       41.827079   0.000000
   21       41.827104   0.000000
   22       43.759868   0.000000
   23       43.759879   0.000000
   24       45.065924   0.000000
   25       47.781332   0.000000
   26       47.781342   0.000000
   27       49.176103   0.000000
   28       53.474876   0.000000
   29       53.474935   0.000000
   30       55.100160   0.000000
   31       55.100211   0.000000
   32       57.119073   0.000000
   33       63.412078   0.000000
   34       64.737371   0.000000
   35       65.164914   0.000000
   36       65.164940   0.000000
   37       67.678762   0.000000
   38       68.001858   0.000000
   39       68.001896   0.000000
   40       68.478171   0.000000
 
  0.9090909E-01  0.1628592E-16  0.9090909E-01  0.9015778E-02
    1       -0.566764   1.000000
    2        3.101627   1.000000
    3        5.845869   1.000000
    4        6.524109   1.000000
    5        6.627563   1.000000
    6        7.000292   1.000000
    7        7.013900   1.000000
    8        7.333707   1.000000
    9        8.326591   1.006330
   10        8.404215   1.019334
   11        9.695433  -0.000000
   12       10.698499  -0.000000
   13       17.545573   0.000000
   14       32.485614   0.000000
   15       33.296605   0.000000
   16       35.778056   0.000000
   17       38.030828   0.000000
   18       38.824659   0.000000
   19       40.269237   0.000000
   20       41.306077   0.000000
   21       42.979497   0.000000
   22       44.489776   0.000000
   23       45.085865   0.000000
   24       45.780047   0.000000
   25       49.002208   0.000000
   26       49.357630   0.000000
   27       50.805922   0.000000
   28       51.012221   0.000000
   29       53.476383   0.000000
   30       56.538238   0.000000
   31       57.366345   0.000000
   32       58.813424   0.000000
   33       61.957309   0.000000
   34       64.137474   0.000000
   35       64.468918   0.000000
   36       65.135385   0.000000
   37       66.460781   0.000000
   38       68.541959   0.000000
   39       68.551783   0.000000
   40       69.916090   0.000000
 
  0.1818182E+00  0.1862744E-16  0.9090909E-01  0.9015778E-02
    1        0.482097   1.000000
    2        3.797820   1.000000
    3        5.383848   1.000000
    4        5.796298   1.000000
    5        6.327419   1.000000
    6        6.999481   1.000000
    7        7.670095   1.000000
    8        7.877042   1.000000
    9        7.943902   1.000000
   10        8.136573   1.000083
   11        9.738979  -0.000000
   12       12.510871  -0.000000
   13       17.763405   0.000000
   14       29.458122   0.000000
   15       33.434160   0.000000
   16       34.413892   0.000000
   17       34.926938   0.000000
   18       35.138601   0.000000
   19       39.687585   0.000000
   20       41.295349   0.000000
   21       41.952033   0.000000
   22       42.234086   0.000000
   23       46.347211   0.000000
   24       47.433381   0.000000
   25       50.465926   0.000000
   26       50.807911   0.000000
   27       51.949769   0.000000
   28       54.582695   0.000000
   29       56.560984   0.000000
   30       59.047145   0.000000
   31       60.092254   0.000000
   32       60.564889   0.000000
   33       61.496841   0.000000
   34       62.394214   0.000000
   35       63.547265   0.000000
   36       64.270508   0.000000
   37       67.036560   0.000000
   38       68.997162   0.000000
   39       69.539440   0.000000
   40       71.718602   0.000000
 
  0.2727273E+00  0.2797447E-16  0.9090909E-01  0.9015778E-02
    1        1.886366   1.000000
    2        4.017553   1.000000
    3        4.472642   1.000000
    4        5.796988   1.000000
    5        6.159180   1.000000
    6        7.158797   1.000000
    7        7.683689   1.000000
    8        8.075957   1.000014
    9        8.687038   0.718002
   10        8.871304   0.057476
   11        9.750805  -0.000000
   12       14.425289   0.000000
   13       18.281656   0.000000
   14       25.280014   0.000000
   15       30.299748   0.000000
   16       32.241811   0.000000
   17       33.029278   0.000000
   18       34.836251   0.000000
   19       38.279766   0.000000
   20       40.562509   0.000000
   21       40.884035   0.000000
   22       42.878060   0.000000
   23       44.273709   0.000000
   24       47.256457   0.000000
   25       53.957442   0.000000
   26       54.445166   0.000000
   27       55.375925   0.000000
   28       55.538592   0.000000
   29       58.959615   0.000000
   30       59.668030   0.000000
   31       60.823528   0.000000
   32       62.079497   0.000000
   33       62.281063   0.000000
   34       62.851475   0.000000
   35       64.329877   0.000000
   36       66.513630   0.000000
   37       67.808057   0.000000
   38       69.696097   0.000000
   39       70.335031   0.000000
   40       72.130225   0.000000
 
  0.3636364E+00  0.2015745E-16  0.9090909E-01  0.9015778E-02
    1        2.897995   1.000000
    2        3.582259   1.000000
    3        3.970276   1.000000
    4        5.715120   1.000000
    5        6.747690   1.000000
    6        7.043029   1.000000
    7        7.390403   1.000000
    8        9.573712  -0.000000
    9        9.626758  -0.000000
   10        9.682732  -0.000000
   11        9.856405  -0.000000
   12       15.977937   0.000000
   13       18.979862   0.000000
   14       22.153136   0.000000
   15       26.849111   0.000000
   16       30.180739   0.000000
   17       30.280314   0.000000
   18       34.282808   0.000000
   19       37.590047   0.000000
   20       39.710875   0.000000
   21       41.135492   0.000000
   22       42.786581   0.000000
   23       44.319219   0.000000
   24       47.115823   0.000000
   25       52.814560   0.000000
   26       56.737888   0.000000
   27       57.015524   0.000000
   28       59.133283   0.000000
   29       59.563078   0.000000
   30       61.472264   0.000000
   31       61.871683   0.000000
   32       63.680143   0.000000
   33       64.091991   0.000000
   34       64.860855   0.000000
   35       65.643729   0.000000
   36       67.154318   0.000000
   37       69.307740   0.000000
   38       70.956987   0.000000
   39       71.583558   0.000000
   40       72.403624   0.000000
 
  0.4545455E+00  0.2943786E-16  0.9090909E-01  0.9015778E-02
    1        3.091474   1.000000
    2        3.218868   1.000000
    3        3.823363   1.000000
    4        5.778403   1.000000
    5        6.957392   1.000000
    6        7.224294   1.000000
    7        7.505796   1.000000
    8        9.683349  -0.000000
    9       10.286921  -0.000000
   10       10.398350  -0.000000
   11       11.547633  -0.000000
   12       15.325192   0.000000
   13       19.805860   0.000000
   14       21.838129   0.000000
   15       24.512289   0.000000
   16       27.435052   0.000000
   17       29.016151   0.000000
   18       33.677897   0.000000
   19       37.313693   0.000000
   20       38.822782   0.000000
   21       42.248024   0.000000