       N       E                     dE             d eps       ncg     rms          rms(c)
DAV:   1     0.595965615458E+02    0.59597E+02   -0.24155E+03  9544   0.334E+02
DAV:   2    -0.142501479863E+02   -0.73847E+02   -0.63238E+02  7904   0.974E+01
DAV:   3    -0.180595766940E+02   -0.38094E+01   -0.36572E+01  9616   0.230E+01
DAV:   4    -0.180717511624E+02   -0.12174E-01   -0.12169E-01  8800   0.134E+00
DAV:   5    -0.180717585963E+02   -0.74340E-05   -0.74333E-05  9360   0.324E-02    0.202E+01
DAV:   6    -0.155706334946E+02    0.25011E+01   -0.13182E+00 11304   0.210E+01    0.185E+00
DAV:   7    -0.154585441731E+02    0.11209E+00   -0.51638E-02  9552   0.302E+00    0.176E+00
DAV:   8    -0.154195458277E+02    0.38998E-01   -0.24617E-03 10528   0.307E-01    0.535E-01
DAV:   9    -0.154150386321E+02    0.45072E-02   -0.59179E-04 10368   0.135E-01    0.624E-02
DAV:  10    -0.154150393666E+02   -0.73446E-06   -0.16520E-05  8400   0.214E-02    0.299E-02
DAV:  11    -0.154150019407E+02    0.37426E-04   -0.40520E-07  8776   0.485E-03    0.283E-03
DAV:  12    -0.154150000202E+02    0.19205E-05   -0.92392E-08  6488   0.129E-03    0.123E-03
DAV:  13    -0.154150013523E+02   -0.13321E-05   -0.88774E-09  5024   0.439E-04    0.182E-04
DAV:  14    -0.154150014662E+02   -0.11390E-06   -0.27131E-10  4656   0.823E-05
   1 F= -.15415001E+02 E0= -.15415499E+02  d E =0.149266E-02
