 vasp.6.2.0 18Jan21 (build Mar 17 2021 09:06:54) complex                        
  
 executed on             LinuxIFC date 2021.09.09  11:58:51
 serial version


--------------------------------------------------------------------------------------------------------


 INCAR:
   ENCUT = 280.000000
   SIGMA = 0.200000
   EDIFF = 1.00e-06
   GGA = PE
   PREC = normal
   IBRION = 1
   ICHARG = 1
   ISIF = 2
   ISMEAR = 1
   KPAR = 1
   NBANDS = 40
   NSW = 0
   NCORE = 1
   LCHARG = .TRUE.

 POTCAR:    PAW_PBE Fe 06Sep2000                  
 POTCAR:    PAW_PBE Fe 06Sep2000                  
   SHA256 =  cd5a22d9368cc8b5cc476bea79732366149640da08ac9009b0e1b7fc627eea28 Fe/POTCAR             
   COPYR  = (c) Copyright 06Sep2000 Georg Kresse                                                    
   COPYR  = This file is part of the software VASP. Any use, copying, and all other rights are regul
   COPYR  = If you do not have a valid VASP license, you may not use, copy or distribute this file. 
   VRHFIN =Fe:  d7 s1                                                                               
   LEXCH  = PE                                                                                      
   EATOM  =   594.3153 eV,   43.6809 Ry                                                             
                                                                                                    
   TITEL  = PAW_PBE Fe 06Sep2000                                                                    
   LULTRA =        F    use ultrasoft PP ?                                                          
   IUNSCR =        1    unscreen: 0-lin 1-nonlin 2-no                                               
   RPACOR =    2.000    partial core radius                                                         
   POMASS =   55.847; ZVAL   =    8.000    mass and valenz                                          
   RCORE  =    2.300    outmost cutoff radius                                                       
   RWIGS  =    2.460; RWIGS  =    1.302    wigner-seitz radius (au A)                               
   ENMAX  =  267.882; ENMIN  =  200.911 eV                                                          
   RCLOC  =    1.701    cutoff for local pot                                                        
   LCOR   =        T    correct aug charges                                                         
   LPAW   =        T    paw PP                                                                      
   EAUG   =  511.368                                                                                
   DEXC   =    0.000                                                                                
   RMAX   =    2.356    core radius for proj-oper                                                   
   RAUG   =    1.300    factor for augmentation sphere                                              
   RDEP   =    2.442    radius for radial grids                                                     
   RDEPT  =    1.890    core radius for aug-charge                                                  
                                                                                                    
   Atomic configuration                                                                             
    9 entries                                                                                       
     n  l   j            E        occ.                                                              
     1  0  0.50     -6993.8440   2.0000                                                             
     2  0  0.50      -814.6047   2.0000                                                             
     2  1  1.50      -693.3689   6.0000                                                             
     3  0  0.50       -89.4732   2.0000                                                             
     3  1  1.50       -55.6373   6.0000                                                             
     3  2  2.50        -3.8151   7.0000                                                             
     4  0  0.50        -4.2551   1.0000                                                             
     4  1  1.50        -3.4015   0.0000                                                             
     4  3  2.50        -1.3606   0.0000                                                             
   Description                                                                                      
     l       E           TYP  RCUT    TYP  RCUT                                                     
     2     -3.8151135     23  2.300                                                                 
     2     -5.1756961     23  2.300                                                                 
     0     -4.2550963     23  2.300                                                                 
     0      7.2035603     23  2.300                                                                 
     1     -2.7211652     23  2.300                                                                 
     1     18.4316424     23  2.300                                                                 
  local pseudopotential read in
  partial core-charges read in
  partial kinetic energy density read in
  atomic valenz-charges read in
  non local Contribution for L=           2  read in
    real space projection operators read in
  non local Contribution for L=           2  read in
    real space projection operators read in
  non local Contribution for L=           0  read in
    real space projection operators read in
  non local Contribution for L=           0  read in
    real space projection operators read in
  non local Contribution for L=           1  read in
    real space projection operators read in
  non local Contribution for L=           1  read in
    real space projection operators read in
    PAW grid and wavefunctions read in
 
   number of l-projection  operators is LMAX  =           6
   number of lm-projection operators is LMMAX =          18
 
  PAW_PBE Fe 06Sep2000                  :
 energy of atom  1       EATOM= -594.3153
 kinetic energy error for atom=    0.0278 (will be added to EATOM!!)
 
 
 POSCAR: Fe
  positions in cartesian coordinates
  No initial velocities read in
 exchange correlation table for  LEXCH =        8
   RHO(1)=    0.500       N(1)  =     2000
   RHO(2)=  100.500       N(2)  =     4000
 


--------------------------------------------------------------------------------------------------------


 ion  position               nearest neighbor table
   1  0.000  0.000  0.000-   2 2.40   2 2.40   2 2.40   2 2.40   2 2.40   2 2.40
   2  0.333  0.667  0.500-   1 2.40   1 2.40   1 2.40   1 2.40   1 2.40   1 2.40
 
  LATTYP: Found a hexagonal cell.
 ALAT       =     2.2368000000
 C/A-ratio  =     1.8124463519
  
  Lattice vectors:
  
 A1 = (   2.2368000000,   0.0000000000,   0.0000000000)
 A2 = (  -1.1184000000,   1.9371256232,   0.0000000000)
 A3 = (   0.0000000000,   0.0000000000,   4.0540800000)


Analysis of symmetry for initial positions (statically):
=====================================================================
 Subroutine PRICEL returns:
 Original cell was already a primitive cell.
 

 Routine SETGRP: Setting up the symmetry group for a 
 hexagonal supercell.


 Subroutine GETGRP returns: Found 24 space group operations
 (whereof 12 operations were pure point group operations)
 out of a pool of 24 trial point group operations.


The static configuration has the point symmetry D_3h.
 The point group associated with its full space group is D_6h.


Analysis of symmetry for dynamics (positions and initial velocities):
=====================================================================
 Subroutine PRICEL returns:
 Original cell was already a primitive cell.
 

 Routine SETGRP: Setting up the symmetry group for a 
 hexagonal supercell.


 Subroutine GETGRP returns: Found 24 space group operations
 (whereof 12 operations were pure point group operations)
 out of a pool of 24 trial point group operations.


The dynamic configuration has the point symmetry D_3h.
 The point group associated with its full space group is D_6h.


 Subroutine INISYM returns: Found 24 space group operations
 (whereof 12 operations are pure point group operations),
 and found     1 'primitive' translations


----------------------------------------------------------------------------------------

                                     Primitive cell                                     

  volume of cell :      17.5662

  direct lattice vectors                    reciprocal lattice vectors
     2.236800000  0.000000000  0.000000000     0.447067239  0.258114391  0.000000000
    -1.118400000  1.937125623  0.000000000     0.000000000  0.516228781  0.000000000
     0.000000000  0.000000000  4.054080000     0.000000000  0.000000000  0.246665088

  length of vectors
     2.236800000  2.236800000  4.054080000     0.516228781  0.516228781  0.246665088

  position of ions in fractional coordinates (direct lattice)
     0.000000000  0.000000000  0.000000000
     0.333333333  0.666666667  0.500000000

  ion indices of the primitive-cell ions
   primitive index   ion index
                 1           1
                 2           2

----------------------------------------------------------------------------------------

 
 
 KPOINTS: KPOINTS created by Atomic Simulation Env

Automatic generation of k-mesh.
 Grid dimensions read from file:
 generate k-points for:   11   11   11

 Generating k-lattice:

  Cartesian coordinates                     Fractional coordinates (reciprocal lattice)
     0.040642476  0.023464945  0.000000000     0.090909091  0.000000000  0.000000000
     0.000000000  0.046929889  0.000000000     0.000000000  0.090909091  0.000000000
     0.000000000  0.000000000  0.022424099     0.000000000  0.000000000  0.090909091

  Length of vectors
     0.046929889  0.046929889  0.022424099

  Shift w.r.t. Gamma in fractional coordinates (k-lattice)
     0.000000000  0.000000000  0.000000000

 
 Subroutine IBZKPT returns following result:
 ===========================================
 
 Found     96 irreducible k-points:
 
 Following reciprocal coordinates:
            Coordinates               Weight
  0.000000  0.000000  0.000000      1.000000
  0.090909  0.000000  0.000000      6.000000
  0.181818  0.000000  0.000000      6.000000
  0.272727  0.000000  0.000000      6.000000
  0.363636  0.000000  0.000000      6.000000
  0.454545  0.000000  0.000000      6.000000
  0.090909  0.090909  0.000000      6.000000
  0.181818  0.090909  0.000000     12.000000
  0.272727  0.090909  0.000000     12.000000
  0.363636  0.090909  0.000000     12.000000
  0.454545  0.090909  0.000000      6.000000
  0.181818  0.181818  0.000000      6.000000
  0.272727  0.181818  0.000000     12.000000
  0.363636  0.181818  0.000000     12.000000
  0.272727  0.272727  0.000000      6.000000
  0.363636  0.272727  0.000000      6.000000
  0.000000  0.000000  0.090909      2.000000
  0.090909  0.000000  0.090909     12.000000
  0.181818  0.000000  0.090909     12.000000
  0.272727  0.000000  0.090909     12.000000
  0.363636  0.000000  0.090909     12.000000
  0.454545  0.000000  0.090909     12.000000
  0.090909  0.090909  0.090909     12.000000
  0.181818  0.090909  0.090909     24.000000
  0.272727  0.090909  0.090909     24.000000
  0.363636  0.090909  0.090909     24.000000
  0.454545  0.090909  0.090909     12.000000
  0.181818  0.181818  0.090909     12.000000
  0.272727  0.181818  0.090909     24.000000
  0.363636  0.181818  0.090909     24.000000
  0.272727  0.272727  0.090909     12.000000
  0.363636  0.272727  0.090909     12.000000
  0.000000  0.000000  0.181818      2.000000
  0.090909  0.000000  0.181818     12.000000
  0.181818  0.000000  0.181818     12.000000
  0.272727  0.000000  0.181818     12.000000
  0.363636  0.000000  0.181818     12.000000
  0.454545  0.000000  0.181818     12.000000
  0.090909  0.090909  0.181818     12.000000
  0.181818  0.090909  0.181818     24.000000
  0.272727  0.090909  0.181818     24.000000
  0.363636  0.090909  0.181818     24.000000
  0.454545  0.090909  0.181818     12.000000
  0.181818  0.181818  0.181818     12.000000
  0.272727  0.181818  0.181818     24.000000
  0.363636  0.181818  0.181818     24.000000
  0.272727  0.272727  0.181818     12.000000
  0.363636  0.272727  0.181818     12.000000
  0.000000  0.000000  0.272727      2.000000
  0.090909  0.000000  0.272727     12.000000
  0.181818  0.000000  0.272727     12.000000
  0.272727  0.000000  0.272727     12.000000
  0.363636  0.000000  0.272727     12.000000
  0.454545  0.000000  0.272727     12.000000
  0.090909  0.090909  0.272727     12.000000
  0.181818  0.090909  0.272727     24.000000
  0.272727  0.090909  0.272727     24.000000
  0.363636  0.090909  0.272727     24.000000
  0.454545  0.090909  0.272727     12.000000
  0.181818  0.181818  0.272727     12.000000
  0.272727  0.181818  0.272727     24.000000
  0.363636  0.181818  0.272727     24.000000
  0.272727  0.272727  0.272727     12.000000
  0.363636  0.272727  0.272727     12.000000
  0.000000  0.000000  0.363636      2.000000
  0.090909  0.000000  0.363636     12.000000
  0.181818  0.000000  0.363636     12.000000
  0.272727  0.000000  0.363636     12.000000
  0.363636  0.000000  0.363636     12.000000
  0.454545  0.000000  0.363636     12.000000
  0.090909  0.090909  0.363636     12.000000
  0.181818  0.090909  0.363636     24.000000
  0.272727  0.090909  0.363636     24.000000
  0.363636  0.090909  0.363636     24.000000
  0.454545  0.090909  0.363636     12.000000
  0.181818  0.181818  0.363636     12.000000
  0.272727  0.181818  0.363636     24.000000
  0.363636  0.181818  0.363636     24.000000
  0.272727  0.272727  0.363636     12.000000
  0.363636  0.272727  0.363636     12.000000
  0.000000  0.000000  0.454545      2.000000
  0.090909  0.000000  0.454545     12.000000
  0.181818  0.000000  0.454545     12.000000
  0.272727  0.000000  0.454545     12.000000
  0.363636  0.000000  0.454545     12.000000
  0.454545  0.000000  0.454545     12.000000
  0.090909  0.090909  0.454545     12.000000
  0.181818  0.090909  0.454545     24.000000
  0.272727  0.090909  0.454545     24.000000
  0.363636  0.090909  0.454545     24.000000
  0.454545  0.090909  0.454545     12.000000
  0.181818  0.181818  0.454545     12.000000
  0.272727  0.181818  0.454545     24.000000
  0.363636  0.181818  0.454545     24.000000
  0.272727  0.272727  0.454545     12.000000
  0.363636  0.272727  0.454545     12.000000
 
 Following cartesian coordinates:
            Coordinates               Weight
  0.000000  0.000000  0.000000      1.000000
  0.040642  0.023465  0.000000      6.000000
  0.081285  0.046930  0.000000      6.000000
  0.121927  0.070395  0.000000      6.000000
  0.162570  0.093860  0.000000      6.000000
  0.203212  0.117325  0.000000      6.000000
  0.040642  0.070395  0.000000      6.000000
  0.081285  0.093860  0.000000     12.000000
  0.121927  0.117325  0.000000     12.000000
  0.162570  0.140790  0.000000     12.000000
  0.203212  0.164255  0.000000      6.000000
  0.081285  0.140790  0.000000      6.000000
  0.121927  0.164255  0.000000     12.000000
  0.162570  0.187720  0.000000     12.000000
  0.121927  0.211185  0.000000      6.000000
  0.162570  0.234649  0.000000      6.000000
  0.000000  0.000000  0.022424      2.000000
  0.040642  0.023465  0.022424     12.000000
  0.081285  0.046930  0.022424     12.000000
  0.121927  0.070395  0.022424     12.000000
  0.162570  0.093860  0.022424     12.000000
  0.203212  0.117325  0.022424     12.000000
  0.040642  0.070395  0.022424     12.000000
  0.081285  0.093860  0.022424     24.000000
  0.121927  0.117325  0.022424     24.000000
  0.162570  0.140790  0.022424     24.000000
  0.203212  0.164255  0.022424     12.000000
  0.081285  0.140790  0.022424     12.000000
  0.121927  0.164255  0.022424     24.000000
  0.162570  0.187720  0.022424     24.000000
  0.121927  0.211185  0.022424     12.000000
  0.162570  0.234649  0.022424     12.000000
  0.000000  0.000000  0.044848      2.000000
  0.040642  0.023465  0.044848     12.000000
  0.081285  0.046930  0.044848     12.000000
  0.121927  0.070395  0.044848     12.000000
  0.162570  0.093860  0.044848     12.000000
  0.203212  0.117325  0.044848     12.000000
  0.040642  0.070395  0.044848     12.000000
  0.081285  0.093860  0.044848     24.000000
  0.121927  0.117325  0.044848     24.000000
  0.162570  0.140790  0.044848     24.000000
  0.203212  0.164255  0.044848     12.000000
  0.081285  0.140790  0.044848     12.000000
  0.121927  0.164255  0.044848     24.000000
  0.162570  0.187720  0.044848     24.000000
  0.121927  0.211185  0.044848     12.000000
  0.162570  0.234649  0.044848     12.000000
  0.000000  0.000000  0.067272      2.000000
  0.040642  0.023465  0.067272     12.000000
  0.081285  0.046930  0.067272     12.000000
  0.121927  0.070395  0.067272     12.000000
  0.162570  0.093860  0.067272     12.000000
  0.203212  0.117325  0.067272     12.000000
  0.040642  0.070395  0.067272     12.000000
  0.081285  0.093860  0.067272     24.000000
  0.121927  0.117325  0.067272     24.000000
  0.162570  0.140790  0.067272     24.000000
  0.203212  0.164255  0.067272     12.000000
  0.081285  0.140790  0.067272     12.000000
  0.121927  0.164255  0.067272     24.000000
  0.162570  0.187720  0.067272     24.000000
  0.121927  0.211185  0.067272     12.000000
  0.162570  0.234649  0.067272     12.000000
  0.000000  0.000000  0.089696      2.000000
  0.040642  0.023465  0.089696     12.000000
  0.081285  0.046930  0.089696     12.000000
  0.121927  0.070395  0.089696     12.000000
  0.162570  0.093860  0.089696     12.000000
  0.203212  0.117325  0.089696     12.000000
  0.040642  0.070395  0.089696     12.000000
  0.081285  0.093860  0.089696     24.000000
  0.121927  0.117325  0.089696     24.000000
  0.162570  0.140790  0.089696     24.000000
  0.203212  0.164255  0.089696     12.000000
  0.081285  0.140790  0.089696     12.000000
  0.121927  0.164255  0.089696     24.000000
  0.162570  0.187720  0.089696     24.000000
  0.121927  0.211185  0.089696     12.000000
  0.162570  0.234649  0.089696     12.000000
  0.000000  0.000000  0.112120      2.000000
  0.040642  0.023465  0.112120     12.000000
  0.081285  0.046930  0.112120     12.000000
  0.121927  0.070395  0.112120     12.000000
  0.162570  0.093860  0.112120     12.000000
  0.203212  0.117325  0.112120     12.000000
  0.040642  0.070395  0.112120     12.000000
  0.081285  0.093860  0.112120     24.000000
  0.121927  0.117325  0.112120     24.000000
  0.162570  0.140790  0.112120     24.000000
  0.203212  0.164255  0.112120     12.000000
  0.081285  0.140790  0.112120     12.000000
  0.121927  0.164255  0.112120     24.000000
  0.162570  0.187720  0.112120     24.000000
  0.121927  0.211185  0.112120     12.000000
  0.162570  0.234649  0.112120     12.000000
 


--------------------------------------------------------------------------------------------------------




 Dimension of arrays:
   k-points           NKPTS =     96   k-points in BZ     NKDIM =     96   number of bands    NBANDS=     40
   number of dos      NEDOS =    301   number of ions     NIONS =      2
   non local maximal  LDIM  =      6   non local SUM 2l+1 LMDIM =     18
   total plane-waves  NPLWV =   1800
   max r-space proj   IRMAX =      1   max aug-charges    IRDMAX=   3849
   dimension x,y,z NGX =    10 NGY =   10 NGZ =   18
   dimension x,y,z NGXF=    20 NGYF=   20 NGZF=   36
   support grid    NGXF=    20 NGYF=   20 NGZF=   36
   ions per type =               2
   NGX,Y,Z   is equivalent  to a cutoff of   7.43,  7.43,  7.38 a.u.
   NGXF,Y,Z  is equivalent  to a cutoff of  14.86, 14.86, 14.76 a.u.

 SYSTEM =  unknown system                          
 POSCAR =  Fe                                      

 Startparameter for this run:
   NWRITE =      2    write-flag & timer
   PREC   = normal    normal or accurate (medium, high low for compatibility)
   ISTART =      0    job   : 0-new  1-cont  2-samecut
   ICHARG =      1    charge: 1-file 2-atom 10-const
   ISPIN  =      1    spin polarized calculation?
   LNONCOLLINEAR =      F non collinear calculations
   LSORBIT =      F    spin-orbit coupling
   INIWAV =      1    electr: 0-lowe 1-rand  2-diag
   LASPH  =      F    aspherical Exc in radial PAW
   METAGGA=      F    non-selfconsistent MetaGGA calc.

 Electronic Relaxation 1
   ENCUT  =  280.0 eV  20.58 Ry    4.54 a.u.   3.05  3.05  5.53*2*pi/ulx,y,z
   ENINI  =  280.0     initial cutoff
   ENAUG  =  511.4 eV  augmentation charge cutoff
   NELM   =     60;   NELMIN=  2; NELMDL= -5     # of ELM steps 
   EDIFF  = 0.1E-05   stopping-criterion for ELM
   LREAL  =      F    real-space projection
   NLSPLINE    = F    spline interpolate recip. space projectors
   LCOMPAT=      F    compatible to vasp.4.4
   GGA_COMPAT  = T    GGA compatible to vasp.4.4-vasp.4.6
   LMAXPAW     = -100 max onsite density
   LMAXMIX     =    2 max onsite mixed and CHGCAR
   VOSKOWN=      0    Vosko Wilk Nusair interpolation
   ROPT   =    0.00000
 Ionic relaxation
   EDIFFG = 0.1E-04   stopping-criterion for IOM
   NSW    =      0    number of steps for IOM
   NBLOCK =      1;   KBLOCK =      1    inner block; outer block 
   IBRION =     -1    ionic relax: 0-MD 1-quasi-New 2-CG
   NFREE  =      0    steps in history (QN), initial steepest desc. (CG)
   ISIF   =      2    stress and relaxation
   IWAVPR =      0    prediction:  0-non 1-charg 2-wave 3-comb
   ISYM   =      2    0-nonsym 1-usesym 2-fastsym
   LCORR  =      T    Harris-Foulkes like correction to forces

   POTIM  = 0.5000    time-step for ionic-motion
   TEIN   =    0.0    initial temperature
   TEBEG  =    0.0;   TEEND  =   0.0 temperature during run
   SMASS  =  -3.00    Nose mass-parameter (am)
   estimated Nose-frequenzy (Omega)   =  0.10E-29 period in steps = 0.13E+47 mass=  -0.114E-27a.u.
   SCALEE = 1.0000    scale energy and forces
   NPACO  =    256;   APACO  = 16.0  distance and # of slots for P.C.
   PSTRESS=    0.0 pullay stress

  Mass of Ions in am
   POMASS =  55.85
  Ionic Valenz
   ZVAL   =   8.00
  Atomic Wigner-Seitz radii
   RWIGS  =  -1.00
  virtual crystal weights 
   VCA    =   1.00
   NELECT =      16.0000    total number of electrons
   NUPDOWN=      -1.0000    fix difference up-down

 DOS related values:
   EMIN   =  10.00;   EMAX   =-10.00  energy-range for DOS
   EFERMI =   0.00
   ISMEAR =     1;   SIGMA  =   0.20  broadening in eV -4-tet -1-fermi 0-gaus

 Electronic relaxation 2 (details)
   IALGO  =     38    algorithm
   LDIAG  =      T    sub-space diagonalisation (order eigenvalues)
   LSUBROT=      F    optimize rotation matrix (better conditioning)
   TURBO    =      0    0=normal 1=particle mesh
   IRESTART =      0    0=no restart 2=restart with 2 vectors
   NREBOOT  =      0    no. of reboots
   NMIN     =      0    reboot dimension
   EREF     =   0.00    reference energy to select bands
   IMIX   =      4    mixing-type and parameters
     AMIX     =   0.40;   BMIX     =  1.00
     AMIX_MAG =   1.60;   BMIX_MAG =  1.00
     AMIN     =   0.10
     WC   =   100.;   INIMIX=   1;  MIXPRE=   1;  MAXMIX= -45

 Intra band minimization:
   WEIMIN = 0.0000     energy-eigenvalue tresh-hold
   EBREAK =  0.62E-08  absolut break condition
   DEPER  =   0.30     relativ break condition  

   TIME   =   0.40     timestep for ELM

  volume/ion in A,a.u.               =       8.78        59.27
  Fermi-wavevector in a.u.,A,eV,Ry     =   1.586923  2.998849 34.263868  2.518323
  Thomas-Fermi vector in A             =   2.686159
 
 Write flags
   LWAVE        =      T    write WAVECAR
   LDOWNSAMPLE  =      F    k-point downsampling of WAVECAR
   LCHARG       =      T    write CHGCAR
   LVTOT        =      F    write LOCPOT, total local potential
   LVHAR        =      F    write LOCPOT, Hartree potential only
   LELF         =      F    write electronic localiz. function (ELF)
   LORBIT       =      0    0 simple, 1 ext, 2 COOP (PROOUT), +10 PAW based schemes


 Dipole corrections
   LMONO  =      F    monopole corrections only (constant potential shift)
   LDIPOL =      F    correct potential (dipole corrections)
   IDIPOL =      0    1-x, 2-y, 3-z, 4-all directions 
   EPSILON=  1.0000000 bulk dielectric constant

 Exchange correlation treatment:
   GGA     =    PE    GGA type
   LEXCH   =     8    internal setting for exchange type
   VOSKOWN=      0    Vosko Wilk Nusair interpolation
   LHFCALC =     F    Hartree Fock is set to
   LHFONE  =     F    Hartree Fock one center treatment
   AEXX    =    0.0000 exact exchange contribution

 Linear response parameters
   LEPSILON=     F    determine dielectric tensor
   LRPA    =     F    only Hartree local field effects (RPA)
   LNABLA  =     F    use nabla operator in PAW spheres
   LVEL    =     F    velocity operator in full k-point grid
   LINTERFAST=   F  fast interpolation
   KINTER  =     0    interpolate to denser k-point grid
   CSHIFT  =0.1000    complex shift for real part using Kramers Kronig
   OMEGAMAX=  -1.0    maximum frequency
   DEG_THRESHOLD= 0.2000000E-02 threshold for treating states as degnerate
   RTIME   =   -0.100 relaxation time in fs
  (WPLASMAI=    0.000 imaginary part of plasma frequency in eV, 0.658/RTIME)
   DFIELD  = 0.0000000 0.0000000 0.0000000 field for delta impulse in time
 
 Orbital magnetization related:
   ORBITALMAG=     F  switch on orbital magnetization
   LCHIMAG   =     F  perturbation theory with respect to B field
   DQ        =  0.001000  dq finite difference perturbation B field
   LLRAUG    =     F  two centre corrections for induced B field



--------------------------------------------------------------------------------------------------------


 Static calculation
 charge density and potential will be updated during run
 non-spin polarized calculation
 Variant of blocked Davidson
 Davidson routine will perform the subspace rotation
 perform sub-space diagonalisation
    after iterative eigenvector-optimisation
 modified Broyden-mixing scheme, WC =      100.0
 initial mixing is a Kerker type mixing with AMIX =  0.4000 and BMIX =      1.0000
 Hartree-type preconditioning will be used
 using additional bands           32
 reciprocal scheme for non local part
 use partial core corrections
 calculate Harris-corrections to forces 
   (improved forces if not selfconsistent)
 use gradient corrections 
 use of overlap-Matrix (Vanderbilt PP)
 Methfessel and Paxton  Order N= 1 SIGMA  =   0.20


--------------------------------------------------------------------------------------------------------


  energy-cutoff  :      280.00
  volume of cell :       17.57
      direct lattice vectors                 reciprocal lattice vectors
     2.236800000  0.000000000  0.000000000     0.447067239  0.258114391  0.000000000
    -1.118400000  1.937125623  0.000000000     0.000000000  0.516228781  0.000000000
     0.000000000  0.000000000  4.054080000     0.000000000  0.000000000  0.246665088

  length of vectors
     2.236800000  2.236800000  4.054080000     0.516228781  0.516228781  0.246665088


 
 k-points in units of 2pi/SCALE and weight: KPOINTS created by Atomic Simulation Env
   0.00000000  0.00000000  0.00000000       0.001
   0.04064248  0.02346494  0.00000000       0.005
   0.08128495  0.04692989  0.00000000       0.005
   0.12192743  0.07039483  0.00000000       0.005
   0.16256991  0.09385978  0.00000000       0.005
   0.20321238  0.11732472  0.00000000       0.005
   0.04064248  0.07039483  0.00000000       0.005
   0.08128495  0.09385978  0.00000000       0.009
   0.12192743  0.11732472  0.00000000       0.009
   0.16256991  0.14078967  0.00000000       0.009
   0.20321238  0.16425461  0.00000000       0.005
   0.08128495  0.14078967  0.00000000       0.005
   0.12192743  0.16425461  0.00000000       0.009
   0.16256991  0.18771956  0.00000000       0.009
   0.12192743  0.21118450  0.00000000       0.005
   0.16256991  0.23464945  0.00000000       0.005
   0.00000000  0.00000000  0.02242410       0.002
   0.04064248  0.02346494  0.02242410       0.009
   0.08128495  0.04692989  0.02242410       0.009
   0.12192743  0.07039483  0.02242410       0.009
   0.16256991  0.09385978  0.02242410       0.009
   0.20321238  0.11732472  0.02242410       0.009
   0.04064248  0.07039483  0.02242410       0.009
   0.08128495  0.09385978  0.02242410       0.018
   0.12192743  0.11732472  0.02242410       0.018
   0.16256991  0.14078967  0.02242410       0.018
   0.20321238  0.16425461  0.02242410       0.009
   0.08128495  0.14078967  0.02242410       0.009
   0.12192743  0.16425461  0.02242410       0.018
   0.16256991  0.18771956  0.02242410       0.018
   0.12192743  0.21118450  0.02242410       0.009
   0.16256991  0.23464945  0.02242410       0.009
   0.00000000  0.00000000  0.04484820       0.002
   0.04064248  0.02346494  0.04484820       0.009
   0.08128495  0.04692989  0.04484820       0.009
   0.12192743  0.07039483  0.04484820       0.009
   0.16256991  0.09385978  0.04484820       0.009
   0.20321238  0.11732472  0.04484820       0.009
   0.04064248  0.07039483  0.04484820       0.009
   0.08128495  0.09385978  0.04484820       0.018
   0.12192743  0.11732472  0.04484820       0.018
   0.16256991  0.14078967  0.04484820       0.018
   0.20321238  0.16425461  0.04484820       0.009
   0.08128495  0.14078967  0.04484820       0.009
   0.12192743  0.16425461  0.04484820       0.018
   0.16256991  0.18771956  0.04484820       0.018
   0.12192743  0.21118450  0.04484820       0.009
   0.16256991  0.23464945  0.04484820       0.009
   0.00000000  0.00000000  0.06727230       0.002
   0.04064248  0.02346494  0.06727230       0.009
   0.08128495  0.04692989  0.06727230       0.009
   0.12192743  0.07039483  0.06727230       0.009
   0.16256991  0.09385978  0.06727230       0.009
   0.20321238  0.11732472  0.06727230       0.009
   0.04064248  0.07039483  0.06727230       0.009
   0.08128495  0.09385978  0.06727230       0.018
   0.12192743  0.11732472  0.06727230       0.018
   0.16256991  0.14078967  0.06727230       0.018
   0.20321238  0.16425461  0.06727230       0.009
   0.08128495  0.14078967  0.06727230       0.009
   0.12192743  0.16425461  0.06727230       0.018
   0.16256991  0.18771956  0.06727230       0.018
   0.12192743  0.21118450  0.06727230       0.009
   0.16256991  0.23464945  0.06727230       0.009
   0.00000000  0.00000000  0.08969640       0.002
   0.04064248  0.02346494  0.08969640       0.009
   0.08128495  0.04692989  0.08969640       0.009
   0.12192743  0.07039483  0.08969640       0.009
   0.16256991  0.09385978  0.08969640       0.009
   0.20321238  0.11732472  0.08969640       0.009
   0.04064248  0.07039483  0.08969640       0.009
   0.08128495  0.09385978  0.08969640       0.018
   0.12192743  0.11732472  0.08969640       0.018
   0.16256991  0.14078967  0.08969640       0.018
   0.20321238  0.16425461  0.08969640       0.009
   0.08128495  0.14078967  0.08969640       0.009
   0.12192743  0.16425461  0.08969640       0.018
   0.16256991  0.18771956  0.08969640       0.018
   0.12192743  0.21118450  0.08969640       0.009
   0.16256991  0.23464945  0.08969640       0.009
   0.00000000  0.00000000  0.11212049       0.002
   0.04064248  0.02346494  0.11212049       0.009
   0.08128495  0.04692989  0.11212049       0.009
   0.12192743  0.07039483  0.11212049       0.009
   0.16256991  0.09385978  0.11212049       0.009
   0.20321238  0.11732472  0.11212049       0.009
   0.04064248  0.07039483  0.11212049       0.009
   0.08128495  0.09385978  0.11212049       0.018
   0.12192743  0.11732472  0.11212049       0.018
   0.16256991  0.14078967  0.11212049       0.018
   0.20321238  0.16425461  0.11212049       0.009
   0.08128495  0.14078967  0.11212049       0.009
   0.12192743  0.16425461  0.11212049       0.018
   0.16256991  0.18771956  0.11212049       0.018
   0.12192743  0.21118450  0.11212049       0.009
   0.16256991  0.23464945  0.11212049       0.009
 
 k-points in reciprocal lattice and weights: KPOINTS created by Atomic Simulation Env
   0.00000000  0.00000000  0.00000000       0.001
   0.09090909  0.00000000  0.00000000       0.005
   0.18181818  0.00000000  0.00000000       0.005
   0.27272727  0.00000000  0.00000000       0.005
   0.36363636  0.00000000  0.00000000       0.005
   0.45454545  0.00000000  0.00000000       0.005
   0.09090909  0.09090909  0.00000000       0.005
   0.18181818  0.09090909  0.00000000       0.009
   0.27272727  0.09090909  0.00000000       0.009
   0.36363636  0.09090909  0.00000000       0.009
   0.45454545  0.09090909  0.00000000       0.005
   0.18181818  0.18181818  0.00000000       0.005
   0.27272727  0.18181818  0.00000000       0.009
   0.36363636  0.18181818  0.00000000       0.009
   0.27272727  0.27272727  0.00000000       0.005
   0.36363636  0.27272727  0.00000000       0.005
   0.00000000  0.00000000  0.09090909       0.002
   0.09090909  0.00000000  0.09090909       0.009
   0.18181818  0.00000000  0.09090909       0.009
   0.27272727  0.00000000  0.09090909       0.009
   0.36363636  0.00000000  0.09090909       0.009
   0.45454545  0.00000000  0.09090909       0.009
   0.09090909  0.09090909  0.09090909       0.009
   0.18181818  0.09090909  0.09090909       0.018
   0.27272727  0.09090909  0.09090909       0.018
   0.36363636  0.09090909  0.09090909       0.018
   0.45454545  0.09090909  0.09090909       0.009
   0.18181818  0.18181818  0.09090909       0.009
   0.27272727  0.18181818  0.09090909       0.018
   0.36363636  0.18181818  0.09090909       0.018
   0.27272727  0.27272727  0.09090909       0.009
   0.36363636  0.27272727  0.09090909       0.009
   0.00000000  0.00000000  0.18181818       0.002
   0.09090909  0.00000000  0.18181818       0.009
   0.18181818  0.00000000  0.18181818       0.009
   0.27272727  0.00000000  0.18181818       0.009
   0.36363636  0.00000000  0.18181818       0.009
   0.45454545  0.00000000  0.18181818       0.009
   0.09090909  0.09090909  0.18181818       0.009
   0.18181818  0.09090909  0.18181818       0.018
   0.27272727  0.09090909  0.18181818       0.018
   0.36363636  0.09090909  0.18181818       0.018
   0.45454545  0.09090909  0.18181818       0.009
   0.18181818  0.18181818  0.18181818       0.009
   0.27272727  0.18181818  0.18181818       0.018
   0.36363636  0.18181818  0.18181818       0.018
   0.27272727  0.27272727  0.18181818       0.009
   0.36363636  0.27272727  0.18181818       0.009
   0.00000000  0.00000000  0.27272727       0.002
   0.09090909  0.00000000  0.27272727       0.009
   0.18181818  0.00000000  0.27272727       0.009
   0.27272727  0.00000000  0.27272727       0.009
   0.36363636  0.00000000  0.27272727       0.009
   0.45454545  0.00000000  0.27272727       0.009
   0.09090909  0.09090909  0.27272727       0.009
   0.18181818  0.09090909  0.27272727       0.018
   0.27272727  0.09090909  0.27272727       0.018
   0.36363636  0.09090909  0.27272727       0.018
   0.45454545  0.09090909  0.27272727       0.009
   0.18181818  0.18181818  0.27272727       0.009
   0.27272727  0.18181818  0.27272727       0.018
   0.36363636  0.18181818  0.27272727       0.018
   0.27272727  0.27272727  0.27272727       0.009
   0.36363636  0.27272727  0.27272727       0.009
   0.00000000  0.00000000  0.36363636       0.002
   0.09090909  0.00000000  0.36363636       0.009
   0.18181818  0.00000000  0.36363636       0.009
   0.27272727  0.00000000  0.36363636       0.009
   0.36363636  0.00000000  0.36363636       0.009
   0.45454545  0.00000000  0.36363636       0.009
   0.09090909  0.09090909  0.36363636       0.009
   0.18181818  0.09090909  0.36363636       0.018
   0.27272727  0.09090909  0.36363636       0.018
   0.36363636  0.09090909  0.36363636       0.018
   0.45454545  0.09090909  0.36363636       0.009
   0.18181818  0.18181818  0.36363636       0.009
   0.27272727  0.18181818  0.36363636       0.018
   0.36363636  0.18181818  0.36363636       0.018
   0.27272727  0.27272727  0.36363636       0.009
   0.36363636  0.27272727  0.36363636       0.009
   0.00000000  0.00000000  0.45454545       0.002
   0.09090909  0.00000000  0.45454545       0.009
   0.18181818  0.00000000  0.45454545       0.009
   0.27272727  0.00000000  0.45454545       0.009
   0.36363636  0.00000000  0.45454545       0.009
   0.45454545  0.00000000  0.45454545       0.009
   0.09090909  0.09090909  0.45454545       0.009
   0.18181818  0.09090909  0.45454545       0.018
   0.27272727  0.09090909  0.45454545       0.018
   0.36363636  0.09090909  0.45454545       0.018
   0.45454545  0.09090909  0.45454545       0.009
   0.18181818  0.18181818  0.45454545       0.009
   0.27272727  0.18181818  0.45454545       0.018
   0.36363636  0.18181818  0.45454545       0.018
   0.27272727  0.27272727  0.45454545       0.009
   0.36363636  0.27272727  0.45454545       0.009
 
 position of ions in fractional coordinates (direct lattice) 
   0.00000000  0.00000000  0.00000000
   0.33333333  0.66666667  0.50000000
 
 position of ions in cartesian coordinates  (Angst):
   0.00000000  0.00000000  0.00000000
   0.00000000  1.29141708  2.02704000
 


--------------------------------------------------------------------------------------------------------


 k-point   1 :   0.0000 0.0000 0.0000  plane waves:     173
 k-point   2 :   0.0909 0.0000 0.0000  plane waves:     187
 k-point   3 :   0.1818 0.0000 0.0000  plane waves:     183
 k-point   4 :   0.2727 0.0000 0.0000  plane waves:     185
 k-point   5 :   0.3636 0.0000 0.0000  plane waves:     186
 k-point   6 :   0.4545 0.0000 0.0000  plane waves:     192
 k-point   7 :   0.0909 0.0909 0.0000  plane waves:     185
 k-point   8 :   0.1818 0.0909 0.0000  plane waves:     189
 k-point   9 :   0.2727 0.0909 0.0000  plane waves:     182
 k-point  10 :   0.3636 0.0909 0.0000  plane waves:     187
 k-point  11 :   0.4545 0.0909 0.0000  plane waves:     187
 k-point  12 :   0.1818 0.1818 0.0000  plane waves:     189
 k-point  13 :   0.2727 0.1818 0.0000  plane waves:     190
 k-point  14 :   0.3636 0.1818 0.0000  plane waves:     194
 k-point  15 :   0.2727 0.2727 0.0000  plane waves:     195
 k-point  16 :   0.3636 0.2727 0.0000  plane waves:     191
 k-point  17 :   0.0000 0.0000 0.0909  plane waves:     173
 k-point  18 :   0.0909 0.0000 0.0909  plane waves:     182
 k-point  19 :   0.1818 0.0000 0.0909  plane waves:     183
 k-point  20 :   0.2727 0.0000 0.0909  plane waves:     187
 k-point  21 :   0.3636 0.0000 0.0909  plane waves:     188
 k-point  22 :   0.4545 0.0000 0.0909  plane waves:     187
 k-point  23 :   0.0909 0.0909 0.0909  plane waves:     185
 k-point  24 :   0.1818 0.0909 0.0909  plane waves:     187
 k-point  25 :   0.2727 0.0909 0.0909  plane waves:     185
 k-point  26 :   0.3636 0.0909 0.0909  plane waves:     189
 k-point  27 :   0.4545 0.0909 0.0909  plane waves:     187
 k-point  28 :   0.1818 0.1818 0.0909  plane waves:     185
 k-point  29 :   0.2727 0.1818 0.0909  plane waves:     189
 k-point  30 :   0.3636 0.1818 0.0909  plane waves:     192
 k-point  31 :   0.2727 0.2727 0.0909  plane waves:     194
 k-point  32 :   0.3636 0.2727 0.0909  plane waves:     194
 k-point  33 :   0.0000 0.0000 0.1818  plane waves:     161
 k-point  34 :   0.0909 0.0000 0.1818  plane waves:     179
 k-point  35 :   0.1818 0.0000 0.1818  plane waves:     182
 k-point  36 :   0.2727 0.0000 0.1818  plane waves:     189
 k-point  37 :   0.3636 0.0000 0.1818  plane waves:     188
 k-point  38 :   0.4545 0.0000 0.1818  plane waves:     191
 k-point  39 :   0.0909 0.0909 0.1818  plane waves:     186
 k-point  40 :   0.1818 0.0909 0.1818  plane waves:     186
 k-point  41 :   0.2727 0.0909 0.1818  plane waves:     185
 k-point  42 :   0.3636 0.0909 0.1818  plane waves:     187
 k-point  43 :   0.4545 0.0909 0.1818  plane waves:     190
 k-point  44 :   0.1818 0.1818 0.1818  plane waves:     187
 k-point  45 :   0.2727 0.1818 0.1818  plane waves:     188
 k-point  46 :   0.3636 0.1818 0.1818  plane waves:     189
 k-point  47 :   0.2727 0.2727 0.1818  plane waves:     193
 k-point  48 :   0.3636 0.2727 0.1818  plane waves:     194
 k-point  49 :   0.0000 0.0000 0.2727  plane waves:     161
 k-point  50 :   0.0909 0.0000 0.2727  plane waves:     176
 k-point  51 :   0.1818 0.0000 0.2727  plane waves:     183
 k-point  52 :   0.2727 0.0000 0.2727  plane waves:     184
 k-point  53 :   0.3636 0.0000 0.2727  plane waves:     187
 k-point  54 :   0.4545 0.0000 0.2727  plane waves:     189
 k-point  55 :   0.0909 0.0909 0.2727  plane waves:     182
 k-point  56 :   0.1818 0.0909 0.2727  plane waves:     184
 k-point  57 :   0.2727 0.0909 0.2727  plane waves:     184
 k-point  58 :   0.3636 0.0909 0.2727  plane waves:     189
 k-point  59 :   0.4545 0.0909 0.2727  plane waves:     188
 k-point  60 :   0.1818 0.1818 0.2727  plane waves:     189
 k-point  61 :   0.2727 0.1818 0.2727  plane waves:     190
 k-point  62 :   0.3636 0.1818 0.2727  plane waves:     190
 k-point  63 :   0.2727 0.2727 0.2727  plane waves:     191
 k-point  64 :   0.3636 0.2727 0.2727  plane waves:     196
 k-point  65 :   0.0000 0.0000 0.3636  plane waves:     161
 k-point  66 :   0.0909 0.0000 0.3636  plane waves:     176
 k-point  67 :   0.1818 0.0000 0.3636  plane waves:     185
 k-point  68 :   0.2727 0.0000 0.3636  plane waves:     183
 k-point  69 :   0.3636 0.0000 0.3636  plane waves:     190
 k-point  70 :   0.4545 0.0000 0.3636  plane waves:     191
 k-point  71 :   0.0909 0.0909 0.3636  plane waves:     180
 k-point  72 :   0.1818 0.0909 0.3636  plane waves:     184
 k-point  73 :   0.2727 0.0909 0.3636  plane waves:     186
 k-point  74 :   0.3636 0.0909 0.3636  plane waves:     189
 k-point  75 :   0.4545 0.0909 0.3636  plane waves:     190
 k-point  76 :   0.1818 0.1818 0.3636  plane waves:     188
 k-point  77 :   0.2727 0.1818 0.3636  plane waves:     187
 k-point  78 :   0.3636 0.1818 0.3636  plane waves:     190
 k-point  79 :   0.2727 0.2727 0.3636  plane waves:     193
 k-point  80 :   0.3636 0.2727 0.3636  plane waves:     194
 k-point  81 :   0.0000 0.0000 0.4545  plane waves:     167
 k-point  82 :   0.0909 0.0000 0.4545  plane waves:     175
 k-point  83 :   0.1818 0.0000 0.4545  plane waves:     181
 k-point  84 :   0.2727 0.0000 0.4545  plane waves:     185
 k-point  85 :   0.3636 0.0000 0.4545  plane waves:     186
 k-point  86 :   0.4545 0.0000 0.4545  plane waves:     190
 k-point  87 :   0.0909 0.0909 0.4545  plane waves:     181
 k-point  88 :   0.1818 0.0909 0.4545  plane waves:     186
 k-point  89 :   0.2727 0.0909 0.4545  plane waves:     186
 k-point  90 :   0.3636 0.0909 0.4545  plane waves:     187
 k-point  91 :   0.4545 0.0909 0.4545  plane waves:     190
 k-point  92 :   0.1818 0.1818 0.4545  plane waves:     188
 k-point  93 :   0.2727 0.1818 0.4545  plane waves:     186
 k-point  94 :   0.3636 0.1818 0.4545  plane waves:     187
 k-point  95 :   0.2727 0.2727 0.4545  plane waves:     192
 k-point  96 :   0.3636 0.2727 0.4545  plane waves:     189

 maximum number of plane-waves:       196
 maximum index in each direction: 
   IXMAX=    2   IYMAX=    3   IZMAX=    5
   IXMIN=   -3   IYMIN=   -3   IZMIN=   -5


 total amount of memory used by VASP MPI-rank0    47812. kBytes
=======================================================================

   base      :      30000. kBytes
   nonl-proj :       2715. kBytes
   grid      :        812. kBytes
   one-center:         31. kBytes
   wavefun   :      14254. kBytes
 
     INWAV:  cpu time    0.0000: real time    0.0000
 Broyden mixing: mesh for mixing (old mesh)
   NGX =  5   NGY =  5   NGZ = 11
  (NGX  = 20   NGY  = 20   NGZ  = 36)
  gives a total of    275 points

 initial charge density was supplied:
 charge density of overlapping atoms calculated
 number of electron      16.0000000 magnetization 
 keeping initial charge density in first step


--------------------------------------------------------------------------------------------------------


 Maximum index for augmentation-charges         3540 (set IRDMAX)


--------------------------------------------------------------------------------------------------------


 First call to EWALD:  gamma=   0.682
 Maximum number of real-space cells 4x 4x 2
 Maximum number of reciprocal cells 2x 2x 4

    FEWALD:  cpu time    0.0009: real time    0.0009


--------------------------------------- Iteration      1(   1)  ---------------------------------------


    POTLOK:  cpu time    0.0036: real time    0.0036
    SETDIJ:  cpu time    0.0022: real time    0.0022
     EDDAV:  cpu time    0.7872: real time    0.8079
       DOS:  cpu time    0.0056: real time    0.0056
    --------------------------------------------
      LOOP:  cpu time    0.7985: real time    0.8192

 eigenvalue-minimisations  :  9544
 total energy-change (2. order) : 0.5959656E+02  (-0.2415456E+03)
 number of electron      16.0000000 magnetization 
 augmentation part       16.0000000 magnetization 

 Free energy of the ion-electron system (eV)
  ---------------------------------------------------
  alpha Z        PSCENC =       157.37920898
  Ewald energy   TEWEN  =     -1287.90234133
  -Hartree energ DENC   =      -186.47954991
  -exchange      EXHF   =         0.00000000
  -V(xc)+E(xc)   XCENC  =         9.49478523
  PAW double counting   =      1109.69170683    -1125.09647265
  entropy T*S    EENTRO =         0.00214890
  eigenvalues    EBANDS =       193.93216739
  atomic energy  EATOM  =      1188.57490811
  Solvation  Ediel_sol  =         0.00000000
  ---------------------------------------------------
  free energy    TOTEN  =        59.59656155 eV

  energy without entropy =       59.59441265  energy(sigma->0) =       59.59584525


--------------------------------------------------------------------------------------------------------




--------------------------------------- Iteration      1(   2)  ---------------------------------------


     EDDAV:  cpu time    0.6666: real time    0.6666
       DOS:  cpu time    0.0059: real time    0.0059
    --------------------------------------------
      LOOP:  cpu time    0.6725: real time    0.6725

 eigenvalue-minimisations  :  7904
 total energy-change (2. order) :-0.7384671E+02  (-0.6323757E+02)
 number of electron      16.0000000 magnetization 
 augmentation part       16.0000000 magnetization 

 Free energy of the ion-electron system (eV)
  ---------------------------------------------------
  alpha Z        PSCENC =       157.37920898
  Ewald energy   TEWEN  =     -1287.90234133
  -Hartree energ DENC   =      -186.47954991
  -exchange      EXHF   =         0.00000000
  -V(xc)+E(xc)   XCENC  =         9.49478523
  PAW double counting   =      1109.69170683    -1125.09647265
  entropy T*S    EENTRO =         0.00253965
  eigenvalues    EBANDS =       120.08506710
  atomic energy  EATOM  =      1188.57490811
  Solvation  Ediel_sol  =         0.00000000
  ---------------------------------------------------
  free energy    TOTEN  =       -14.25014799 eV

  energy without entropy =      -14.25268764  energy(sigma->0) =      -14.25099454


--------------------------------------------------------------------------------------------------------




--------------------------------------- Iteration      1(   3)  ---------------------------------------


     EDDAV:  cpu time    0.7785: real time    0.7785
       DOS:  cpu time    0.0057: real time    0.0057
    --------------------------------------------
      LOOP:  cpu time    0.7842: real time    0.7842

 eigenvalue-minimisations  :  9616
 total energy-change (2. order) :-0.3809429E+01  (-0.3657203E+01)
 number of electron      16.0000000 magnetization 
 augmentation part       16.0000000 magnetization 

 Free energy of the ion-electron system (eV)
  ---------------------------------------------------
  alpha Z        PSCENC =       157.37920898
  Ewald energy   TEWEN  =     -1287.90234133
  -Hartree energ DENC   =      -186.47954991
  -exchange      EXHF   =         0.00000000
  -V(xc)+E(xc)   XCENC  =         9.49478523
  PAW double counting   =      1109.69170683    -1125.09647265
  entropy T*S    EENTRO =         0.00018095
  eigenvalues    EBANDS =       116.27799709
  atomic energy  EATOM  =      1188.57490811
  Solvation  Ediel_sol  =         0.00000000
  ---------------------------------------------------
  free energy    TOTEN  =       -18.05957669 eV

  energy without entropy =      -18.05975765  energy(sigma->0) =      -18.05963701


--------------------------------------------------------------------------------------------------------




--------------------------------------- Iteration      1(   4)  ---------------------------------------


     EDDAV:  cpu time    0.7151: real time    0.7152
       DOS:  cpu time    0.0064: real time    0.0064
    --------------------------------------------
      LOOP:  cpu time    0.7215: real time    0.7215

 eigenvalue-minimisations  :  8800
 total energy-change (2. order) :-0.1217447E-01  (-0.1216933E-01)
 number of electron      16.0000000 magnetization 
 augmentation part       16.0000000 magnetization 

 Free energy of the ion-electron system (eV)
  ---------------------------------------------------
  alpha Z        PSCENC =       157.37920898
  Ewald energy   TEWEN  =     -1287.90234133
  -Hartree energ DENC   =      -186.47954991
  -exchange      EXHF   =         0.00000000
  -V(xc)+E(xc)   XCENC  =         9.49478523
  PAW double counting   =      1109.69170683    -1125.09647265
  entropy T*S    EENTRO =         0.00016207
  eigenvalues    EBANDS =       116.26584151
  atomic energy  EATOM  =      1188.57490811
  Solvation  Ediel_sol  =         0.00000000
  ---------------------------------------------------
  free energy    TOTEN  =       -18.07175116 eV

  energy without entropy =      -18.07191323  energy(sigma->0) =      -18.07180519


--------------------------------------------------------------------------------------------------------




--------------------------------------- Iteration      1(   5)  ---------------------------------------


     EDDAV:  cpu time    0.7491: real time    0.7491
       DOS:  cpu time    0.0063: real time    0.0063
    CHARGE:  cpu time    0.0195: real time    0.0195
    MIXING:  cpu time    0.0002: real time    0.0002
    --------------------------------------------
      LOOP:  cpu time    0.7751: real time    0.7751

 eigenvalue-minimisations  :  9360
 total energy-change (2. order) :-0.7433972E-05  (-0.7433286E-05)
 number of electron      15.9999988 magnetization 
 augmentation part        7.2285970 magnetization 

 Broyden mixing:
  rms(total) = 0.20183E+01    rms(broyden)= 0.20183E+01
  rms(prec ) = 0.29716E+01
  weight for this iteration     100.00

 Free energy of the ion-electron system (eV)
  ---------------------------------------------------
  alpha Z        PSCENC =       157.37920898
  Ewald energy   TEWEN  =     -1287.90234133
  -Hartree energ DENC   =      -186.47954991
  -exchange      EXHF   =         0.00000000
  -V(xc)+E(xc)   XCENC  =         9.49478523
  PAW double counting   =      1109.69170683    -1125.09647265
  entropy T*S    EENTRO =         0.00016206
  eigenvalues    EBANDS =       116.26583408
  atomic energy  EATOM  =      1188.57490811
  Solvation  Ediel_sol  =         0.00000000
  ---------------------------------------------------
  free energy    TOTEN  =       -18.07175860 eV

  energy without entropy =      -18.07192066  energy(sigma->0) =      -18.07181262


--------------------------------------------------------------------------------------------------------




--------------------------------------- Iteration      1(   6)  ---------------------------------------


    POTLOK:  cpu time    0.0033: real time    0.0033
    SETDIJ:  cpu time    0.0022: real time    0.0022
     EDDAV:  cpu time    0.8929: real time    0.8930
       DOS:  cpu time    0.0064: real time    0.0064
    CHARGE:  cpu time    0.0206: real time    0.0206
    MIXING:  cpu time    0.0002: real time    0.0002
    --------------------------------------------
      LOOP:  cpu time    0.9257: real time    0.9258

 eigenvalue-minimisations  : 11304
 total energy-change (2. order) : 0.2501125E+01  (-0.1318210E+00)
 number of electron      15.9999987 magnetization 
 augmentation part        8.3173974 magnetization 

 Broyden mixing:
  rms(total) = 0.18485E+00    rms(broyden)= 0.18461E+00
  rms(prec ) = 0.20714E+00
  weight for this iteration     100.00

 eigenvalues of (default mixing * dielectric matrix)
  average eigenvalue GAMMA=   1.0551
  1.0551

 Free energy of the ion-electron system (eV)
  ---------------------------------------------------
  alpha Z        PSCENC =       157.37920898
  Ewald energy   TEWEN  =     -1287.90234133
  -Hartree energ DENC   =      -156.92136625
  -exchange      EXHF   =         0.00000000
  -V(xc)+E(xc)   XCENC  =         8.03963072
  PAW double counting   =      1352.66802608    -1365.31287408
  entropy T*S    EENTRO =         0.00160856
  eigenvalues    EBANDS =        87.90256571
  atomic energy  EATOM  =      1188.57490811
  Solvation  Ediel_sol  =         0.00000000
  ---------------------------------------------------
  free energy    TOTEN  =       -15.57063349 eV

  energy without entropy =      -15.57224205  energy(sigma->0) =      -15.57116968


--------------------------------------------------------------------------------------------------------




--------------------------------------- Iteration      1(   7)  ---------------------------------------


    POTLOK:  cpu time    0.0033: real time    0.0033
    SETDIJ:  cpu time    0.0022: real time    0.0022
     EDDAV:  cpu time    0.7655: real time    0.7655
       DOS:  cpu time    0.0065: real time    0.0065
    CHARGE:  cpu time    0.0194: real time    0.0194
    MIXING:  cpu time    0.0002: real time    0.0002
    --------------------------------------------
      LOOP:  cpu time    0.7971: real time    0.7972

 eigenvalue-minimisations  :  9552
 total energy-change (2. order) : 0.1120893E+00  (-0.5163818E-02)
 number of electron      15.9999987 magnetization 
 augmentation part        8.1811074 magnetization 

 Broyden mixing:
  rms(total) = 0.17610E+00    rms(broyden)= 0.17609E+00
  rms(prec ) = 0.23505E+00
  weight for this iteration     100.00

 eigenvalues of (default mixing * dielectric matrix)
  average eigenvalue GAMMA=   1.2700
  0.8520  1.6881

 Free energy of the ion-electron system (eV)
  ---------------------------------------------------
  alpha Z        PSCENC =       157.37920898
  Ewald energy   TEWEN  =     -1287.90234133
  -Hartree energ DENC   =      -157.57249955
  -exchange      EXHF   =         0.00000000
  -V(xc)+E(xc)   XCENC  =         8.09968766
  PAW double counting   =      1476.38766280    -1492.41583012
  entropy T*S    EENTRO =         0.00138721
  eigenvalues    EBANDS =        91.98927206
  atomic energy  EATOM  =      1188.57490811
  Solvation  Ediel_sol  =         0.00000000
  ---------------------------------------------------
  free energy    TOTEN  =       -15.45854417 eV

  energy without entropy =      -15.45993139  energy(sigma->0) =      -15.45900658


--------------------------------------------------------------------------------------------------------




--------------------------------------- Iteration      1(   8)  ---------------------------------------


    POTLOK:  cpu time    0.0034: real time    0.0034
    SETDIJ:  cpu time    0.0022: real time    0.0022
     EDDAV:  cpu time    0.8285: real time    0.8285
       DOS:  cpu time    0.0064: real time    0.0064
    CHARGE:  cpu time    0.0201: real time    0.0201
    MIXING:  cpu time    0.0002: real time    0.0002
    --------------------------------------------
      LOOP:  cpu time    0.8608: real time    0.8608

 eigenvalue-minimisations  : 10528
 total energy-change (2. order) : 0.3899835E-01  (-0.2461692E-03)
 number of electron      15.9999987 magnetization 
 augmentation part        8.2062454 magnetization 

 Broyden mixing:
  rms(total) = 0.53524E-01    rms(broyden)= 0.53514E-01
  rms(prec ) = 0.67898E-01
  weight for this iteration     100.00

 eigenvalues of (default mixing * dielectric matrix)
  average eigenvalue GAMMA=   1.5534
  2.7026  1.0914  0.8660

 Free energy of the ion-electron system (eV)
  ---------------------------------------------------
  alpha Z        PSCENC =       157.37920898
  Ewald energy   TEWEN  =     -1287.90234133
  -Hartree energ DENC   =      -154.86409239
  -exchange      EXHF   =         0.00000000
  -V(xc)+E(xc)   XCENC  =         7.98952132
  PAW double counting   =      1610.10258303    -1628.36948114
  entropy T*S    EENTRO =         0.00147925
  eigenvalues    EBANDS =        91.66866834
  atomic energy  EATOM  =      1188.57490811
  Solvation  Ediel_sol  =         0.00000000
  ---------------------------------------------------
  free energy    TOTEN  =       -15.41954583 eV

  energy without entropy =      -15.42102507  energy(sigma->0) =      -15.42003891


--------------------------------------------------------------------------------------------------------




--------------------------------------- Iteration      1(   9)  ---------------------------------------


    POTLOK:  cpu time    0.0034: real time    0.0034
    SETDIJ:  cpu time    0.0022: real time    0.0022
     EDDAV:  cpu time    0.8178: real time    0.8179
       DOS:  cpu time    0.0065: real time    0.0065
    CHARGE:  cpu time    0.0194: real time    0.0194
    MIXING:  cpu time    0.0002: real time    0.0002
    --------------------------------------------
      LOOP:  cpu time    0.8494: real time    0.8494

 eigenvalue-minimisations  : 10368
 total energy-change (2. order) : 0.4507196E-02  (-0.5917907E-04)
 number of electron      15.9999987 magnetization 
 augmentation part        8.2126455 magnetization 

 Broyden mixing:
  rms(total) = 0.62412E-02    rms(broyden)= 0.62301E-02
  rms(prec ) = 0.85151E-02
  weight for this iteration     100.00

 eigenvalues of (default mixing * dielectric matrix)
  average eigenvalue GAMMA=   1.5753
  2.7209  1.7358  0.8756  0.9689

 Free energy of the ion-electron system (eV)
  ---------------------------------------------------
  alpha Z        PSCENC =       157.37920898
  Ewald energy   TEWEN  =     -1287.90234133
  -Hartree energ DENC   =      -153.62145969
  -exchange      EXHF   =         0.00000000
  -V(xc)+E(xc)   XCENC  =         7.94208575
  PAW double counting   =      1688.14284460    -1707.61703764
  entropy T*S    EENTRO =         0.00149184
  eigenvalues    EBANDS =        91.68526075
  atomic energy  EATOM  =      1188.57490811
  Solvation  Ediel_sol  =         0.00000000
  ---------------------------------------------------
  free energy    TOTEN  =       -15.41503863 eV

  energy without entropy =      -15.41653047  energy(sigma->0) =      -15.41553591


--------------------------------------------------------------------------------------------------------




--------------------------------------- Iteration      1(  10)  ---------------------------------------


    POTLOK:  cpu time    0.0033: real time    0.0033
    SETDIJ:  cpu time    0.0022: real time    0.0022
     EDDAV:  cpu time    0.6865: real time    0.6865
       DOS:  cpu time    0.0066: real time    0.0066
    CHARGE:  cpu time    0.0196: real time    0.0196
    MIXING:  cpu time    0.0002: real time    0.0002
    --------------------------------------------
      LOOP:  cpu time    0.7184: real time    0.7184

 eigenvalue-minimisations  :  8400
 total energy-change (2. order) :-0.7344645E-06  (-0.1651974E-05)
 number of electron      15.9999987 magnetization 
 augmentation part        8.2123919 magnetization 

 Broyden mixing:
  rms(total) = 0.29902E-02    rms(broyden)= 0.29886E-02
  rms(prec ) = 0.41692E-02
  weight for this iteration     100.00

 eigenvalues of (default mixing * dielectric matrix)
  average eigenvalue GAMMA=   1.6553
  2.6457  2.4054  0.8714  1.0067  1.3473

 Free energy of the ion-electron system (eV)
  ---------------------------------------------------
  alpha Z        PSCENC =       157.37920898
  Ewald energy   TEWEN  =     -1287.90234133
  -Hartree energ DENC   =      -153.69875846
  -exchange      EXHF   =         0.00000000
  -V(xc)+E(xc)   XCENC  =         7.94641841
  PAW double counting   =      1689.86871882    -1709.26326082
  entropy T*S    EENTRO =         0.00149337
  eigenvalues    EBANDS =        91.67857354
  atomic energy  EATOM  =      1188.57490811
  Solvation  Ediel_sol  =         0.00000000
  ---------------------------------------------------
  free energy    TOTEN  =       -15.41503937 eV

  energy without entropy =      -15.41653273  energy(sigma->0) =      -15.41553716


--------------------------------------------------------------------------------------------------------




--------------------------------------- Iteration      1(  11)  ---------------------------------------


    POTLOK:  cpu time    0.0034: real time    0.0034
    SETDIJ:  cpu time    0.0022: real time    0.0022
     EDDAV:  cpu time    0.7339: real time    0.7339
       DOS:  cpu time    0.0066: real time    0.0066
    CHARGE:  cpu time    0.0194: real time    0.0194
    MIXING:  cpu time    0.0002: real time    0.0002
    --------------------------------------------
      LOOP:  cpu time    0.7657: real time    0.7658

 eigenvalue-minimisations  :  8776
 total energy-change (2. order) : 0.3742589E-04  (-0.4052025E-07)
 number of electron      15.9999987 magnetization 
 augmentation part        8.2121344 magnetization 

 Broyden mixing:
  rms(total) = 0.28348E-03    rms(broyden)= 0.28332E-03
  rms(prec ) = 0.47885E-03
  weight for this iteration     100.00

 eigenvalues of (default mixing * dielectric matrix)
  average eigenvalue GAMMA=   1.5724
  2.5788  2.5788  0.8720  0.9935  0.9935  1.4178

 Free energy of the ion-electron system (eV)
  ---------------------------------------------------
  alpha Z        PSCENC =       157.37920898
  Ewald energy   TEWEN  =     -1287.90234133
  -Hartree energ DENC   =      -153.77297928
  -exchange      EXHF   =         0.00000000
  -V(xc)+E(xc)   XCENC  =         7.94982256
  PAW double counting   =      1688.22055183    -1707.53965363
  entropy T*S    EENTRO =         0.00149278
  eigenvalues    EBANDS =        91.67398804
  atomic energy  EATOM  =      1188.57490811
  Solvation  Ediel_sol  =         0.00000000
  ---------------------------------------------------
  free energy    TOTEN  =       -15.41500194 eV

  energy without entropy =      -15.41649472  energy(sigma->0) =      -15.41549953


--------------------------------------------------------------------------------------------------------




--------------------------------------- Iteration      1(  12)  ---------------------------------------


    POTLOK:  cpu time    0.0034: real time    0.0034
    SETDIJ:  cpu time    0.0022: real time    0.0022
     EDDAV:  cpu time    0.6166: real time    0.6167
       DOS:  cpu time    0.0065: real time    0.0065
    CHARGE:  cpu time    0.0192: real time    0.0192
    MIXING:  cpu time    0.0002: real time    0.0002
    --------------------------------------------
      LOOP:  cpu time    0.6481: real time    0.6482

 eigenvalue-minimisations  :  6488
 total energy-change (2. order) : 0.1920467E-05  (-0.9239174E-08)
 number of electron      15.9999987 magnetization 
 augmentation part        8.2120718 magnetization 

 Broyden mixing:
  rms(total) = 0.12304E-03    rms(broyden)= 0.12289E-03
  rms(prec ) = 0.13327E-03
  weight for this iteration     100.00

 eigenvalues of (default mixing * dielectric matrix)
  average eigenvalue GAMMA=   1.6220
  2.5433  2.5433  2.0099  0.8721  0.9923  1.0175  1.3758

 Free energy of the ion-electron system (eV)
  ---------------------------------------------------
  alpha Z        PSCENC =       157.37920898
  Ewald energy   TEWEN  =     -1287.90234133
  -Hartree energ DENC   =      -153.78472216
  -exchange      EXHF   =         0.00000000
  -V(xc)+E(xc)   XCENC  =         7.95034627
  PAW double counting   =      1687.97746541    -1707.28546831
  entropy T*S    EENTRO =         0.00149267
  eigenvalues    EBANDS =        91.67411034
  atomic energy  EATOM  =      1188.57490811
  Solvation  Ediel_sol  =         0.00000000
  ---------------------------------------------------
  free energy    TOTEN  =       -15.41500002 eV

  energy without entropy =      -15.41649269  energy(sigma->0) =      -15.41549758


--------------------------------------------------------------------------------------------------------




--------------------------------------- Iteration      1(  13)  ---------------------------------------


    POTLOK:  cpu time    0.0034: real time    0.0034
    SETDIJ:  cpu time    0.0022: real time    0.0022
     EDDAV:  cpu time    0.5079: real time    0.5079
       DOS:  cpu time    0.0063: real time    0.0063
    CHARGE:  cpu time    0.0194: real time    0.0194
    MIXING:  cpu time    0.0002: real time    0.0002
    --------------------------------------------
      LOOP:  cpu time    0.5395: real time    0.5395

 eigenvalue-minimisations  :  5024
 total energy-change (2. order) :-0.1332084E-05  (-0.8877446E-09)
 number of electron      15.9999987 magnetization 
 augmentation part        8.2120696 magnetization 

 Broyden mixing:
  rms(total) = 0.18226E-04    rms(broyden)= 0.18220E-04
  rms(prec ) = 0.21367E-04
  weight for this iteration     100.00

 eigenvalues of (default mixing * dielectric matrix)
  average eigenvalue GAMMA=   1.5720
  2.5505  2.5505  2.1520  1.3968  0.8719  1.0099  1.0224  1.0224

 Free energy of the ion-electron system (eV)
  ---------------------------------------------------
  alpha Z        PSCENC =       157.37920898
  Ewald energy   TEWEN  =     -1287.90234133
  -Hartree energ DENC   =      -153.78329481
  -exchange      EXHF   =         0.00000000
  -V(xc)+E(xc)   XCENC  =         7.95027258
  PAW double counting   =      1688.05440327    -1707.36411395
  entropy T*S    EENTRO =         0.00149266
  eigenvalues    EBANDS =        91.67446313
  atomic energy  EATOM  =      1188.57490811
  Solvation  Ediel_sol  =         0.00000000
  ---------------------------------------------------
  free energy    TOTEN  =       -15.41500135 eV

  energy without entropy =      -15.41649402  energy(sigma->0) =      -15.41549891


--------------------------------------------------------------------------------------------------------




--------------------------------------- Iteration      1(  14)  ---------------------------------------


    POTLOK:  cpu time    0.0034: real time    0.0034
    SETDIJ:  cpu time    0.0022: real time    0.0022
     EDDAV:  cpu time    0.4715: real time    0.4715
       DOS:  cpu time    0.0060: real time    0.0060
    --------------------------------------------
      LOOP:  cpu time    0.4832: real time    0.4832

 eigenvalue-minimisations  :  4656
 total energy-change (2. order) :-0.1138958E-06  (-0.2713145E-10)
 number of electron      15.9999987 magnetization 
 augmentation part        8.2120696 magnetization 

 Free energy of the ion-electron system (eV)
  ---------------------------------------------------
  alpha Z        PSCENC =       157.37920898
  Ewald energy   TEWEN  =     -1287.90234133
  -Hartree energ DENC   =      -153.78307672
  -exchange      EXHF   =         0.00000000
  -V(xc)+E(xc)   XCENC  =         7.95026089
  PAW double counting   =      1688.06803288    -1707.37794405
  entropy T*S    EENTRO =         0.00149266
  eigenvalues    EBANDS =        91.67445710
  atomic energy  EATOM  =      1188.57490811
  Solvation  Ediel_sol  =         0.00000000
  ---------------------------------------------------
  free energy    TOTEN  =       -15.41500147 eV

  energy without entropy =      -15.41649413  energy(sigma->0) =      -15.41549902


--------------------------------------------------------------------------------------------------------




 average (electrostatic) potential at core
  the test charge radii are     1.0103
  (the norm of the test charge is              1.0000)
       1 -40.9711       2 -40.9711
 
 
 
 E-fermi :   8.7406     XC(G=0): -14.6745     alpha+bet :-17.6481

 Fermi energy:         8.7406326208

 k-point     1 :       0.0000    0.0000    0.0000
  band No.  band energies     occupation 
      1      -1.0311      2.00000
      2       2.8219      2.00000
      3       5.7902      2.00000
      4       6.7818      2.00000
      5       6.7818      2.00000
      6       7.1255      2.00000
      7       7.1256      2.00000
      8       7.5723      2.00000
      9       8.4982      2.07087
     10       8.4982      2.07087
     11       9.6757     -0.00000
     12       9.6757     -0.00000
     13      17.1267      0.00000
     14      32.9056      0.00000
     15      33.8914      0.00000
     16      37.0684      0.00000
     17      41.1528      0.00000
     18      41.1529      0.00000
     19      41.1701      0.00000
     20      41.8343      0.00000
     21      41.8344      0.00000
     22      43.7534      0.00000
     23      43.7534      0.00000
     24      44.7805      0.00000
     25      48.0459      0.00000
     26      48.0459      0.00000
     27      48.9451      0.00000
     28      53.2720      0.00000
     29      53.2721      0.00000
     30      54.7777      0.00000
     31      54.7777      0.00000
     32      57.4121      0.00000
     33      64.5673      0.00000
     34      64.7475      0.00000
     35      65.2923      0.00000
     36      65.2923      0.00000
     37      66.2574      0.00000
     38      69.0538      0.00000
     39      69.0539      0.00000
     40      70.0169      0.00000

 k-point     2 :       0.0909    0.0000    0.0000
  band No.  band energies     occupation 
      1      -0.6512      2.00000
      2       3.1210      2.00000
      3       5.8617      2.00000
      4       6.6505      2.00000
      5       6.6907      2.00000
      6       6.9711      2.00000
      7       7.0227      2.00000
      8       7.3521      2.00000
      9       8.2757      2.00489
     10       8.3586      2.02115
     11       9.7105     -0.00000
     12      10.8472     -0.00000
     13      17.1392      0.00000
     14      32.9454      0.00000
     15      33.3535      0.00000
     16      35.8451      0.00000
     17      37.9654      0.00000
     18      39.2678      0.00000
     19      39.7964      0.00000
     20      40.9667      0.00000
     21      43.1947      0.00000
     22      44.3427      0.00000
     23      45.0121      0.00000
     24      45.6090      0.00000
     25      49.2776      0.00000
     26      49.5314      0.00000
     27      50.3206      0.00000
     28      50.5946      0.00000
     29      53.5550      0.00000
     30      56.3676      0.00000
     31      57.1322      0.00000
     32      59.0258      0.00000
     33      63.0785      0.00000
     34      64.2564      0.00000
     35      64.3488      0.00000
     36      64.8419      0.00000
     37      65.6673      0.00000
     38      69.3851      0.00000
     39      70.1156      0.00000
     40      71.1813      0.00000

 k-point     3 :       0.1818    0.0000    0.0000
  band No.  band energies     occupation 
      1       0.4079      2.00000
      2       3.8040      2.00000
      3       5.4687      2.00000
      4       5.7801      2.00000
      5       6.3632      2.00000
      6       7.0688      2.00000
      7       7.7071      2.00000
      8       7.7611      2.00000
      9       7.9911      2.00000
     10       8.0313      2.00001
     11       9.7616     -0.00000
     12      12.8648     -0.00000
     13      17.2299      0.00000
     14      29.4096      0.00000
     15      34.2183      0.00000
     16      34.5178      0.00000
     17      34.8346      0.00000
     18      34.9125      0.00000
     19      40.2180      0.00000
     20      40.8994      0.00000
     21      41.5740      0.00000
     22      42.3431      0.00000
     23      46.0787      0.00000
     24      47.0138      0.00000
     25      50.2472      0.00000
     26      50.8904      0.00000
     27      52.1271      0.00000
     28      54.4958      0.00000
     29      57.1557      0.00000
     30      58.6519      0.00000
     31      59.8588      0.00000
     32      61.2766      0.00000
     33      62.1635      0.00000
     34      62.6501      0.00000
     35      63.0051      0.00000
     36      63.5859      0.00000
     37      67.1438      0.00000
     38      70.2631      0.00000
     39      70.3498      0.00000
     40      71.2720      0.00000

 k-point     4 :       0.2727    0.0000    0.0000
  band No.  band energies     occupation 
      1       1.8432      2.00000
      2       4.0198      2.00000
      3       4.4880      2.00000
      4       5.8234      2.00000
      5       6.1774      2.00000
      6       7.1252      2.00000
      7       7.6595      2.00000
      8       8.0345      2.00001
      9       8.6775      1.50565
     10       8.8858      0.06279
     11       9.7778     -0.00000
     12      15.1372      0.00000
     13      17.4459      0.00000
     14      25.2159      0.00000
     15      30.6316      0.00000
     16      32.1279      0.00000
     17      32.8918      0.00000
     18      34.9803      0.00000
     19      38.7215      0.00000
     20      40.9305      0.00000
     21      41.6989      0.00000
     22      41.9753      0.00000
     23      43.4529      0.00000
     24      46.6983      0.00000
     25      53.8617      0.00000
     26      55.0442      0.00000
     27      55.9299      0.00000
     28      56.9470      0.00000
     29      57.2390      0.00000
     30      59.4256      0.00000
     31      60.6191      0.00000
     32      62.2993      0.00000
     33      62.4882      0.00000
     34      62.8767      0.00000
     35      63.9964      0.00000
     36      67.1040      0.00000
     37      67.6760      0.00000
     38      70.4809      0.00000
     39      71.0155      0.00000
     40      71.3630      0.00000

 k-point     5 :       0.3636    0.0000    0.0000
  band No.  band energies     occupation 
      1       2.9341      2.00000
      2       3.6473      2.00000
      3       3.8248      2.00000
      4       6.0232      2.00000
      5       6.5698      2.00000
      6       6.8292      2.00000
      7       7.3519      2.00000
      8       9.6196     -0.00000
      9       9.6630     -0.00000
     10       9.7651     -0.00000
     11       9.7901     -0.00000
     12      17.3798      0.00000
     13      17.5473      0.00000
     14      22.0718      0.00000
     15      27.1361      0.00000
     16      29.9913      0.00000
     17      30.0511      0.00000
     18      34.2809      0.00000
     19      37.7137      0.00000
     20      41.1661      0.00000
     21      41.3067      0.00000
     22      42.8592      0.00000
     23      42.8828      0.00000
     24      46.5696      0.00000
     25      53.8352      0.00000
     26      55.9804      0.00000
     27      57.0569      0.00000
     28      60.1229      0.00000
     29      60.4030      0.00000
     30      60.4294      0.00000
     31      61.3487      0.00000
     32      63.5812      0.00000
     33      64.0287      0.00000
     34      64.7180      0.00000
     35      65.6554      0.00000
     36      67.2288      0.00000
     37      70.3195      0.00000
     38      71.2267      0.00000
     39      71.3899      0.00000
     40      71.9130      0.00000

 k-point     6 :       0.4545    0.0000    0.0000
  band No.  band energies     occupation 
      1       3.1307      2.00000
      2       3.4524      2.00000
      3       3.4940      2.00000
      4       6.2510      2.00000
      5       6.7435      2.00000
      6       7.1337      2.00000
      7       7.1785      2.00000
      8       9.7485     -0.00000
      9      10.2826     -0.00000
     10      10.3989     -0.00000
     11      11.6576     -0.00000
     12      15.5606      0.00000
     13      19.8055      0.00000
     14      21.8491      0.00000
     15      24.3687      0.00000
     16      27.1379      0.00000
     17      28.8776      0.00000
     18      33.6425      0.00000
     19      37.3716      0.00000
     20      39.8676      0.00000
     21      41.1071      0.00000
     22      43.8537      0.00000
     23      45.4185      0.00000
     24      45.8065      0.00000
     25      50.4852      0.00000
     26      56.8417      0.00000
     27      57.5725      0.00000
     28      60.7040      0.00000
     29      61.8721      0.00000
     30      62.9729      0.00000
     31      63.9178      0.00000
     32      64.1748      0.00000
     33      64.8055      0.00000
     34      66.6334      0.00000
     35      67.6674      0.00000
     36      69.5674      0.00000
     37      70.4653      0.00000
     38      70.5272      0.00000
     39      73.4875      0.00000
     40      74.0333      0.00000

 k-point     7 :       0.0909    0.0909    0.0000
  band No.  band energies     occupation 
      1       0.0728      2.00000
      2       3.6425      2.00000
      3       5.7903      2.00000
      4       5.7945      2.00000
      5       6.6360      2.00000
      6       6.6832      2.00000
      7       7.5257      2.00000
      8       7.7760      2.00000
      9       7.8487      2.00000
     10       8.2868      2.00610
     11       9.7063     -0.00000
     12      12.3065     -0.00000
     13      17.2004      0.00000
     14      31.0760      0.00000
     15      32.8075      0.00000
     16      34.0879      0.00000
     17      36.2013      0.00000
     18      38.5755      0.00000
     19      38.6036      0.00000
     20      40.0334      0.00000
     21      40.7443      0.00000
     22      46.1105      0.00000
     23      47.0120      0.00000
     24      47.8701      0.00000
     25      48.1337      0.00000
     26      49.0301      0.00000
     27      49.2842      0.00000
     28      55.0403      0.00000
     29      57.2255      0.00000
     30      58.0621      0.00000
     31      58.2008      0.00000
     32      60.9237      0.00000
     33      61.4620      0.00000
     34      63.2211      0.00000
     35      63.7129      0.00000
     36      64.5687      0.00000
     37      65.5075      0.00000
     38      70.1832      0.00000
     39      70.5871      0.00000
     40      71.5724      0.00000

 k-point     8 :       0.1818    0.0909    0.0000
  band No.  band energies     occupation 
      1       1.3620      2.00000
      2       4.2618      2.00000
      3       4.8471      2.00000
      4       5.4965      2.00000
      5       6.2723      2.00000
      6       7.1840      2.00000
      7       7.1888      2.00000
      8       7.9549      2.00000
      9       8.4211      2.04633
     10       8.7773      0.69524
     11       9.6785     -0.00000
     12      14.3498      0.00000
     13      17.4042      0.00000
     14      27.3519      0.00000
     15      30.2436      0.00000
     16      32.5235      0.00000
     17      34.5491      0.00000
     18      36.0445      0.00000
     19      38.6625      0.00000
     20      39.2663      0.00000
     21      40.5244      0.00000
     22      45.4677      0.00000
     23      45.6072      0.00000
     24      47.5737      0.00000
     25      50.5109      0.00000
     26      51.1016      0.00000
     27      53.5403      0.00000
     28      57.5525      0.00000
     29      58.7716      0.00000
     30      59.6453      0.00000
     31      60.2912      0.00000
     32      61.9095      0.00000
     33      62.0890      0.00000
     34      62.9608      0.00000
     35      64.4217      0.00000
     36      64.7546      0.00000
[...]
     18      30.7114      0.00000
     19      36.4398      0.00000
     20      37.2474      0.00000
     21      41.2243      0.00000
     22      41.6135      0.00000
     23      47.0274      0.00000
     24      48.0237      0.00000
     25      53.9277      0.00000
     26      55.7085      0.00000
     27      58.0602      0.00000
     28      59.3026      0.00000
     29      60.7774      0.00000
     30      61.8314      0.00000
     31      63.6772      0.00000
     32      63.7244      0.00000
     33      65.3696      0.00000
     34      65.7108      0.00000
     35      68.5584      0.00000
     36      68.6372      0.00000
     37      69.2383      0.00000
     38      69.8102      0.00000
     39      73.4513      0.00000
     40      74.0092      0.00000

 k-point    91 :       0.4545    0.0909    0.4545
  band No.  band energies     occupation 
      1       3.0309      2.00000
      2       3.1906      2.00000
      3       4.5372      2.00000
      4       4.6154      2.00000
      5       7.5058      2.00000
      6       7.9667      2.00000
      7       8.7908      0.59018
      8       9.1736     -0.00906
      9       9.8510     -0.00000
     10       9.9193     -0.00000
     11      12.6624     -0.00000
     12      13.2167     -0.00000
     13      20.0217      0.00000
     14      20.0979      0.00000
     15      28.6500      0.00000
     16      29.0194      0.00000
     17      30.2255      0.00000
     18      30.4379      0.00000
     19      36.0170      0.00000
     20      36.3604      0.00000
     21      40.5126      0.00000
     22      40.5823      0.00000
     23      47.1417      0.00000
     24      48.1592      0.00000
     25      54.1452      0.00000
     26      55.8807      0.00000
     27      59.7131      0.00000
     28      61.1034      0.00000
     29      62.3877      0.00000
     30      62.6000      0.00000
     31      62.7541      0.00000
     32      62.9032      0.00000
     33      65.6526      0.00000
     34      66.5536      0.00000
     35      68.8613      0.00000
     36      69.2562      0.00000
     37      70.8024      0.00000
     38      71.0246      0.00000
     39      74.5522      0.00000
     40      74.6961      0.00000

 k-point    92 :       0.1818    0.1818    0.4545
  band No.  band energies     occupation 
      1       3.3411      2.00000
      2       3.5560      2.00000
      3       5.3707      2.00000
      4       5.3791      2.00000
      5       5.9290      2.00000
      6       5.9432      2.00000
      7       7.9378      2.00000
      8       8.2113      2.00117
      9       9.5618     -0.00000
     10       9.7912     -0.00000
     11      10.4020     -0.00000
     12      10.9590     -0.00000
     13      26.0607      0.00000
     14      26.6363      0.00000
     15      27.2079      0.00000
     16      27.9540      0.00000
     17      28.7029      0.00000
     18      29.6115      0.00000
     19      40.5642      0.00000
     20      41.7655      0.00000
     21      42.6865      0.00000
     22      43.9753      0.00000
     23      45.9358      0.00000
     24      46.1462      0.00000
     25      52.9496      0.00000
     26      53.4667      0.00000
     27      55.8971      0.00000
     28      57.4019      0.00000
     29      59.6516      0.00000
     30      60.1164      0.00000
     31      62.0689      0.00000
     32      62.2507      0.00000
     33      63.4793      0.00000
     34      63.5497      0.00000
     35      65.0350      0.00000
     36      65.2248      0.00000
     37      68.3955      0.00000
     38      70.3707      0.00000
     39      71.8394      0.00000
     40      72.2301      0.00000

 k-point    93 :       0.2727    0.1818    0.4545
  band No.  band energies     occupation 
      1       3.6013      2.00000
      2       3.7108      2.00000
      3       5.0499      2.00000
      4       5.2627      2.00000
      5       6.3996      2.00000
      6       6.5750      2.00000
      7       7.7818      2.00000
      8       8.0467      2.00001
      9       9.6906     -0.00000
     10      10.0359     -0.00000
     11      12.2200     -0.00000
     12      12.7596     -0.00000
     13      23.2677      0.00000
     14      23.8258      0.00000
     15      26.2002      0.00000
     16      26.9903      0.00000
     17      28.5199      0.00000
     18      30.2357      0.00000
     19      38.2229      0.00000
     20      39.8256      0.00000
     21      41.1825      0.00000
     22      42.7870      0.00000
     23      46.9530      0.00000
     24      47.4787      0.00000
     25      54.6107      0.00000
     26      55.1459      0.00000
     27      57.2106      0.00000
     28      59.1114      0.00000
     29      61.1337      0.00000
     30      62.0731      0.00000
     31      63.4264      0.00000
     32      63.7099      0.00000
     33      64.3971      0.00000
     34      64.4888      0.00000
     35      66.4724      0.00000
     36      67.2808      0.00000
     37      68.5158      0.00000
     38      69.9147      0.00000
     39      73.0246      0.00000
     40      73.5427      0.00000

 k-point    94 :       0.3636    0.1818    0.4545
  band No.  band energies     occupation 
      1       3.5868      2.00000
      2       3.7643      2.00000
      3       4.9040      2.00000
      4       5.0995      2.00000
      5       6.5363      2.00000
      6       6.9146      2.00000
      7       8.1859      2.00063
      8       8.3061      2.00880
      9       9.6714     -0.00000
     10       9.8894     -0.00000
     11      14.1554     -0.00000
     12      14.6213      0.00000
     13      20.4952      0.00000
     14      20.8663      0.00000
     15      25.5645      0.00000
     16      26.3219      0.00000
     17      30.1254      0.00000
     18      31.2764      0.00000
     19      36.5116      0.00000
     20      37.6119      0.00000
     21      40.1281      0.00000
     22      41.7688      0.00000
     23      47.7321      0.00000
     24      48.1732      0.00000
     25      57.6251      0.00000
     26      58.1365      0.00000
     27      58.6583      0.00000
     28      59.5516      0.00000
     29      61.5257      0.00000
     30      62.1037      0.00000
     31      62.4607      0.00000
     32      62.7642      0.00000
     33      64.7082      0.00000
     34      65.1355      0.00000
     35      67.8860      0.00000
     36      68.1734      0.00000
     37      70.5734      0.00000
     38      70.7310      0.00000
     39      72.0019      0.00000
     40      72.9065      0.00000

 k-point    95 :       0.2727    0.2727    0.4545
  band No.  band energies     occupation 
      1       4.0517      2.00000
      2       4.1467      2.00000
      3       5.2201      2.00000
      4       5.4626      2.00000
      5       5.9980      2.00000
      6       6.2456      2.00000
      7       7.6041      2.00000
      8       7.8287      2.00000
      9       9.6892     -0.00000
     10       9.9280     -0.00000
     11      14.6787      0.00000
     12      15.2182      0.00000
     13      21.5359      0.00000
     14      22.0051      0.00000
     15      23.6513      0.00000
     16      24.0976      0.00000
     17      30.3714      0.00000
     18      32.0147      0.00000
     19      36.4958      0.00000
     20      37.9360      0.00000
     21      39.8133      0.00000
     22      40.9998      0.00000
     23      50.1050      0.00000
     24      50.5733      0.00000
     25      55.0766      0.00000
     26      55.0979      0.00000
     27      59.7064      0.00000
     28      61.5193      0.00000
     29      61.7504      0.00000
     30      62.4506      0.00000
     31      63.1518      0.00000
     32      63.3055      0.00000
     33      63.5268      0.00000
     34      64.1313      0.00000
     35      67.0806      0.00000
     36      67.3958      0.00000
     37      70.4829      0.00000
     38      70.6739      0.00000
     39      71.1165      0.00000
     40      71.1892      0.00000

 k-point    96 :       0.3636    0.2727    0.4545
  band No.  band energies     occupation 
      1       4.3029      2.00000
      2       4.4631      2.00000
      3       5.1437      2.00000
      4       5.2471      2.00000
      5       5.9878      2.00000
      6       6.1518      2.00000
      7       7.6524      2.00000
      8       7.8171      2.00000
      9       9.6725     -0.00000
     10       9.7576     -0.00000
     11      16.6839      0.00000
     12      16.8567      0.00000
     13      19.7128      0.00000
     14      20.0882      0.00000
     15      22.9848      0.00000
     16      23.4305      0.00000
     17      32.1390      0.00000
     18      33.0510      0.00000
     19      35.5355      0.00000
     20      35.7067      0.00000
     21      39.5648      0.00000
     22      40.3862      0.00000
     23      51.4666      0.00000
     24      52.1327      0.00000
     25      56.3174      0.00000
     26      56.7668      0.00000
     27      59.6354      0.00000
     28      60.0489      0.00000
     29      61.4203      0.00000
     30      61.6219      0.00000
     31      62.9758      0.00000
     32      63.3661      0.00000
     33      64.5037      0.00000
     34      64.7284      0.00000
     35      65.7487      0.00000
     36      67.2664      0.00000
     37      68.9155      0.00000
     38      70.0674      0.00000
     39      72.9475      0.00000
     40      73.3116      0.00000


--------------------------------------------------------------------------------------------------------


 soft charge-density along one line, spin component           1
         0         1         2         3         4         5         6         7         8         9
x     7.7879    0.0000    0.0495   -0.0858   -0.0469   -0.0813    0.0225   -0.0000    0.0008   -0.0015
x     0.0000    0.0000
y     7.7879    0.0000    0.0495    0.0858   -0.0469    0.0813    0.0225    0.0000    0.0008    0.0015
y     0.0000    0.0000
z     7.7879    0.0000    0.0000   -0.0000    0.4215    0.0000    0.0000    0.0000   -0.1449   -0.0000
z     0.0000   -0.0000    0.0221   -0.0000    0.0000   -0.0000    0.0057   -0.0000    0.0000    0.0000
 total charge-density along one line
x    16.0000    0.0000    1.3686   -2.3705    0.2390    0.4139   -0.0009   -0.0000    0.0024   -0.0041
x    -0.0005   -0.0009    0.0009   -0.0000   -0.0001    0.0002    0.0001    0.0001   -0.0002    0.0000
x     0.0000    0.0000
y    16.0000    0.0000    1.3686    2.3705    0.2390   -0.4139   -0.0009    0.0000    0.0024    0.0041
y    -0.0005    0.0009    0.0009    0.0000   -0.0001   -0.0002    0.0001   -0.0001   -0.0002   -0.0000
y     0.0000   -0.0000
z    16.0000    0.0000    0.0000    0.0000    5.9097   -0.0000    0.0000    0.0000    1.2441   -0.0000
z    -0.0000   -0.0000    0.0302   -0.0000   -0.0000   -0.0000    0.0072   -0.0000   -0.0000    0.0000
z     0.0001   -0.0000   -0.0000    0.0000   -0.0001   -0.0000   -0.0000   -0.0000    0.0000    0.0000
z    -0.0000    0.0000   -0.0000    0.0000    0.0000    0.0000    0.0000   -0.0000
 
 pseudopotential strength for first ion, spin component:           1
 -3.379  -0.000  -0.000   0.000  -0.000  -3.973  -0.000  -0.000
 -0.000  -3.350  -0.000  -0.000  -0.000  -0.000  -3.945  -0.000
 -0.000  -0.000  -3.359  -0.000  -0.000  -0.000  -0.000  -3.953
  0.000  -0.000  -0.000  -3.350  -0.000   0.000  -0.000  -0.000
 -0.000  -0.000  -0.000  -0.000  -3.379  -0.000  -0.000  -0.000
 -3.973  -0.000  -0.000   0.000  -0.000  -4.524  -0.000  -0.000
 -0.000  -3.945  -0.000  -0.000  -0.000  -0.000  -4.495  -0.000
 -0.000  -0.000  -3.953  -0.000  -0.000  -0.000  -0.000  -4.504
  0.000  -0.000  -0.000  -3.945  -0.000   0.000  -0.000  -0.000
 -0.000  -0.000  -0.000  -0.000  -3.973  -0.000  -0.000  -0.000
  0.000  -0.000  -0.001   0.000  -0.000   0.000  -0.000  -0.001
  0.000  -0.000  -0.001   0.000  -0.000   0.000  -0.000  -0.002
 -0.000   0.000  -0.000  -0.000  -0.001  -0.000   0.000  -0.000
 -0.000   0.000   0.000  -0.000   0.000  -0.000   0.000   0.000
 -0.001  -0.000   0.000   0.000  -0.000  -0.001  -0.000   0.000
 -0.000   0.000  -0.000  -0.000  -0.001  -0.000   0.000  -0.000
 -0.000   0.000   0.000  -0.000   0.000  -0.000   0.000   0.000
 -0.001  -0.000   0.000   0.000  -0.000  -0.001  -0.000   0.000
 total augmentation occupancy for first ion, spin component:           1
  1.952   0.000   0.000   0.000   0.000  -1.652   0.000  -0.000   0.000  -0.000   0.000  -0.000   0.000  -0.000   0.041  -0.000
  0.000   2.538   0.000  -0.000   0.000   0.000  -1.920  -0.000   0.000   0.000   0.000   0.000   0.000  -0.000   0.000  -0.000
  0.000   0.000   1.529  -0.000  -0.000  -0.000   0.000  -1.249  -0.000   0.000   0.072  -0.015  -0.000   0.000   0.000   0.000
  0.000  -0.000   0.000   2.538   0.000   0.000   0.000  -0.000  -1.920   0.000  -0.000  -0.000   0.000   0.000  -0.000   0.000
  0.000   0.000  -0.000  -0.000   1.952   0.000  -0.000   0.000  -0.000  -1.652   0.000  -0.000   0.041   0.000  -0.000  -0.001
 -1.652   0.000  -0.000   0.000  -0.000   2.746   0.000   0.000   0.000  -0.000  -0.000   0.000  -0.000  -0.000  -0.054   0.000
  0.000  -1.920   0.000   0.000   0.000   0.000   2.653   0.000  -0.000   0.000  -0.000  -0.000   0.000   0.000   0.000   0.000
 -0.000   0.000  -1.249  -0.000   0.000   0.000  -0.000   2.340  -0.000  -0.000  -0.164   0.006   0.000   0.000  -0.000  -0.000
  0.000   0.000  -0.000  -1.920  -0.000   0.000  -0.000   0.000   2.653   0.000  -0.000   0.000  -0.000   0.000   0.000   0.000
 -0.000   0.000   0.000  -0.000  -1.652  -0.000   0.000  -0.000   0.000   2.746  -0.000   0.000  -0.054   0.000   0.000   0.002
  0.000  -0.000   0.072   0.000   0.000  -0.000   0.000  -0.164  -0.000  -0.000   3.148  -0.378   0.000   0.000   0.000   0.000
 -0.000   0.000  -0.015  -0.000  -0.000   0.000   0.000   0.006  -0.000  -0.000  -0.378   0.052   0.000   0.000   0.000   0.000
  0.000  -0.000  -0.000   0.000   0.041  -0.000  -0.000   0.000   0.000  -0.054   0.000   0.000   0.439   0.000  -0.000  -0.032
  0.000   0.000   0.000   0.000   0.000  -0.000   0.000   0.000   0.000  -0.000   0.000   0.000  -0.000   0.408   0.000  -0.000
  0.041  -0.000   0.000   0.000  -0.000  -0.054   0.000  -0.000   0.000   0.000   0.000   0.000  -0.000   0.000   0.439   0.000
 -0.000   0.000   0.000   0.000  -0.001   0.000   0.000  -0.000   0.000   0.002  -0.000   0.000  -0.032   0.000   0.000   0.003
  0.000  -0.000   0.000   0.000  -0.000   0.000  -0.000   0.000  -0.000  -0.000   0.000   0.000  -0.000  -0.037  -0.000   0.000
 -0.001   0.000  -0.000   0.000   0.000   0.002   0.000   0.000  -0.000  -0.000   0.000  -0.000   0.000  -0.000  -0.032  -0.000


------------------------ aborting loop because EDIFF is reached ----------------------------------------


    CHARGE:  cpu time    0.0196: real time    0.0196
    FORLOC:  cpu time    0.0002: real time    0.0002
    FORNL :  cpu time    0.0844: real time    0.0844
    STRESS:  cpu time    0.1279: real time    0.1279
    FORCOR:  cpu time    0.0035: real time    0.0034
    FORHAR:  cpu time    0.0008: real time    0.0008
    MIXING:  cpu time    0.0002: real time    0.0002

  FORCE on cell =-STRESS in cart. coord.  units (eV):
  Direction    XX          YY          ZZ          XY          YZ          ZX
  --------------------------------------------------------------------------------------
  Alpha Z   157.37921   157.37921   157.37921
  Ewald    -407.10380  -407.10380  -473.69566     0.00000    -0.00000     0.00000
  Hartree    58.92686    58.92686    35.92927    -0.00000    -0.00000    -0.00000
  E(xc)     -80.39492   -80.39492   -79.99757     0.00006    -0.00000     0.00000
  Local      99.81209    99.81217   183.98384    -0.00049     0.00000     0.00000
  n-local   -48.57927   -48.04381   -51.69193    -5.66867     1.41244     0.91148
  augment    74.56090    74.56074    75.52852     0.00048    -0.00000     0.00000
  Kinetic   158.96178   152.31463   152.82059     1.79591    -0.81904     0.26222
  Fock        0.00000     0.00000     0.00000     0.00000     0.00000     0.00000
  -------------------------------------------------------------------------------------
  Total      10.50697    10.50697     0.25627    -0.00000     0.00000     0.00000
  in kB     958.32062   958.32062    23.37373    -0.00000     0.00000     0.00000
  external pressure =      646.67 kB  Pullay stress =        0.00 kB


 VOLUME and BASIS-vectors are now :
 -----------------------------------------------------------------------------
  energy-cutoff  :      280.00
  volume of cell :       17.57
      direct lattice vectors                 reciprocal lattice vectors
     2.236800000  0.000000000  0.000000000     0.447067239  0.258114391  0.000000000
    -1.118400000  1.937125623  0.000000000     0.000000000  0.516228781  0.000000000
     0.000000000  0.000000000  4.054080000     0.000000000  0.000000000  0.246665088

  length of vectors
     2.236800000  2.236800000  4.054080000     0.516228781  0.516228781  0.246665088


 FORCES acting on ions
    electron-ion (+dipol)            ewald-force                    non-local-force                 convergence-correction
 -----------------------------------------------------------------------------------------------
   0.817E-06 -.425E-06 -.772E-14   0.511E-12 -.305E-12 -.267E-13   0.603E-17 -.107E-16 -.455E-19   -.670E-08 0.387E-08 -.667E-14
   0.259E-05 0.352E-05 0.242E-12   -.520E-12 0.309E-12 0.267E-13   -.519E-17 0.118E-16 -.450E-19   0.670E-08 -.387E-08 0.336E-13
 -----------------------------------------------------------------------------------------------
   0.341E-05 0.309E-05 0.234E-12   -.909E-14 0.379E-14 0.217E-17   0.832E-18 0.111E-17 -.906E-19   0.100E-11 -.466E-12 0.269E-13
 
 
 POSITION                                       TOTAL-FORCE (eV/Angst)
 -----------------------------------------------------------------------------------
      0.00000      0.00000      0.00000         0.000000     -0.000000      0.000000
      0.00000      1.29142      2.02704        -0.000000      0.000000     -0.000000
 -----------------------------------------------------------------------------------
    total drift:                                0.000003      0.000003      0.000000


--------------------------------------------------------------------------------------------------------



  FREE ENERGIE OF THE ION-ELECTRON SYSTEM (eV)
  ---------------------------------------------------
  free  energy   TOTEN  =       -15.41500147 eV

  energy  without entropy=      -15.41649413  energy(sigma->0) =      -15.41549902
 


--------------------------------------------------------------------------------------------------------


    POTLOK:  cpu time    0.0057: real time    0.0057


--------------------------------------------------------------------------------------------------------


 writing wavefunctions
     LOOP+:  cpu time   10.6207: real time   10.6419
    4ORBIT:  cpu time    0.0000: real time    0.0000

 total amount of memory used by VASP MPI-rank0    47812. kBytes
=======================================================================

   base      :      30000. kBytes
   nonl-proj :       2715. kBytes
   grid      :        812. kBytes
   one-center:         31. kBytes
   wavefun   :      14254. kBytes
 
  
  
 General timing and accounting informations for this job:
 ========================================================
  
                  Total CPU time used (sec):       10.794
                            User time (sec):       10.734
                          System time (sec):        0.060
                         Elapsed time (sec):       10.804
  
                   Maximum memory used (kb):       52416.
                   Average memory used (kb):          N/A
  
                          Minor page faults:         7063
                          Major page faults:            0
                 Voluntary context switches:           26
