<?xml version="1.0" encoding="ISO-8859-1"?>
<modeling>
 <generator>
  <i name="program" type="string">vasp </i>
  <i name="version" type="string">6.2.0  </i>
  <i name="subversion" type="string">18Jan21 (build Mar 17 2021 09:06:54) complex                          serial </i>
  <i name="platform" type="string">LinuxIFC </i>
  <i name="date" type="string">2021 09 09 </i>
  <i name="time" type="string">11:58:51 </i>
 </generator>
 <incar>
  <i type="string" name="PREC">normal</i>
  <i type="int" name="ICHARG">     1</i>
  <i type="int" name="IBRION">     1</i>
  <i name="EDIFF">      0.00000100</i>
  <i type="int" name="NSW">     0</i>
  <i type="int" name="ISIF">     2</i>
  <i name="ENCUT">    280.00000000</i>
  <i type="int" name="NBANDS">    40</i>
  <i type="int" name="ISMEAR">     1</i>
  <i name="SIGMA">      0.20000000</i>
  <i type="logical" name="LCHARG"> T  </i>
  <i type="int" name="KPAR">     1</i>
  <i type="int" name="NCORE">     1</i>
  <i type="string" name="GGA">PE</i>
 </incar>
 <primitive_cell>
  <structure name="primitive_cell" >
   <crystal>
    <varray name="basis" >
     <v>       2.23680000       0.00000000       0.00000000 </v>
     <v>      -1.11840000       1.93712562       0.00000000 </v>
     <v>       0.00000000       0.00000000       4.05408000 </v>
    </varray>
    <i name="volume">     17.56617699 </i>
    <varray name="rec_basis" >
     <v>       0.44706724       0.25811439       0.00000000 </v>
     <v>       0.00000000       0.51622878       0.00000000 </v>
     <v>       0.00000000       0.00000000       0.24666509 </v>
    </varray>
   </crystal>
   <varray name="positions" >
    <v>       0.00000000       0.00000000       0.00000000 </v>
    <v>       0.33333333       0.66666667       0.50000000 </v>
   </varray>
  </structure>
  <varray name="primitive_index" >
   <v type="int" >        1 </v>
   <v type="int" >        2 </v>
  </varray>
 </primitive_cell>
 <kpoints>
  <generation param="Monkhorst-Pack">
   <v type="int" name="divisions">      11       11       11 </v>
   <v name="usershift">      0.00000000       0.00000000       0.00000000 </v>
   <v name="genvec1">      0.09090909       0.00000000       0.00000000 </v>
   <v name="genvec2">      0.00000000       0.09090909       0.00000000 </v>
   <v name="genvec3">      0.00000000       0.00000000       0.09090909 </v>
   <v name="shift">      0.00000000       0.00000000       0.00000000 </v>
  </generation>
  <varray name="kpointlist" >
   <v>       0.00000000       0.00000000       0.00000000 </v>
   <v>       0.09090909       0.00000000       0.00000000 </v>
   <v>       0.18181818       0.00000000       0.00000000 </v>
   <v>       0.27272727       0.00000000       0.00000000 </v>
   <v>       0.36363636       0.00000000       0.00000000 </v>
   <v>       0.45454545       0.00000000       0.00000000 </v>
   <v>       0.09090909       0.09090909       0.00000000 </v>
   <v>       0.18181818       0.09090909       0.00000000 </v>
   <v>       0.27272727       0.09090909       0.00000000 </v>
   <v>       0.36363636       0.09090909       0.00000000 </v>
   <v>       0.45454545       0.09090909       0.00000000 </v>
   <v>       0.18181818       0.18181818       0.00000000 </v>
   <v>       0.27272727       0.18181818       0.00000000 </v>
   <v>       0.36363636       0.18181818       0.00000000 </v>
   <v>       0.27272727       0.27272727       0.00000000 </v>
   <v>       0.36363636       0.27272727       0.00000000 </v>
   <v>       0.00000000       0.00000000       0.09090909 </v>
   <v>       0.09090909       0.00000000       0.09090909 </v>
   <v>       0.18181818       0.00000000       0.09090909 </v>
   <v>       0.27272727       0.00000000       0.09090909 </v>
   <v>       0.36363636       0.00000000       0.09090909 </v>
   <v>       0.45454545       0.00000000       0.09090909 </v>
   <v>       0.09090909       0.09090909       0.09090909 </v>
   <v>       0.18181818       0.09090909       0.09090909 </v>
   <v>       0.27272727       0.09090909       0.09090909 </v>
   <v>       0.36363636       0.09090909       0.09090909 </v>
   <v>       0.45454545       0.09090909       0.09090909 </v>
   <v>       0.18181818       0.18181818       0.09090909 </v>
   <v>       0.27272727       0.18181818       0.09090909 </v>
   <v>       0.36363636       0.18181818       0.09090909 </v>
   <v>       0.27272727       0.27272727       0.09090909 </v>
   <v>       0.36363636       0.27272727       0.09090909 </v>
   <v>       0.00000000       0.00000000       0.18181818 </v>
   <v>       0.09090909       0.00000000       0.18181818 </v>
   <v>       0.18181818       0.00000000       0.18181818 </v>
   <v>       0.27272727       0.00000000       0.18181818 </v>
   <v>       0.36363636       0.00000000       0.18181818 </v>
   <v>       0.45454545       0.00000000       0.18181818 </v>
   <v>       0.09090909       0.09090909       0.18181818 </v>
   <v>       0.18181818       0.09090909       0.18181818 </v>
   <v>       0.27272727       0.09090909       0.18181818 </v>
   <v>       0.36363636       0.09090909       0.18181818 </v>
   <v>       0.45454545       0.09090909       0.18181818 </v>
   <v>       0.18181818       0.18181818       0.18181818 </v>
   <v>       0.27272727       0.18181818       0.18181818 </v>
   <v>       0.36363636       0.18181818       0.18181818 </v>
   <v>       0.27272727       0.27272727       0.18181818 </v>
   <v>       0.36363636       0.27272727       0.18181818 </v>
   <v>       0.00000000       0.00000000       0.27272727 </v>
   <v>       0.09090909       0.00000000       0.27272727 </v>
   <v>       0.18181818       0.00000000       0.27272727 </v>
   <v>       0.27272727       0.00000000       0.27272727 </v>
   <v>       0.36363636       0.00000000       0.27272727 </v>
   <v>       0.45454545       0.00000000       0.27272727 </v>
   <v>       0.09090909       0.09090909       0.27272727 </v>
   <v>       0.18181818       0.09090909       0.27272727 </v>
   <v>       0.27272727       0.09090909       0.27272727 </v>
   <v>       0.36363636       0.09090909       0.27272727 </v>
   <v>       0.45454545       0.09090909       0.27272727 </v>
   <v>       0.18181818       0.18181818       0.27272727 </v>
   <v>       0.27272727       0.18181818       0.27272727 </v>
   <v>       0.36363636       0.18181818       0.27272727 </v>
   <v>       0.27272727       0.27272727       0.27272727 </v>
   <v>       0.36363636       0.27272727       0.27272727 </v>
   <v>       0.00000000       0.00000000       0.36363636 </v>
   <v>       0.09090909       0.00000000       0.36363636 </v>
   <v>       0.18181818       0.00000000       0.36363636 </v>
   <v>       0.27272727       0.00000000       0.36363636 </v>
   <v>       0.36363636       0.00000000       0.36363636 </v>
   <v>       0.45454545       0.00000000       0.36363636 </v>
   <v>       0.09090909       0.09090909       0.36363636 </v>
   <v>       0.18181818       0.09090909       0.36363636 </v>
   <v>       0.27272727       0.09090909       0.36363636 </v>
   <v>       0.36363636       0.09090909       0.36363636 </v>
   <v>       0.45454545       0.09090909       0.36363636 </v>
   <v>       0.18181818       0.18181818       0.36363636 </v>
   <v>       0.27272727       0.18181818       0.36363636 </v>
   <v>       0.36363636       0.18181818       0.36363636 </v>
   <v>       0.27272727       0.27272727       0.36363636 </v>
   <v>       0.36363636       0.27272727       0.36363636 </v>
   <v>       0.00000000       0.00000000       0.45454545 </v>
   <v>       0.09090909       0.00000000       0.45454545 </v>
   <v>       0.18181818       0.00000000       0.45454545 </v>
   <v>       0.27272727       0.00000000       0.45454545 </v>
   <v>       0.36363636       0.00000000       0.45454545 </v>
   <v>       0.45454545       0.00000000       0.45454545 </v>
   <v>       0.09090909       0.09090909       0.45454545 </v>
   <v>       0.18181818       0.09090909       0.45454545 </v>
   <v>       0.27272727       0.09090909       0.45454545 </v>
   <v>       0.36363636       0.09090909       0.45454545 </v>
   <v>       0.45454545       0.09090909       0.45454545 </v>
   <v>       0.18181818       0.18181818       0.45454545 </v>
   <v>       0.27272727       0.18181818       0.45454545 </v>
   <v>       0.36363636       0.18181818       0.45454545 </v>
   <v>       0.27272727       0.27272727       0.45454545 </v>
   <v>       0.36363636       0.27272727       0.45454545 </v>
  </varray>
  <varray name="weights" >
   <v>       0.00075131 </v>
   <v>       0.00450789 </v>
   <v>       0.00450789 </v>
   <v>       0.00450789 </v>
   <v>       0.00450789 </v>
   <v>       0.00450789 </v>
   <v>       0.00450789 </v>
   <v>       0.00901578 </v>
   <v>       0.00901578 </v>
   <v>       0.00901578 </v>
   <v>       0.00450789 </v>
   <v>       0.00450789 </v>
   <v>       0.00901578 </v>
   <v>       0.00901578 </v>
   <v>       0.00450789 </v>
   <v>       0.00450789 </v>
   <v>       0.00150263 </v>
   <v>       0.00901578 </v>
   <v>       0.00901578 </v>
   <v>       0.00901578 </v>
   <v>       0.00901578 </v>
   <v>       0.00901578 </v>
   <v>       0.00901578 </v>
   <v>       0.01803156 </v>
   <v>       0.01803156 </v>
   <v>       0.01803156 </v>
   <v>       0.00901578 </v>
   <v>       0.00901578 </v>
   <v>       0.01803156 </v>
   <v>       0.01803156 </v>
   <v>       0.00901578 </v>
   <v>       0.00901578 </v>
   <v>       0.00150263 </v>
   <v>       0.00901578 </v>
   <v>       0.00901578 </v>
   <v>       0.00901578 </v>
   <v>       0.00901578 </v>
   <v>       0.00901578 </v>
   <v>       0.00901578 </v>
   <v>       0.01803156 </v>
   <v>       0.01803156 </v>
   <v>       0.01803156 </v>
   <v>       0.00901578 </v>
   <v>       0.00901578 </v>
   <v>       0.01803156 </v>
   <v>       0.01803156 </v>
   <v>       0.00901578 </v>
   <v>       0.00901578 </v>
   <v>       0.00150263 </v>
   <v>       0.00901578 </v>
   <v>       0.00901578 </v>
   <v>       0.00901578 </v>
   <v>       0.00901578 </v>
   <v>       0.00901578 </v>
   <v>       0.00901578 </v>
   <v>       0.01803156 </v>
   <v>       0.01803156 </v>
   <v>       0.01803156 </v>
   <v>       0.00901578 </v>
   <v>       0.00901578 </v>
   <v>       0.01803156 </v>
   <v>       0.01803156 </v>
   <v>       0.00901578 </v>
   <v>       0.00901578 </v>
   <v>       0.00150263 </v>
   <v>       0.00901578 </v>
   <v>       0.00901578 </v>
   <v>       0.00901578 </v>
   <v>       0.00901578 </v>
   <v>       0.00901578 </v>
   <v>       0.00901578 </v>
   <v>       0.01803156 </v>
   <v>       0.01803156 </v>
   <v>       0.01803156 </v>
   <v>       0.00901578 </v>
   <v>       0.00901578 </v>
   <v>       0.01803156 </v>
   <v>       0.01803156 </v>
   <v>       0.00901578 </v>
   <v>       0.00901578 </v>
   <v>       0.00150263 </v>
   <v>       0.00901578 </v>
   <v>       0.00901578 </v>
   <v>       0.00901578 </v>
   <v>       0.00901578 </v>
   <v>       0.00901578 </v>
   <v>       0.00901578 </v>
   <v>       0.01803156 </v>
   <v>       0.01803156 </v>
   <v>       0.01803156 </v>
   <v>       0.00901578 </v>
   <v>       0.00901578 </v>
   <v>       0.01803156 </v>
   <v>       0.01803156 </v>
   <v>       0.00901578 </v>
   <v>       0.00901578 </v>
  </varray>
 </kpoints>
 <parameters>
  <separator name="general" >
   <i type="string" name="SYSTEM">unknown system</i>
   <i type="logical" name="LCOMPAT"> F  </i>
  </separator>
  <separator name="electronic" >
   <i type="string" name="PREC">normal</i>
   <i name="ENMAX">    280.00000000</i>
   <i name="ENAUG">    511.36800000</i>
   <i name="EDIFF">      0.00000100</i>
   <i type="int" name="IALGO">    38</i>
   <i type="int" name="IWAVPR">     0</i>
   <i type="int" name="NBANDS">    40</i>
   <i type="int" name="NBANDSLOW">    -1</i>
   <i type="int" name="NBANDSHIGH">    -1</i>
   <i name="NELECT">     16.00000000</i>
   <i type="int" name="TURBO">     0</i>
   <i type="int" name="IRESTART">     0</i>
   <i type="int" name="NREBOOT">     0</i>
   <i type="int" name="NMIN">     0</i>
   <i name="EREF">      0.00000000</i>
   <separator name="electronic smearing" >
    <i type="int" name="ISMEAR">     1</i>
    <i name="SIGMA">      0.20000000</i>
    <i name="KSPACING">      0.50000000</i>
    <i type="logical" name="KGAMMA"> T  </i>
    <i type="logical" name="KBLOWUP"> T  </i>
   </separator>
   <separator name="electronic projectors" >
    <i type="logical" name="LREAL"> F  </i>
    <v name="ROPT">      0.00000000</v>
    <i type="int" name="LMAXPAW">  -100</i>
    <i type="int" name="LMAXMIX">     2</i>
    <i type="logical" name="NLSPLINE"> F  </i>
   </separator>
   <separator name="electronic startup" >
    <i type="int" name="ISTART">     0</i>
    <i type="int" name="ICHARG">     1</i>
    <i type="int" name="INIWAV">     1</i>
   </separator>
   <separator name="electronic spin" >
    <i type="int" name="ISPIN">     1</i>
    <i type="logical" name="LNONCOLLINEAR"> F  </i>
    <v name="MAGMOM">      1.00000000      1.00000000</v>
    <i name="NUPDOWN">     -1.00000000</i>
    <i type="logical" name="LSORBIT"> F  </i>
    <v name="SAXIS">      0.00000000      0.00000000      1.00000000</v>
    <i type="logical" name="LSPIRAL"> F  </i>
    <v name="QSPIRAL">      0.00000000      0.00000000      0.00000000</v>
    <i type="logical" name="LZEROZ"> F  </i>
   </separator>
   <separator name="electronic exchange-correlation" >
    <i type="logical" name="LASPH"> F  </i>
    <i type="logical" name="LMETAGGA"> F  </i>
   </separator>
   <separator name="electronic convergence" >
    <i type="int" name="NELM">    60</i>
    <i type="int" name="NELMDL">    -5</i>
    <i type="int" name="NELMIN">     2</i>
    <i name="ENINI">    280.00000000</i>
    <separator name="electronic convergence detail" >
     <i type="logical" name="LDIAG"> T  </i>
     <i type="logical" name="LSUBROT"> F  </i>
     <i name="WEIMIN">      0.00000000</i>
     <i name="EBREAK">      0.00000001</i>
     <i name="DEPER">      0.30000000</i>
     <i type="int" name="NRMM">     4</i>
     <i name="TIME">      0.40000000</i>
    </separator>
   </separator>
   <separator name="electronic mixer" >
    <i name="AMIX">      0.40000000</i>
    <i name="BMIX">      1.00000000</i>
    <i name="AMIN">      0.10000000</i>
    <i name="AMIX_MAG">      1.60000000</i>
    <i name="BMIX_MAG">      1.00000000</i>
    <separator name="electronic mixer details" >
     <i type="int" name="IMIX">     4</i>
     <i type="logical" name="MIXFIRST"> F  </i>
     <i type="int" name="MAXMIX">   -45</i>
     <i name="WC">    100.00000000</i>
     <i type="int" name="INIMIX">     1</i>
     <i type="int" name="MIXPRE">     1</i>
     <i type="int" name="MREMOVE">     5</i>
    </separator>
   </separator>
   <separator name="electronic dipolcorrection" >
    <i type="logical" name="LDIPOL"> F  </i>
    <i type="logical" name="LMONO"> F  </i>
    <i type="int" name="IDIPOL">     0</i>
    <i name="EPSILON">      1.00000000</i>
    <v name="DIPOL">   -100.00000000   -100.00000000   -100.00000000</v>
    <i name="EFIELD">      0.00000000</i>
   </separator>
  </separator>
  <separator name="grids" >
   <i type="int" name="NGX">    10</i>
   <i type="int" name="NGY">    10</i>
   <i type="int" name="NGZ">    18</i>
   <i type="int" name="NGXF">    20</i>
   <i type="int" name="NGYF">    20</i>
   <i type="int" name="NGZF">    36</i>
   <i type="logical" name="ADDGRID"> F  </i>
  </separator>
  <separator name="ionic" >
   <i type="int" name="NSW">     0</i>
   <i type="int" name="IBRION">    -1</i>
   <i type="int" name="MDALGO">     0</i>
   <i type="int" name="ISIF">     2</i>
   <i name="PSTRESS">      0.00000000</i>
   <i name="EDIFFG">      0.00001000</i>
   <i type="int" name="NFREE">     0</i>
   <i name="POTIM">      0.50000000</i>
   <i name="SMASS">     -3.00000000</i>
   <i name="SCALEE">      1.00000000</i>
  </separator>
  <separator name="ionic md" >
   <i name="TEBEG">      0.00010000</i>
   <i name="TEEND">      0.00010000</i>
   <i type="int" name="NBLOCK">     1</i>
   <i type="int" name="KBLOCK">     1</i>
   <i type="int" name="NPACO">   256</i>
   <i name="APACO">     16.00000000</i>
  </separator>
  <separator name="symmetry" >
   <i type="int" name="ISYM">     2</i>
   <i name="SYMPREC">      0.00001000</i>
  </separator>
  <separator name="dos" >
   <i type="int" name="LORBIT">     0</i>
   <v name="RWIGS">     -1.00000000</v>
   <i type="int" name="NEDOS">   301</i>
   <i name="EMIN">     10.00000000</i>
   <i name="EMAX">    -10.00000000</i>
   <i name="EFERMI">      0.00000000</i>
  </separator>
  <separator name="writing" >
   <i type="int" name="NWRITE">     2</i>
   <i type="logical" name="LWAVE"> T  </i>
   <i type="logical" name="LDOWNSAMPLE"> F  </i>
   <i type="logical" name="LCHARG"> T  </i>
   <i type="logical" name="LPARD"> F  </i>
   <i type="logical" name="LVTOT"> F  </i>
   <i type="logical" name="LVHAR"> F  </i>
   <i type="logical" name="LELF"> F  </i>
   <i type="logical" name="LOPTICS"> F  </i>
   <v name="STM">      0.00000000      0.00000000      0.00000000      0.00000000      0.00000000      0.00000000      0.00000000</v>
  </separator>
  <separator name="performance" >
   <i type="int" name="NPAR">     1</i>
   <i type="int" name="NSIM">     4</i>
   <i type="int" name="NBLK">    -1</i>
   <i type="logical" name="LPLANE"> T  </i>
   <i type="logical" name="LSCALAPACK"> F  </i>
   <i type="logical" name="LSCAAWARE"> F  </i>
   <i type="logical" name="LSCALU"> F  </i>
   <i type="logical" name="LASYNC"> F  </i>
   <i type="logical" name="LORBITALREAL"> F  </i>
  </separator>
  <separator name="miscellaneous" >
   <i type="int" name="IDIOT">     3</i>
   <i type="int" name="PHON_NSTRUCT">    -1</i>
   <i type="logical" name="LMUSIC"> F  </i>
   <v name="POMASS">     55.84700000</v>
   <v name="DARWINR">      0.00000000</v>
   <v name="DARWINV">      1.00000000</v>
   <i type="logical" name="LCORR"> T  </i>
  </separator>
  <i type="logical" name="GGA_COMPAT"> T  </i>
  <i type="logical" name="LBERRY"> F  </i>
  <i type="int" name="ICORELEVEL">     0</i>
  <i type="logical" name="LDAU"> F  </i>
  <i type="int" name="I_CONSTRAINED_M">     0</i>
  <separator name="electronic exchange-correlation" >
   <i type="string" name="GGA">PE</i>
   <i type="int" name="VOSKOWN">     0</i>
   <i type="logical" name="LHFCALC"> F  </i>
   <i type="string" name="PRECFOCK"></i>
   <i type="logical" name="LSYMGRAD"> F  </i>
   <i type="logical" name="LHFONE"> F  </i>
   <i type="logical" name="LRHFCALC"> F  </i>
   <i type="logical" name="LTHOMAS"> F  </i>
   <i type="logical" name="LMODELHF"> F  </i>
   <i type="logical" name="LFOCKACE"> F  </i>
   <i name="ENCUT4O">     -1.00000000</i>
   <i type="int" name="EXXOEP">     0</i>
   <i type="int" name="FOURORBIT">     0</i>
   <i name="AEXX">      0.00000000</i>
   <i name="HFALPHA">      0.00000000</i>
   <i name="MCALPHA">      0.00000000</i>
   <i name="ALDAX">      1.00000000</i>
   <i name="AGGAX">      1.00000000</i>
   <i name="ALDAC">      1.00000000</i>
   <i name="AGGAC">      1.00000000</i>
   <i type="int" name="NKREDX">     1</i>
   <i type="int" name="NKREDY">     1</i>
   <i type="int" name="NKREDZ">     1</i>
   <i type="logical" name="SHIFTRED"> F  </i>
   <i type="logical" name="ODDONLY"> F  </i>
   <i type="logical" name="EVENONLY"> F  </i>
   <i type="int" name="LMAXFOCK">     0</i>
   <i type="int" name="NMAXFOCKAE">     0</i>
   <i type="logical" name="LFOCKAEDFT"> F  </i>
   <i name="HFSCREEN">      0.00000000</i>
   <i name="HFSCREENC">      0.00000000</i>
   <i type="int" name="NBANDSGWLOW">     0</i>
  </separator>
  <separator name="vdW DFT" >
   <i type="logical" name="LUSE_VDW"> F  </i>
   <i name="Zab_VDW">     -0.84910000</i>
   <i name="PARAM1">      0.12340000</i>
   <i name="PARAM2">      1.00000000</i>
   <i name="PARAM3">      0.00000000</i>
  </separator>
  <separator name="model GW" >
   <i type="int" name="MODEL_GW">     0</i>
   <i name="MODEL_EPS0">      5.26985310</i>
   <i name="MODEL_ALPHA">      1.00000000</i>
  </separator>
  <separator name="linear response parameters" >
   <i type="logical" name="LEPSILON"> F  </i>
   <i type="logical" name="LRPA"> F  </i>
   <i type="logical" name="LNABLA"> F  </i>
   <i type="logical" name="LVEL"> F  </i>
   <i type="int" name="KINTER">     0</i>
   <i name="CSHIFT">      0.10000000</i>
   <i name="OMEGAMAX">     -1.00000000</i>
   <i name="DEG_THRESHOLD">      0.00200000</i>
   <i name="RTIME">     -0.10000000</i>
   <i name="WPLASMAI">      0.00000000</i>
   <v name="DFIELD">      0.00000000      0.00000000      0.00000000</v>
   <v name="WPLASMA">      0.00000000      0.00000000      0.00000000      0.00000000      0.00000000      0.00000000      0.00000000      0.00000000      0.00000000</v>
  </separator>
  <separator name="orbital magnetization" >
   <i type="logical" name="NUCIND"> F  </i>
   <v name="MAGPOS">      0.00000000      0.00000000      0.00000000</v>
   <i type="logical" name="LNICSALL"> T  </i>
   <i type="logical" name="ORBITALMAG"> F  </i>
   <i type="logical" name="LMAGBLOCH"> F  </i>
   <i type="logical" name="LCHIMAG"> F  </i>
   <i type="logical" name="LGAUGE"> T  </i>
   <i type="int" name="MAGATOM">     0</i>
   <v name="MAGDIPOL">      0.00000000      0.00000000      0.00000000</v>
   <v name="AVECCONST">      0.00000000      0.00000000      0.00000000</v>
  </separator>
  <separator name="response functions" >
   <i type="logical" name="LFINITE_TEMPERATURE"> F  </i>
   <i type="logical" name="LADDER"> F  </i>
   <i type="logical" name="LRPAFORCE"> F  </i>
   <i type="logical" name="LFXC"> F  </i>
   <i type="logical" name="LHARTREE"> T  </i>
   <i type="int" name="IBSE">     0</i>
   <v type="int" name="KPOINT">    -1     0     0     0</v>
   <i type="logical" name="LTCTC"> F  </i>
   <i type="logical" name="LTCTE"> F  </i>
   <i type="logical" name="LTETE"> F  </i>
   <i type="logical" name="LTRIPLET"> F  </i>
   <i type="logical" name="LFXCEPS"> F  </i>
   <i type="logical" name="LFXHEG"> F  </i>
   <i type="int" name="NATURALO">     2</i>
   <i type="logical" name="LHOLEGF"> F  </i>
   <i type="logical" name="L2ORDER"> F  </i>
   <i type="logical" name="LDMP1"> F  </i>
   <i type="logical" name="LMP2LT"> F  </i>
   <i type="logical" name="LSMP2LT"> F  </i>
   <i type="logical" name="LGWLF"> F  </i>
   <i name="ENCUTGW">     -2.00000000</i>
   <i name="ENCUTGWSOFT">     -2.00000000</i>
   <i name="ENCUTLF">     -1.00000000</i>
   <i type="logical" name="LESF_SPLINES"> F  </i>
   <i type="int" name="LMAXMP2">    -1</i>
   <i name="SCISSOR">      0.00000000</i>
   <i type="int" name="NOMEGA">     0</i>
   <i type="int" name="NOMEGAR">     0</i>
   <i type="int" name="NBANDSGW">    -1</i>
   <i type="int" name="NBANDSO">    -1</i>
   <i type="int" name="NBANDSV">    -1</i>
   <i type="int" name="NELM">     1</i>
   <i type="int" name="NELMHF">     1</i>
   <i type="int" name="DIM">     3</i>
   <i type="int" name="IESPILON">     4</i>
   <i type="int" name="ANTIRES">     0</i>
   <i name="OMEGAMAX">    -30.00000000</i>
   <i name="OMEGAMIN">    -30.00000000</i>
   <i name="OMEGATL">   -200.00000000</i>
   <i type="int" name="OMEGAGRID">     0</i>
   <i name="CSHIFT">     -0.10000000</i>
   <i type="logical" name="LSELFENERGY"> F  </i>
   <i type="logical" name="LSPECTRAL"> F  </i>
   <i type="logical" name="LSPECTRALGW"> F  </i>
   <i type="logical" name="LSINGLES"> F  </i>
   <i type="logical" name="LFERMIGW"> F  </i>
   <i type="logical" name="ODDONLYGW"> F  </i>
   <i type="logical" name="EVENONLYGW"> F  </i>
   <i type="int" name="NKREDLFX">     1</i>
   <i type="int" name="NKREDLFY">     1</i>
   <i type="int" name="NKREDLFZ">     1</i>
   <i type="int" name="MAXMEM">  2800</i>
   <i type="int" name="TELESCOPE">     0</i>
   <i type="int" name="NTAUPAR">    -1</i>
   <i type="int" name="NOMEGAPAR">    -1</i>
   <i name="DAMP_NEWTON">      0.80000001</i>
   <i name="LAMBDA">      1.00000000</i>
  </separator>
  <separator name="External order field" >
   <i name="OFIELD_KAPPA">      0.00000000</i>
   <v name="OFIELD_K">      0.00000000      0.00000000      0.00000000</v>
   <i name="OFIELD_Q6_NEAR">      0.00000000</i>
   <i name="OFIELD_Q6_FAR">      0.00000000</i>
   <i name="OFIELD_A">      0.00000000</i>
  </separator>
 </parameters>
 <atominfo>
  <atoms>       2 </atoms>
  <types>       1 </types>
  <array name="atoms" >
   <dimension dim="1">ion</dimension>
   <field type="string">element</field>
   <field type="int">atomtype</field>
   <set>
    <rc><c>Fe</c><c>   1</c></rc>
    <rc><c>Fe</c><c>   1</c></rc>
   </set>
  </array>
  <array name="atomtypes" >
   <dimension dim="1">type</dimension>
   <field type="int">atomspertype</field>
   <field type="string">element</field>
   <field>mass</field>
   <field>valence</field>
   <field type="string">pseudopotential</field>
   <set>
    <rc><c>   2</c><c>Fe</c><c>     55.84700000</c><c>      8.00000000</c><c>  PAW_PBE Fe 06Sep2000                  </c></rc>
   </set>
  </array>
 </atominfo>
 <structure name="initialpos" >
  <crystal>
   <varray name="basis" >
    <v>       2.23680000       0.00000000       0.00000000 </v>
    <v>      -1.11840000       1.93712562       0.00000000 </v>
    <v>       0.00000000       0.00000000       4.05408000 </v>
   </varray>
   <i name="volume">     17.56617699 </i>
   <varray name="rec_basis" >
    <v>       0.44706724       0.25811439       0.00000000 </v>
    <v>       0.00000000       0.51622878       0.00000000 </v>
    <v>       0.00000000       0.00000000       0.24666509 </v>
   </varray>
  </crystal>
  <varray name="positions" >
   <v>       0.00000000       0.00000000       0.00000000 </v>
   <v>       0.33333333       0.66666667       0.50000000 </v>
  </varray>
 </structure>
 <calculation>
  <scstep>
   <time name="dav">    0.79    0.81</time>
   <time name="total">    0.80    0.82</time>
   <energy>
    <i name="alphaZ">    157.37920898 </i>
    <i name="ewald">  -1287.90234133 </i>
    <i name="hartreedc">   -186.47954991 </i>
    <i name="XCdc">      9.49478523 </i>
    <i name="pawpsdc">   1109.69170683 </i>
    <i name="pawaedc">  -1125.09647265 </i>
    <i name="eentropy">      0.00214890 </i>
    <i name="bandstr">    193.93216739 </i>
    <i name="atom">   1188.57490811 </i>
    <i name="e_fr_energy">     59.59656155 </i>
    <i name="e_wo_entrp">     59.59441265 </i>
    <i name="e_0_energy">     59.59584525 </i>
   </energy>
  </scstep>
  <scstep>
   <time name="dav">    0.67    0.67</time>
   <time name="total">    0.67    0.67</time>
   <energy>
    <i name="e_fr_energy">    -14.25014799 </i>
    <i name="e_wo_entrp">    -14.25268764 </i>
    <i name="e_0_energy">    -14.25099454 </i>
   </energy>
  </scstep>
  <scstep>
   <time name="dav">    0.78    0.78</time>
   <time name="total">    0.78    0.78</time>
   <energy>
    <i name="e_fr_energy">    -18.05957669 </i>
    <i name="e_wo_entrp">    -18.05975765 </i>
    <i name="e_0_energy">    -18.05963701 </i>
   </energy>
  </scstep>
  <scstep>
   <time name="dav">    0.72    0.72</time>
   <time name="total">    0.72    0.72</time>
   <energy>
    <i name="e_fr_energy">    -18.07175116 </i>
    <i name="e_wo_entrp">    -18.07191323 </i>
    <i name="e_0_energy">    -18.07180519 </i>
   </energy>
  </scstep>
  <scstep>
   <time name="dav">    0.75    0.75</time>
   <time name="total">    0.78    0.78</time>
   <energy>
    <i name="e_fr_energy">    -18.07175860 </i>
    <i name="e_wo_entrp">    -18.07192066 </i>
    <i name="e_0_energy">    -18.07181262 </i>
   </energy>
  </scstep>
  <scstep>
   <time name="dav">    0.89    0.89</time>
   <time name="total">    0.93    0.93</time>
   <energy>
    <i name="e_fr_energy">    -15.57063349 </i>
    <i name="e_wo_entrp">    -15.57224205 </i>
    <i name="e_0_energy">    -15.57116968 </i>
   </energy>
  </scstep>
  <scstep>
   <time name="dav">    0.77    0.77</time>
   <time name="total">    0.80    0.80</time>
   <energy>
    <i name="e_fr_energy">    -15.45854417 </i>
    <i name="e_wo_entrp">    -15.45993139 </i>
    <i name="e_0_energy">    -15.45900658 </i>
   </energy>
  </scstep>
  <scstep>
   <time name="dav">    0.83    0.83</time>
   <time name="total">    0.86    0.86</time>
   <energy>
    <i name="e_fr_energy">    -15.41954583 </i>
    <i name="e_wo_entrp">    -15.42102507 </i>
    <i name="e_0_energy">    -15.42003891 </i>
   </energy>
  </scstep>
  <scstep>
   <time name="dav">    0.82    0.82</time>
   <time name="total">    0.85    0.85</time>
   <energy>
    <i name="e_fr_energy">    -15.41503863 </i>
    <i name="e_wo_entrp">    -15.41653047 </i>
    <i name="e_0_energy">    -15.41553591 </i>
   </energy>
  </scstep>
  <scstep>
   <time name="dav">    0.69    0.69</time>
   <time name="total">    0.72    0.72</time>
   <energy>
    <i name="e_fr_energy">    -15.41503937 </i>
    <i name="e_wo_entrp">    -15.41653273 </i>
    <i name="e_0_energy">    -15.41553716 </i>
   </energy>
  </scstep>
  <scstep>
   <time name="dav">    0.73    0.73</time>
   <time name="total">    0.77    0.77</time>
   <energy>
    <i name="e_fr_energy">    -15.41500194 </i>
    <i name="e_wo_entrp">    -15.41649472 </i>
    <i name="e_0_energy">    -15.41549953 </i>
   </energy>
  </scstep>
  <scstep>
   <time name="dav">    0.62    0.62</time>
   <time name="total">    0.65    0.65</time>
   <energy>
    <i name="e_fr_energy">    -15.41500002 </i>
    <i name="e_wo_entrp">    -15.41649269 </i>
    <i name="e_0_energy">    -15.41549758 </i>
   </energy>
  </scstep>
  <scstep>
   <time name="dav">    0.51    0.51</time>
   <time name="total">    0.54    0.54</time>
   <energy>
    <i name="e_fr_energy">    -15.41500135 </i>
    <i name="e_wo_entrp">    -15.41649402 </i>
    <i name="e_0_energy">    -15.41549891 </i>
   </energy>
  </scstep>
  <scstep>
   <time name="dav">    0.47    0.47</time>
   <time name="total">    0.48    0.48</time>
   <energy>
    <i name="alphaZ">    157.37920898 </i>
    <i name="ewald">  -1287.90234133 </i>
    <i name="hartreedc">   -153.78307672 </i>
    <i name="XCdc">      7.95026089 </i>
    <i name="pawpsdc">   1688.06803288 </i>
    <i name="pawaedc">  -1707.37794405 </i>
    <i name="eentropy">      0.00149266 </i>
    <i name="bandstr">     91.67445710 </i>
    <i name="atom">   1188.57490811 </i>
    <i name="e_fr_energy">    -15.41500147 </i>
    <i name="e_wo_entrp">    -15.41649413 </i>
    <i name="e_0_energy">    -15.41549902 </i>
   </energy>
  </scstep>
  <structure>
   <crystal>
    <varray name="basis" >
     <v>       2.23680000       0.00000000       0.00000000 </v>
     <v>      -1.11840000       1.93712562       0.00000000 </v>
     <v>       0.00000000       0.00000000       4.05408000 </v>
    </varray>
    <i name="volume">     17.56617699 </i>
    <varray name="rec_basis" >
     <v>       0.44706724       0.25811439       0.00000000 </v>
     <v>       0.00000000       0.51622878       0.00000000 </v>
     <v>       0.00000000       0.00000000       0.24666509 </v>
    </varray>
   </crystal>
   <varray name="positions" >
    <v>       0.00000000       0.00000000       0.00000000 </v>
    <v>       0.33333333       0.66666667       0.50000000 </v>
   </varray>
  </structure>
  <varray name="forces" >
   <v>       0.00000000      -0.00000000       0.00000000 </v>
   <v>      -0.00000000       0.00000000      -0.00000000 </v>
  </varray>
  <varray name="stress" >
   <v>     958.32061799      -0.00000000       0.00000000 </v>
   <v>      -0.00000000     958.32061799       0.00000000 </v>
   <v>       0.00000000       0.00000000      23.37373439 </v>
  </varray>
  <energy>
   <i name="e_fr_energy">    -15.41500147 </i>
   <i name="e_wo_entrp">    -15.41649413 </i>
   <i name="e_0_energy">    -15.41549902 </i>
  </energy>
  <time name="totalsc">   10.62   10.64</time>
  <eigenvalues>
   <array>
    <dimension dim="1">band</dimension>
    <dimension dim="2">kpoint</dimension>
    <dimension dim="3">spin</dimension>
    <field>eigene</field>
    <field>occ</field>
    <set>
     <set comment="spin 1">
      <set comment="kpoint 1">
       <r>   -1.0311    1.0000 </r>
       <r>    2.8219    1.0000 </r>
       <r>    5.7902    1.0000 </r>
       <r>    6.7818    1.0000 </r>
       <r>    6.7818    1.0000 </r>
       <r>    7.1255    1.0000 </r>
       <r>    7.1256    1.0000 </r>
       <r>    7.5723    1.0000 </r>
       <r>    8.4982    1.0354 </r>
       <r>    8.4982    1.0354 </r>
       <r>    9.6757   -0.0000 </r>
       <r>    9.6757   -0.0000 </r>
       <r>   17.1267    0.0000 </r>
       <r>   32.9056    0.0000 </r>
       <r>   33.8914    0.0000 </r>
       <r>   37.0684    0.0000 </r>
       <r>   41.1528    0.0000 </r>
       <r>   41.1529    0.0000 </r>
       <r>   41.1701    0.0000 </r>
       <r>   41.8343    0.0000 </r>
       <r>   41.8344    0.0000 </r>
       <r>   43.7534    0.0000 </r>
       <r>   43.7534    0.0000 </r>
       <r>   44.7805    0.0000 </r>
       <r>   48.0459    0.0000 </r>
       <r>   48.0459    0.0000 </r>
       <r>   48.9451    0.0000 </r>
       <r>   53.2720    0.0000 </r>
       <r>   53.2721    0.0000 </r>
       <r>   54.7777    0.0000 </r>
       <r>   54.7777    0.0000 </r>
       <r>   57.4121    0.0000 </r>
       <r>   64.5673    0.0000 </r>
       <r>   64.7475    0.0000 </r>
       <r>   65.2923    0.0000 </r>
       <r>   65.2923    0.0000 </r>
       <r>   66.2574    0.0000 </r>
       <r>   69.0538    0.0000 </r>
       <r>   69.0539    0.0000 </r>
       <r>   70.0169    0.0000 </r>
      </set>
      <set comment="kpoint 2">
       <r>   -0.6512    1.0000 </r>
       <r>    3.1210    1.0000 </r>
       <r>    5.8617    1.0000 </r>
       <r>    6.6505    1.0000 </r>
       <r>    6.6907    1.0000 </r>
       <r>    6.9711    1.0000 </r>
       <r>    7.0227    1.0000 </r>
       <r>    7.3521    1.0000 </r>
       <r>    8.2757    1.0024 </r>
       <r>    8.3586    1.0106 </r>
       <r>    9.7105   -0.0000 </r>
       <r>   10.8472   -0.0000 </r>
       <r>   17.1392    0.0000 </r>
       <r>   32.9454    0.0000 </r>
       <r>   33.3535    0.0000 </r>
       <r>   35.8451    0.0000 </r>
       <r>   37.9654    0.0000 </r>
       <r>   39.2678    0.0000 </r>
       <r>   39.7964    0.0000 </r>
       <r>   40.9667    0.0000 </r>
       <r>   43.1947    0.0000 </r>
       <r>   44.3427    0.0000 </r>
       <r>   45.0121    0.0000 </r>
       <r>   45.6090    0.0000 </r>
       <r>   49.2776    0.0000 </r>
       <r>   49.5314    0.0000 </r>
       <r>   50.3206    0.0000 </r>
       <r>   50.5946    0.0000 </r>
       <r>   53.5550    0.0000 </r>
       <r>   56.3676    0.0000 </r>
       <r>   57.1322    0.0000 </r>
       <r>   59.0258    0.0000 </r>
       <r>   63.0785    0.0000 </r>
       <r>   64.2564    0.0000 </r>
       <r>   64.3488    0.0000 </r>
       <r>   64.8419    0.0000 </r>
       <r>   65.6673    0.0000 </r>
       <r>   69.3851    0.0000 </r>
       <r>   70.1156    0.0000 </r>
       <r>   71.1813    0.0000 </r>
      </set>
      <set comment="kpoint 3">
       <r>    0.4079    1.0000 </r>
       <r>    3.8040    1.0000 </r>
       <r>    5.4687    1.0000 </r>
       <r>    5.7801    1.0000 </r>
       <r>    6.3632    1.0000 </r>
       <r>    7.0688    1.0000 </r>
       <r>    7.7071    1.0000 </r>
       <r>    7.7611    1.0000 </r>
       <r>    7.9911    1.0000 </r>
       <r>    8.0313    1.0000 </r>
       <r>    9.7616   -0.0000 </r>
       <r>   12.8648   -0.0000 </r>
       <r>   17.2299    0.0000 </r>
       <r>   29.4096    0.0000 </r>
       <r>   34.2183    0.0000 </r>
       <r>   34.5178    0.0000 </r>
       <r>   34.8346    0.0000 </r>
       <r>   34.9125    0.0000 </r>
       <r>   40.2180    0.0000 </r>
       <r>   40.8994    0.0000 </r>
       <r>   41.5740    0.0000 </r>
       <r>   42.3431    0.0000 </r>
       <r>   46.0787    0.0000 </r>
       <r>   47.0138    0.0000 </r>
       <r>   50.2472    0.0000 </r>
       <r>   50.8904    0.0000 </r>
       <r>   52.1271    0.0000 </r>
       <r>   54.4958    0.0000 </r>
       <r>   57.1557    0.0000 </r>
       <r>   58.6519    0.0000 </r>
       <r>   59.8588    0.0000 </r>
       <r>   61.2766    0.0000 </r>
       <r>   62.1635    0.0000 </r>
       <r>   62.6501    0.0000 </r>
       <r>   63.0051    0.0000 </r>
       <r>   63.5859    0.0000 </r>
       <r>   67.1438    0.0000 </r>
       <r>   70.2631    0.0000 </r>
       <r>   70.3498    0.0000 </r>
       <r>   71.2720    0.0000 </r>
      </set>
      <set comment="kpoint 4">
       <r>    1.8432    1.0000 </r>
       <r>    4.0198    1.0000 </r>
       <r>    4.4880    1.0000 </r>
       <r>    5.8234    1.0000 </r>
       <r>    6.1774    1.0000 </r>
       <r>    7.1252    1.0000 </r>
       <r>    7.6595    1.0000 </r>
       <r>    8.0345    1.0000 </r>
       <r>    8.6775    0.7528 </r>
       <r>    8.8858    0.0314 </r>
       <r>    9.7778   -0.0000 </r>
       <r>   15.1372    0.0000 </r>
       <r>   17.4459    0.0000 </r>
       <r>   25.2159    0.0000 </r>
       <r>   30.6316    0.0000 </r>
       <r>   32.1279    0.0000 </r>
       <r>   32.8918    0.0000 </r>
       <r>   34.9803    0.0000 </r>
       <r>   38.7215    0.0000 </r>
       <r>   40.9305    0.0000 </r>
       <r>   41.6989    0.0000 </r>
       <r>   41.9753    0.0000 </r>
       <r>   43.4529    0.0000 </r>
       <r>   46.6983    0.0000 </r>
       <r>   53.8617    0.0000 </r>
       <r>   55.0442    0.0000 </r>
       <r>   55.9299    0.0000 </r>
       <r>   56.9470    0.0000 </r>
       <r>   57.2390    0.0000 </r>
       <r>   59.4256    0.0000 </r>
       <r>   60.6191    0.0000 </r>
       <r>   62.2993    0.0000 </r>
       <r>   62.4882    0.0000 </r>
       <r>   62.8767    0.0000 </r>
       <r>   63.9964    0.0000 </r>
       <r>   67.1040    0.0000 </r>
       <r>   67.6760    0.0000 </r>
       <r>   70.4809    0.0000 </r>
       <r>   71.0155    0.0000 </r>
       <r>   71.3630    0.0000 </r>
      </set>
      <set comment="kpoint 5">
       <r>    2.9341    1.0000 </r>
       <r>    3.6473    1.0000 </r>
       <r>    3.8248    1.0000 </r>
       <r>    6.0232    1.0000 </r>
       <r>    6.5698    1.0000 </r>
       <r>    6.8292    1.0000 </r>
       <r>    7.3519    1.0000 </r>
       <r>    9.6196   -0.0000 </r>
       <r>    9.6630   -0.0000 </r>
       <r>    9.7651   -0.0000 </r>
       <r>    9.7901   -0.0000 </r>
       <r>   17.3798    0.0000 </r>
       <r>   17.5473    0.0000 </r>
       <r>   22.0718    0.0000 </r>
       <r>   27.1361    0.0000 </r>
       <r>   29.9913    0.0000 </r>
       <r>   30.0511    0.0000 </r>
       <r>   34.2809    0.0000 </r>
       <r>   37.7137    0.0000 </r>
       <r>   41.1661    0.0000 </r>
       <r>   41.3067    0.0000 </r>
       <r>   42.8592    0.0000 </r>
       <r>   42.8828    0.0000 </r>
       <r>   46.5696    0.0000 </r>
       <r>   53.8352    0.0000 </r>
       <r>   55.9804    0.0000 </r>
       <r>   57.0569    0.0000 </r>
       <r>   60.1229    0.0000 </r>
       <r>   60.4030    0.0000 </r>
       <r>   60.4294    0.0000 </r>
       <r>   61.3487    0.0000 </r>
       <r>   63.5812    0.0000 </r>
       <r>   64.0287    0.0000 </r>
       <r>   64.7180    0.0000 </r>
       <r>   65.6554    0.0000 </r>
       <r>   67.2288    0.0000 </r>
       <r>   70.3195    0.0000 </r>
       <r>   71.2267    0.0000 </r>
       <r>   71.3899    0.0000 </r>
       <r>   71.9130    0.0000 </r>
      </set>
      <set comment="kpoint 6">
       <r>    3.1307    1.0000 </r>
       <r>    3.4524    1.0000 </r>
       <r>    3.4940    1.0000 </r>
       <r>    6.2510    1.0000 </r>
       <r>    6.7435    1.0000 </r>
       <r>    7.1337    1.0000 </r>
       <r>    7.1785    1.0000 </r>
       <r>    9.7485   -0.0000 </r>
       <r>   10.2826   -0.0000 </r>
       <r>   10.3989   -0.0000 </r>
       <r>   11.6576   -0.0000 </r>
       <r>   15.5606    0.0000 </r>
       <r>   19.8055    0.0000 </r>
       <r>   21.8491    0.0000 </r>
       <r>   24.3687    0.0000 </r>
       <r>   27.1379    0.0000 </r>
       <r>   28.8776    0.0000 </r>
       <r>   33.6425    0.0000 </r>
       <r>   37.3716    0.0000 </r>
       <r>   39.8676    0.0000 </r>
       <r>   41.1071    0.0000 </r>
       <r>   43.8537    0.0000 </r>
       <r>   45.4185    0.0000 </r>
       <r>   45.8065    0.0000 </r>
       <r>   50.4852    0.0000 </r>
       <r>   56.8417    0.0000 </r>
       <r>   57.5725    0.0000 </r>
       <r>   60.7040    0.0000 </r>
       <r>   61.8721    0.0000 </r>
       <r>   62.9729    0.0000 </r>
       <r>   63.9178    0.0000 </r>
       <r>   64.1748    0.0000 </r>
       <r>   64.8055    0.0000 </r>
       <r>   66.6334    0.0000 </r>
       <r>   67.6674    0.0000 </r>
       <r>   69.5674    0.0000 </r>
       <r>   70.4653    0.0000 </r>
       <r>   70.5272    0.0000 </r>
       <r>   73.4875    0.0000 </r>
       <r>   74.0333    0.0000 </r>
      </set>
      <set comment="kpoint 7">
       <r>    0.0728    1.0000 </r>
       <r>    3.6425    1.0000 </r>
       <r>    5.7903    1.0000 </r>
       <r>    5.7945    1.0000 </r>
       <r>    6.6360    1.0000 </r>
       <r>    6.6832    1.0000 </r>
       <r>    7.5257    1.0000 </r>
       <r>    7.7760    1.0000 </r>
       <r>    7.8487    1.0000 </r>
       <r>    8.2868    1.0031 </r>
       <r>    9.7063   -0.0000 </r>
       <r>   12.3065   -0.0000 </r>
       <r>   17.2004    0.0000 </r>
       <r>   31.0760    0.0000 </r>
       <r>   32.8075    0.0000 </r>
       <r>   34.0879    0.0000 </r>
       <r>   36.2013    0.0000 </r>
       <r>   38.5755    0.0000 </r>
       <r>   38.6036    0.0000 </r>
       <r>   40.0334    0.0000 </r>
       <r>   40.7443    0.0000 </r>
       <r>   46.1105    0.0000 </r>
       <r>   47.0120    0.0000 </r>
       <r>   47.8701    0.0000 </r>
       <r>   48.1337    0.0000 </r>
       <r>   49.0301    0.0000 </r>
       <r>   49.2842    0.0000 </r>
       <r>   55.0403    0.0000 </r>
       <r>   57.2255    0.0000 </r>
       <r>   58.0621    0.0000 </r>
       <r>   58.2008    0.0000 </r>
       <r>   60.9237    0.0000 </r>
       <r>   61.4620    0.0000 </r>
       <r>   63.2211    0.0000 </r>
       <r>   63.7129    0.0000 </r>
       <r>   64.5687    0.0000 </r>
       <r>   65.5075    0.0000 </r>
       <r>   70.1832    0.0000 </r>
       <r>   70.5871    0.0000 </r>
       <r>   71.5724    0.0000 </r>
      </set>
      <set comment="kpoint 8">
       <r>    1.3620    1.0000 </r>
       <r>    4.2618    1.0000 </r>
       <r>    4.8471    1.0000 </r>
       <r>    5.4965    1.0000 </r>
       <r>    6.2723    1.0000 </r>
       <r>    7.1840    1.0000 </r>
       <r>    7.1888    1.0000 </r>
       <r>    7.9549    1.0000 </r>
       <r>    8.4211    1.0232 </r>
       <r>    8.7773    0.3476 </r>
       <r>    9.6785   -0.0000 </r>
       <r>   14.3498    0.0000 </r>
       <r>   17.4042    0.0000 </r>
       <r>   27.3519    0.0000 </r>
       <r>   30.2436    0.0000 </r>
       <r>   32.5235    0.0000 </r>
       <r>   34.5491    0.0000 </r>
       <r>   36.0445    0.0000 </r>
       <r>   38.6625    0.0000 </r>
       <r>   39.2663    0.0000 </r>
       <r>   40.5244    0.0000 </r>
       <r>   45.4677    0.0000 </r>
       <r>   45.6072    0.0000 </r>
       <r>   47.5737    0.0000 </r>
       <r>   50.5109    0.0000 </r>
       <r>   51.1016    0.0000 </r>
       <r>   53.5403    0.0000 </r>
       <r>   57.5525    0.0000 </r>
       <r>   58.7716    0.0000 </r>
       <r>   59.6453    0.0000 </r>
       <r>   60.2912    0.0000 </r>
       <r>   61.9095    0.0000 </r>
       <r>   62.0890    0.0000 </r>
       <r>   62.9608    0.0000 </r>
       <r>   64.4217    0.0000 </r>
       <r>   64.7546    0.0000 </r>
       <r>   66.4941    0.0000 </r>
       <r>   70.1037    0.0000 </r>
       <r>   71.2793    0.0000 </r>
       <r>   72.1056    0.0000 </r>
      </set>
      <set comment="kpoint 9">
       <r>    2.7582    1.0000 </r>
       <r>    4.0676    1.0000 </r>
       <r>    4.1243    1.0000 </r>
       <r>    5.6625    1.0000 </r>
       <r>    6.4223    1.0000 </r>
       <r>    6.6750    1.0000 </r>
       <r>    7.4976    1.0000 </r>
       <r>    8.2070    1.0005 </r>
       <r>    9.3972   -0.0000 </r>
       <r>    9.6438   -0.0000 </r>
       <r>    9.9831   -0.0000 </r>
       <r>   16.6688    0.0000 </r>
       <r>   17.7702    0.0000 </r>
       <r>   23.4440    0.0000 </r>
       <r>   28.3818    0.0000 </r>
       <r>   28.9632    0.0000 </r>
       <r>   32.6008    0.0000 </r>
       <r>   33.6025    0.0000 </r>
       <r>   38.6677    0.0000 </r>
       <r>   40.0420    0.0000 </r>
       <r>   40.1057    0.0000 </r>
       <r>   44.5591    0.0000 </r>
       <r>   44.8601    0.0000 </r>
       <r>   48.2205    0.0000 </r>
       <r>   52.6075    0.0000 </r>
       <r>   54.9269    0.0000 </r>
       <r>   56.1804    0.0000 </r>
       <r>   56.1827    0.0000 </r>
       <r>   58.8914    0.0000 </r>
       <r>   60.7995    0.0000 </r>
       <r>   60.8403    0.0000 </r>
       <r>   63.6074    0.0000 </r>
       <r>   64.5334    0.0000 </r>
       <r>   64.9251    0.0000 </r>
       <r>   65.2050    0.0000 </r>
       <r>   66.6004    0.0000 </r>
       <r>   69.6951    0.0000 </r>
       <r>   70.8031    0.0000 </r>
       <r>   70.9260    0.0000 </r>
       <r>   72.5485    0.0000 </r>
      </set>
      <set comment="kpoint 10">
       <r>    3.3827    1.0000 </r>
       <r>    3.6874    1.0000 </r>
       <r>    3.7245    1.0000 </r>
       <r>    6.2373    1.0000 </r>
       <r>    6.3361    1.0000 </r>
       <r>    6.9396    1.0000 </r>
       <r>    7.1233    1.0000 </r>
       <r>    9.4066   -0.0000 </r>
       <r>    9.6067   -0.0000 </r>
       <r>   10.0585   -0.0000 </r>
       <r>   11.4600   -0.0000 </r>
       <r>   17.0652    0.0000 </r>
       <r>   19.0875    0.0000 </r>
       <r>   21.6984    0.0000 </r>
       <r>   25.8065    0.0000 </r>
       <r>   26.8587    0.0000 </r>
       <r>   29.2017    0.0000 </r>
       <r>   32.6443    0.0000 </r>
       <r>   37.7627    0.0000 </r>
       <r>   39.5681    0.0000 </r>
       <r>   41.8373    0.0000 </r>
       <r>   44.6496    0.0000 </r>
       <r>   45.4317    0.0000 </r>
       <r>   47.3428    0.0000 </r>
       <r>   52.4960    0.0000 </r>
       <r>   55.1772    0.0000 </r>
       <r>   56.6885    0.0000 </r>
       <r>   58.3977    0.0000 </r>
       <r>   60.6746    0.0000 </r>
       <r>   61.7594    0.0000 </r>
       <r>   62.8411    0.0000 </r>
       <r>   63.8941    0.0000 </r>
       <r>   64.3272    0.0000 </r>
       <r>   67.3222    0.0000 </r>
       <r>   68.3327    0.0000 </r>
       <r>   68.5399    0.0000 </r>
       <r>   69.4117    0.0000 </r>
       <r>   71.9508    0.0000 </r>
       <r>   72.0977    0.0000 </r>
       <r>   73.7679    0.0000 </r>
      </set>
      <set comment="kpoint 11">
       <r>    3.3495    1.0000 </r>
       <r>    3.5426    1.0000 </r>
       <r>    3.6835    1.0000 </r>
       <r>    6.2186    1.0000 </r>
       <r>    6.7881    1.0000 </r>
       <r>    6.9812    1.0000 </r>
       <r>    7.0224    1.0000 </r>
       <r>    9.5908   -0.0000 </r>
       <r>   10.1001   -0.0000 </r>
       <r>   10.1392   -0.0000 </r>
       <r>   12.8403   -0.0000 </r>
       <r>   15.3521    0.0000 </r>
       <r>   20.7221    0.0000 </r>
       <r>   22.3111    0.0000 </r>
       <r>   23.9255    0.0000 </r>
       <r>   25.8542    0.0000 </r>
       <r>   27.7094    0.0000 </r>
       <r>   32.2928    0.0000 </r>
       <r>   37.3544    0.0000 </r>
       <r>   39.4098    0.0000 </r>
       <r>   42.3162    0.0000 </r>
       <r>   45.2301    0.0000 </r>
       <r>   46.3171    0.0000 </r>
       <r>   46.8077    0.0000 </r>
       <r>   50.4233    0.0000 </r>
       <r>   56.1421    0.0000 </r>
       <r>   57.2142    0.0000 </r>
       <r>   58.6835    0.0000 </r>
       <r>   62.1053    0.0000 </r>
       <r>   62.3514    0.0000 </r>
       <r>   64.1335    0.0000 </r>
       <r>   64.2291    0.0000 </r>
       <r>   64.9313    0.0000 </r>
       <r>   66.6061    0.0000 </r>
       <r>   68.4924    0.0000 </r>
       <r>   71.0364    0.0000 </r>
       <r>   71.1886    0.0000 </r>
       <r>   71.3036    0.0000 </r>
       <r>   71.4979    0.0000 </r>
       <r>   74.0319    0.0000 </r>
      </set>
      <set comment="kpoint 12">
       <r>    2.7364    1.0000 </r>
       <r>    4.3018    1.0000 </r>
       <r>    4.7938    1.0000 </r>
       <r>    4.9337    1.0000 </r>
       <r>    6.3790    1.0000 </r>
       <r>    6.6121    1.0000 </r>
       <r>    7.4772    1.0000 </r>
       <r>    7.6400    1.0000 </r>
       <r>    9.3634   -0.0000 </r>
       <r>    9.5018   -0.0000 </r>
       <r>   10.0746   -0.0000 </r>
       <r>   16.3985    0.0000 </r>
       <r>   17.9360    0.0000 </r>
       <r>   25.1781    0.0000 </r>
       <r>   26.2167    0.0000 </r>
       <r>   30.4546    0.0000 </r>
       <r>   32.3092    0.0000 </r>
       <r>   35.1463    0.0000 </r>
       <r>   35.7473    0.0000 </r>
       <r>   39.3914    0.0000 </r>
       <r>   41.9869    0.0000 </r>
       <r>   46.7142    0.0000 </r>
       <r>   47.5850    0.0000 </r>
       <r>   48.9710    0.0000 </r>
       <r>   50.1050    0.0000 </r>
       <r>   52.2206    0.0000 </r>
       <r>   53.1474    0.0000 </r>
       <r>   57.4027    0.0000 </r>
       <r>   59.6253    0.0000 </r>
       <r>   59.9024    0.0000 </r>
       <r>   60.2318    0.0000 </r>
       <r>   63.8420    0.0000 </r>
       <r>   63.8734    0.0000 </r>
       <r>   65.3112    0.0000 </r>
       <r>   66.3345    0.0000 </r>
       <r>   67.7266    0.0000 </r>
       <r>   67.9938    0.0000 </r>
       <r>   70.0592    0.0000 </r>
       <r>   70.6932    0.0000 </r>
       <r>   73.7615    0.0000 </r>
      </set>
      <set comment="kpoint 13">
       <r>    3.9335    1.0000 </r>
       <r>    3.9532    1.0000 </r>
       <r>    4.3531    1.0000 </r>
       <r>    5.3207    1.0000 </r>
       <r>    6.2665    1.0000 </r>
       <r>    6.7482    1.0000 </r>
       <r>    7.1179    1.0000 </r>
       <r>    8.2248    1.0008 </r>
       <r>    9.3522   -0.0001 </r>
       <r>    9.9552   -0.0000 </r>
       <r>   11.6681   -0.0000 </r>
       <r>   18.6147    0.0000 </r>
       <r>   18.7650    0.0000 </r>
       <r>   22.0967    0.0000 </r>
       <r>   24.3773    0.0000 </r>
       <r>   27.7810    0.0000 </r>
       <r>   30.5154    0.0000 </r>
       <r>   31.4146    0.0000 </r>
       <r>   34.4677    0.0000 </r>
       <r>   41.7855    0.0000 </r>
       <r>   42.4817    0.0000 </r>
       <r>   46.5270    0.0000 </r>
       <r>   48.4114    0.0000 </r>
       <r>   50.4341    0.0000 </r>
       <r>   51.0579    0.0000 </r>
       <r>   53.0455    0.0000 </r>
       <r>   54.4494    0.0000 </r>
       <r>   55.5557    0.0000 </r>
       <r>   58.7726    0.0000 </r>
       <r>   60.5353    0.0000 </r>
       <r>   62.7420    0.0000 </r>
       <r>   63.8278    0.0000 </r>
       <r>   64.5668    0.0000 </r>
       <r>   67.1654    0.0000 </r>
       <r>   68.4134    0.0000 </r>
       <r>   68.5124    0.0000 </r>
       <r>   70.4727    0.0000 </r>
       <r>   71.2116    0.0000 </r>
       <r>   73.3346    0.0000 </r>
       <r>   74.7685    0.0000 </r>
      </set>
      <set comment="kpoint 14">
       <r>    3.7968    1.0000 </r>
       <r>    4.0011    1.0000 </r>
       <r>    4.2780    1.0000 </r>
       <r>    6.0224    1.0000 </r>
       <r>    6.2022    1.0000 </r>
       <r>    6.6473    1.0000 </r>
       <r>    7.0865    1.0000 </r>
       <r>    9.1492   -0.0069 </r>
       <r>    9.2672   -0.0006 </r>
       <r>    9.9195   -0.0000 </r>
       <r>   13.5194   -0.0000 </r>
       <r>   16.9610    0.0000 </r>
       <r>   21.1663    0.0000 </r>
       <r>   22.2767    0.0000 </r>
       <r>   23.3813    0.0000 </r>
       <r>   25.0213    0.0000 </r>
       <r>   28.2649    0.0000 </r>
       <r>   29.7918    0.0000 </r>
       <r>   33.7959    0.0000 </r>
       <r>   42.5917    0.0000 </r>
       <r>   44.1757    0.0000 </r>
       <r>   46.5450    0.0000 </r>
       <r>   47.4882    0.0000 </r>
       <r>   48.9726    0.0000 </r>
       <r>   53.0076    0.0000 </r>
       <r>   53.5576    0.0000 </r>
       <r>   55.0197    0.0000 </r>
       <r>   56.5734    0.0000 </r>
       <r>   60.5711    0.0000 </r>
       <r>   61.3064    0.0000 </r>
       <r>   62.1474    0.0000 </r>
       <r>   64.1433    0.0000 </r>
       <r>   64.3779    0.0000 </r>
       <r>   65.4999    0.0000 </r>
       <r>   69.1354    0.0000 </r>
       <r>   70.6663    0.0000 </r>
       <r>   71.4071    0.0000 </r>
       <r>   73.0817    0.0000 </r>
       <r>   73.1281    0.0000 </r>
       <r>   73.2205    0.0000 </r>
      </set>
      <set comment="kpoint 15">
       <r>    3.9756    1.0000 </r>
       <r>    4.5947    1.0000 </r>
       <r>    4.9763    1.0000 </r>
       <r>    5.0505    1.0000 </r>
       <r>    6.0708    1.0000 </r>
       <r>    6.5841    1.0000 </r>
       <r>    7.1160    1.0000 </r>
       <r>    8.5511    1.0188 </r>
       <r>    9.0976   -0.0150 </r>
       <r>    9.8669   -0.0000 </r>
       <r>   13.7044   -0.0000 </r>
       <r>   19.2255    0.0000 </r>
       <r>   19.9206    0.0000 </r>
       <r>   21.2276    0.0000 </r>
       <r>   23.1153    0.0000 </r>
       <r>   26.9897    0.0000 </r>
       <r>   27.4189    0.0000 </r>
       <r>   30.1354    0.0000 </r>
       <r>   31.0051    0.0000 </r>
       <r>   43.5402    0.0000 </r>
       <r>   44.5454    0.0000 </r>
       <r>   49.4956    0.0000 </r>
       <r>   50.0459    0.0000 </r>
       <r>   50.4702    0.0000 </r>
       <r>   50.9790    0.0000 </r>
       <r>   51.3612    0.0000 </r>
       <r>   54.5134    0.0000 </r>
       <r>   56.8952    0.0000 </r>
       <r>   57.0560    0.0000 </r>
       <r>   61.1396    0.0000 </r>
       <r>   61.4570    0.0000 </r>
       <r>   64.3163    0.0000 </r>
       <r>   64.5426    0.0000 </r>
       <r>   65.3800    0.0000 </r>
       <r>   69.5046    0.0000 </r>
       <r>   70.7409    0.0000 </r>
       <r>   70.8604    0.0000 </r>
       <r>   71.4545    0.0000 </r>
       <r>   72.8883    0.0000 </r>
       <r>   75.4094    0.0000 </r>
      </set>
      <set comment="kpoint 16">
       <r>    4.0291    1.0000 </r>
       <r>    4.7007    1.0000 </r>
       <r>    4.8658    1.0000 </r>
       <r>    5.4602    1.0000 </r>
       <r>    6.1679    1.0000 </r>
       <r>    6.1744    1.0000 </r>
       <r>    7.2873    1.0000 </r>
       <r>    9.0002   -0.0347 </r>
       <r>    9.0383   -0.0282 </r>
       <r>    9.4367   -0.0000 </r>
       <r>   15.6170    0.0000 </r>
       <r>   17.2293    0.0000 </r>
       <r>   19.5289    0.0000 </r>
       <r>   23.3810    0.0000 </r>
       <r>   24.1026    0.0000 </r>
       <r>   24.8782    0.0000 </r>
       <r>   26.9303    0.0000 </r>
       <r>   28.3085    0.0000 </r>
       <r>   30.3813    0.0000 </r>
       <r>   43.8371    0.0000 </r>
       <r>   47.2838    0.0000 </r>
       <r>   48.0624    0.0000 </r>
       <r>   49.5737    0.0000 </r>
       <r>   49.8055    0.0000 </r>
       <r>   51.2943    0.0000 </r>
       <r>   52.9176    0.0000 </r>
       <r>   56.2850    0.0000 </r>
       <r>   57.0388    0.0000 </r>
       <r>   57.2646    0.0000 </r>
       <r>   60.6102    0.0000 </r>
       <r>   61.3311    0.0000 </r>
       <r>   62.0444    0.0000 </r>
       <r>   64.5463    0.0000 </r>
       <r>   64.7998    0.0000 </r>
       <r>   68.8389    0.0000 </r>
       <r>   70.8250    0.0000 </r>
       <r>   71.8022    0.0000 </r>
       <r>   72.3335    0.0000 </r>
       <r>   73.4697    0.0000 </r>
       <r>   74.5257    0.0000 </r>
      </set>
      <set comment="kpoint 17">
       <r>   -0.9443    1.0000 </r>
       <r>    2.7983    1.0000 </r>
       <r>    5.7672    1.0000 </r>
       <r>    6.7757    1.0000 </r>
       <r>    6.7757    1.0000 </r>
       <r>    7.1085    1.0000 </r>
       <r>    7.1085    1.0000 </r>
       <r>    7.3529    1.0000 </r>
       <r>    8.5365    1.0272 </r>
       <r>    8.5365    1.0272 </r>
       <r>    9.6638   -0.0000 </r>
       <r>    9.6638   -0.0000 </r>
       <r>   17.4957    0.0000 </r>
       <r>   32.2382    0.0000 </r>
       <r>   34.0835    0.0000 </r>
       <r>   36.8931    0.0000 </r>
       <r>   41.1673    0.0000 </r>
       <r>   41.1673    0.0000 </r>
       <r>   41.5848    0.0000 </r>
       <r>   41.8271    0.0000 </r>
       <r>   41.8271    0.0000 </r>
       <r>   43.7599    0.0000 </r>
       <r>   43.7599    0.0000 </r>
       <r>   45.0659    0.0000 </r>
       <r>   47.7813    0.0000 </r>
       <r>   47.7813    0.0000 </r>
       <r>   49.1761    0.0000 </r>
       <r>   53.4749    0.0000 </r>
       <r>   53.4749    0.0000 </r>
       <r>   55.1002    0.0000 </r>
       <r>   55.1002    0.0000 </r>
       <r>   57.1191    0.0000 </r>
       <r>   63.4121    0.0000 </r>
       <r>   64.7374    0.0000 </r>
       <r>   65.1649    0.0000 </r>
       <r>   65.1649    0.0000 </r>
       <r>   67.6788    0.0000 </r>
       <r>   68.0019    0.0000 </r>
       <r>   68.0019    0.0000 </r>
       <r>   68.4782    0.0000 </r>
      </set>
      <set comment="kpoint 18">
       <r>   -0.5668    1.0000 </r>
       <r>    3.1016    1.0000 </r>
       <r>    5.8459    1.0000 </r>
       <r>    6.5241    1.0000 </r>
       <r>    6.6276    1.0000 </r>
       <r>    7.0003    1.0000 </r>
       <r>    7.0139    1.0000 </r>
       <r>    7.3337    1.0000 </r>
       <r>    8.3266    1.0063 </r>
       <r>    8.4042    1.0193 </r>
       <r>    9.6954   -0.0000 </r>
       <r>   10.6985   -0.0000 </r>
       <r>   17.5456    0.0000 </r>
       <r>   32.4856    0.0000 </r>
       <r>   33.2966    0.0000 </r>
       <r>   35.7781    0.0000 </r>
       <r>   38.0308    0.0000 </r>
       <r>   38.8247    0.0000 </r>
       <r>   40.2692    0.0000 </r>
       <r>   41.3061    0.0000 </r>
       <r>   42.9795    0.0000 </r>
       <r>   44.4898    0.0000 </r>
       <r>   45.0859    0.0000 </r>
       <r>   45.7800    0.0000 </r>
       <r>   49.0022    0.0000 </r>
       <r>   49.3576    0.0000 </r>
       <r>   50.8059    0.0000 </r>
       <r>   51.0122    0.0000 </r>
       <r>   53.4764    0.0000 </r>
       <r>   56.5382    0.0000 </r>
       <r>   57.3663    0.0000 </r>
       <r>   58.8134    0.0000 </r>
       <r>   61.9573    0.0000 </r>
       <r>   64.1375    0.0000 </r>
       <r>   64.4689    0.0000 </r>
       <r>   65.1354    0.0000 </r>
       <r>   66.4608    0.0000 </r>
       <r>   68.5420    0.0000 </r>
       <r>   68.5518    0.0000 </r>
       <r>   69.9161    0.0000 </r>
      </set>
      <set comment="kpoint 19">
       <r>    0.4821    1.0000 </r>
       <r>    3.7978    1.0000 </r>
       <r>    5.3838    1.0000 </r>
       <r>    5.7963    1.0000 </r>
       <r>    6.3274    1.0000 </r>
       <r>    6.9995    1.0000 </r>
       <r>    7.6701    1.0000 </r>
       <r>    7.8770    1.0000 </r>
       <r>    7.9439    1.0000 </r>
       <r>    8.1366    1.0001 </r>
       <r>    9.7390   -0.0000 </r>
       <r>   12.5109   -0.0000 </r>
       <r>   17.7634    0.0000 </r>
       <r>   29.4581    0.0000 </r>
       <r>   33.4342    0.0000 </r>
       <r>   34.4139    0.0000 </r>
       <r>   34.9269    0.0000 </r>
       <r>   35.1386    0.0000 </r>
       <r>   39.6876    0.0000 </r>
       <r>   41.2953    0.0000 </r>
       <r>   41.9520    0.0000 </r>
       <r>   42.2341    0.0000 </r>
       <r>   46.3472    0.0000 </r>
       <r>   47.4334    0.0000 </r>
       <r>   50.4659    0.0000 </r>
       <r>   50.8079    0.0000 </r>
       <r>   51.9498    0.0000 </r>
       <r>   54.5827    0.0000 </r>
       <r>   56.5610    0.0000 </r>
       <r>   59.0471    0.0000 </r>
       <r>   60.0923    0.0000 </r>
       <r>   60.5649    0.0000 </r>
       <r>   61.4968    0.0000 </r>
       <r>   62.3942    0.0000 </r>
       <r>   63.5473    0.0000 </r>
       <r>   64.2705    0.0000 </r>
       <r>   67.0366    0.0000 </r>
       <r>   68.9972    0.0000 </r>
       <r>   69.5394    0.0000 </r>
       <r>   71.7186    0.0000 </r>
      </set>
      <set comment="kpoint 20">
       <r>    1.8864    1.0000 </r>
       <r>    4.0176    1.0000 </r>
       <r>    4.4726    1.0000 </r>
       <r>    5.7970    1.0000 </r>
       <r>    6.1592    1.0000 </r>
       <r>    7.1588    1.0000 </r>
       <r>    7.6837    1.0000 </r>
       <r>    8.0760    1.0000 </r>
       <r>    8.6870    0.7180 </r>
       <r>    8.8713    0.0575 </r>
       <r>    9.7508   -0.0000 </r>
       <r>   14.4253    0.0000 </r>
       <r>   18.2817    0.0000 </r>
       <r>   25.2800    0.0000 </r>
       <r>   30.2997    0.0000 </r>
       <r>   32.2418    0.0000 </r>
       <r>   33.0293    0.0000 </r>
       <r>   34.8363    0.0000 </r>
       <r>   38.2798    0.0000 </r>
       <r>   40.5625    0.0000 </r>
       <r>   40.8840    0.0000 </r>
       <r>   42.8781    0.0000 </r>
       <r>   44.2737    0.0000 </r>
       <r>   47.2565    0.0000 </r>
       <r>   53.9574    0.0000 </r>
       <r>   54.4452    0.0000 </r>
       <r>   55.3759    0.0000 </r>
       <r>   55.5386    0.0000 </r>
       <r>   58.9596    0.0000 </r>
       <r>   59.6680    0.0000 </r>
       <r>   60.8235    0.0000 </r>
       <r>   62.0795    0.0000 </r>
       <r>   62.2811    0.0000 </r>
       <r>   62.8515    0.0000 </r>
       <r>   64.3299    0.0000 </r>
       <r>   66.5136    0.0000 </r>
       <r>   67.8081    0.0000 </r>
       <r>   69.6961    0.0000 </r>
       <r>   70.3350    0.0000 </r>
       <r>   72.1302    0.0000 </r>
      </set>
      <set comment="kpoint 21">
       <r>    2.8980    1.0000 </r>
       <r>    3.5823    1.0000 </r>
       <r>    3.9703    1.0000 </r>
       <r>    5.7151    1.0000 </r>
       <r>    6.7477    1.0000 </r>
       <r>    7.0430    1.0000 </r>
       <r>    7.3904    1.0000 </r>
       <r>    9.5737   -0.0000 </r>
       <r>    9.6268   -0.0000 </r>
       <r>    9.6827   -0.0000 </r>
       <r>    9.8564   -0.0000 </r>
       <r>   15.9779    0.0000 </r>
       <r>   18.9799    0.0000 </r>
       <r>   22.1531    0.0000 </r>
       <r>   26.8491    0.0000 </r>
       <r>   30.1807    0.0000 </r>
       <r>   30.2803    0.0000 </r>
       <r>   34.2828    0.0000 </r>
       <r>   37.5900    0.0000 </r>
       <r>   39.7109    0.0000 </r>
       <r>   41.1355    0.0000 </r>
       <r>   42.7866    0.0000 </r>
       <r>   44.3192    0.0000 </r>
       <r>   47.1158    0.0000 </r>
       <r>   52.8146    0.0000 </r>
       <r>   56.7379    0.0000 </r>
       <r>   57.0155    0.0000 </r>
       <r>   59.1333    0.0000 </r>
       <r>   59.5631    0.0000 </r>
       <r>   61.4723    0.0000 </r>
       <r>   61.8717    0.0000 </r>
       <r>   63.6801    0.0000 </r>
       <r>   64.0920    0.0000 </r>
       <r>   64.8609    0.0000 </r>
       <r>   65.6437    0.0000 </r>
       <r>   67.1543    0.0000 </r>
       <r>   69.3077    0.0000 </r>
       <r>   70.9570    0.0000 </r>
       <r>   71.5836    0.0000 </r>
       <r>   72.4036    0.0000 </r>
      </set>
      <set comment="kpoint 22">
       <r>    3.0915    1.0000 </r>
       <r>    3.2189    1.0000 </r>
       <r>    3.8234    1.0000 </r>
       <r>    5.7784    1.0000 </r>
       <r>    6.9574    1.0000 </r>
       <r>    7.2243    1.0000 </r>
       <r>    7.5058    1.0000 </r>
       <r>    9.6833   -0.0000 </r>
       <r>   10.2869   -0.0000 </r>
       <r>   10.3983   -0.0000 </r>
       <r>   11.5476   -0.0000 </r>
       <r>   15.3252    0.0000 </r>
       <r>   19.8059    0.0000 </r>
       <r>   21.8381    0.0000 </r>
       <r>   24.5123    0.0000 </r>
       <r>   27.4351    0.0000 </r>
       <r>   29.0162    0.0000 </r>
       <r>   33.6779    0.0000 </r>
       <r>   37.3137    0.0000 </r>
       <r>   38.8228    0.0000 </r>
       <r>   42.2480    0.0000 </r>
       <r>   42.7345    0.0000 </r>
       <r>   44.5860    0.0000 </r>
       <r>   47.6916    0.0000 </r>
       <r>   50.4163    0.0000 </r>
       <r>   57.0304    0.0000 </r>
       <r>   57.4057    0.0000 </r>
       <r>   60.0217    0.0000 </r>
       <r>   61.8659    0.0000 </r>
       <r>   63.1090    0.0000 </r>
       <r>   63.8481    0.0000 </r>
       <r>   64.1196    0.0000 </r>
       <r>   65.4376    0.0000 </r>
       <r>   66.2229    0.0000 </r>
       <r>   68.1367    0.0000 </r>
       <r>   69.5115    0.0000 </r>
       <r>   70.5379    0.0000 </r>
       <r>   71.2363    0.0000 </r>
       <r>   73.2495    0.0000 </r>
       <r>   73.5639    0.0000 </r>
      </set>
      <set comment="kpoint 23">
       <r>    0.1511    1.0000 </r>
       <r>    3.6322    1.0000 </r>
       <r>    5.6882    1.0000 </r>
       <r>    5.8006    1.0000 </r>
       <r>    6.5513    1.0000 </r>
       <r>    6.7053    1.0000 </r>
       <r>    7.5023    1.0000 </r>
       <r>    7.7666    1.0000 </r>
       <r>    7.9389    1.0000 </r>
       <r>    8.3327    1.0070 </r>
       <r>    9.6865   -0.0000 </r>
       <r>   12.0157   -0.0000 </r>
       <r>   17.6852    0.0000 </r>
       <r>   31.0951    0.0000 </r>
       <r>   32.8506    0.0000 </r>
       <r>   33.5161    0.0000 </r>
       <r>   35.8721    0.0000 </r>
       <r>   38.7657    0.0000 </r>
       <r>   38.9973    0.0000 </r>
       <r>   39.3344    0.0000 </r>
       <r>   41.5005    0.0000 </r>
       <r>   46.2020    0.0000 </r>
       <r>   46.9592    0.0000 </r>
       <r>   47.5173    0.0000 </r>
       <r>   48.1794    0.0000 </r>
       <r>   49.5027    0.0000 </r>
       <r>   49.7940    0.0000 </r>
       <r>   54.8963    0.0000 </r>
       <r>   56.8893    0.0000 </r>
       <r>   58.1189    0.0000 </r>
       <r>   58.6369    0.0000 </r>
       <r>   60.3944    0.0000 </r>
       <r>   60.5716    0.0000 </r>
       <r>   63.7787    0.0000 </r>
       <r>   63.8757    0.0000 </r>
       <r>   64.5370    0.0000 </r>
       <r>   65.7927    0.0000 </r>
       <r>   68.7455    0.0000 </r>
       <r>   69.9820    0.0000 </r>
       <r>   71.1205    0.0000 </r>
      </set>
      <set comment="kpoint 24">
       <r>    1.4219    1.0000 </r>
       <r>    4.2687    1.0000 </r>
       <r>    4.7882    1.0000 </r>
       <r>    5.5222    1.0000 </r>
       <r>    6.2391    1.0000 </r>
       <r>    6.9308    1.0000 </r>
       <r>    7.4927    1.0000 </r>
       <r>    7.9177    1.0000 </r>
       <r>    8.4838    1.0350 </r>
       <r>    8.7553    0.4382 </r>
       <r>    9.6612   -0.0000 </r>
       <r>   13.8012   -0.0000 </r>
       <r>   18.0991    0.0000 </r>
       <r>   27.4175    0.0000 </r>
       <r>   30.2983    0.0000 </r>
       <r>   32.2748    0.0000 </r>
       <r>   34.0767    0.0000 </r>
       <r>   36.3465    0.0000 </r>
       <r>   37.7310    0.0000 </r>
       <r>   39.7398    0.0000 </r>
       <r>   41.0274    0.0000 </r>
       <r>   45.1117    0.0000 </r>
       <r>   46.1381    0.0000 </r>
       <r>   48.0414    0.0000 </r>
       <r>   50.2843    0.0000 </r>
       <r>   51.1660    0.0000 </r>
       <r>   53.6802    0.0000 </r>
       <r>   56.5732    0.0000 </r>
       <r>   58.8309    0.0000 </r>
       <r>   59.7408    0.0000 </r>
       <r>   60.8278    0.0000 </r>
       <r>   61.7354    0.0000 </r>
       <r>   61.9868    0.0000 </r>
       <r>   62.8878    0.0000 </r>
       <r>   64.5156    0.0000 </r>
       <r>   64.8192    0.0000 </r>
       <r>   66.6836    0.0000 </r>
       <r>   69.2600    0.0000 </r>
       <r>   70.7970    0.0000 </r>
       <r>   71.6400    0.0000 </r>
      </set>
      <set comment="kpoint 25">
       <r>    2.7644    1.0000 </r>
       <r>    4.0214    1.0000 </r>
       <r>    4.1919    1.0000 </r>
       <r>    5.5990    1.0000 </r>
       <r>    6.3780    1.0000 </r>
       <r>    6.8234    1.0000 </r>
       <r>    7.5091    1.0000 </r>
       <r>    8.2222    1.0008 </r>
       <r>    9.4139   -0.0000 </r>
       <r>    9.5532   -0.0000 </r>
       <r>   10.0200   -0.0000 </r>
       <r>   15.6181    0.0000 </r>
       <r>   18.9169    0.0000 </r>
       <r>   23.5120    0.0000 </r>
       <r>   28.3248    0.0000 </r>
       <r>   28.8357    0.0000 </r>
       <r>   32.7148    0.0000 </r>
       <r>   33.5604    0.0000 </r>
       <r>   38.4301    0.0000 </r>
       <r>   39.1590    0.0000 </r>
       <r>   40.6368    0.0000 </r>
       <r>   44.3892    0.0000 </r>
       <r>   45.6162    0.0000 </r>
       <r>   48.7083    0.0000 </r>
       <r>   52.1953    0.0000 </r>
       <r>   53.6412    0.0000 </r>
       <r>   55.9776    0.0000 </r>
       <r>   57.6144    0.0000 </r>
       <r>   58.9970    0.0000 </r>
       <r>   60.2060    0.0000 </r>
       <r>   61.3637    0.0000 </r>
       <r>   63.4016    0.0000 </r>
       <r>   64.3529    0.0000 </r>
       <r>   64.7394    0.0000 </r>
       <r>   65.7064    0.0000 </r>
       <r>   66.6725    0.0000 </r>
       <r>   68.9372    0.0000 </r>
       <r>   70.6120    0.0000 </r>
       <r>   71.3117    0.0000 </r>
       <r>   71.7527    0.0000 </r>
      </set>
      <set comment="kpoint 26">
       <r>    3.2848    1.0000 </r>
       <r>    3.5659    1.0000 </r>
       <r>    3.9996    1.0000 </r>
       <r>    5.7142    1.0000 </r>
       <r>    6.8212    1.0000 </r>
       <r>    6.9446    1.0000 </r>
       <r>    7.2551    1.0000 </r>
       <r>    9.3897   -0.0000 </r>
       <r>    9.5334   -0.0000 </r>
       <r>   10.0738   -0.0000 </r>
       <r>   11.4373   -0.0000 </r>
       <r>   16.4667    0.0000 </r>
       <r>   19.5214    0.0000 </r>
       <r>   21.9048    0.0000 </r>
       <r>   25.5443    0.0000 </r>
       <r>   27.0738    0.0000 </r>
       <r>   29.4949    0.0000 </r>
       <r>   32.5016    0.0000 </r>
       <r>   37.8949    0.0000 </r>
       <r>   39.3336    0.0000 </r>
       <r>   41.1885    0.0000 </r>
       <r>   43.8542    0.0000 </r>
       <r>   46.5696    0.0000 </r>
       <r>   47.8292    0.0000 </r>
       <r>   52.1123    0.0000 </r>
       <r>   54.7491    0.0000 </r>
       <r>   56.7659    0.0000 </r>
       <r>   59.1221    0.0000 </r>
       <r>   60.8458    0.0000 </r>
       <r>   61.6280    0.0000 </r>
       <r>   62.7870    0.0000 </r>
       <r>   63.8732    0.0000 </r>
       <r>   64.2739    0.0000 </r>
       <r>   66.8432    0.0000 </r>
       <r>   68.2637    0.0000 </r>
       <r>   68.7842    0.0000 </r>
       <r>   69.7942    0.0000 </r>
       <r>   71.4325    0.0000 </r>
       <r>   71.8863    0.0000 </r>
       <r>   73.9763    0.0000 </r>
      </set>
      <set comment="kpoint 27">
       <r>    3.2969    1.0000 </r>
       <r>    3.3662    1.0000 </r>
       <r>    3.9801    1.0000 </r>
       <r>    5.7699    1.0000 </r>
       <r>    6.8360    1.0000 </r>
       <r>    7.2328    1.0000 </r>
       <r>    7.2775    1.0000 </r>
       <r>    9.5182   -0.0000 </r>
       <r>   10.0947   -0.0000 </r>
       <r>   10.1364   -0.0000 </r>
       <r>   12.7614   -0.0000 </r>
       <r>   15.2486    0.0000 </r>
       <r>   20.6265    0.0000 </r>
       <r>   21.8672    0.0000 </r>
       <r>   24.5390    0.0000 </r>
       <r>   26.0564    0.0000 </r>
       <r>   27.9039    0.0000 </r>
       <r>   32.1519    0.0000 </r>
       <r>   37.4687    0.0000 </r>
       <r>   39.3170    0.0000 </r>
       <r>   41.9606    0.0000 </r>
       <r>   43.5843    0.0000 </r>
       <r>   46.5437    0.0000 </r>
       <r>   48.6960    0.0000 </r>
       <r>   50.2782    0.0000 </r>
       <r>   55.1234    0.0000 </r>
       <r>   57.6626    0.0000 </r>
       <r>   59.3828    0.0000 </r>
       <r>   62.0633    0.0000 </r>
       <r>   62.3710    0.0000 </r>
       <r>   64.0557    0.0000 </r>
       <r>   64.1265    0.0000 </r>
       <r>   65.1866    0.0000 </r>
       <r>   66.7275    0.0000 </r>
       <r>   67.5293    0.0000 </r>
       <r>   70.7770    0.0000 </r>
       <r>   71.3247    0.0000 </r>
       <r>   71.6827    0.0000 </r>
       <r>   72.4231    0.0000 </r>
       <r>   73.8487    0.0000 </r>
      </set>
      <set comment="kpoint 28">
       <r>    2.7637    1.0000 </r>
       <r>    4.2551    1.0000 </r>
       <r>    4.8366    1.0000 </r>
       <r>    4.9550    1.0000 </r>
       <r>    6.3706    1.0000 </r>
       <r>    6.5549    1.0000 </r>
       <r>    7.5930    1.0000 </r>
       <r>    7.6162    1.0000 </r>
       <r>    9.4057   -0.0000 </r>
       <r>    9.4102   -0.0000 </r>
       <r>   10.1141   -0.0000 </r>
       <r>   15.4936    0.0000 </r>
       <r>   18.9539    0.0000 </r>
       <r>   25.2514    0.0000 </r>
       <r>   26.2986    0.0000 </r>
       <r>   30.2183    0.0000 </r>
       <r>   31.9690    0.0000 </r>
       <r>   35.5151    0.0000 </r>
       <r>   35.8361    0.0000 </r>
       <r>   38.6313    0.0000 </r>
       <r>   42.6258    0.0000 </r>
       <r>   47.2486    0.0000 </r>
       <r>   47.5064    0.0000 </r>
       <r>   48.7561    0.0000 </r>
       <r>   49.4324    0.0000 </r>
       <r>   52.9338    0.0000 </r>
       <r>   52.9637    0.0000 </r>
       <r>   57.6727    0.0000 </r>
       <r>   58.4112    0.0000 </r>
       <r>   60.1987    0.0000 </r>
       <r>   61.2899    0.0000 </r>
       <r>   63.8092    0.0000 </r>
       <r>   63.8568    0.0000 </r>
       <r>   65.1796    0.0000 </r>
       <r>   65.8146    0.0000 </r>
       <r>   67.8864    0.0000 </r>
       <r>   68.4616    0.0000 </r>
       <r>   69.7932    0.0000 </r>
       <r>   70.9607    0.0000 </r>
       <r>   71.6496    0.0000 </r>
      </set>
      <set comment="kpoint 29">
       <r>    3.7795    1.0000 </r>
       <r>    4.0829    1.0000 </r>
       <r>    4.3842    1.0000 </r>
       <r>    5.2898    1.0000 </r>
       <r>    6.3245    1.0000 </r>
       <r>    6.7289    1.0000 </r>
       <r>    7.1548    1.0000 </r>
       <r>    8.2607    1.0018 </r>
       <r>    9.2734   -0.0005 </r>
       <r>    9.9888   -0.0000 </r>
       <r>   11.6859   -0.0000 </r>
       <r>   17.2534    0.0000 </r>
       <r>   20.1472    0.0000 </r>
       <r>   22.2223    0.0000 </r>
       <r>   24.4491    0.0000 </r>
       <r>   27.5108    0.0000 </r>
       <r>   30.1917    0.0000 </r>
       <r>   31.8072    0.0000 </r>
       <r>   34.8286    0.0000 </r>
       <r>   40.2764    0.0000 </r>
       <r>   43.4393    0.0000 </r>
       <r>   46.7244    0.0000 </r>
       <r>   48.0362    0.0000 </r>
       <r>   50.6233    0.0000 </r>
       <r>   50.9783    0.0000 </r>
       <r>   52.2147    0.0000 </r>
       <r>   55.5776    0.0000 </r>
       <r>   55.8237    0.0000 </r>
       <r>   58.5653    0.0000 </r>
       <r>   60.9246    0.0000 </r>
       <r>   62.7265    0.0000 </r>
       <r>   63.8377    0.0000 </r>
       <r>   64.5230    0.0000 </r>
       <r>   67.1497    0.0000 </r>
       <r>   68.2480    0.0000 </r>
       <r>   68.7691    0.0000 </r>
       <r>   69.8265    0.0000 </r>
       <r>   71.6889    0.0000 </r>
       <r>   72.6427    0.0000 </r>
       <r>   73.6133    0.0000 </r>
      </set>
      <set comment="kpoint 30">
       <r>    3.6924    1.0000 </r>
       <r>    4.0256    1.0000 </r>
       <r>    4.4369    1.0000 </r>
       <r>    5.6364    1.0000 </r>
       <r>    6.4658    1.0000 </r>
       <r>    6.6305    1.0000 </r>
       <r>    7.2318    1.0000 </r>
       <r>    9.1561   -0.0062 </r>
       <r>    9.1856   -0.0036 </r>
       <r>    9.9415   -0.0000 </r>
       <r>   13.5328   -0.0000 </r>
       <r>   16.8281    0.0000 </r>
       <r>   20.7964    0.0000 </r>
       <r>   22.6600    0.0000 </r>
       <r>   23.2581    0.0000 </r>
       <r>   25.2571    0.0000 </r>
       <r>   28.6182    0.0000 </r>
       <r>   29.4854    0.0000 </r>
       <r>   34.2175    0.0000 </r>
       <r>   41.7463    0.0000 </r>
       <r>   43.7857    0.0000 </r>
       <r>   45.7277    0.0000 </r>
       <r>   48.5117    0.0000 </r>
       <r>   49.6914    0.0000 </r>
       <r>   52.4149    0.0000 </r>
       <r>   52.9075    0.0000 </r>
       <r>   55.9781    0.0000 </r>
       <r>   57.2823    0.0000 </r>
       <r>   60.7132    0.0000 </r>
       <r>   61.1121    0.0000 </r>
       <r>   62.3088    0.0000 </r>
       <r>   64.1176    0.0000 </r>
       <r>   64.2756    0.0000 </r>
       <r>   65.7157    0.0000 </r>
       <r>   69.0876    0.0000 </r>
       <r>   70.2448    0.0000 </r>
       <r>   71.6516    0.0000 </r>
       <r>   71.8194    0.0000 </r>
       <r>   72.7613    0.0000 </r>
       <r>   73.8045    0.0000 </r>
      </set>
      <set comment="kpoint 31">
       <r>    3.9717    1.0000 </r>
       <r>    4.6151    1.0000 </r>
       <r>    4.9489    1.0000 </r>
       <r>    5.0317    1.0000 </r>
       <r>    6.1644    1.0000 </r>
       <r>    6.4919    1.0000 </r>
       <r>    7.1583    1.0000 </r>
       <r>    8.6008    0.9596 </r>
       <r>    9.0137   -0.0330 </r>
       <r>    9.8979   -0.0000 </r>
       <r>   13.7458   -0.0000 </r>
       <r>   18.7473    0.0000 </r>
       <r>   19.9928    0.0000 </r>
       <r>   21.4302    0.0000 </r>
       <r>   23.4233    0.0000 </r>
       <r>   26.7738    0.0000 </r>
       <r>   27.0667    0.0000 </r>
       <r>   30.6140    0.0000 </r>
       <r>   31.4430    0.0000 </r>
       <r>   41.9930    0.0000 </r>
       <r>   45.3612    0.0000 </r>
       <r>   48.5681    0.0000 </r>
       <r>   48.6847    0.0000 </r>
       <r>   51.3734    0.0000 </r>
       <r>   51.4559    0.0000 </r>
       <r>   52.3099    0.0000 </r>
       <r>   55.2568    0.0000 </r>
       <r>   56.7807    0.0000 </r>
       <r>   57.0638    0.0000 </r>
       <r>   61.2264    0.0000 </r>
       <r>   61.6391    0.0000 </r>
       <r>   64.2480    0.0000 </r>
       <r>   64.3772    0.0000 </r>
       <r>   65.6152    0.0000 </r>
       <r>   69.3172    0.0000 </r>
       <r>   70.6875    0.0000 </r>
       <r>   70.6884    0.0000 </r>
       <r>   71.8859    0.0000 </r>
       <r>   72.9621    0.0000 </r>
       <r>   74.9606    0.0000 </r>
      </set>
      <set comment="kpoint 32">
       <r>    4.0381    1.0000 </r>
       <r>    4.7215    1.0000 </r>
       <r>    4.8968    1.0000 </r>
       <r>    5.3691    1.0000 </r>
       <r>    6.1334    1.0000 </r>
       <r>    6.2171    1.0000 </r>
       <r>    7.3142    1.0000 </r>
       <r>    8.9139   -0.0052 </r>
       <r>    9.0750   -0.0198 </r>
       <r>    9.4736   -0.0000 </r>
       <r>   15.6945    0.0000 </r>
       <r>   17.2122    0.0000 </r>
       <r>   19.5187    0.0000 </r>
       <r>   23.2224    0.0000 </r>
       <r>   23.2917    0.0000 </r>
       <r>   25.5676    0.0000 </r>
       <r>   26.8156    0.0000 </r>
       <r>   28.6843    0.0000 </r>
       <r>   30.8601    0.0000 </r>
       <r>   42.8376    0.0000 </r>
       <r>   46.0084    0.0000 </r>
       <r>   48.2520    0.0000 </r>
       <r>   48.7490    0.0000 </r>
       <r>   51.0303    0.0000 </r>
       <r>   52.0128    0.0000 </r>
       <r>   53.8437    0.0000 </r>
       <r>   55.9688    0.0000 </r>
       <r>   57.3202    0.0000 </r>
       <r>   57.5039    0.0000 </r>
       <r>   60.3305    0.0000 </r>
       <r>   61.2742    0.0000 </r>
       <r>   62.3419    0.0000 </r>
       <r>   64.4856    0.0000 </r>
       <r>   64.7209    0.0000 </r>
       <r>   68.7824    0.0000 </r>
       <r>   70.6558    0.0000 </r>
       <r>   71.7691    0.0000 </r>
       <r>   72.1486    0.0000 </r>
       <r>   73.8003    0.0000 </r>
       <r>   74.5886    0.0000 </r>
      </set>
      <set comment="kpoint 33">
       <r>   -0.6878    1.0000 </r>
       <r>    2.7089    1.0000 </r>
       <r>    5.7046    1.0000 </r>
       <r>    6.7628    1.0000 </r>
       <r>    6.7629    1.0000 </r>
       <r>    6.8174    1.0000 </r>
[...]
       <r>   25.5645    0.0000 </r>
       <r>   26.3219    0.0000 </r>
       <r>   30.1254    0.0000 </r>
       <r>   31.2764    0.0000 </r>
       <r>   36.5116    0.0000 </r>
       <r>   37.6119    0.0000 </r>
       <r>   40.1281    0.0000 </r>
       <r>   41.7688    0.0000 </r>
       <r>   47.7321    0.0000 </r>
       <r>   48.1732    0.0000 </r>
       <r>   57.6251    0.0000 </r>
       <r>   58.1365    0.0000 </r>
       <r>   58.6583    0.0000 </r>
       <r>   59.5516    0.0000 </r>
       <r>   61.5257    0.0000 </r>
       <r>   62.1037    0.0000 </r>
       <r>   62.4607    0.0000 </r>
       <r>   62.7642    0.0000 </r>
       <r>   64.7082    0.0000 </r>
       <r>   65.1355    0.0000 </r>
       <r>   67.8860    0.0000 </r>
       <r>   68.1734    0.0000 </r>
       <r>   70.5734    0.0000 </r>
       <r>   70.7310    0.0000 </r>
       <r>   72.0019    0.0000 </r>
       <r>   72.9065    0.0000 </r>
      </set>
      <set comment="kpoint 95">
       <r>    4.0517    1.0000 </r>
       <r>    4.1467    1.0000 </r>
       <r>    5.2201    1.0000 </r>
       <r>    5.4626    1.0000 </r>
       <r>    5.9980    1.0000 </r>
       <r>    6.2456    1.0000 </r>
       <r>    7.6041    1.0000 </r>
       <r>    7.8287    1.0000 </r>
       <r>    9.6892   -0.0000 </r>
       <r>    9.9280   -0.0000 </r>
       <r>   14.6787    0.0000 </r>
       <r>   15.2182    0.0000 </r>
       <r>   21.5359    0.0000 </r>
       <r>   22.0051    0.0000 </r>
       <r>   23.6513    0.0000 </r>
       <r>   24.0976    0.0000 </r>
       <r>   30.3714    0.0000 </r>
       <r>   32.0147    0.0000 </r>
       <r>   36.4958    0.0000 </r>
       <r>   37.9360    0.0000 </r>
       <r>   39.8133    0.0000 </r>
       <r>   40.9998    0.0000 </r>
       <r>   50.1050    0.0000 </r>
       <r>   50.5733    0.0000 </r>
       <r>   55.0766    0.0000 </r>
       <r>   55.0979    0.0000 </r>
       <r>   59.7064    0.0000 </r>
       <r>   61.5193    0.0000 </r>
       <r>   61.7504    0.0000 </r>
       <r>   62.4506    0.0000 </r>
       <r>   63.1518    0.0000 </r>
       <r>   63.3055    0.0000 </r>
       <r>   63.5268    0.0000 </r>
       <r>   64.1313    0.0000 </r>
       <r>   67.0806    0.0000 </r>
       <r>   67.3958    0.0000 </r>
       <r>   70.4829    0.0000 </r>
       <r>   70.6739    0.0000 </r>
       <r>   71.1165    0.0000 </r>
       <r>   71.1892    0.0000 </r>
      </set>
      <set comment="kpoint 96">
       <r>    4.3029    1.0000 </r>
       <r>    4.4631    1.0000 </r>
       <r>    5.1437    1.0000 </r>
       <r>    5.2471    1.0000 </r>
       <r>    5.9878    1.0000 </r>
       <r>    6.1518    1.0000 </r>
       <r>    7.6524    1.0000 </r>
       <r>    7.8171    1.0000 </r>
       <r>    9.6725   -0.0000 </r>
       <r>    9.7576   -0.0000 </r>
       <r>   16.6839    0.0000 </r>
       <r>   16.8567    0.0000 </r>
       <r>   19.7128    0.0000 </r>
       <r>   20.0882    0.0000 </r>
       <r>   22.9848    0.0000 </r>
       <r>   23.4305    0.0000 </r>
       <r>   32.1390    0.0000 </r>
       <r>   33.0510    0.0000 </r>
       <r>   35.5355    0.0000 </r>
       <r>   35.7067    0.0000 </r>
       <r>   39.5648    0.0000 </r>
       <r>   40.3862    0.0000 </r>
       <r>   51.4666    0.0000 </r>
       <r>   52.1327    0.0000 </r>
       <r>   56.3174    0.0000 </r>
       <r>   56.7668    0.0000 </r>
       <r>   59.6354    0.0000 </r>
       <r>   60.0489    0.0000 </r>
       <r>   61.4203    0.0000 </r>
       <r>   61.6219    0.0000 </r>
       <r>   62.9758    0.0000 </r>
       <r>   63.3661    0.0000 </r>
       <r>   64.5037    0.0000 </r>
       <r>   64.7284    0.0000 </r>
       <r>   65.7487    0.0000 </r>
       <r>   67.2664    0.0000 </r>
       <r>   68.9155    0.0000 </r>
       <r>   70.0674    0.0000 </r>
       <r>   72.9475    0.0000 </r>
       <r>   73.3116    0.0000 </r>
      </set>
     </set>
    </set>
   </array>
  </eigenvalues>
  <separator name="orbital magnetization" >
   <v name="MAGDIPOLOUT">      0.00000000      0.00000000      0.00000000</v>
  </separator>
  <dos>
   <i name="efermi">      8.74063262 </i>
   <total>
    <array>
     <dimension dim="1">gridpoints</dimension>
     <dimension dim="2">spin</dimension>
     <field>energy</field>
     <field>total</field>
     <field>integrated</field>
     <set>
      <set comment="spin 1">
       <r>    -4.8531     0.0000     0.0000 </r>
       <r>    -4.5728     0.0000     0.0000 </r>
       <r>    -4.2926     0.0000     0.0000 </r>
       <r>    -4.0123     0.0000     0.0000 </r>
       <r>    -3.7320     0.0000     0.0000 </r>
       <r>    -3.4517     0.0000     0.0000 </r>
       <r>    -3.1714     0.0000     0.0000 </r>
       <r>    -2.8912    -0.0000    -0.0000 </r>
       <r>    -2.6109    -0.0000    -0.0000 </r>
       <r>    -2.3306    -0.0000    -0.0000 </r>
       <r>    -2.0503    -0.0000    -0.0000 </r>
       <r>    -1.7700    -0.0000    -0.0000 </r>
       <r>    -1.4897    -0.0000    -0.0000 </r>
       <r>    -1.2095    -0.0004    -0.0001 </r>
       <r>    -0.9292     0.0089     0.0024 </r>
       <r>    -0.6489     0.0418     0.0141 </r>
       <r>    -0.3686     0.0958     0.0409 </r>
       <r>    -0.0883     0.0522     0.0556 </r>
       <r>     0.1919     0.1276     0.0913 </r>
       <r>     0.4722     0.1527     0.1341 </r>
       <r>     0.7525     0.1928     0.1882 </r>
       <r>     1.0328     0.0866     0.2125 </r>
       <r>     1.3131     0.1713     0.2605 </r>
       <r>     1.5934     0.3044     0.3458 </r>
       <r>     1.8736     0.2821     0.4248 </r>
       <r>     2.1539     0.3241     0.5157 </r>
       <r>     2.4342     0.2374     0.5822 </r>
       <r>     2.7145     0.4471     0.7075 </r>
       <r>     2.9948     1.6970     1.1832 </r>
       <r>     3.2750     1.8932     1.7138 </r>
       <r>     3.5553     2.1061     2.3041 </r>
       <r>     3.8356     2.3420     2.9605 </r>
       <r>     4.1159     2.6015     3.6897 </r>
       <r>     4.3962     2.1022     4.2789 </r>
       <r>     4.6765     2.3344     4.9332 </r>
       <r>     4.9567     2.6833     5.6853 </r>
       <r>     5.2370     2.6610     6.4311 </r>
       <r>     5.5173     2.6229     7.1662 </r>
       <r>     5.7976     2.0472     7.7400 </r>
       <r>     6.0779     1.7223     8.2227 </r>
       <r>     6.3582     3.3518     9.1622 </r>
       <r>     6.6384     2.9016     9.9754 </r>
       <r>     6.9187     3.0518    10.8308 </r>
       <r>     7.1990     3.1079    11.7019 </r>
       <r>     7.4793     2.6055    12.4322 </r>
       <r>     7.7596     3.0419    13.2848 </r>
       <r>     8.0398     2.8290    14.0777 </r>
       <r>     8.3201     2.7390    14.8454 </r>
       <r>     8.6004     2.8713    15.6502 </r>
       <r>     8.8807     2.4474    16.3361 </r>
       <r>     9.1610     2.6655    17.0832 </r>
       <r>     9.4413     3.5985    18.0918 </r>
       <r>     9.7215     4.0444    19.2254 </r>
       <r>    10.0018     3.1908    20.1197 </r>
       <r>    10.2821     3.1811    21.0113 </r>
       <r>    10.5624     0.8508    21.2498 </r>
       <r>    10.8427     0.2454    21.3186 </r>
       <r>    11.1229     0.4635    21.4485 </r>
       <r>    11.4032     0.4711    21.5805 </r>
       <r>    11.6835     0.6206    21.7544 </r>
       <r>    11.9638     0.8428    21.9906 </r>
       <r>    12.2441     0.4111    22.1059 </r>
       <r>    12.5244     0.3486    22.2036 </r>
       <r>    12.8046     0.3576    22.3038 </r>
       <r>    13.0849     0.4097    22.4187 </r>
       <r>    13.3652     0.3096    22.5054 </r>
       <r>    13.6455     0.4552    22.6330 </r>
       <r>    13.9258     0.6173    22.8061 </r>
       <r>    14.2060     0.3540    22.9053 </r>
       <r>    14.4863     0.4788    23.0395 </r>
       <r>    14.7666     0.4231    23.1581 </r>
       <r>    15.0469     0.1030    23.1869 </r>
       <r>    15.3272     0.3433    23.2832 </r>
       <r>    15.6075     0.3400    23.3785 </r>
       <r>    15.8877     0.3604    23.4795 </r>
       <r>    16.1680     0.2805    23.5581 </r>
       <r>    16.4483     0.2062    23.6159 </r>
       <r>    16.7286     0.3052    23.7014 </r>
       <r>    17.0089     0.3714    23.8055 </r>
       <r>    17.2891     0.4677    23.9366 </r>
       <r>    17.5694     0.2700    24.0123 </r>
       <r>    17.8497     0.2530    24.0832 </r>
       <r>    18.1300     0.1592    24.1278 </r>
       <r>    18.4103     0.1019    24.1564 </r>
       <r>    18.6906     0.1379    24.1951 </r>
       <r>    18.9708     0.3731    24.2996 </r>
       <r>    19.2511     0.2231    24.3621 </r>
       <r>    19.5314     0.3143    24.4502 </r>
       <r>    19.8117     0.4208    24.5682 </r>
       <r>    20.0920     0.6182    24.7415 </r>
       <r>    20.3723     0.9221    24.9999 </r>
       <r>    20.6525     0.8794    25.2464 </r>
       <r>    20.9328     0.5377    25.3971 </r>
       <r>    21.2131     0.3441    25.4936 </r>
       <r>    21.4934     0.6971    25.6889 </r>
       <r>    21.7737     0.4666    25.8197 </r>
       <r>    22.0539     0.6965    26.0149 </r>
       <r>    22.3342     0.9222    26.2734 </r>
       <r>    22.6145     0.7059    26.4713 </r>
       <r>    22.8948     0.5887    26.6363 </r>
       <r>    23.1751     0.3347    26.7301 </r>
       <r>    23.4554     0.7346    26.9360 </r>
       <r>    23.7356     0.7153    27.1364 </r>
       <r>    24.0159     0.6105    27.3076 </r>
       <r>    24.2962     0.5444    27.4601 </r>
       <r>    24.5765     0.5298    27.6086 </r>
       <r>    24.8568     0.6177    27.7818 </r>
       <r>    25.1370     0.4495    27.9077 </r>
       <r>    25.4173     0.7860    28.1280 </r>
       <r>    25.6976     0.7310    28.3329 </r>
       <r>    25.9779     0.4116    28.4483 </r>
       <r>    26.2582     0.6675    28.6354 </r>
       <r>    26.5385     0.5472    28.7887 </r>
       <r>    26.8187     0.6591    28.9735 </r>
       <r>    27.0990     1.0531    29.2686 </r>
       <r>    27.3793     1.0620    29.5663 </r>
       <r>    27.6596     0.7056    29.7641 </r>
       <r>    27.9399     0.6426    29.9442 </r>
       <r>    28.2201     0.7870    30.1648 </r>
       <r>    28.5004     0.6706    30.3527 </r>
       <r>    28.7807     1.1321    30.6700 </r>
       <r>    29.0610     0.9550    30.9377 </r>
       <r>    29.3413     0.6033    31.1068 </r>
       <r>    29.6216     1.1418    31.4268 </r>
       <r>    29.9018     0.5155    31.5713 </r>
       <r>    30.1821     0.9224    31.8298 </r>
       <r>    30.4624     1.5293    32.2584 </r>
       <r>    30.7427     0.9235    32.5173 </r>
       <r>    31.0230     0.4496    32.6433 </r>
       <r>    31.3032     0.6537    32.8265 </r>
       <r>    31.5835     0.8755    33.0719 </r>
       <r>    31.8638     0.8416    33.3078 </r>
       <r>    32.1441     0.8124    33.5355 </r>
       <r>    32.4244     0.9188    33.7930 </r>
       <r>    32.7047     0.8239    34.0239 </r>
       <r>    32.9849     0.7328    34.2293 </r>
       <r>    33.2652     0.7489    34.4392 </r>
       <r>    33.5455     0.6702    34.6270 </r>
       <r>    33.8258     0.6443    34.8076 </r>
       <r>    34.1061     0.4988    34.9474 </r>
       <r>    34.3863     0.6233    35.1221 </r>
       <r>    34.6666     0.4909    35.2597 </r>
       <r>    34.9469     0.8836    35.5074 </r>
       <r>    35.2272     0.5719    35.6677 </r>
       <r>    35.5075     0.4982    35.8073 </r>
       <r>    35.7878     0.6647    35.9936 </r>
       <r>    36.0680     0.7729    36.2103 </r>
       <r>    36.3483     0.6027    36.3792 </r>
       <r>    36.6286     1.0083    36.6618 </r>
       <r>    36.9089     0.4483    36.7874 </r>
       <r>    37.1892     0.7379    36.9943 </r>
       <r>    37.4695     0.5565    37.1502 </r>
       <r>    37.7497     0.6144    37.3224 </r>
       <r>    38.0300     0.7511    37.5330 </r>
       <r>    38.3103     1.0473    37.8265 </r>
       <r>    38.5906     1.1128    38.1384 </r>
       <r>    38.8709     0.7621    38.3520 </r>
       <r>    39.1511     0.5891    38.5171 </r>
       <r>    39.4314     0.7776    38.7351 </r>
       <r>    39.7117     1.1249    39.0504 </r>
       <r>    39.9920     0.9472    39.3159 </r>
       <r>    40.2723     0.7390    39.5230 </r>
       <r>    40.5526     1.0223    39.8095 </r>
       <r>    40.8328     1.0908    40.1152 </r>
       <r>    41.1131     1.1839    40.4471 </r>
       <r>    41.3934     0.9158    40.7038 </r>
       <r>    41.6737     0.8854    40.9519 </r>
       <r>    41.9540     1.0122    41.2356 </r>
       <r>    42.2342     0.5612    41.3929 </r>
       <r>    42.5145     0.5024    41.5337 </r>
       <r>    42.7948     0.7094    41.7326 </r>
       <r>    43.0751     0.8140    41.9607 </r>
       <r>    43.3554     0.5891    42.1258 </r>
       <r>    43.6357     0.4644    42.2560 </r>
       <r>    43.9159     0.7825    42.4753 </r>
       <r>    44.1962     0.8497    42.7135 </r>
       <r>    44.4765     0.9793    42.9879 </r>
       <r>    44.7568     0.7032    43.1850 </r>
       <r>    45.0371     0.6049    43.3546 </r>
       <r>    45.3173     0.7006    43.5509 </r>
       <r>    45.5976     0.7944    43.7736 </r>
       <r>    45.8779     0.5495    43.9276 </r>
       <r>    46.1582     0.8219    44.1579 </r>
       <r>    46.4385     0.6934    44.3523 </r>
       <r>    46.7188     1.0227    44.6389 </r>
       <r>    46.9990     0.9860    44.9153 </r>
       <r>    47.2793     0.9849    45.1913 </r>
       <r>    47.5596     1.4335    45.5931 </r>
       <r>    47.8399     0.9344    45.8550 </r>
       <r>    48.1202     0.7987    46.0788 </r>
       <r>    48.4004     1.1464    46.4002 </r>
       <r>    48.6807     1.1424    46.7204 </r>
       <r>    48.9610     1.1921    47.0545 </r>
       <r>    49.2413     0.9895    47.3318 </r>
       <r>    49.5216     1.0336    47.6215 </r>
       <r>    49.8019     0.9045    47.8750 </r>
       <r>    50.0821     0.6976    48.0706 </r>
       <r>    50.3624     0.8033    48.2957 </r>
       <r>    50.6427     0.8330    48.5292 </r>
       <r>    50.9230     0.9775    48.8032 </r>
       <r>    51.2033     1.0563    49.0992 </r>
       <r>    51.4835     1.0184    49.3847 </r>
       <r>    51.7638     0.5676    49.5438 </r>
       <r>    52.0441     0.5388    49.6948 </r>
       <r>    52.3244     1.4024    50.0878 </r>
       <r>    52.6047     1.0408    50.3796 </r>
       <r>    52.8850     0.8389    50.6147 </r>
       <r>    53.1652     0.5713    50.7748 </r>
       <r>    53.4455     0.8475    51.0124 </r>
       <r>    53.7258     1.3587    51.3932 </r>
       <r>    54.0061     1.0234    51.6800 </r>
       <r>    54.2864     0.7562    51.8920 </r>
       <r>    54.5667     0.6588    52.0766 </r>
       <r>    54.8469     0.9446    52.3414 </r>
       <r>    55.1272     0.9677    52.6126 </r>
       <r>    55.4075     0.9800    52.8873 </r>
       <r>    55.6878     0.9805    53.1621 </r>
       <r>    55.9681     1.5724    53.6028 </r>
       <r>    56.2483     1.0627    53.9006 </r>
       <r>    56.5286     1.1940    54.2353 </r>
       <r>    56.8089     1.2168    54.5763 </r>
       <r>    57.0892     1.3006    54.9409 </r>
       <r>    57.3695     1.0732    55.2417 </r>
       <r>    57.6498     1.0916    55.5476 </r>
       <r>    57.9300     1.1190    55.8613 </r>
       <r>    58.2103     0.6877    56.0540 </r>
       <r>    58.4906     0.9091    56.3088 </r>
       <r>    58.7709     1.1837    56.6406 </r>
       <r>    59.0512     1.5786    57.0831 </r>
       <r>    59.3314     0.9979    57.3628 </r>
       <r>    59.6117     1.2360    57.7092 </r>
       <r>    59.8920     1.4146    58.1057 </r>
       <r>    60.1723     1.3461    58.4830 </r>
       <r>    60.4526     1.4423    58.8872 </r>
       <r>    60.7329     1.4426    59.2915 </r>
       <r>    61.0131     1.7716    59.7881 </r>
       <r>    61.2934     1.2930    60.1505 </r>
       <r>    61.5737     1.3905    60.5402 </r>
       <r>    61.8540     1.8700    61.0643 </r>
       <r>    62.1343     2.3027    61.7097 </r>
       <r>    62.4145     1.7058    62.1878 </r>
       <r>    62.6948     1.6761    62.6576 </r>
       <r>    62.9751     1.9992    63.2179 </r>
       <r>    63.2554     1.7271    63.7020 </r>
       <r>    63.5357     1.9192    64.2399 </r>
       <r>    63.8160     2.7995    65.0245 </r>
       <r>    64.0962     2.8431    65.8214 </r>
       <r>    64.3765     2.4267    66.5016 </r>
       <r>    64.6568     2.2406    67.1296 </r>
       <r>    64.9371     1.7916    67.6317 </r>
       <r>    65.2174     1.3999    68.0241 </r>
       <r>    65.4976     1.5252    68.4516 </r>
       <r>    65.7779     1.8945    68.9826 </r>
       <r>    66.0582     1.0696    69.2824 </r>
       <r>    66.3385     0.9904    69.5600 </r>
       <r>    66.6188     1.3047    69.9257 </r>
       <r>    66.8991     1.4685    70.3373 </r>
       <r>    67.1793     1.4196    70.7351 </r>
       <r>    67.4596     1.2912    71.0970 </r>
       <r>    67.7399     1.1943    71.4318 </r>
       <r>    68.0202     1.2744    71.7890 </r>
       <r>    68.3005     1.7880    72.2901 </r>
       <r>    68.5807     1.4995    72.7104 </r>
       <r>    68.8610     1.3360    73.0848 </r>
       <r>    69.1413     1.1889    73.4181 </r>
       <r>    69.4216     1.2742    73.7752 </r>
       <r>    69.7019     1.1313    74.0923 </r>
       <r>    69.9822     1.6087    74.5432 </r>
       <r>    70.2624     1.1052    74.8529 </r>
       <r>    70.5427     1.2772    75.2109 </r>
       <r>    70.8230     1.9642    75.7615 </r>
       <r>    71.1033     0.9767    76.0352 </r>
       <r>    71.3836     1.3244    76.4064 </r>
       <r>    71.6639     1.6829    76.8781 </r>
       <r>    71.9441     1.7644    77.3726 </r>
       <r>    72.2244     1.1487    77.6946 </r>
       <r>    72.5047     0.8405    77.9302 </r>
       <r>    72.7850     1.1164    78.2430 </r>
       <r>    73.0653     1.0417    78.5350 </r>
       <r>    73.3455     0.9732    78.8078 </r>
       <r>    73.6258     1.0771    79.1097 </r>
       <r>    73.9061     1.0113    79.3931 </r>
       <r>    74.1864     0.9307    79.6540 </r>
       <r>    74.4667     0.5247    79.8011 </r>
       <r>    74.7470     0.3888    79.9101 </r>
       <r>    75.0272     0.2296    79.9744 </r>
       <r>    75.3075     0.0665    79.9930 </r>
       <r>    75.5878     0.0253    80.0001 </r>
       <r>    75.8681    -0.0003    80.0000 </r>
       <r>    76.1484    -0.0001    80.0000 </r>
       <r>    76.4286    -0.0000    80.0000 </r>
       <r>    76.7089    -0.0000    80.0000 </r>
       <r>    76.9892     0.0000    80.0000 </r>
       <r>    77.2695     0.0000    80.0000 </r>
       <r>    77.5498     0.0000    80.0000 </r>
       <r>    77.8301     0.0000    80.0000 </r>
       <r>    78.1103     0.0000    80.0000 </r>
       <r>    78.3906     0.0000    80.0000 </r>
       <r>    78.6709     0.0000    80.0000 </r>
       <r>    78.9512     0.0000    80.0000 </r>
       <r>    79.2315     0.0000    80.0000 </r>
      </set>
     </set>
    </array>
   </total>
  </dos>
 </calculation>
 <structure name="finalpos" >
  <crystal>
   <varray name="basis" >
    <v>       2.23680000       0.00000000       0.00000000 </v>
    <v>      -1.11840000       1.93712562       0.00000000 </v>
    <v>       0.00000000       0.00000000       4.05408000 </v>
   </varray>
   <i name="volume">     17.56617699 </i>
   <varray name="rec_basis" >
    <v>       0.44706724       0.25811439       0.00000000 </v>
    <v>       0.00000000       0.51622878       0.00000000 </v>
    <v>       0.00000000       0.00000000       0.24666509 </v>
   </varray>
  </crystal>
  <varray name="positions" >
   <v>       0.00000000       0.00000000       0.00000000 </v>
   <v>       0.33333333       0.66666667       0.50000000 </v>
  </varray>
 </structure>
</modeling>
