unknown system                          
   1.00000000000000     
     3.326191    0.000000    0.000000
     0.000000    3.326191    0.000000
     0.000000    0.000000    3.326191
   Fe
     4
Direct
  0.000000  0.000000  0.000000
  0.500000  0.500000  0.000000
  0.500000  0.000000  0.500000
  0.000000  0.500000  0.500000
 
   28   28   28
  308.54      291.73      246.81      187.05      126.93      76.967      42.382      23.470      16.170      13.619    
  11.978      10.924      10.321      10.088      10.048      10.088      10.321      10.924      11.978      13.619    
  16.170      23.470      42.382      76.967      126.93      187.05      246.81      291.73      291.73      275.84    
  233.33      176.77      119.87      72.705      40.265      22.734      16.061      13.613      12.009      10.974    
  10.374      10.133      10.088      10.133      10.374      10.974      12.009      13.613      16.061      22.734    
  40.265      72.705      119.87      176.77      233.33      275.84      246.81      233.33      197.26      149.22    
  101.02      61.435      34.780      20.913      15.818      13.618      12.138      11.183      10.618      10.374    
  10.321      10.374      10.618      11.183      12.138      13.618      15.818      20.913      34.780      61.435    
  101.02      149.22      197.26      233.33      187.05      176.77      149.22      112.62      76.201      46.931    
  28.048      18.896      15.573      13.683      12.436      11.648      11.183      10.974      10.924      10.974    
  11.183      11.648      12.436      13.683      15.573      18.896      28.048      46.931      76.201      112.62    
  149.22      176.77      126.93      119.87      101.02      76.201      52.028      33.420      22.305      17.453    
  15.347      13.883      12.974      12.436      12.138      12.009      11.978      12.009      12.138      12.436    
  12.974      13.883      15.347      17.453      22.305      33.420      52.028      76.201      101.02      119.87    
  76.967      72.705      61.435      46.931      33.420      23.824      18.787      16.662      15.252      14.348    
  13.883      13.683      13.618      13.613      13.619      13.613      13.618      13.683      13.883      14.348    
  15.252      16.662      18.787      23.824      33.420      46.931      61.435      72.705      42.382      40.265    
  34.780      28.048      22.305      18.787      17.160      16.117      15.467      15.252      15.347      15.573    
  15.818      16.061      16.170      16.061      15.818      15.573      15.347      15.252      15.467      16.117    
  17.160      18.787      22.305      28.048      34.780      40.265      23.470      22.734      20.913      18.896    
  17.453      16.662      16.117      15.908      16.117      16.662      17.453      18.896      20.913      22.734    
  23.470      22.734      20.913      18.896      17.453      16.662      16.117      15.908      16.117      16.662    
  17.453      18.896      20.913      22.734      16.170      16.061      15.818      15.573      15.347      15.252    
  15.467      16.117      17.160      18.787      22.305      28.048      34.780      40.265      42.382      40.265    
  34.780      28.048      22.305      18.787      17.160      16.117      15.467      15.252      15.347      15.573    
  15.818      16.061      13.619      13.613      13.618      13.683      13.883      14.348      15.252      16.662    
  18.787      23.824      33.420      46.931      61.435      72.705      76.967      72.705      61.435      46.931    
  33.420      23.824      18.787      16.662      15.252      14.348      13.883      13.683      13.618      13.613    
  11.978      12.009      12.138      12.436      12.974      13.883      15.347      17.453      22.305      33.420    
  52.028      76.201      101.02      119.87      126.93      119.87      101.02      76.201      52.028      33.420    
  22.305      17.453      15.347      13.883      12.974      12.436      12.138      12.009      10.924      10.974    
  11.183      11.648      12.436      13.683      15.573      18.896      28.048      46.931      76.201      112.62    
  149.22      176.77      187.05      176.77      149.22      112.62      76.201      46.931      28.048      18.896    
  15.573      13.683      12.436      11.648      11.183      10.974      10.321      10.374      10.618      11.183    
  12.138      13.618      15.818      20.913      34.780      61.435      101.02      149.22      197.26      233.33    
  246.81      233.33      197.26      149.22      101.02      61.435      34.780      20.913      15.818      13.618    
  12.138      11.183      10.618      10.374      10.088      10.133      10.374      10.974      12.009      13.613    
  16.061      22.734      40.265      72.705      119.87      176.77      233.33      275.84      291.73      275.84    
  233.33      176.77      119.87      72.705      40.265      22.734      16.061      13.613      12.009      10.974    
  10.374      10.133      10.048      10.088      10.321      10.924      11.978      13.619      16.170      23.470    
  42.382      76.967      126.93      187.05      246.81      291.73      308.54      291.73      246.81      187.05    
  126.93      76.967      42.382      23.470      16.170      13.619      11.978      10.924      10.321      10.088    
  10.088      10.133      10.374      10.974      12.009      13.613      16.061      22.734      40.265      72.705    
  119.87      176.77      233.33      275.84      291.73      275.84      233.33      176.77      119.87      72.705    
  40.265      22.734      16.061      13.613      12.009      10.974      10.374      10.133      10.321      10.374    
  10.618      11.183      12.138      13.618      15.818      20.913      34.780      61.435      101.02      149.22    
  197.26      233.33      246.81      233.33      197.26      149.22      101.02      61.435      34.780      20.913    
  15.818      13.618      12.138      11.183      10.618      10.374      10.924      10.974      11.183      11.648    
  12.436      13.683      15.573      18.896      28.048      46.931      76.201      112.62      149.22      176.77    
  187.05      176.77      149.22      112.62      76.201      46.931      28.048      18.896      15.573      13.683    
  12.436      11.648      11.183      10.974      11.978      12.009      12.138      12.436      12.974      13.883    
  15.347      17.453      22.305      33.420      52.028      76.201      101.02      119.87      126.93      119.87    
  101.02      76.201      52.028      33.420      22.305      17.453      15.347      13.883      12.974      12.436    
  12.138      12.009      13.619      13.613      13.618      13.683      13.883      14.348      15.252      16.662    
  18.787      23.824      33.420      46.931      61.435      72.705      76.967      72.705      61.435      46.931    
  33.420      23.824      18.787      16.662      15.252      14.348      13.883      13.683      13.618      13.613    
  16.170      16.061      15.818      15.573      15.347      15.252      15.467      16.117      17.160      18.787    
  22.305      28.048      34.780      40.265      42.382      40.265      34.780      28.048      22.305      18.787    
  17.160      16.117      15.467      15.252      15.347      15.573      15.818      16.061      23.470      22.734    
  20.913      18.896      17.453      16.662      16.117      15.908      16.117      16.662      17.453      18.896    
  20.913      22.734      23.470      22.734      20.913      18.896      17.453      16.662      16.117      15.908    
  16.117      16.662      17.453      18.896      20.913      22.734      42.382      40.265      34.780      28.048    
  22.305      18.787      17.160      16.117      15.467      15.252      15.347      15.573      15.818      16.061    
  16.170      16.061      15.818      15.573      15.347      15.252      15.467      16.117      17.160      18.787    
  22.305      28.048      34.780      40.265      76.967      72.705      61.435      46.931      33.420      23.824    
  18.787      16.662      15.252      14.348      13.883      13.683      13.618      13.613      13.619      13.613    
  13.618      13.683      13.883      14.348      15.252      16.662      18.787      23.824      33.420      46.931    
  61.435      72.705      126.93      119.87      101.02      76.201      52.028      33.420      22.305      17.453    
  15.347      13.883      12.974      12.436      12.138      12.009      11.978      12.009      12.138      12.436    
  12.974      13.883      15.347      17.453      22.305      33.420      52.028      76.201      101.02      119.87    
  187.05      176.77      149.22      112.62      76.201      46.931      28.048      18.896      15.573      13.683    
  12.436      11.648      11.183      10.974      10.924      10.974      11.183      11.648      12.436      13.683    
  15.573      18.896      28.048      46.931      76.201      112.62      149.22      176.77      246.81      233.33    
  197.26      149.22      101.02      61.435      34.780      20.913      15.818      13.618      12.138      11.183    
  10.618      10.374      10.321      10.374      10.618      11.183      12.138      13.618      15.818      20.913    
  34.780      61.435      101.02      149.22      197.26      233.33      291.73      275.84      233.33      176.77    
  119.87      72.705      40.265      22.734      16.061      13.613      12.009      10.974      10.374      10.133    
  10.088      10.133      10.374      10.974      12.009      13.613      16.061      22.734      40.265      72.705    
  119.87      176.77      233.33      275.84      291.73      275.84      233.33      176.77      119.87      72.705    
  40.265      22.734      16.061      13.613      12.009      10.974      10.374      10.133      10.088      10.133    
  10.374      10.974      12.009      13.613      16.061      22.734      40.265      72.705      119.87      176.77    
  233.33      275.84      275.84      260.81      220.58      167.03      113.19      68.694      38.290      22.061    
  15.963      13.606      12.040      11.026      10.431      10.183      10.133      10.183      10.431      11.026    
  12.040      13.606      15.963      22.061      38.290      68.694      113.19      167.03      220.58      260.81    
  233.33      220.58      186.43      140.96      95.389      58.102      33.188      20.400      15.742      13.608    
  12.168      11.235      10.678      10.431      10.374      10.431      10.678      11.235      12.168      13.608    
  15.742      20.400      33.188      58.102      95.389      140.96      186.43      220.58      176.77      167.03    
  140.96      106.35      71.989      44.511      26.955      18.573      15.499      13.666      12.458      11.692    
  11.235      11.026      10.974      11.026      11.235      11.692      12.458      13.666      15.499      18.573    
  26.955      44.511      71.989      106.35      140.96      167.03      119.87      113.19      95.389      71.989    
  49.280      31.924      21.685      17.272      15.264      13.852      12.977      12.458      12.168      12.040    
  12.009      12.040      12.168      12.458      12.977      13.852      15.264      17.272      21.685      31.924    
  49.280      71.989      95.389      113.19      72.705      68.694      58.102      44.511      31.924      23.074    
  18.494      16.518      15.158      14.293      13.852      13.666      13.608      13.606      13.613      13.606    
  13.608      13.666      13.852      14.293      15.158      16.518      18.494      23.074      31.924      44.511    
  58.102      68.694      40.265      38.290      33.188      26.955      21.685      18.494      16.991      15.978    
  15.355      15.158      15.264      15.499      15.742      15.963      16.061      15.963      15.742      15.499    
  15.264      15.158      15.355      15.978      16.991      18.494      21.685      26.955      33.188      38.290    
  22.734      22.061      20.400      18.573      17.272      16.518      15.978      15.771      15.978      16.518    
  17.272      18.573      20.400      22.061      22.734      22.061      20.400      18.573      17.272      16.518    
  15.978      15.771      15.978      16.518      17.272      18.573      20.400      22.061      16.061      15.963    
  15.742      15.499      15.264      15.158      15.355      15.978      16.991      18.494      21.685      26.955    
  33.188      38.290      40.265      38.290      33.188      26.955      21.685      18.494      16.991      15.978    
  15.355      15.158      15.264      15.499      15.742      15.963      13.613      13.606      13.608      13.666    
  13.852      14.293      15.158      16.518      18.494      23.074      31.924      44.511      58.102      68.694    
  72.705      68.694      58.102      44.511      31.924      23.074      18.494      16.518      15.158      14.293    
  13.852      13.666      13.608      13.606      12.009      12.040      12.168      12.458      12.977      13.852    
  15.264      17.272      21.685      31.924      49.280      71.989      95.389      113.19      119.87      113.19    
  95.389      71.989      49.280      31.924      21.685      17.272      15.264      13.852      12.977      12.458    
  12.168      12.040      10.974      11.026      11.235      11.692      12.458      13.666      15.499      18.573    
  26.955      44.511      71.989      106.35      140.96      167.03      176.77      167.03      140.96      106.35    
  71.989      44.511      26.955      18.573      15.499      13.666      12.458      11.692      11.235      11.026    
  10.374      10.431      10.678      11.235      12.168      13.608      15.742      20.400      33.188      58.102    
  95.389      140.96      186.43      220.58      233.33      220.58      186.43      140.96      95.389      58.102    
  33.188      20.400      15.742      13.608      12.168      11.235      10.678      10.431      10.133      10.183    
  10.431      11.026      12.040      13.606      15.963      22.061      38.290      68.694      113.19      167.03    
  220.58      260.81      275.84      260.81      220.58      167.03      113.19      68.694      38.290      22.061    
  15.963      13.606      12.040      11.026      10.431      10.183      10.088      10.133      10.374      10.974    
  12.009      13.613      16.061      22.734      40.265      72.705      119.87      176.77      233.33      275.84    
  291.73      275.84      233.33      176.77      119.87      72.705      40.265      22.734      16.061      13.613    
  12.009      10.974      10.374      10.133      10.133      10.183      10.431      11.026      12.040      13.606    
  15.963      22.061      38.290      68.694      113.19      167.03      220.58      260.81      275.84      260.81    
  220.58      167.03      113.19      68.694      38.290      22.061      15.963      13.606      12.040      11.026    
  10.431      10.183      10.374      10.431      10.678      11.235      12.168      13.608      15.742      20.400    
  33.188      58.102      95.389      140.96      186.43      220.58      233.33      220.58      186.43      140.96    
  95.389      58.102      33.188      20.400      15.742      13.608      12.168      11.235      10.678      10.431    
  10.974      11.026      11.235      11.692      12.458      13.666      15.499      18.573      26.955      44.511    
  71.989      106.35      140.96      167.03      176.77      167.03      140.96      106.35      71.989      44.511    
  26.955      18.573      15.499      13.666      12.458      11.692      11.235      11.026      12.009      12.040    
  12.168      12.458      12.977      13.852      15.264      17.272      21.685      31.924      49.280      71.989    
  95.389      113.19      119.87      113.19      95.389      71.989      49.280      31.924      21.685      17.272    
  15.264      13.852      12.977      12.458      12.168      12.040      13.613      13.606      13.608      13.666    
  13.852      14.293      15.158      16.518      18.494      23.074      31.924      44.511      58.102      68.694    
  72.705      68.694      58.102      44.511      31.924      23.074      18.494      16.518      15.158      14.293    
  13.852      13.666      13.608      13.606      16.061      15.963      15.742      15.499      15.264      15.158    
  15.355      15.978      16.991      18.494      21.685      26.955      33.188      38.290      40.265      38.290    
  33.188      26.955      21.685      18.494      16.991      15.978      15.355      15.158      15.264      15.499    
  15.742      15.963      22.734      22.061      20.400      18.573      17.272      16.518      15.978      15.771    
  15.978      16.518      17.272      18.573      20.400      22.061      22.734      22.061      20.400      18.573    
  17.272      16.518      15.978      15.771      15.978      16.518      17.272      18.573      20.400      22.061    
  40.265      38.290      33.188      26.955      21.685      18.494      16.991      15.978      15.355      15.158    
  15.264      15.499      15.742      15.963      16.061      15.963      15.742      15.499      15.264      15.158    
  15.355      15.978      16.991      18.494      21.685      26.955      33.188      38.290      72.705      68.694    
  58.102      44.511      31.924      23.074      18.494      16.518      15.158      14.293      13.852      13.666    
  13.608      13.606      13.613      13.606      13.608      13.666      13.852      14.293      15.158      16.518    
  18.494      23.074      31.924      44.511      58.102      68.694      119.87      113.19      95.389      71.989    
  49.280      31.924      21.685      17.272      15.264      13.852      12.977      12.458      12.168      12.040    
  12.009      12.040      12.168      12.458      12.977      13.852      15.264      17.272      21.685      31.924    
  49.280      71.989      95.389      113.19      176.77      167.03      140.96      106.35      71.989      44.511    
  26.955      18.573      15.499      13.666      12.458      11.692      11.235      11.026      10.974      11.026    
  11.235      11.692      12.458      13.666      15.499      18.573      26.955      44.511      71.989      106.35    
  140.96      167.03      233.33      220.58      186.43      140.96      95.389      58.102      33.188      20.400    
  15.742      13.608      12.168      11.235      10.678      10.431      10.374      10.431      10.678      11.235    
  12.168      13.608      15.742      20.400      33.188      58.102      95.389      140.96      186.43      220.58    
  275.84      260.81      220.58      167.03      113.19      68.694      38.290      22.061      15.963      13.606    
  12.040      11.026      10.431      10.183      10.133      10.183      10.431      11.026      12.040      13.606    
  15.963      22.061      38.290      68.694      113.19      167.03      220.58      260.81      246.81      233.33    
  197.26      149.22      101.02      61.435      34.780      20.913      15.818      13.618      12.138      11.183    
  10.618      10.374      10.321      10.374      10.618      11.183      12.138      13.618      15.818      20.913    
  34.780      61.435      101.02      149.22      197.26      233.33      233.33      220.58      186.43      140.96    
  95.389      58.102      33.188      20.400      15.742      13.608      12.168      11.235      10.678      10.431    
  10.374      10.431      10.678      11.235      12.168      13.608      15.742      20.400      33.188      58.102    
  95.389      140.96      186.43      220.58      197.26      186.43      157.44      118.88      80.410      49.338    
  29.101      19.148      15.553      13.598      12.286      11.435      10.919      10.678      10.618      10.678    
  10.919      11.435      12.286      13.598      15.553      19.148      29.101      49.338      80.410      118.88    
  157.44      186.43      149.22      140.96      118.88      89.638      60.841      38.205      24.188      17.794    
  15.295      13.632      12.544      11.853      11.435      11.235      11.183      11.235      11.435      11.853    
  12.544      13.632      15.295      17.794      24.188      38.205      60.841      89.638      118.88      140.96    
  101.02      95.389      80.410      60.841      42.088      28.087      20.146      16.816      15.038      13.777    
  13.002      12.544      12.286      12.168      12.138      12.168      12.286      12.544      13.002      13.777    
  15.038      16.816      20.146      28.087      42.088      60.841      80.410      95.389      61.435      58.102    
  49.338      38.205      28.087      21.200      17.771      16.125      14.907      14.151      13.777      13.632    
  13.598      13.608      13.618      13.608      13.598      13.632      13.777      14.151      14.907      16.125    
  17.771      21.200      28.087      38.205      49.338      58.102      34.780      33.188      29.101      24.188    
  20.146      17.771      16.531      15.604      15.057      14.907      15.038      15.295      15.553      15.742    
  15.818      15.742      15.553      15.295      15.038      14.907      15.057      15.604      16.531      17.771    
  20.146      24.188      29.101      33.188      20.913      20.400      19.148      17.794      16.816      16.125    
  15.604      15.408      15.604      16.125      16.816      17.794      19.148      20.400      20.913      20.400    
  19.148      17.794      16.816      16.125      15.604      15.408      15.604      16.125      16.816      17.794    
  19.148      20.400      15.818      15.742      15.553      15.295      15.038      14.907      15.057      15.604    
  16.531      17.771      20.146      24.188      29.101      33.188      34.780      33.188      29.101      24.188    
  20.146      17.771      16.531      15.604      15.057      14.907      15.038      15.295      15.553      15.742    
  13.618      13.608      13.598      13.632      13.777      14.151      14.907      16.125      17.771      21.200    
  28.087      38.205      49.338      58.102      61.435      58.102      49.338      38.205      28.087      21.200    
  17.771      16.125      14.907      14.151      13.777      13.632      13.598      13.608      12.138      12.168    
  12.286      12.544      13.002      13.777      15.038      16.816      20.146      28.087      42.088      60.841    
  80.410      95.389      101.02      95.389      80.410      60.841      42.088      28.087      20.146      16.816    
  15.038      13.777      13.002      12.544      12.286      12.168      11.183      11.235      11.435      11.853    
  12.544      13.632      15.295      17.794      24.188      38.205      60.841      89.638      118.88      140.96    
  149.22      140.96      118.88      89.638      60.841      38.205      24.188      17.794      15.295      13.632    
  12.544      11.853      11.435      11.235      10.618      10.678      10.919      11.435      12.286      13.598    
  15.553      19.148      29.101      49.338      80.410      118.88      157.44      186.43      197.26      186.43    
  157.44      118.88      80.410      49.338      29.101      19.148      15.553      13.598      12.286      11.435    
  10.919      10.678      10.374      10.431      10.678      11.235      12.168      13.608      15.742      20.400    
  33.188      58.102      95.389      140.96      186.43      220.58      233.33      220.58      186.43      140.96    
  95.389      58.102      33.188      20.400      15.742      13.608      12.168      11.235      10.678      10.431    
  10.321      10.374      10.618      11.183      12.138      13.618      15.818      20.913      34.780      61.435    
  101.02      149.22      197.26      233.33      246.81      233.33      197.26      149.22      101.02      61.435    
  34.780      20.913      15.818      13.618      12.138      11.183      10.618      10.374      10.374      10.431    
  10.678      11.235      12.168      13.608      15.742      20.400      33.188      58.102      95.389      140.96    
  186.43      220.58      233.33      220.58      186.43      140.96      95.389      58.102      33.188      20.400    
  15.742      13.608      12.168      11.235      10.678      10.431      10.618      10.678      10.919      11.435    
  12.286      13.598      15.553      19.148      29.101      49.338      80.410      118.88      157.44      186.43    
  197.26      186.43      157.44      118.88      80.410      49.338      29.101      19.148      15.553      13.598    
  12.286      11.435      10.919      10.678      11.183      11.235      11.435      11.853      12.544      13.632    
  15.295      17.794      24.188      38.205      60.841      89.638      118.88      140.96      149.22      140.96    
  118.88      89.638      60.841      38.205      24.188      17.794      15.295      13.632      12.544      11.853    
  11.435      11.235      12.138      12.168      12.286      12.544      13.002      13.777      15.038      16.816    
  20.146      28.087      42.088      60.841      80.410      95.389      101.02      95.389      80.410      60.841    
  42.088      28.087      20.146      16.816      15.038      13.777      13.002      12.544      12.286      12.168    
  13.618      13.608      13.598      13.632      13.777      14.151      14.907      16.125      17.771      21.200    
  28.087      38.205      49.338      58.102      61.435      58.102      49.338      38.205      28.087      21.200    
  17.771      16.125      14.907      14.151      13.777      13.632      13.598      13.608      15.818      15.742    
  15.553      15.295      15.038      14.907      15.057      15.604      16.531      17.771      20.146      24.188    
  29.101      33.188      34.780      33.188      29.101      24.188      20.146      17.771      16.531      15.604    
  15.057      14.907      15.038      15.295      15.553      15.742      20.913      20.400      19.148      17.794    
  16.816      16.125      15.604      15.408      15.604      16.125      16.816      17.794      19.148      20.400    
  20.913      20.400      19.148      17.794      16.816      16.125      15.604      15.408      15.604      16.125    
  16.816      17.794      19.148      20.400      34.780      33.188      29.101      24.188      20.146      17.771    
  16.531      15.604      15.057      14.907      15.038      15.295      15.553      15.742      15.818      15.742    
  15.553      15.295      15.038      14.907      15.057      15.604      16.531      17.771      20.146      24.188    
  29.101      33.188      61.435      58.102      49.338      38.205      28.087      21.200      17.771      16.125    
  14.907      14.151      13.777      13.632      13.598      13.608      13.618      13.608      13.598      13.632    
  13.777      14.151      14.907      16.125      17.771      21.200      28.087      38.205      49.338      58.102    
  101.02      95.389      80.410      60.841      42.088      28.087      20.146      16.816      15.038      13.777    
  13.002      12.544      12.286      12.168      12.138      12.168      12.286      12.544      13.002      13.777    
  15.038      16.816      20.146      28.087      42.088      60.841      80.410      95.389      149.22      140.96    
  118.88      89.638      60.841      38.205      24.188      17.794      15.295      13.632      12.544      11.853    
  11.435      11.235      11.183      11.235      11.435      11.853      12.544      13.632      15.295      17.794    
  24.188      38.205      60.841      89.638      118.88      140.96      197.26      186.43      157.44      118.88    
  80.410      49.338      29.101      19.148      15.553      13.598      12.286      11.435      10.919      10.678    
  10.618      10.678      10.919      11.435      12.286      13.598      15.553      19.148      29.101      49.338    
  80.410      118.88      157.44      186.43      233.33      220.58      186.43      140.96      95.389      58.102    
  33.188      20.400      15.742      13.608      12.168      11.235      10.678      10.431      10.374      10.431    
  10.678      11.235      12.168      13.608      15.742      20.400      33.188      58.102      95.389      140.96    
  186.43      220.58      187.05      176.77      149.22      112.62      76.201      46.931      28.048      18.896    
  15.573      13.683      12.436      11.648      11.183      10.974      10.924      10.974      11.183      11.648    
  12.436      13.683      15.573      18.896      28.048      46.931      76.201      112.62      149.22      176.77    
  176.77      167.03      140.96      106.35      71.989      44.511      26.955      18.573      15.499      13.666    
  12.458      11.692      11.235      11.026      10.974      11.026      11.235      11.692      12.458      13.666    
  15.499      18.573      26.955      44.511      71.989      106.35      140.96      167.03      149.22      140.96    
  118.88      89.638      60.841      38.205      24.188      17.794      15.295      13.632      12.544      11.853    
  11.435      11.235      11.183      11.235      11.435      11.853      12.544      13.632      15.295      17.794    
  24.188      38.205      60.841      89.638      118.88      140.96      112.62      106.35      89.638      67.696    
  46.470      30.354      20.958      16.947      15.012      13.623      12.736      12.183      11.853      11.692    