unknown system                          
   1.00000000000000     
     3.326191    0.000000    0.000000
     0.000000    3.326191    0.000000
     0.000000    0.000000    3.326191
   Fe
     4
Direct
  0.000000  0.000000  0.000000
  0.500000  0.500000  0.000000
  0.500000  0.000000  0.500000
  0.000000  0.500000  0.500000
 
   28   28   28
 0.30853608717E+03 0.29173330915E+03 0.24680689885E+03 0.18705419043E+03 0.12692638363E+03
 0.76966508709E+02 0.42382180873E+02 0.23469531676E+02 0.16169920581E+02 0.13618506101E+02
 0.11978105961E+02 0.10924138861E+02 0.10320826674E+02 0.10087792036E+02 0.10048294386E+02
 0.10087792036E+02 0.10320826674E+02 0.10924138861E+02 0.11978105961E+02 0.13618506101E+02
 0.16169920581E+02 0.23469531676E+02 0.42382180873E+02 0.76966508709E+02 0.12692638363E+03
 0.18705419043E+03 0.24680689885E+03 0.29173330915E+03 0.29173330915E+03 0.27584196084E+03
 0.23333322906E+03 0.17676749829E+03 0.11986532822E+03 0.72704678417E+02 0.40264645702E+02
 0.22733725761E+02 0.16060893834E+02 0.13612812972E+02 0.12008551069E+02 0.10973956411E+02
 0.10374096228E+02 0.10132973261E+02 0.10087792036E+02 0.10132973261E+02 0.10374096228E+02
 0.10973956411E+02 0.12008551069E+02 0.13612812972E+02 0.16060893834E+02 0.22733725761E+02
 0.40264645702E+02 0.72704678417E+02 0.11986532822E+03 0.17676749829E+03 0.23333322906E+03
 0.27584196084E+03 0.24680689885E+03 0.23333322906E+03 0.19725827669E+03 0.14922418047E+03
 0.10101769586E+03 0.61435297971E+02 0.34779766153E+02 0.20912669448E+02 0.15818248177E+02
 0.13617576661E+02 0.12137833753E+02 0.11182651616E+02 0.10617792021E+02 0.10374096228E+02
 0.10320826674E+02 0.10374096228E+02 0.10617792021E+02 0.11182651616E+02 0.12137833753E+02
 0.13617576661E+02 0.15818248177E+02 0.20912669448E+02 0.34779766153E+02 0.61435297971E+02
 0.10101769586E+03 0.14922418047E+03 0.19725827669E+03 0.23333322906E+03 0.18705419043E+03
 0.17676749829E+03 0.14922418047E+03 0.11262372071E+03 0.76201441036E+02 0.46931191804E+02
 0.28047682575E+02 0.18895971733E+02 0.15573247637E+02 0.13683174905E+02 0.12436285187E+02
 0.11647519676E+02 0.11182651616E+02 0.10973956411E+02 0.10924138861E+02 0.10973956411E+02
 0.11182651616E+02 0.11647519676E+02 0.12436285187E+02 0.13683174905E+02 0.15573247637E+02
 0.18895971733E+02 0.28047682575E+02 0.46931191804E+02 0.76201441036E+02 0.11262372071E+03
 0.14922418047E+03 0.17676749829E+03 0.12692638363E+03 0.11986532822E+03 0.10101769586E+03
 0.76201441036E+02 0.52028252243E+02 0.33419812259E+02 0.22305196060E+02 0.17453292902E+02
 0.15346875003E+02 0.13883247250E+02 0.12974114641E+02 0.12436285187E+02 0.12137833753E+02
 0.12008551069E+02 0.11978105961E+02 0.12008551069E+02 0.12137833753E+02 0.12436285187E+02
 0.12974114641E+02 0.13883247250E+02 0.15346875003E+02 0.17453292902E+02 0.22305196060E+02
 0.33419812259E+02 0.52028252243E+02 0.76201441036E+02 0.10101769586E+03 0.11986532822E+03
 0.76966508709E+02 0.72704678417E+02 0.61435297971E+02 0.46931191804E+02 0.33419812259E+02
 0.23823636898E+02 0.18786794658E+02 0.16661817620E+02 0.15251889260E+02 0.14348162481E+02
 0.13883247250E+02 0.13683174905E+02 0.13617576661E+02 0.13612812972E+02 0.13618506101E+02
 0.13612812972E+02 0.13617576661E+02 0.13683174905E+02 0.13883247250E+02 0.14348162481E+02
 0.15251889260E+02 0.16661817620E+02 0.18786794658E+02 0.23823636898E+02 0.33419812259E+02
 0.46931191804E+02 0.61435297971E+02 0.72704678417E+02 0.42382180873E+02 0.40264645702E+02
 0.34779766153E+02 0.28047682575E+02 0.22305196060E+02 0.18786794658E+02 0.17159808543E+02
 0.16117159708E+02 0.15466627178E+02 0.15251889260E+02 0.15346875003E+02 0.15573247637E+02
 0.15818248177E+02 0.16060893834E+02 0.16169920581E+02 0.16060893834E+02 0.15818248177E+02
 0.15573247637E+02 0.15346875003E+02 0.15251889260E+02 0.15466627178E+02 0.16117159708E+02
 0.17159808543E+02 0.18786794658E+02 0.22305196060E+02 0.28047682575E+02 0.34779766153E+02
 0.40264645702E+02 0.23469531676E+02 0.22733725761E+02 0.20912669448E+02 0.18895971733E+02
 0.17453292902E+02 0.16661817620E+02 0.16117159708E+02 0.15908051544E+02 0.16117159708E+02
 0.16661817620E+02 0.17453292902E+02 0.18895971733E+02 0.20912669448E+02 0.22733725761E+02
 0.23469531676E+02 0.22733725761E+02 0.20912669448E+02 0.18895971733E+02 0.17453292902E+02
 0.16661817620E+02 0.16117159708E+02 0.15908051544E+02 0.16117159708E+02 0.16661817620E+02
 0.17453292902E+02 0.18895971733E+02 0.20912669448E+02 0.22733725761E+02 0.16169920581E+02
 0.16060893834E+02 0.15818248177E+02 0.15573247637E+02 0.15346875003E+02 0.15251889260E+02
 0.15466627178E+02 0.16117159708E+02 0.17159808543E+02 0.18786794658E+02 0.22305196060E+02
 0.28047682575E+02 0.34779766153E+02 0.40264645702E+02 0.42382180873E+02 0.40264645702E+02
 0.34779766153E+02 0.28047682575E+02 0.22305196060E+02 0.18786794658E+02 0.17159808543E+02
 0.16117159708E+02 0.15466627178E+02 0.15251889260E+02 0.15346875003E+02 0.15573247637E+02
 0.15818248177E+02 0.16060893834E+02 0.13618506101E+02 0.13612812972E+02 0.13617576661E+02
 0.13683174905E+02 0.13883247250E+02 0.14348162481E+02 0.15251889260E+02 0.16661817620E+02
 0.18786794658E+02 0.23823636898E+02 0.33419812259E+02 0.46931191804E+02 0.61435297971E+02
 0.72704678417E+02 0.76966508709E+02 0.72704678417E+02 0.61435297971E+02 0.46931191804E+02
 0.33419812259E+02 0.23823636898E+02 0.18786794658E+02 0.16661817620E+02 0.15251889260E+02
 0.14348162481E+02 0.13883247250E+02 0.13683174905E+02 0.13617576661E+02 0.13612812972E+02
 0.11978105961E+02 0.12008551069E+02 0.12137833753E+02 0.12436285187E+02 0.12974114641E+02
 0.13883247250E+02 0.15346875003E+02 0.17453292902E+02 0.22305196060E+02 0.33419812259E+02
 0.52028252243E+02 0.76201441036E+02 0.10101769586E+03 0.11986532822E+03 0.12692638363E+03
 0.11986532822E+03 0.10101769586E+03 0.76201441036E+02 0.52028252243E+02 0.33419812259E+02
 0.22305196060E+02 0.17453292902E+02 0.15346875003E+02 0.13883247250E+02 0.12974114641E+02
 0.12436285187E+02 0.12137833753E+02 0.12008551069E+02 0.10924138861E+02 0.10973956411E+02
 0.11182651616E+02 0.11647519676E+02 0.12436285187E+02 0.13683174905E+02 0.15573247637E+02
 0.18895971733E+02 0.28047682575E+02 0.46931191804E+02 0.76201441036E+02 0.11262372071E+03
 0.14922418047E+03 0.17676749829E+03 0.18705419043E+03 0.17676749829E+03 0.14922418047E+03
 0.11262372071E+03 0.76201441036E+02 0.46931191804E+02 0.28047682575E+02 0.18895971733E+02
 0.15573247637E+02 0.13683174905E+02 0.12436285187E+02 0.11647519676E+02 0.11182651616E+02
 0.10973956411E+02 0.10320826674E+02 0.10374096228E+02 0.10617792021E+02 0.11182651616E+02
 0.12137833753E+02 0.13617576661E+02 0.15818248177E+02 0.20912669448E+02 0.34779766153E+02
 0.61435297971E+02 0.10101769586E+03 0.14922418047E+03 0.19725827669E+03 0.23333322906E+03
 0.24680689885E+03 0.23333322906E+03 0.19725827669E+03 0.14922418047E+03 0.10101769586E+03
 0.61435297971E+02 0.34779766153E+02 0.20912669448E+02 0.15818248177E+02 0.13617576661E+02
 0.12137833753E+02 0.11182651616E+02 0.10617792021E+02 0.10374096228E+02 0.10087792036E+02
 0.10132973261E+02 0.10374096228E+02 0.10973956411E+02 0.12008551069E+02 0.13612812972E+02
 0.16060893834E+02 0.22733725761E+02 0.40264645702E+02 0.72704678417E+02 0.11986532822E+03
 0.17676749829E+03 0.23333322906E+03 0.27584196084E+03 0.29173330915E+03 0.27584196084E+03
 0.23333322906E+03 0.17676749829E+03 0.11986532822E+03 0.72704678417E+02 0.40264645702E+02
 0.22733725761E+02 0.16060893834E+02 0.13612812972E+02 0.12008551069E+02 0.10973956411E+02
 0.10374096228E+02 0.10132973261E+02 0.10048294386E+02 0.10087792036E+02 0.10320826674E+02
 0.10924138861E+02 0.11978105961E+02 0.13618506101E+02 0.16169920581E+02 0.23469531676E+02
 0.42382180873E+02 0.76966508709E+02 0.12692638363E+03 0.18705419043E+03 0.24680689885E+03
 0.29173330915E+03 0.30853608717E+03 0.29173330915E+03 0.24680689885E+03 0.18705419043E+03
 0.12692638363E+03 0.76966508709E+02 0.42382180873E+02 0.23469531676E+02 0.16169920581E+02
 0.13618506101E+02 0.11978105961E+02 0.10924138861E+02 0.10320826674E+02 0.10087792036E+02
 0.10087792036E+02 0.10132973261E+02 0.10374096228E+02 0.10973956411E+02 0.12008551069E+02
 0.13612812972E+02 0.16060893834E+02 0.22733725761E+02 0.40264645702E+02 0.72704678417E+02
 0.11986532822E+03 0.17676749829E+03 0.23333322906E+03 0.27584196084E+03 0.29173330915E+03
 0.27584196084E+03 0.23333322906E+03 0.17676749829E+03 0.11986532822E+03 0.72704678417E+02
 0.40264645702E+02 0.22733725761E+02 0.16060893834E+02 0.13612812972E+02 0.12008551069E+02
 0.10973956411E+02 0.10374096228E+02 0.10132973261E+02 0.10320826674E+02 0.10374096228E+02
 0.10617792021E+02 0.11182651616E+02 0.12137833753E+02 0.13617576661E+02 0.15818248177E+02
 0.20912669448E+02 0.34779766153E+02 0.61435297971E+02 0.10101769586E+03 0.14922418047E+03
 0.19725827669E+03 0.23333322906E+03 0.24680689885E+03 0.23333322906E+03 0.19725827669E+03
 0.14922418047E+03 0.10101769586E+03 0.61435297971E+02 0.34779766153E+02 0.20912669448E+02
 0.15818248177E+02 0.13617576661E+02 0.12137833753E+02 0.11182651616E+02 0.10617792021E+02
 0.10374096228E+02 0.10924138861E+02 0.10973956411E+02 0.11182651616E+02 0.11647519676E+02
 0.12436285187E+02 0.13683174905E+02 0.15573247637E+02 0.18895971733E+02 0.28047682575E+02
 0.46931191804E+02 0.76201441036E+02 0.11262372071E+03 0.14922418047E+03 0.17676749829E+03
 0.18705419043E+03 0.17676749829E+03 0.14922418047E+03 0.11262372071E+03 0.76201441036E+02
 0.46931191804E+02 0.28047682575E+02 0.18895971733E+02 0.15573247637E+02 0.13683174905E+02
 0.12436285187E+02 0.11647519676E+02 0.11182651616E+02 0.10973956411E+02 0.11978105961E+02
 0.12008551069E+02 0.12137833753E+02 0.12436285187E+02 0.12974114641E+02 0.13883247250E+02
 0.15346875003E+02 0.17453292902E+02 0.22305196060E+02 0.33419812259E+02 0.52028252243E+02
 0.76201441036E+02 0.10101769586E+03 0.11986532822E+03 0.12692638363E+03 0.11986532822E+03
 0.10101769586E+03 0.76201441036E+02 0.52028252243E+02 0.33419812259E+02 0.22305196060E+02
 0.17453292902E+02 0.15346875003E+02 0.13883247250E+02 0.12974114641E+02 0.12436285187E+02
 0.12137833753E+02 0.12008551069E+02 0.13618506101E+02 0.13612812972E+02 0.13617576661E+02
 0.13683174905E+02 0.13883247250E+02 0.14348162481E+02 0.15251889260E+02 0.16661817620E+02
 0.18786794658E+02 0.23823636898E+02 0.33419812259E+02 0.46931191804E+02 0.61435297971E+02
 0.72704678417E+02 0.76966508709E+02 0.72704678417E+02 0.61435297971E+02 0.46931191804E+02
 0.33419812259E+02 0.23823636898E+02 0.18786794658E+02 0.16661817620E+02 0.15251889260E+02
 0.14348162481E+02 0.13883247250E+02 0.13683174905E+02 0.13617576661E+02 0.13612812972E+02
 0.16169920581E+02 0.16060893834E+02 0.15818248177E+02 0.15573247637E+02 0.15346875003E+02
 0.15251889260E+02 0.15466627178E+02 0.16117159708E+02 0.17159808543E+02 0.18786794658E+02
 0.22305196060E+02 0.28047682575E+02 0.34779766153E+02 0.40264645702E+02 0.42382180873E+02
 0.40264645702E+02 0.34779766153E+02 0.28047682575E+02 0.22305196060E+02 0.18786794658E+02
 0.17159808543E+02 0.16117159708E+02 0.15466627178E+02 0.15251889260E+02 0.15346875003E+02
 0.15573247637E+02 0.15818248177E+02 0.16060893834E+02 0.23469531676E+02 0.22733725761E+02
 0.20912669448E+02 0.18895971733E+02 0.17453292902E+02 0.16661817620E+02 0.16117159708E+02
 0.15908051544E+02 0.16117159708E+02 0.16661817620E+02 0.17453292902E+02 0.18895971733E+02
 0.20912669448E+02 0.22733725761E+02 0.23469531676E+02 0.22733725761E+02 0.20912669448E+02
 0.18895971733E+02 0.17453292902E+02 0.16661817620E+02 0.16117159708E+02 0.15908051544E+02
 0.16117159708E+02 0.16661817620E+02 0.17453292902E+02 0.18895971733E+02 0.20912669448E+02
 0.22733725761E+02 0.42382180873E+02 0.40264645702E+02 0.34779766153E+02 0.28047682575E+02
 0.22305196060E+02 0.18786794658E+02 0.17159808543E+02 0.16117159708E+02 0.15466627178E+02
 0.15251889260E+02 0.15346875003E+02 0.15573247637E+02 0.15818248177E+02 0.16060893834E+02
 0.16169920581E+02 0.16060893834E+02 0.15818248177E+02 0.15573247637E+02 0.15346875003E+02
 0.15251889260E+02 0.15466627178E+02 0.16117159708E+02 0.17159808543E+02 0.18786794658E+02
 0.22305196060E+02 0.28047682575E+02 0.34779766153E+02 0.40264645702E+02 0.76966508709E+02
 0.72704678417E+02 0.61435297971E+02 0.46931191804E+02 0.33419812259E+02 0.23823636898E+02
 0.18786794658E+02 0.16661817620E+02 0.15251889260E+02 0.14348162481E+02 0.13883247250E+02
 0.13683174905E+02 0.13617576661E+02 0.13612812972E+02 0.13618506101E+02 0.13612812972E+02
 0.13617576661E+02 0.13683174905E+02 0.13883247250E+02 0.14348162481E+02 0.15251889260E+02
 0.16661817620E+02 0.18786794658E+02 0.23823636898E+02 0.33419812259E+02 0.46931191804E+02
 0.61435297971E+02 0.72704678417E+02 0.12692638363E+03 0.11986532822E+03 0.10101769586E+03
 0.76201441036E+02 0.52028252243E+02 0.33419812259E+02 0.22305196060E+02 0.17453292902E+02
 0.15346875003E+02 0.13883247250E+02 0.12974114641E+02 0.12436285187E+02 0.12137833753E+02
 0.12008551069E+02 0.11978105961E+02 0.12008551069E+02 0.12137833753E+02 0.12436285187E+02
 0.12974114641E+02 0.13883247250E+02 0.15346875003E+02 0.17453292902E+02 0.22305196060E+02
 0.33419812259E+02 0.52028252243E+02 0.76201441036E+02 0.10101769586E+03 0.11986532822E+03
 0.18705419043E+03 0.17676749829E+03 0.14922418047E+03 0.11262372071E+03 0.76201441036E+02
 0.46931191804E+02 0.28047682575E+02 0.18895971733E+02 0.15573247637E+02 0.13683174905E+02
 0.12436285187E+02 0.11647519676E+02 0.11182651616E+02 0.10973956411E+02 0.10924138861E+02
 0.10973956411E+02 0.11182651616E+02 0.11647519676E+02 0.12436285187E+02 0.13683174905E+02
 0.15573247637E+02 0.18895971733E+02 0.28047682575E+02 0.46931191804E+02 0.76201441036E+02
 0.11262372071E+03 0.14922418047E+03 0.17676749829E+03 0.24680689885E+03 0.23333322906E+03
 0.19725827669E+03 0.14922418047E+03 0.10101769586E+03 0.61435297971E+02 0.34779766153E+02
 0.20912669448E+02 0.15818248177E+02 0.13617576661E+02 0.12137833753E+02 0.11182651616E+02
 0.10617792021E+02 0.10374096228E+02 0.10320826674E+02 0.10374096228E+02 0.10617792021E+02
 0.11182651616E+02 0.12137833753E+02 0.13617576661E+02 0.15818248177E+02 0.20912669448E+02
 0.34779766153E+02 0.61435297971E+02 0.10101769586E+03 0.14922418047E+03 0.19725827669E+03
 0.23333322906E+03 0.29173330915E+03 0.27584196084E+03 0.23333322906E+03 0.17676749829E+03
 0.11986532822E+03 0.72704678417E+02 0.40264645702E+02 0.22733725761E+02 0.16060893834E+02
 0.13612812972E+02 0.12008551069E+02 0.10973956411E+02 0.10374096228E+02 0.10132973261E+02
 0.10087792036E+02 0.10132973261E+02 0.10374096228E+02 0.10973956411E+02 0.12008551069E+02
 0.13612812972E+02 0.16060893834E+02 0.22733725761E+02 0.40264645702E+02 0.72704678417E+02
 0.11986532822E+03 0.17676749829E+03 0.23333322906E+03 0.27584196084E+03 0.29173330915E+03
 0.27584196084E+03 0.23333322906E+03 0.17676749829E+03 0.11986532822E+03 0.72704678417E+02
 0.40264645702E+02 0.22733725761E+02 0.16060893834E+02 0.13612812972E+02 0.12008551069E+02
 0.10973956411E+02 0.10374096228E+02 0.10132973261E+02 0.10087792036E+02 0.10132973261E+02
 0.10374096228E+02 0.10973956411E+02 0.12008551069E+02 0.13612812972E+02 0.16060893834E+02
 0.22733725761E+02 0.40264645702E+02 0.72704678417E+02 0.11986532822E+03 0.17676749829E+03
 0.23333322906E+03 0.27584196084E+03 0.27584196084E+03 0.26080906806E+03 0.22058114490E+03
 0.16703090659E+03 0.11319139111E+03 0.68693999315E+02 0.38290349634E+02 0.22060506230E+02
 0.15963286730E+02 0.13606484714E+02 0.12039761871E+02 0.11025793926E+02 0.10430850224E+02
 0.10183147724E+02 0.10132973261E+02 0.10183147724E+02 0.10430850224E+02 0.11025793926E+02
 0.12039761871E+02 0.13606484714E+02 0.15963286730E+02 0.22060506230E+02 0.38290349634E+02
 0.68693999315E+02 0.11319139111E+03 0.16703090659E+03 0.22058114490E+03 0.26080906806E+03
 0.23333322906E+03 0.22058114490E+03 0.18643206349E+03 0.14096497038E+03 0.95388726220E+02
 0.58102270910E+02 0.33187521595E+02 0.20400044198E+02 0.15742165071E+02 0.13608143484E+02
 0.12168075347E+02 0.11235373141E+02 0.10678022719E+02 0.10430850224E+02 0.10374096228E+02
 0.10430850224E+02 0.10678022719E+02 0.11235373141E+02 0.12168075347E+02 0.13608143484E+02
 0.15742165071E+02 0.20400044198E+02 0.33187521595E+02 0.58102270910E+02 0.95388726220E+02
 0.14096497038E+03 0.18643206349E+03 0.22058114490E+03 0.17676749829E+03 0.16703090659E+03
 0.14096497038E+03 0.10635420173E+03 0.71989028893E+02 0.44511438439E+02 0.26954948112E+02
 0.18573466097E+02 0.15499402361E+02 0.13666138818E+02 0.12458258237E+02 0.11691580931E+02
 0.11235373141E+02 0.11025793926E+02 0.10973956411E+02 0.11025793926E+02 0.11235373141E+02
 0.11691580931E+02 0.12458258237E+02 0.13666138818E+02 0.15499402361E+02 0.18573466097E+02
 0.26954948112E+02 0.44511438439E+02 0.71989028893E+02 0.10635420173E+03 0.14096497038E+03
 0.16703090659E+03 0.11986532822E+03 0.11319139111E+03 0.95388726220E+02 0.71989028893E+02
 0.49280305052E+02 0.31923817174E+02 0.21684761709E+02 0.17271552509E+02 0.15263529682E+02
 0.13852316339E+02 0.12977098413E+02 0.12458258237E+02 0.12168075347E+02 0.12039761871E+02
 0.12008551069E+02 0.12039761871E+02 0.12168075347E+02 0.12458258237E+02 0.12977098413E+02
 0.13852316339E+02 0.15263529682E+02 0.17271552509E+02 0.21684761709E+02 0.31923817174E+02
 0.49280305052E+02 0.71989028893E+02 0.95388726220E+02 0.11319139111E+03 0.72704678417E+02
 0.68693999315E+02 0.58102270910E+02 0.44511438439E+02 0.31923817174E+02 0.23074050840E+02
 0.18493764610E+02 0.16517734950E+02 0.15157743760E+02 0.14293183294E+02 0.13852316339E+02
 0.13666138818E+02 0.13608143484E+02 0.13606484714E+02 0.13612812972E+02 0.13606484714E+02
 0.13608143484E+02 0.13666138818E+02 0.13852316339E+02 0.14293183294E+02 0.15157743760E+02
 0.16517734950E+02 0.18493764610E+02 0.23074050840E+02 0.31923817174E+02 0.44511438439E+02
 0.58102270910E+02 0.68693999315E+02 0.40264645702E+02 0.38290349634E+02 0.33187521595E+02
 0.26954948112E+02 0.21684761709E+02 0.18493764610E+02 0.16991080279E+02 0.15977564915E+02
 0.15354623913E+02 0.15157743760E+02 0.15263529682E+02 0.15499402361E+02 0.15742165071E+02
 0.15963286730E+02 0.16060893834E+02 0.15963286730E+02 0.15742165071E+02 0.15499402361E+02
 0.15263529682E+02 0.15157743760E+02 0.15354623913E+02 0.15977564915E+02 0.16991080279E+02
 0.18493764610E+02 0.21684761709E+02 0.26954948112E+02 0.33187521595E+02 0.38290349634E+02
 0.22733725761E+02 0.22060506230E+02 0.20400044198E+02 0.18573466097E+02 0.17271552509E+02
 0.16517734950E+02 0.15977564915E+02 0.15771458420E+02 0.15977564915E+02 0.16517734950E+02
 0.17271552509E+02 0.18573466097E+02 0.20400044198E+02 0.22060506230E+02 0.22733725761E+02
 0.22060506230E+02 0.20400044198E+02 0.18573466097E+02 0.17271552509E+02 0.16517734950E+02
 0.15977564915E+02 0.15771458420E+02 0.15977564915E+02 0.16517734950E+02 0.17271552509E+02
 0.18573466097E+02 0.20400044198E+02 0.22060506230E+02 0.16060893834E+02 0.15963286730E+02
 0.15742165071E+02 0.15499402361E+02 0.15263529682E+02 0.15157743760E+02 0.15354623913E+02
 0.15977564915E+02 0.16991080279E+02 0.18493764610E+02 0.21684761709E+02 0.26954948112E+02
 0.33187521595E+02 0.38290349634E+02 0.40264645702E+02 0.38290349634E+02 0.33187521595E+02
 0.26954948112E+02 0.21684761709E+02 0.18493764610E+02 0.16991080279E+02 0.15977564915E+02
 0.15354623913E+02 0.15157743760E+02 0.15263529682E+02 0.15499402361E+02 0.15742165071E+02
 0.15963286730E+02 0.13612812972E+02 0.13606484714E+02 0.13608143484E+02 0.13666138818E+02
 0.13852316339E+02 0.14293183294E+02 0.15157743760E+02 0.16517734950E+02 0.18493764610E+02
 0.23074050840E+02 0.31923817174E+02 0.44511438439E+02 0.58102270910E+02 0.68693999315E+02
 0.72704678417E+02 0.68693999315E+02 0.58102270910E+02 0.44511438439E+02 0.31923817174E+02
 0.23074050840E+02 0.18493764610E+02 0.16517734950E+02 0.15157743760E+02 0.14293183294E+02
 0.13852316339E+02 0.13666138818E+02 0.13608143484E+02 0.13606484714E+02 0.12008551069E+02
 0.12039761871E+02 0.12168075347E+02 0.12458258237E+02 0.12977098413E+02 0.13852316339E+02
 0.15263529682E+02 0.17271552509E+02 0.21684761709E+02 0.31923817174E+02 0.49280305052E+02
 0.71989028893E+02 0.95388726220E+02 0.11319139111E+03 0.11986532822E+03 0.11319139111E+03
 0.95388726220E+02 0.71989028893E+02 0.49280305052E+02 0.31923817174E+02 0.21684761709E+02
 0.17271552509E+02 0.15263529682E+02 0.13852316339E+02 0.12977098413E+02 0.12458258237E+02
 0.12168075347E+02 0.12039761871E+02 0.10973956411E+02 0.11025793926E+02 0.11235373141E+02
 0.11691580931E+02 0.12458258237E+02 0.13666138818E+02 0.15499402361E+02 0.18573466097E+02
 0.26954948112E+02 0.44511438439E+02 0.71989028893E+02 0.10635420173E+03 0.14096497038E+03
 0.16703090659E+03 0.17676749829E+03 0.16703090659E+03 0.14096497038E+03 0.10635420173E+03
 0.71989028893E+02 0.44511438439E+02 0.26954948112E+02 0.18573466097E+02 0.15499402361E+02
 0.13666138818E+02 0.12458258237E+02 0.11691580931E+02 0.11235373141E+02 0.11025793926E+02
 0.10374096228E+02 0.10430850224E+02 0.10678022719E+02 0.11235373141E+02 0.12168075347E+02
 0.13608143484E+02 0.15742165071E+02 0.20400044198E+02 0.33187521595E+02 0.58102270910E+02
 0.95388726220E+02 0.14096497038E+03 0.18643206349E+03 0.22058114490E+03 0.23333322906E+03
 0.22058114490E+03 0.18643206349E+03 0.14096497038E+03 0.95388726220E+02 0.58102270910E+02
 0.33187521595E+02 0.20400044198E+02 0.15742165071E+02 0.13608143484E+02 0.12168075347E+02
 0.11235373141E+02 0.10678022719E+02 0.10430850224E+02 0.10132973261E+02 0.10183147724E+02
 0.10430850224E+02 0.11025793926E+02 0.12039761871E+02 0.13606484714E+02 0.15963286730E+02
 0.22060506230E+02 0.38290349634E+02 0.68693999315E+02 0.11319139111E+03 0.16703090659E+03
 0.22058114490E+03 0.26080906806E+03 0.27584196084E+03 0.26080906806E+03 0.22058114490E+03
 0.16703090659E+03 0.11319139111E+03 0.68693999315E+02 0.38290349634E+02 0.22060506230E+02
 0.15963286730E+02 0.13606484714E+02 0.12039761871E+02 0.11025793926E+02 0.10430850224E+02
 0.10183147724E+02 0.10087792036E+02 0.10132973261E+02 0.10374096228E+02 0.10973956411E+02
 0.12008551069E+02 0.13612812972E+02 0.16060893834E+02 0.22733725761E+02 0.40264645702E+02
 0.72704678417E+02 0.11986532822E+03 0.17676749829E+03 0.23333322906E+03 0.27584196084E+03
 0.29173330915E+03 0.27584196084E+03 0.23333322906E+03 0.17676749829E+03 0.11986532822E+03
 0.72704678417E+02 0.40264645702E+02 0.22733725761E+02 0.16060893834E+02 0.13612812972E+02
 0.12008551069E+02 0.10973956411E+02 0.10374096228E+02 0.10132973261E+02 0.10132973261E+02
 0.10183147724E+02 0.10430850224E+02 0.11025793926E+02 0.12039761871E+02 0.13606484714E+02
 0.15963286730E+02 0.22060506230E+02 0.38290349634E+02 0.68693999315E+02 0.11319139111E+03
 0.16703090659E+03 0.22058114490E+03 0.26080906806E+03 0.27584196084E+03 0.26080906806E+03
 0.22058114490E+03 0.16703090659E+03 0.11319139111E+03 0.68693999315E+02 0.38290349634E+02
 0.22060506230E+02 0.15963286730E+02 0.13606484714E+02 0.12039761871E+02 0.11025793926E+02
 0.10430850224E+02 0.10183147724E+02 0.10374096228E+02 0.10430850224E+02 0.10678022719E+02
 0.11235373141E+02 0.12168075347E+02 0.13608143484E+02 0.15742165071E+02 0.20400044198E+02
 0.33187521595E+02 0.58102270910E+02 0.95388726220E+02 0.14096497038E+03 0.18643206349E+03
 0.22058114490E+03 0.23333322906E+03 0.22058114490E+03 0.18643206349E+03 0.14096497038E+03
 0.95388726220E+02 0.58102270910E+02 0.33187521595E+02 0.20400044198E+02 0.15742165071E+02
 0.13608143484E+02 0.12168075347E+02 0.11235373141E+02 0.10678022719E+02 0.10430850224E+02
 0.10973956411E+02 0.11025793926E+02 0.11235373141E+02 0.11691580931E+02 0.12458258237E+02
 0.13666138818E+02 0.15499402361E+02 0.18573466097E+02 0.26954948112E+02 0.44511438439E+02
 0.71989028893E+02 0.10635420173E+03 0.14096497038E+03 0.16703090659E+03 0.17676749829E+03
 0.16703090659E+03 0.14096497038E+03 0.10635420173E+03 0.71989028893E+02 0.44511438439E+02
 0.26954948112E+02 0.18573466097E+02 0.15499402361E+02 0.13666138818E+02 0.12458258237E+02
 0.11691580931E+02 0.11235373141E+02 0.11025793926E+02 0.12008551069E+02 0.12039761871E+02
 0.12168075347E+02 0.12458258237E+02 0.12977098413E+02 0.13852316339E+02 0.15263529682E+02
 0.17271552509E+02 0.21684761709E+02 0.31923817174E+02 0.49280305052E+02 0.71989028893E+02
 0.95388726220E+02 0.11319139111E+03 0.11986532822E+03 0.11319139111E+03 0.95388726220E+02
 0.71989028893E+02 0.49280305052E+02 0.31923817174E+02 0.21684761709E+02 0.17271552509E+02
 0.15263529682E+02 0.13852316339E+02 0.12977098413E+02 0.12458258237E+02 0.12168075347E+02
 0.12039761871E+02 0.13612812972E+02 0.13606484714E+02 0.13608143484E+02 0.13666138818E+02
 0.13852316339E+02 0.14293183294E+02 0.15157743760E+02 0.16517734950E+02 0.18493764610E+02
 0.23074050840E+02 0.31923817174E+02 0.44511438439E+02 0.58102270910E+02 0.68693999315E+02
 0.72704678417E+02 0.68693999315E+02 0.58102270910E+02 0.44511438439E+02 0.31923817174E+02
 0.23074050840E+02 0.18493764610E+02 0.16517734950E+02 0.15157743760E+02 0.14293183294E+02
 0.13852316339E+02 0.13666138818E+02 0.13608143484E+02 0.13606484714E+02 0.16060893834E+02
 0.15963286730E+02 0.15742165071E+02 0.15499402361E+02 0.15263529682E+02 0.15157743760E+02
 0.15354623913E+02 0.15977564915E+02 0.16991080279E+02 0.18493764610E+02 0.21684761709E+02
 0.26954948112E+02 0.33187521595E+02 0.38290349634E+02 0.40264645702E+02 0.38290349634E+02
 0.33187521595E+02 0.26954948112E+02 0.21684761709E+02 0.18493764610E+02 0.16991080279E+02
 0.15977564915E+02 0.15354623913E+02 0.15157743760E+02 0.15263529682E+02 0.15499402361E+02
 0.15742165071E+02 0.15963286730E+02 0.22733725761E+02 0.22060506230E+02 0.20400044198E+02
 0.18573466097E+02 0.17271552509E+02 0.16517734950E+02 0.15977564915E+02 0.15771458420E+02
 0.15977564915E+02 0.16517734950E+02 0.17271552509E+02 0.18573466097E+02 0.20400044198E+02
 0.22060506230E+02 0.22733725761E+02 0.22060506230E+02 0.20400044198E+02 0.18573466097E+02
 0.17271552509E+02 0.16517734950E+02 0.15977564915E+02 0.15771458420E+02 0.15977564915E+02
 0.16517734950E+02 0.17271552509E+02 0.18573466097E+02 0.20400044198E+02 0.22060506230E+02
 0.40264645702E+02 0.38290349634E+02 0.33187521595E+02 0.26954948112E+02 0.21684761709E+02
 0.18493764610E+02 0.16991080279E+02 0.15977564915E+02 0.15354623913E+02 0.15157743760E+02
 0.15263529682E+02 0.15499402361E+02 0.15742165071E+02 0.15963286730E+02 0.16060893834E+02
 0.15963286730E+02 0.15742165071E+02 0.15499402361E+02 0.15263529682E+02 0.15157743760E+02
 0.15354623913E+02 0.15977564915E+02 0.16991080279E+02 0.18493764610E+02 0.21684761709E+02
 0.26954948112E+02 0.33187521595E+02 0.38290349634E+02 0.72704678417E+02 0.68693999315E+02
 0.58102270910E+02 0.44511438439E+02 0.31923817174E+02 0.23074050840E+02 0.18493764610E+02
 0.16517734950E+02 0.15157743760E+02 0.14293183294E+02 0.13852316339E+02 0.13666138818E+02
 0.13608143484E+02 0.13606484714E+02 0.13612812972E+02 0.13606484714E+02 0.13608143484E+02
 0.13666138818E+02 0.13852316339E+02 0.14293183294E+02 0.15157743760E+02 0.16517734950E+02
 0.18493764610E+02 0.23074050840E+02 0.31923817174E+02 0.44511438439E+02 0.58102270910E+02
 0.68693999315E+02 0.11986532822E+03 0.11319139111E+03 0.95388726220E+02 0.71989028893E+02
 0.49280305052E+02 0.31923817174E+02 0.21684761709E+02 0.17271552509E+02 0.15263529682E+02
 0.13852316339E+02 0.12977098413E+02 0.12458258237E+02 0.12168075347E+02 0.12039761871E+02
 0.12008551069E+02 0.12039761871E+02 0.12168075347E+02 0.12458258237E+02 0.12977098413E+02
 0.13852316339E+02 0.15263529682E+02 0.17271552509E+02 0.21684761709E+02 0.31923817174E+02
 0.49280305052E+02 0.71989028893E+02 0.95388726220E+02 0.11319139111E+03 0.17676749829E+03
 0.16703090659E+03 0.14096497038E+03 0.10635420173E+03 0.71989028893E+02 0.44511438439E+02
 0.26954948112E+02 0.18573466097E+02 0.15499402361E+02 0.13666138818E+02 0.12458258237E+02
 0.11691580931E+02 0.11235373141E+02 0.11025793926E+02 0.10973956411E+02 0.11025793926E+02
 0.11235373141E+02 0.11691580931E+02 0.12458258237E+02 0.13666138818E+02 0.15499402361E+02
 0.18573466097E+02 0.26954948112E+02 0.44511438439E+02 0.71989028893E+02 0.10635420173E+03
 0.14096497038E+03 0.16703090659E+03 0.23333322906E+03 0.22058114490E+03 0.18643206349E+03
 0.14096497038E+03 0.95388726220E+02 0.58102270910E+02 0.33187521595E+02 0.20400044198E+02
 0.15742165071E+02 0.13608143484E+02 0.12168075347E+02 0.11235373141E+02 0.10678022719E+02
 0.10430850224E+02 0.10374096228E+02 0.10430850224E+02 0.10678022719E+02 0.11235373141E+02
 0.12168075347E+02 0.13608143484E+02 0.15742165071E+02 0.20400044198E+02 0.33187521595E+02
 0.58102270910E+02 0.95388726220E+02 0.14096497038E+03 0.18643206349E+03 0.22058114490E+03
 0.27584196084E+03 0.26080906806E+03 0.22058114490E+03 0.16703090659E+03 0.11319139111E+03
 0.68693999315E+02 0.38290349634E+02 0.22060506230E+02 0.15963286730E+02 0.13606484714E+02
 0.12039761871E+02 0.11025793926E+02 0.10430850224E+02 0.10183147724E+02 0.10132973261E+02
 0.10183147724E+02 0.10430850224E+02 0.11025793926E+02 0.12039761871E+02 0.13606484714E+02
 0.15963286730E+02 0.22060506230E+02 0.38290349634E+02 0.68693999315E+02 0.11319139111E+03
 0.16703090659E+03 0.22058114490E+03 0.26080906806E+03 0.24680689885E+03 0.23333322906E+03
 0.19725827669E+03 0.14922418047E+03 0.10101769586E+03 0.61435297971E+02 0.34779766153E+02
 0.20912669448E+02 0.15818248177E+02 0.13617576661E+02 0.12137833753E+02 0.11182651616E+02
 0.10617792021E+02 0.10374096228E+02 0.10320826674E+02 0.10374096228E+02 0.10617792021E+02
 0.11182651616E+02 0.12137833753E+02 0.13617576661E+02 0.15818248177E+02 0.20912669448E+02
 0.34779766153E+02 0.61435297971E+02 0.10101769586E+03 0.14922418047E+03 0.19725827669E+03
 0.23333322906E+03 0.23333322906E+03 0.22058114490E+03 0.18643206349E+03 0.14096497038E+03
 0.95388726220E+02 0.58102270910E+02 0.33187521595E+02 0.20400044198E+02 0.15742165071E+02
 0.13608143484E+02 0.12168075347E+02 0.11235373141E+02 0.10678022719E+02 0.10430850224E+02
 0.10374096228E+02 0.10430850224E+02 0.10678022719E+02 0.11235373141E+02 0.12168075347E+02
 0.13608143484E+02 0.15742165071E+02 0.20400044198E+02 0.33187521595E+02 0.58102270910E+02
 0.95388726220E+02 0.14096497038E+03 0.18643206349E+03 0.22058114490E+03 0.19725827669E+03