    4    4    1    1
  0.9199868E+01  0.3326191E-09  0.3326191E-09  0.3326191E-09  0.5000000E-15
  1.000000000000000E-004
  CAR 
 unknown system                          
     32     56     40
 
  0.0000000E+00  0.0000000E+00  0.0000000E+00  0.7513148E-03
    1       -1.381891   1.000000
    2        2.343793   1.000000
    3        2.343793   1.000000
    4        2.343793   1.000000
    5        3.177909   1.000000
    6        3.177909   1.000000
    7        3.177909   1.000000
    8        6.164896   1.000000
    9        6.164896   1.000000
   10        6.164896   1.000000
   11        7.990740   0.769071
   12        7.990740   0.769071
   13        9.205849  -0.000000
   14        9.205849  -0.000000
   15        9.205849  -0.000000
   16        9.559426  -0.000000
   17        9.559426  -0.000000
   18        9.559426  -0.000000
   19        9.559426  -0.000000
   20        9.559426  -0.000000
   21        9.559426  -0.000000
   22       11.666432  -0.000000
   23       11.666432  -0.000000
   24       11.666432  -0.000000
   25       21.069296   0.000000
   26       21.069296   0.000000
   27       21.069296   0.000000
   28       25.557409   0.000000
   29       25.557409   0.000000
   30       25.557409   0.000000
   31       25.557409   0.000000
   32       25.557409   0.000000
   33       25.557409   0.000000
   34       31.414485   0.000000
   35       31.414485   0.000000
   36       31.414485   0.000000
   37       32.289869   0.000000
   38       37.204980   0.000000
   39       37.204980   0.000000
   40       37.204980   0.000000
 
  0.9090909E-01  0.0000000E+00  0.0000000E+00  0.4507889E-02
    1       -1.253165   1.000000
    2        2.385319   1.000000
    3        2.426701   1.000000
    4        2.426701   1.000000
    5        3.230128   1.000000
    6        3.241795   1.000000
    7        3.241795   1.000000
    8        6.093921   1.000000
    9        6.215302   1.000000
   10        6.215302   1.000000
   11        7.924322   0.949179
   12        8.014168   0.682329
   13        9.017033  -0.000000
   14        9.017033  -0.000000
   15        9.119062  -0.000000
   16        9.119062  -0.000000
   17        9.179984  -0.000000
   18        9.460799  -0.000000
   19        9.460799  -0.000000
   20        9.559774  -0.000000
   21        9.559774  -0.000000
   22       11.167626  -0.000000
   23       12.289796  -0.000000
   24       12.289796  -0.000000
   25       21.055301   0.000000
   26       21.055301   0.000000
   27       21.698256   0.000000
   28       25.029721   0.000000
   29       25.029721   0.000000
   30       25.301958   0.000000
   31       25.301958   0.000000
   32       25.775884   0.000000
   33       25.775884   0.000000
   34       31.438318   0.000000
   35       32.058529   0.000000
   36       32.058529   0.000000
   37       32.244097   0.000000
   38       37.256760   0.000000
   39       37.745795   0.000000
   40       37.771067   0.000000
 
  0.1818182E+00  0.0000000E+00  0.0000000E+00  0.4507889E-02
    1       -0.874561   1.000000
    2        2.487915   1.000000
    3        2.662233   1.000000
    4        2.662233   1.000000
    5        3.384116   1.000000
    6        3.433130   1.000000
    7        3.433130   1.000000
    8        5.889838   1.000000
    9        6.365251   1.000000
   10        6.365251   1.000000
   11        7.735020   1.022277
   12        8.065677   0.469387
   13        8.065677   0.469387
   14        8.082814   0.397700
   15        8.871301  -0.000000
   16        8.871301  -0.000000
   17        9.104700  -0.000000
   18        9.183854  -0.000000
   19        9.183854  -0.000000
   20        9.560173  -0.000000
   21        9.560173  -0.000000
   22       10.001037  -0.000000
   23       13.482906  -0.000000
   24       13.482906  -0.000000
   25       21.015553   0.000000
   26       21.015553   0.000000
   27       23.258315   0.000000
   28       23.826136   0.000000
   29       23.826136   0.000000
   30       24.702043   0.000000
   31       24.702043   0.000000
   32       26.408937   0.000000
   33       26.408937   0.000000
   34       31.451382   0.000000
   35       32.126011   0.000000
   36       33.569255   0.000000
   37       33.569255   0.000000
   38       36.139891   0.000000
   39       36.754231   0.000000
   40       36.754240   0.000000
 
  0.2727273E+00  0.0000000E+00  0.0000000E+00  0.4507889E-02
    1       -0.271290   1.000000
    2        2.575954   1.000000
    3        3.006928   1.000000
    4        3.006928   1.000000
    5        3.631798   1.000000
    6        3.750816   1.000000
    7        3.750816   1.000000
    8        5.577125   1.000000
    9        6.610674   1.000000
   10        6.610674   1.000000
   11        7.107977   1.000000
   12        7.107977   1.000000
   13        7.455510   1.000086
   14        8.191848   0.052159
   15        8.505668  -0.003466
   16        8.505668  -0.003466
   17        8.685954  -0.000042
   18        8.778868  -0.000002
   19        8.778868  -0.000002
   20        8.987086  -0.000000
   21        9.560879  -0.000000
   22        9.560879  -0.000000
   23       14.841329   0.000000
   24       14.841329   0.000000
   25       20.957278   0.000000
   26       20.957278   0.000000
   27       22.376955   0.000000
   28       22.376955   0.000000
   29       24.055560   0.000000
   30       24.055560   0.000000
   31       25.250893   0.000000
   32       27.399530   0.000000
   33       27.399530   0.000000
   34       31.479488   0.000000
   35       31.975979   0.000000
   36       34.470280   0.000000
   37       35.174598   0.000000
   38       35.174598   0.000000
   39       35.539447   0.000000
   40       35.539447   0.000000
 
  0.3636364E+00  0.0000000E+00  0.0000000E+00  0.4507889E-02
    1        0.504643   1.000000
    2        2.499543   1.000000
    3        3.375088   1.000000
    4        3.375088   1.000000
    5        3.959344   1.000000
    6        4.192709   1.000000
    7        4.192709   1.000000
    8        5.190388   1.000000
    9        6.222785   1.000000
   10        6.222785   1.000000
   11        6.943842   1.000000
   12        6.943842   1.000000
   13        7.150438   1.000000
   14        7.604546   1.003046
   15        8.113760   0.275547
   16        8.113760   0.275547
   17        8.305126  -0.035446
   18        8.305126  -0.035446
   19        8.333382  -0.032656
   20        8.837741  -0.000000
   21        9.561374  -0.000000
   22        9.561374  -0.000000
   23       16.282959   0.000000
   24       16.282959   0.000000
   25       20.847531   0.000000
   26       20.847531   0.000000
   27       20.893226   0.000000
   28       20.893226   0.000000
   29       23.560536   0.000000
   30       23.560536   0.000000
   31       27.342961   0.000000
   32       28.675505   0.000000
   33       28.675505   0.000000
   34       31.526810   0.000000
   35       31.830064   0.000000
   36       32.836428   0.000000
   37       33.481472   0.000000
   38       33.481472   0.000000
   39       37.795245   0.000000
   40       37.795245   0.000000
 
  0.4545455E+00  0.0000000E+00  0.0000000E+00  0.4507889E-02
    1        1.351560   1.000000
    2        2.086387   1.000000
    3        3.628636   1.000000
    4        3.628636   1.000000
    5        4.346935   1.000000
    6        4.755584   1.000000
    7        4.755584   1.000000
    8        4.768028   1.000000
    9        5.434636   1.000000
   10        5.434636   1.000000
   11        6.939007   1.000000
   12        7.019076   1.000000
   13        7.352230   1.000004
   14        7.352230   1.000004
   15        7.816285   1.035427
   16        7.816285   1.035427
   17        7.843634   1.031201
   18        7.843634   1.031201
   19        8.496929  -0.004089
   20        8.670293  -0.000067
   21        9.561691  -0.000000
   22        9.561691  -0.000000
   23       17.775796   0.000000
   24       17.775796   0.000000
   25       19.304023   0.000000
   26       19.304023   0.000000
   27       20.850006   0.000000
   28       20.850006   0.000000
   29       23.301094   0.000000
   30       23.301094   0.000000
   31       29.349249   0.000000
   32       30.165382   0.000000
   33       30.165382   0.000000
   34       31.168969   0.000000
   35       31.620373   0.000000
   36       31.707908   0.000000
   37       31.783482   0.000000
   38       31.783482   0.000000
   39       39.761801   0.000000
   40       40.304868   0.000000
 
  0.9090909E-01  0.9090909E-01  0.0000000E+00  0.9015778E-02
    1       -1.125867   1.000000
    2        2.469294   1.000000
    3        2.469294   1.000000
    4        2.507090   1.000000
    5        3.292760   1.000000
    6        3.292760   1.000000
    7        3.304106   1.000000
    8        6.052765   1.000000
    9        6.238190   1.000000
   10        6.259444   1.000000
   11        7.904930   0.981271
   12        7.997421   0.745342
   13        8.683036  -0.000046
   14        8.845613  -0.000000
   15        8.845613  -0.000000
   16        9.037732  -0.000000
   17        9.133659  -0.000000
   18        9.133659  -0.000000
   19        9.460610  -0.000000
   20        9.460610  -0.000000
   21        9.498124  -0.000000
   22       11.812048  -0.000000
   23       11.812048  -0.000000
   24       12.766828  -0.000000
   25       21.022279   0.000000
   26       21.695025   0.000000
   27       21.695025   0.000000
   28       23.907552   0.000000
   29       25.233098   0.000000
   30       25.233098   0.000000
   31       25.515207   0.000000
   32       25.515207   0.000000
   33       25.987505   0.000000
   34       32.080689   0.000000
   35       32.080689   0.000000
   36       32.143801   0.000000
   37       32.285713   0.000000
   38       36.291492   0.000000
   39       37.750010   0.000000
   40       37.824331   0.000000
 
  0.1818182E+00  0.9090909E-01  0.0000000E+00  0.1803156E-01
    1       -0.751424   1.000000
    2        2.575097   1.000000
    3        2.708217   1.000000
    4        2.736013   1.000000
    5        3.443003   1.000000
    6        3.480238   1.000000
    7        3.489714   1.000000
    8        5.870223   1.000000
    9        6.373228   1.000000
   10        6.388661   1.000000
   11        7.742573   1.024023
   12        7.903483   0.983309
   13        7.905986   0.979752
   14        8.061369   0.487597
   15        8.441211  -0.010454
   16        8.803570  -0.000001
   17        8.879009  -0.000000
   18        9.066523  -0.000000
   19        9.183276  -0.000000
   20        9.460228  -0.000000
   21        9.464356  -0.000000
   22       10.753216  -0.000000
   23       12.964292  -0.000000
   24       13.823890   0.000000
   25       20.861143   0.000000
   26       21.686706   0.000000
   27       22.660323   0.000000
   28       23.258110   0.000000
   29       24.010749   0.000000
   30       24.909457   0.000000
   31       25.816040   0.000000
   32       25.985492   0.000000
   33       26.143723   0.000000
   34       31.867534   0.000000
   35       32.155722   0.000000
   36       33.242158   0.000000
   37       33.614362   0.000000
   38       34.635107   0.000000
   39       36.923545   0.000000
   40       38.011148   0.000000
 
  0.2727273E+00  0.9090909E-01  0.0000000E+00  0.1803156E-01
    1       -0.154780   1.000000
    2        2.667867   1.000000
    3        3.059161   1.000000
    4        3.074211   1.000000
    5        3.684453   1.000000
    6        3.791260   1.000000
    7        3.793289   1.000000
    8        5.571577   1.000000
    9        6.585261   1.000000
   10        6.614362   1.000000
   11        6.968638   1.000000
   12        7.028817   1.000000
   13        7.496237   1.000258
   14        7.826198   1.034780
   15        8.187463   0.060762
   16        8.456112  -0.008299
   17        8.518161  -0.002715
   18        8.777816  -0.000002
   19        8.887802  -0.000000
   20        9.455993  -0.000000
   21        9.459648  -0.000000
   22        9.709460  -0.000000
   23       14.227373   0.000000
   24       15.110400   0.000000
   25       20.308425   0.000000
   26       21.669838   0.000000
   27       21.838110   0.000000
   28       22.551144   0.000000
   29       24.279925   0.000000
   30       25.186023   0.000000
   31       25.388828   0.000000
   32       26.708055   0.000000
   33       27.183477   0.000000
   34       31.447972   0.000000
   35       32.287128   0.000000
   36       33.042407   0.000000
   37       34.934706   0.000000
   38       35.591766   0.000000
   39       35.763473   0.000000
   40       36.611059   0.000000
 
  0.3636364E+00  0.9090909E-01  0.0000000E+00  0.1803156E-01
    1        0.612816   1.000000
    2        2.595271   1.000000
    3        3.436988   1.000000
    4        3.443738   1.000000
    5        4.003469   1.000000
    6        4.204394   1.000000
    7        4.223246   1.000000
    8        5.198377   1.000000
    9        6.109958   1.000000
   10        6.190036   1.000000
   11        6.752200   1.000000
   12        6.945345   1.000000
   13        7.148925   1.000000
   14        7.331649   1.000002
   15        8.083376   0.395379
   16        8.127536   0.226067
   17        8.304106  -0.035456
   18        8.354626  -0.028492
   19        8.502391  -0.003690
   20        9.077424  -0.000000
   21        9.454717  -0.000000
   22        9.458604  -0.000000
   23       15.521767   0.000000
   24       16.510685   0.000000
   25       19.269027   0.000000
   26       21.025347   0.000000
   27       21.582716   0.000000
   28       21.639324   0.000000
   29       23.864623   0.000000
   30       24.656777   0.000000
   31       27.036519   0.000000
   32       27.806630   0.000000
   33       28.693213   0.000000
   34       30.860811   0.000000
   35       31.535479   0.000000
   36       32.524600   0.000000
   37       34.559685   0.000000
   38       34.687612   0.000000
   39       37.103515   0.000000
   40       37.865614   0.000000
 
  0.4545455E+00  0.9090909E-01  0.0000000E+00  0.1803156E-01
    1        1.452091   1.000000
    2        2.183191   1.000000
    3        3.701546   1.000000
    4        3.704514   1.000000
    5        4.380328   1.000000
    6        4.720463   1.000000
    7        4.772061   1.000000
    8        4.789201   1.000000
    9        5.355481   1.000000
   10        5.431199   1.000000
   11        6.703558   1.000000
   12        6.741341   1.000000
   13        7.352463   1.000004
   14        7.538968   1.000741
   15        7.815316   1.035445
   16        7.832258   1.033921
   17        7.849285   1.029248
   18        7.981309   0.801007
   19        8.552268  -0.001328
   20        8.777429  -0.000002
   21        9.455701  -0.000000
   22        9.457188  -0.000000
   23       16.810587   0.000000
   24       17.977947   0.000000
   25       18.066389   0.000000
   26       19.490247   0.000000
   27       21.551884   0.000000
   28       21.590280   0.000000
   29       23.788020   0.000000
   30       24.074647   0.000000
   31       28.619137   0.000000
   32       28.975826   0.000000
   33       30.041001   0.000000
   34       30.082583   0.000000
   35       30.618479   0.000000
   36       32.678111   0.000000
   37       32.917579   0.000000
   38       33.573439   0.000000
   39       39.566923   0.000000
   40       40.266507   0.000000
 
  0.1818182E+00  0.1818182E+00  0.0000000E+00  0.9015778E-02
    1       -0.389418   1.000000
    2        2.824129   1.000000
    3        2.824129   1.000000
    4        2.947117   1.000000
    5        3.618963   1.000000
    6        3.618963   1.000000
    7        3.656534   1.000000
    8        5.762735   1.000000
    9        6.451638   1.000000
   10        6.455267   1.000000
   11        7.438217   1.000052
   12        7.501597   1.000297
   13        7.501597   1.000297
   14        7.683227   1.011684
   15        8.088368   0.374913
   16        8.606052  -0.000375
   17        8.839906  -0.000000
   18        8.839906  -0.000000
   19        9.181360  -0.000000
   20        9.181360  -0.000000
   21        9.316661  -0.000000
   22       11.839568  -0.000000
   23       11.839568  -0.000000
   24       14.684317   0.000000
   25       20.069344   0.000000
   26       21.864800   0.000000
   27       23.233885   0.000000
   28       23.233885   0.000000
   29       24.538839   0.000000
   30       24.538839   0.000000
   31       25.565627   0.000000
   32       25.565627   0.000000
   33       27.200636   0.000000
   34       31.226048   0.000000
   35       32.955558   0.000000
   36       32.960155   0.000000
   37       33.761936   0.000000
   38       33.761936   0.000000
   39       37.122796   0.000000
   40       39.504012   0.000000
 
  0.2727273E+00  0.1818182E+00  0.0000000E+00  0.1803156E-01
    1        0.187121   1.000000
    2        2.931875   1.000000
    3        3.193939   1.000000
    4        3.265681   1.000000
    5        3.841394   1.000000
    6        3.909985   1.000000
    7        3.919599   1.000000
    8        5.530914   1.000000
    9        6.538381   1.000000
   10        6.618941   1.000000
   11        6.653527   1.000000
   12        6.786866   1.000000
   13        6.973701   1.000000
   14        7.517164   1.000439
   15        8.250988  -0.020818
   16        8.307903  -0.035382
   17        8.500174  -0.003848
   18        8.683273  -0.000046
   19        8.775167  -0.000002
   20        9.178503  -0.000000
   21        9.230719  -0.000000
   22       10.686786  -0.000000
   23       12.958860  -0.000000
   24       15.832295   0.000000
   25       18.785697   0.000000
   26       21.741837   0.000000
   27       23.054747   0.000000
   28       23.090717   0.000000
   29       24.893092   0.000000
   30       25.102316   0.000000
   31       25.337905   0.000000
   32       26.842480   0.000000
   33       27.397265   0.000000
   34       30.399203   0.000000
   35       31.411320   0.000000
   36       33.810295   0.000000
   37       34.009121   0.000000
   38       35.774660   0.000000
   39       36.896419   0.000000
   40       38.228191   0.000000
 
  0.3636364E+00  0.1818182E+00  0.0000000E+00  0.1803156E-01
    1        0.929026   1.000000
    2        2.870677   1.000000
    3        3.602244   1.000000
    4        3.636524   1.000000
    5        4.133991   1.000000
    6        4.245407   1.000000
    7        4.312091   1.000000
    8        5.210611   1.000000
    9        5.827516   1.000000
   10        6.086334   1.000000
   11        6.497189   1.000000
   12        6.536078   1.000000
   13        6.964398   1.000000
   14        7.439218   1.000054
   15        7.985029   0.788638
   16        8.121637   0.246807
   17        8.302181  -0.035452
   18        8.382720  -0.022079
   19        8.500571  -0.003819
   20        9.175613  -0.000000
   21        9.192346  -0.000000
   22        9.798065  -0.000000
   23       14.077139   0.000000
   24       17.140846   0.000000
   25       17.507638   0.000000
   26       21.532166   0.000000
   27       21.831864   0.000000
   28       22.764317   0.000000
   29       25.060055   0.000000
   30       26.241686   0.000000
   31       26.311633   0.000000
   32       26.806814   0.000000
   33       28.824483   0.000000
   34       29.459475   0.000000
   35       29.998160   0.000000
   36       34.372477   0.000000
   37       35.705805   0.000000
   38       35.930489   0.000000
   39       36.269429   0.000000
   40       38.076357   0.000000
 
  0.4545455E+00  0.1818182E+00  0.0000000E+00  0.1803156E-01
    1        1.743402   1.000000
    2        2.461782   1.000000
    3        3.905927   1.000000
    4        3.923041   1.000000
    5        4.477586   1.000000
    6        4.626649   1.000000
    7        4.818292   1.000000
    8        4.846927   1.000000
    9        5.150935   1.000000
   10        5.416719   1.000000
   11        6.295867   1.000000
   12        6.385065   1.000000
   13        7.360299   1.000005
   14        7.621650   1.004221
   15        7.779993   1.032053
   16        7.816791   1.035415
   17        7.832554   1.033869
   18        7.983894   0.792444
   19        8.813986  -0.000001
   20        9.174230  -0.000000
   21        9.177692  -0.000000
   22        9.214616  -0.000000
   23       15.190092   0.000000
   24       16.318902   0.000000
   25       18.546700   0.000000
   26       20.018879   0.000000
   27       22.044178   0.000000
   28       22.367993   0.000000
   29       25.416504   0.000000
   30       26.046780   0.000000
   31       27.378054   0.000000
   32       27.459020   0.000000
   33       28.446932   0.000000
   34       28.692246   0.000000
   35       31.149386   0.000000
   36       33.554426   0.000000
   37       34.887053   0.000000
   38       35.537813   0.000000
   39       38.089924   0.000000
   40       40.616625   0.000000
 
  0.2727273E+00  0.2727273E+00  0.0000000E+00  0.9015778E-02
    1        0.730036   1.000000
    2        3.329698   1.000000
    3        3.329698   1.000000
    4        3.554688   1.000000
    5        4.099062   1.000000
    6        4.099062   1.000000
    7        4.116594   1.000000
    8        5.409394   1.000000
    9        6.197258   1.000000
   10        6.197258   1.000000
   11        6.393187   1.000000
   12        6.489884   1.000000
   13        6.786378   1.000000
   14        7.415108   1.000026
   15        8.073671   0.435749
   16        8.371635  -0.024640
   17        8.371635  -0.024640
   18        8.484794  -0.005104
   19        8.772283  -0.000003
   20        8.772283  -0.000003
   21        9.024305  -0.000000
   22       11.670845  -0.000000
   23       11.670845  -0.000000
   24       16.854456   0.000000
   25       17.257418   0.000000
   26       21.858087   0.000000
   27       23.820864   0.000000
   28       23.820864   0.000000
   29       24.282973   0.000000
   30       24.282973   0.000000
   31       26.822343   0.000000
   32       26.822343   0.000000
   33       29.026545   0.000000
   34       29.252119   0.000000
   35       29.914238   0.000000
   36       33.197939   0.000000
   37       36.084279   0.000000
   38       36.084279   0.000000
   39       37.829843   0.000000
   40       39.060621   0.000000
 
  0.3636364E+00  0.2727273E+00  0.0000000E+00  0.1803156E-01
    1        1.426657   1.000000
    2        3.287219   1.000000
    3        3.785782   1.000000
    4        3.911045   1.000000
    5        4.329717   1.000000
    6        4.345014   1.000000
    7        4.450837   1.000000
    8        5.196612   1.000000
    9        5.508925   1.000000
   10        5.895358   1.000000
   11        5.900783   1.000000
   12        6.373103   1.000000
   13        7.039624   1.000000
   14        7.340807   1.000002
   15        7.810637   1.035427
   16        8.016243   0.674209
   17        8.107124   0.300603
   18        8.304551  -0.035453
   19        8.773306  -0.000003
   20        8.844412  -0.000000
   21        8.889637  -0.000000
   22       10.620827  -0.000000
   23       12.655522  -0.000000
   24       15.901231   0.000000
   25       18.065607   0.000000
   26       22.084068   0.000000
   27       22.303663   0.000000
   28       23.564534   0.000000
   29       24.771566   0.000000
   30       25.262706   0.000000
   31       27.148184   0.000000
   32       28.094570   0.000000
   33       28.568704   0.000000
   34       29.128129   0.000000
   35       29.204123   0.000000
   36       34.273137   0.000000
   37       36.518521   0.000000
   38       36.831269   0.000000
   39       38.033955   0.000000
   40       38.422248   0.000000
 
  0.4545455E+00  0.2727273E+00  0.0000000E+00  0.1803156E-01
    1        2.192980   1.000000
    2        2.882631   1.000000
    3        4.168980   1.000000
    4        4.255442   1.000000
    5        4.497572   1.000000
    6        4.628441   1.000000
    7        4.884562   1.000000
    8        4.919114   1.000000
    9        4.923305   1.000000
   10        5.379520   1.000000
   11        5.896737   1.000000
   12        6.129465   1.000000
   13        7.398062   1.000016
   14        7.467770   1.000121
   15        7.652102   1.007207
   16        7.730076   1.021145
   17        7.764272   1.028931
   18        7.831836   1.033993
   19        8.784729  -0.000002
   20        8.817554  -0.000001
   21        9.292052  -0.000000
   22        9.855016  -0.000000
   23       13.657163   0.000000
   24       14.719136   0.000000
   25       19.399229   0.000000
   26       20.820396   0.000000
   27       22.436261   0.000000
   28       22.929078   0.000000
   29       25.840205   0.000000
   30       26.273020   0.000000
   31       26.955752   0.000000
   32       27.363870   0.000000
   33       27.728595   0.000000
   34       28.488797   0.000000
   35       31.655854   0.000000
   36       34.253692   0.000000
   37       36.554789   0.000000
   38       37.064671   0.000000
   39       37.634533   0.000000
   40       39.132391   0.000000
 
  0.3636364E+00  0.3636364E+00  0.0000000E+00  0.9015778E-02
    1        2.056863   1.000000
    2        3.767796   1.000000
    3        3.767796   1.000000
    4        4.191674   1.000000
    5        4.462801   1.000000
    6        4.625105   1.000000
    7        4.625105   1.000000
    8        5.125436   1.000000
    9        5.378660   1.000000
   10        5.378660   1.000000
   11        5.632513   1.000000
   12        6.204716   1.000000
   13        7.204706   1.000000
   14        7.212295   1.000000
   15        7.592920   1.002416
   16        7.781225   1.032270
   17        7.781225   1.032270
   18        8.321151  -0.034383
   19        8.321151  -0.034383
   20        8.636306  -0.000171
   21        9.316323  -0.000000
   22       11.474270  -0.000000
   23       11.474270  -0.000000
   24       14.523154   0.000000
   25       19.191574   0.000000
   26       22.433436   0.000000
   27       23.263971   0.000000
   28       23.263971   0.000000
   29       24.329100   0.000000
   30       24.329100   0.000000
   31       26.798052   0.000000
   32       27.293797   0.000000
   33       29.617932   0.000000
   34       29.617932   0.000000
   35       31.284211   0.000000
   36       33.447403   0.000000
   37       36.921691   0.000000
   38       38.883622   0.000000
   39       38.883622   0.000000
   40       38.965165   0.000000
 
  0.4545455E+00  0.3636364E+00  0.0000000E+00  0.1803156E-01
    1        2.742580   1.000000
    2        3.370655   1.000000
    3        4.178832   1.000000
    4        4.343370   1.000000
    5        4.649150   1.000000
    6        4.814170   1.000000
    7        4.954768   1.000000
    8        4.959101   1.000000
    9        4.990994   1.000000
   10        5.303879   1.000000
   11        5.581559   1.000000
   12        5.925918   1.000000
   13        7.241807   1.000000
   14        7.448798   1.000071
   15        7.477260   1.000157
   16        7.498087   1.000271
   17        7.517397   1.000441
   18        7.879632   1.010349
   19        8.367316  -0.025636
   20        8.464464  -0.007244
   21        9.880035  -0.000000
   22       10.571193  -0.000000
   23       12.371728  -0.000000
   24       13.364462  -0.000000
   25       20.455129   0.000000
   26       21.821534   0.000000
   27       22.909209   0.000000
   28       23.539340   0.000000
   29       24.358386   0.000000
   30       25.190575   0.000000
   31       25.548168   0.000000
   32       26.175046   0.000000
   33       30.305415   0.000000
   34       31.133879   0.000000
   35       32.241678   0.000000
   36       34.876188   0.000000
   37       35.153779   0.000000
   38       37.822372   0.000000
   39       38.945703   0.000000
   40       39.411673   0.000000
 
  0.4545455E+00  0.4545455E+00  0.0000000E+00  0.9015778E-02
    1        3.311374   1.000000
    2        3.817368   1.000000
    3        3.817368   1.000000
    4        4.137066   1.000000
    5        5.007805   1.000000
    6        5.007805   1.000000
    7        5.022957   1.000000
    8        5.025428   1.000000
    9        5.178545   1.000000
   10        5.321644   1.000000
   11        5.321644   1.000000
   12        5.680380   1.000000
   13        7.138380   1.000000
   14        7.265751   1.000000
   15        7.265751   1.000000
   16        7.265932   1.000000
   17        7.691027   1.013048
   18        7.987190   0.781312
   19        7.987190   0.781312
   20        8.179468   0.077686
   21       10.553297  -0.000000
   22       11.356796  -0.000000
   23       11.356796  -0.000000
   24       12.262541  -0.000000
   25       21.654680   0.000000
   26       22.963752   0.000000
   27       22.963752   0.000000
   28       23.513422   0.000000
   29       24.212415   0.000000
   30       24.268739   0.000000
   31       24.268739   0.000000
   32       25.145938   0.000000
   33       32.990542   0.000000
   34       32.990542   0.000000
   35       33.824067   0.000000
   36       34.043665   0.000000
   37       35.188776   0.000000
   38       36.493583   0.000000
   39       36.759408   0.000000
   40       36.759408   0.000000
 
  0.9090909E-01  0.9090909E-01  0.9090909E-01  0.6010518E-02
    1       -1.000115   1.000000
    2        2.550377   1.000000
    3        2.550377   1.000000
    4        2.550377   1.000000
    5        3.353898   1.000000
    6        3.353898   1.000000
    7        3.353898   1.000000
    8        6.015036   1.000000
    9        6.278696   1.000000
   10        6.278696   1.000000
   11        7.936567   0.924166
   12        7.936567   0.924166
   13        8.542813  -0.001630
   14        8.542813  -0.001630
   15        8.542813  -0.001630
   16        8.960155  -0.000000
   17        8.960155  -0.000000
   18        8.960155  -0.000000
   19        9.460967  -0.000000
   20        9.460967  -0.000000
   21        9.460967  -0.000000