 vasp.6.2.0 18Jan21 (build Mar 17 2021 09:06:54) complex                        
  
 executed on             LinuxIFC date 2021.09.09  09:05:19
 serial version


--------------------------------------------------------------------------------------------------------


 INCAR:
   ENCUT = 300.000000
   SIGMA = 0.200000
   EDIFF = 1.00e-06
   GGA = PE
   PREC = normal
   IBRION = 1
   ICHARG = 1
   ISIF = 4
   ISMEAR = 1
   KPAR = 1
   NBANDS = 40
   NSW = 0
   NCORE = 1
   LCHARG = .TRUE.

 POTCAR:    PAW_PBE Fe 06Sep2000                  
 POTCAR:    PAW_PBE Fe 06Sep2000                  
   SHA256 =  cd5a22d9368cc8b5cc476bea79732366149640da08ac9009b0e1b7fc627eea28 Fe/POTCAR             
   COPYR  = (c) Copyright 06Sep2000 Georg Kresse                                                    
   COPYR  = This file is part of the software VASP. Any use, copying, and all other rights are regul
   COPYR  = If you do not have a valid VASP license, you may not use, copy or distribute this file. 
   VRHFIN =Fe:  d7 s1                                                                               
   LEXCH  = PE                                                                                      
   EATOM  =   594.3153 eV,   43.6809 Ry                                                             
                                                                                                    
   TITEL  = PAW_PBE Fe 06Sep2000                                                                    
   LULTRA =        F    use ultrasoft PP ?                                                          
   IUNSCR =        1    unscreen: 0-lin 1-nonlin 2-no                                               
   RPACOR =    2.000    partial core radius                                                         
   POMASS =   55.847; ZVAL   =    8.000    mass and valenz                                          
   RCORE  =    2.300    outmost cutoff radius                                                       
   RWIGS  =    2.460; RWIGS  =    1.302    wigner-seitz radius (au A)                               
   ENMAX  =  267.882; ENMIN  =  200.911 eV                                                          
   RCLOC  =    1.701    cutoff for local pot                                                        
   LCOR   =        T    correct aug charges                                                         
   LPAW   =        T    paw PP                                                                      
   EAUG   =  511.368                                                                                
   DEXC   =    0.000                                                                                
   RMAX   =    2.356    core radius for proj-oper                                                   
   RAUG   =    1.300    factor for augmentation sphere                                              
   RDEP   =    2.442    radius for radial grids                                                     
   RDEPT  =    1.890    core radius for aug-charge                                                  
                                                                                                    
   Atomic configuration                                                                             
    9 entries                                                                                       
     n  l   j            E        occ.                                                              
     1  0  0.50     -6993.8440   2.0000                                                             
     2  0  0.50      -814.6047   2.0000                                                             
     2  1  1.50      -693.3689   6.0000                                                             
     3  0  0.50       -89.4732   2.0000                                                             
     3  1  1.50       -55.6373   6.0000                                                             
     3  2  2.50        -3.8151   7.0000                                                             
     4  0  0.50        -4.2551   1.0000                                                             
     4  1  1.50        -3.4015   0.0000                                                             
     4  3  2.50        -1.3606   0.0000                                                             
   Description                                                                                      
     l       E           TYP  RCUT    TYP  RCUT                                                     
     2     -3.8151135     23  2.300                                                                 
     2     -5.1756961     23  2.300                                                                 
     0     -4.2550963     23  2.300                                                                 
     0      7.2035603     23  2.300                                                                 
     1     -2.7211652     23  2.300                                                                 
     1     18.4316424     23  2.300                                                                 
  local pseudopotential read in
  partial core-charges read in
  partial kinetic energy density read in
  atomic valenz-charges read in
  non local Contribution for L=           2  read in
    real space projection operators read in
  non local Contribution for L=           2  read in
    real space projection operators read in
  non local Contribution for L=           0  read in
    real space projection operators read in
  non local Contribution for L=           0  read in
    real space projection operators read in
  non local Contribution for L=           1  read in
    real space projection operators read in
  non local Contribution for L=           1  read in
    real space projection operators read in
    PAW grid and wavefunctions read in
 
   number of l-projection  operators is LMAX  =           6
   number of lm-projection operators is LMMAX =          18
 
  PAW_PBE Fe 06Sep2000                  :
 energy of atom  1       EATOM= -594.3153
 kinetic energy error for atom=    0.0269 (will be added to EATOM!!)
 
 
 POSCAR: Fe
  positions in cartesian coordinates
  No initial velocities read in
 exchange correlation table for  LEXCH =        8
   RHO(1)=    0.500       N(1)  =     2000
   RHO(2)=  100.500       N(2)  =     4000
 


--------------------------------------------------------------------------------------------------------


 ion  position               nearest neighbor table
   1  0.000  0.000  0.000-   2 2.35   3 2.35   4 2.35   3 2.35   4 2.35   2 2.35   4 2.35   4 2.35
                             2 2.35   3 2.35   3 2.35   2 2.35
   2  0.500  0.500  0.000-   1 2.35   3 2.35   4 2.35   3 2.35   4 2.35   1 2.35   3 2.35   3 2.35
                             1 2.35   4 2.35   4 2.35   1 2.35
   3  0.500  0.000  0.500-   1 2.35   2 2.35   4 2.35   1 2.35   2 2.35   2 2.35   4 2.35   2 2.35
                             1 2.35   4 2.35   1 2.35   4 2.35
   4  0.000  0.500  0.500-   1 2.35   2 2.35   3 2.35   1 2.35   2 2.35   1 2.35   3 2.35   1 2.35
                             2 2.35   3 2.35   2 2.35   3 2.35
 
  LATTYP: Found a simple cubic cell.
 ALAT       =     3.3261910656
  
  Lattice vectors:
  
 A1 = (   3.3261910656,   0.0000000000,   0.0000000000)
 A2 = (   0.0000000000,   3.3261910656,   0.0000000000)
 A3 = (   0.0000000000,   0.0000000000,   3.3261910656)


Analysis of symmetry for initial positions (statically):
=====================================================================
 Subroutine PRICEL returns following result:
 
  LATTYP: Found a face centered cubic cell.
 ALAT       =     3.3261910656
  
  Lattice vectors:
  
 A1 = (   1.6630955328,  -1.6630955328,   0.0000000000)
 A2 = (   1.6630955328,   0.0000000000,   1.6630955328)
 A3 = (   0.0000000000,  -1.6630955328,   1.6630955328)
 
   4 primitive cells build up your supercell.
 

 Routine SETGRP: Setting up the symmetry group for a 
 simple cubic supercell.


 Subroutine GETGRP returns: Found 48 space group operations
 (whereof 48 operations were pure point group operations)
 out of a pool of 48 trial point group operations.


The static configuration has the point symmetry O_h .


Analysis of symmetry for dynamics (positions and initial velocities):
=====================================================================
 Subroutine PRICEL returns following result:
 
  LATTYP: Found a face centered cubic cell.
 ALAT       =     3.3261910656
  
  Lattice vectors:
  
 A1 = (   1.6630955328,  -1.6630955328,   0.0000000000)
 A2 = (   1.6630955328,   0.0000000000,   1.6630955328)
 A3 = (   0.0000000000,  -1.6630955328,   1.6630955328)
 
   4 primitive cells build up your supercell.
 

 Routine SETGRP: Setting up the symmetry group for a 
 simple cubic supercell.


 Subroutine GETGRP returns: Found 48 space group operations
 (whereof 48 operations were pure point group operations)
 out of a pool of 48 trial point group operations.


The dynamic configuration has the point symmetry O_h .


 Subroutine INISYM returns: Found 48 space group operations
 (whereof 48 operations are pure point group operations),
 and found     4 'primitive' translations


----------------------------------------------------------------------------------------

                                     Primitive cell                                     

  volume of cell :       9.1999

  direct lattice vectors                    reciprocal lattice vectors
     1.663095533 -1.663095533  0.000000000     0.300644184 -0.300644184 -0.300644184
     1.663095533  0.000000000  1.663095533     0.300644184  0.300644184  0.300644184
     0.000000000 -1.663095533  1.663095533    -0.300644184 -0.300644184  0.300644184

  length of vectors
     2.351972258  2.351972258  2.351972258     0.520731002  0.520731002  0.520731002

  position of ions in fractional coordinates (direct lattice)
     0.000000000  0.000000000  0.000000000

  ion indices of the primitive-cell ions
   primitive index   ion index
                 1           1

----------------------------------------------------------------------------------------

 
 
 KPOINTS: KPOINTS created by Atomic Simulation Env

Automatic generation of k-mesh.
 Grid dimensions read from file:
 generate k-points for:   11   11   11

 Generating k-lattice:

  Cartesian coordinates                     Fractional coordinates (reciprocal lattice)
     0.027331289  0.000000000  0.000000000     0.090909091  0.000000000  0.000000000
     0.000000000  0.027331289  0.000000000     0.000000000  0.090909091  0.000000000
     0.000000000  0.000000000  0.027331289     0.000000000  0.000000000  0.090909091

  Length of vectors
     0.027331289  0.027331289  0.027331289

  Shift w.r.t. Gamma in fractional coordinates (k-lattice)
     0.000000000  0.000000000  0.000000000

 
 Subroutine IBZKPT returns following result:
 ===========================================
 
 Found     56 irreducible k-points:
 
 Following reciprocal coordinates:
            Coordinates               Weight
  0.000000  0.000000  0.000000      1.000000
  0.090909  0.000000  0.000000      6.000000
  0.181818  0.000000  0.000000      6.000000
  0.272727  0.000000  0.000000      6.000000
  0.363636  0.000000  0.000000      6.000000
  0.454545  0.000000  0.000000      6.000000
  0.090909  0.090909  0.000000     12.000000
  0.181818  0.090909  0.000000     24.000000
  0.272727  0.090909  0.000000     24.000000
  0.363636  0.090909  0.000000     24.000000
  0.454545  0.090909  0.000000     24.000000
  0.181818  0.181818  0.000000     12.000000
  0.272727  0.181818  0.000000     24.000000
  0.363636  0.181818  0.000000     24.000000
  0.454545  0.181818  0.000000     24.000000
  0.272727  0.272727  0.000000     12.000000
  0.363636  0.272727  0.000000     24.000000
  0.454545  0.272727  0.000000     24.000000
  0.363636  0.363636  0.000000     12.000000
  0.454545  0.363636  0.000000     24.000000
  0.454545  0.454545  0.000000     12.000000
  0.090909  0.090909  0.090909      8.000000
  0.181818  0.090909  0.090909     24.000000
  0.272727  0.090909  0.090909     24.000000
  0.363636  0.090909  0.090909     24.000000
  0.454545  0.090909  0.090909     24.000000
  0.181818  0.181818  0.090909     24.000000
  0.272727  0.181818  0.090909     48.000000
  0.363636  0.181818  0.090909     48.000000
  0.454545  0.181818  0.090909     48.000000
  0.272727  0.272727  0.090909     24.000000
  0.363636  0.272727  0.090909     48.000000
  0.454545  0.272727  0.090909     48.000000
  0.363636  0.363636  0.090909     24.000000
  0.454545  0.363636  0.090909     48.000000
  0.454545  0.454545  0.090909     24.000000
  0.181818  0.181818  0.181818      8.000000
  0.272727  0.181818  0.181818     24.000000
  0.363636  0.181818  0.181818     24.000000
  0.454545  0.181818  0.181818     24.000000
  0.272727  0.272727  0.181818     24.000000
  0.363636  0.272727  0.181818     48.000000
  0.454545  0.272727  0.181818     48.000000
  0.363636  0.363636  0.181818     24.000000
  0.454545  0.363636  0.181818     48.000000
  0.454545  0.454545  0.181818     24.000000
  0.272727  0.272727  0.272727      8.000000
  0.363636  0.272727  0.272727     24.000000
  0.454545  0.272727  0.272727     24.000000
  0.363636  0.363636  0.272727     24.000000
  0.454545  0.363636  0.272727     48.000000
  0.454545  0.454545  0.272727     24.000000
  0.363636  0.363636  0.363636      8.000000
  0.454545  0.363636  0.363636     24.000000
  0.454545  0.454545  0.363636     24.000000
  0.454545  0.454545  0.454545      8.000000
 
 Following cartesian coordinates:
            Coordinates               Weight
  0.000000  0.000000  0.000000      1.000000
  0.027331  0.000000  0.000000      6.000000
  0.054663  0.000000  0.000000      6.000000
  0.081994  0.000000  0.000000      6.000000
  0.109325  0.000000  0.000000      6.000000
  0.136656  0.000000  0.000000      6.000000
  0.027331  0.027331  0.000000     12.000000
  0.054663  0.027331  0.000000     24.000000
  0.081994  0.027331  0.000000     24.000000
  0.109325  0.027331  0.000000     24.000000
  0.136656  0.027331  0.000000     24.000000
  0.054663  0.054663  0.000000     12.000000
  0.081994  0.054663  0.000000     24.000000
  0.109325  0.054663  0.000000     24.000000
  0.136656  0.054663  0.000000     24.000000
  0.081994  0.081994  0.000000     12.000000
  0.109325  0.081994  0.000000     24.000000
  0.136656  0.081994  0.000000     24.000000
  0.109325  0.109325  0.000000     12.000000
  0.136656  0.109325  0.000000     24.000000
  0.136656  0.136656  0.000000     12.000000
  0.027331  0.027331  0.027331      8.000000
  0.054663  0.027331  0.027331     24.000000
  0.081994  0.027331  0.027331     24.000000
  0.109325  0.027331  0.027331     24.000000
  0.136656  0.027331  0.027331     24.000000
  0.054663  0.054663  0.027331     24.000000
  0.081994  0.054663  0.027331     48.000000
  0.109325  0.054663  0.027331     48.000000
  0.136656  0.054663  0.027331     48.000000
  0.081994  0.081994  0.027331     24.000000
  0.109325  0.081994  0.027331     48.000000
  0.136656  0.081994  0.027331     48.000000
  0.109325  0.109325  0.027331     24.000000
  0.136656  0.109325  0.027331     48.000000
  0.136656  0.136656  0.027331     24.000000
  0.054663  0.054663  0.054663      8.000000
  0.081994  0.054663  0.054663     24.000000
  0.109325  0.054663  0.054663     24.000000
  0.136656  0.054663  0.054663     24.000000
  0.081994  0.081994  0.054663     24.000000
  0.109325  0.081994  0.054663     48.000000
  0.136656  0.081994  0.054663     48.000000
  0.109325  0.109325  0.054663     24.000000
  0.136656  0.109325  0.054663     48.000000
  0.136656  0.136656  0.054663     24.000000
  0.081994  0.081994  0.081994      8.000000
  0.109325  0.081994  0.081994     24.000000
  0.136656  0.081994  0.081994     24.000000
  0.109325  0.109325  0.081994     24.000000
  0.136656  0.109325  0.081994     48.000000
  0.136656  0.136656  0.081994     24.000000
  0.109325  0.109325  0.109325      8.000000
  0.136656  0.109325  0.109325     24.000000
  0.136656  0.136656  0.109325     24.000000
  0.136656  0.136656  0.136656      8.000000
 


--------------------------------------------------------------------------------------------------------




 Dimension of arrays:
   k-points           NKPTS =     56   k-points in BZ     NKDIM =     56   number of bands    NBANDS=     40
   number of dos      NEDOS =    301   number of ions     NIONS =      4
   non local maximal  LDIM  =      6   non local SUM 2l+1 LMDIM =     18
   total plane-waves  NPLWV =   2744
   max r-space proj   IRMAX =      1   max aug-charges    IRDMAX=   2855
   dimension x,y,z NGX =    14 NGY =   14 NGZ =   14
   dimension x,y,z NGXF=    28 NGYF=   28 NGZF=   28
   support grid    NGXF=    28 NGYF=   28 NGZF=   28
   ions per type =               4
   NGX,Y,Z   is equivalent  to a cutoff of   7.00,  7.00,  7.00 a.u.
   NGXF,Y,Z  is equivalent  to a cutoff of  13.99, 13.99, 13.99 a.u.

 SYSTEM =  unknown system                          
 POSCAR =  Fe                                      

 Startparameter for this run:
   NWRITE =      2    write-flag & timer
   PREC   = normal    normal or accurate (medium, high low for compatibility)
   ISTART =      0    job   : 0-new  1-cont  2-samecut
   ICHARG =      1    charge: 1-file 2-atom 10-const
   ISPIN  =      1    spin polarized calculation?
   LNONCOLLINEAR =      F non collinear calculations
   LSORBIT =      F    spin-orbit coupling
   INIWAV =      1    electr: 0-lowe 1-rand  2-diag
   LASPH  =      F    aspherical Exc in radial PAW
   METAGGA=      F    non-selfconsistent MetaGGA calc.

 Electronic Relaxation 1
   ENCUT  =  300.0 eV  22.05 Ry    4.70 a.u.   4.70  4.70  4.70*2*pi/ulx,y,z
   ENINI  =  300.0     initial cutoff
   ENAUG  =  511.4 eV  augmentation charge cutoff
   NELM   =     60;   NELMIN=  2; NELMDL= -5     # of ELM steps 
   EDIFF  = 0.1E-05   stopping-criterion for ELM
   LREAL  =      F    real-space projection
   NLSPLINE    = F    spline interpolate recip. space projectors
   LCOMPAT=      F    compatible to vasp.4.4
   GGA_COMPAT  = T    GGA compatible to vasp.4.4-vasp.4.6
   LMAXPAW     = -100 max onsite density
   LMAXMIX     =    2 max onsite mixed and CHGCAR
   VOSKOWN=      0    Vosko Wilk Nusair interpolation
   ROPT   =    0.00000
 Ionic relaxation
   EDIFFG = 0.1E-04   stopping-criterion for IOM
   NSW    =      0    number of steps for IOM
   NBLOCK =      1;   KBLOCK =      1    inner block; outer block 
   IBRION =     -1    ionic relax: 0-MD 1-quasi-New 2-CG
   NFREE  =      0    steps in history (QN), initial steepest desc. (CG)
   ISIF   =      4    stress and relaxation
   IWAVPR =      0    prediction:  0-non 1-charg 2-wave 3-comb
   ISYM   =      2    0-nonsym 1-usesym 2-fastsym
   LCORR  =      T    Harris-Foulkes like correction to forces

   POTIM  = 0.5000    time-step for ionic-motion
   TEIN   =    0.0    initial temperature
   TEBEG  =    0.0;   TEEND  =   0.0 temperature during run
   SMASS  =  -3.00    Nose mass-parameter (am)
   estimated Nose-frequenzy (Omega)   =  0.10E-29 period in steps = 0.13E+47 mass=  -0.253E-27a.u.
   SCALEE = 1.0000    scale energy and forces
   NPACO  =    256;   APACO  = 16.0  distance and # of slots for P.C.
   PSTRESS=    0.0 pullay stress

  Mass of Ions in am
   POMASS =  55.85
  Ionic Valenz
   ZVAL   =   8.00
  Atomic Wigner-Seitz radii
   RWIGS  =  -1.00
  virtual crystal weights 
   VCA    =   1.00
   NELECT =      32.0000    total number of electrons
   NUPDOWN=      -1.0000    fix difference up-down

 DOS related values:
   EMIN   =  10.00;   EMAX   =-10.00  energy-range for DOS
   EFERMI =   0.00
   ISMEAR =     1;   SIGMA  =   0.20  broadening in eV -4-tet -1-fermi 0-gaus

 Electronic relaxation 2 (details)
   IALGO  =     38    algorithm
   LDIAG  =      T    sub-space diagonalisation (order eigenvalues)
   LSUBROT=      F    optimize rotation matrix (better conditioning)
   TURBO    =      0    0=normal 1=particle mesh
   IRESTART =      0    0=no restart 2=restart with 2 vectors
   NREBOOT  =      0    no. of reboots
   NMIN     =      0    reboot dimension
   EREF     =   0.00    reference energy to select bands
   IMIX   =      4    mixing-type and parameters
     AMIX     =   0.40;   BMIX     =  1.00
     AMIX_MAG =   1.60;   BMIX_MAG =  1.00
     AMIN     =   0.10
     WC   =   100.;   INIMIX=   1;  MIXPRE=   1;  MAXMIX= -45

 Intra band minimization:
   WEIMIN = 0.0000     energy-eigenvalue tresh-hold
   EBREAK =  0.62E-08  absolut break condition
   DEPER  =   0.30     relativ break condition  

   TIME   =   0.40     timestep for ELM

  volume/ion in A,a.u.               =       9.20        62.08
  Fermi-wavevector in a.u.,A,eV,Ry     =   1.562587  2.952862 33.221062  2.441679
  Thomas-Fermi vector in A             =   2.665484
 
 Write flags
   LWAVE        =      T    write WAVECAR
   LDOWNSAMPLE  =      F    k-point downsampling of WAVECAR
   LCHARG       =      T    write CHGCAR
   LVTOT        =      F    write LOCPOT, total local potential
   LVHAR        =      F    write LOCPOT, Hartree potential only
   LELF         =      F    write electronic localiz. function (ELF)
   LORBIT       =      0    0 simple, 1 ext, 2 COOP (PROOUT), +10 PAW based schemes


 Dipole corrections
   LMONO  =      F    monopole corrections only (constant potential shift)
   LDIPOL =      F    correct potential (dipole corrections)
   IDIPOL =      0    1-x, 2-y, 3-z, 4-all directions 
   EPSILON=  1.0000000 bulk dielectric constant

 Exchange correlation treatment:
   GGA     =    PE    GGA type
   LEXCH   =     8    internal setting for exchange type
   VOSKOWN=      0    Vosko Wilk Nusair interpolation
   LHFCALC =     F    Hartree Fock is set to
   LHFONE  =     F    Hartree Fock one center treatment
   AEXX    =    0.0000 exact exchange contribution

 Linear response parameters
   LEPSILON=     F    determine dielectric tensor
   LRPA    =     F    only Hartree local field effects (RPA)
   LNABLA  =     F    use nabla operator in PAW spheres
   LVEL    =     F    velocity operator in full k-point grid
   LINTERFAST=   F  fast interpolation
   KINTER  =     0    interpolate to denser k-point grid
   CSHIFT  =0.1000    complex shift for real part using Kramers Kronig
   OMEGAMAX=  -1.0    maximum frequency
   DEG_THRESHOLD= 0.2000000E-02 threshold for treating states as degnerate
   RTIME   =   -0.100 relaxation time in fs
  (WPLASMAI=    0.000 imaginary part of plasma frequency in eV, 0.658/RTIME)
   DFIELD  = 0.0000000 0.0000000 0.0000000 field for delta impulse in time
 
 Orbital magnetization related:
   ORBITALMAG=     F  switch on orbital magnetization
   LCHIMAG   =     F  perturbation theory with respect to B field
   DQ        =  0.001000  dq finite difference perturbation B field
   LLRAUG    =     F  two centre corrections for induced B field



--------------------------------------------------------------------------------------------------------


 Static calculation
 charge density and potential will be updated during run
 non-spin polarized calculation
 Variant of blocked Davidson
 Davidson routine will perform the subspace rotation
 perform sub-space diagonalisation
    after iterative eigenvector-optimisation
 modified Broyden-mixing scheme, WC =      100.0
 initial mixing is a Kerker type mixing with AMIX =  0.4000 and BMIX =      1.0000
 Hartree-type preconditioning will be used
 using additional bands           24
 reciprocal scheme for non local part
 use partial core corrections
 calculate Harris-corrections to forces 
   (improved forces if not selfconsistent)
 use gradient corrections 
 use of overlap-Matrix (Vanderbilt PP)
 Methfessel and Paxton  Order N= 1 SIGMA  =   0.20


--------------------------------------------------------------------------------------------------------


  energy-cutoff  :      300.00
  volume of cell :       36.80
      direct lattice vectors                 reciprocal lattice vectors
     3.326191066  0.000000000  0.000000000     0.300644184  0.000000000  0.000000000
     0.000000000  3.326191066  0.000000000     0.000000000  0.300644184  0.000000000
     0.000000000  0.000000000  3.326191066     0.000000000  0.000000000  0.300644184

  length of vectors
     3.326191066  3.326191066  3.326191066     0.300644184  0.300644184  0.300644184


 
 k-points in units of 2pi/SCALE and weight: KPOINTS created by Atomic Simulation Env
   0.00000000  0.00000000  0.00000000       0.001
   0.02733129  0.00000000  0.00000000       0.005
   0.05466258  0.00000000  0.00000000       0.005
   0.08199387  0.00000000  0.00000000       0.005
   0.10932516  0.00000000  0.00000000       0.005
   0.13665645  0.00000000  0.00000000       0.005
   0.02733129  0.02733129  0.00000000       0.009
   0.05466258  0.02733129  0.00000000       0.018
   0.08199387  0.02733129  0.00000000       0.018
   0.10932516  0.02733129  0.00000000       0.018
   0.13665645  0.02733129  0.00000000       0.018
   0.05466258  0.05466258  0.00000000       0.009
   0.08199387  0.05466258  0.00000000       0.018
   0.10932516  0.05466258  0.00000000       0.018
   0.13665645  0.05466258  0.00000000       0.018
   0.08199387  0.08199387  0.00000000       0.009
   0.10932516  0.08199387  0.00000000       0.018
   0.13665645  0.08199387  0.00000000       0.018
   0.10932516  0.10932516  0.00000000       0.009
   0.13665645  0.10932516  0.00000000       0.018
   0.13665645  0.13665645  0.00000000       0.009
   0.02733129  0.02733129  0.02733129       0.006
   0.05466258  0.02733129  0.02733129       0.018
   0.08199387  0.02733129  0.02733129       0.018
   0.10932516  0.02733129  0.02733129       0.018
   0.13665645  0.02733129  0.02733129       0.018
   0.05466258  0.05466258  0.02733129       0.018
   0.08199387  0.05466258  0.02733129       0.036
   0.10932516  0.05466258  0.02733129       0.036
   0.13665645  0.05466258  0.02733129       0.036
   0.08199387  0.08199387  0.02733129       0.018
   0.10932516  0.08199387  0.02733129       0.036
   0.13665645  0.08199387  0.02733129       0.036
   0.10932516  0.10932516  0.02733129       0.018
   0.13665645  0.10932516  0.02733129       0.036
   0.13665645  0.13665645  0.02733129       0.018
   0.05466258  0.05466258  0.05466258       0.006
   0.08199387  0.05466258  0.05466258       0.018
   0.10932516  0.05466258  0.05466258       0.018
   0.13665645  0.05466258  0.05466258       0.018
   0.08199387  0.08199387  0.05466258       0.018
   0.10932516  0.08199387  0.05466258       0.036
   0.13665645  0.08199387  0.05466258       0.036
   0.10932516  0.10932516  0.05466258       0.018
   0.13665645  0.10932516  0.05466258       0.036
   0.13665645  0.13665645  0.05466258       0.018
   0.08199387  0.08199387  0.08199387       0.006
   0.10932516  0.08199387  0.08199387       0.018
   0.13665645  0.08199387  0.08199387       0.018
   0.10932516  0.10932516  0.08199387       0.018
   0.13665645  0.10932516  0.08199387       0.036
   0.13665645  0.13665645  0.08199387       0.018
   0.10932516  0.10932516  0.10932516       0.006
   0.13665645  0.10932516  0.10932516       0.018
   0.13665645  0.13665645  0.10932516       0.018
   0.13665645  0.13665645  0.13665645       0.006
 
 k-points in reciprocal lattice and weights: KPOINTS created by Atomic Simulation Env
   0.00000000  0.00000000  0.00000000       0.001
   0.09090909  0.00000000  0.00000000       0.005
   0.18181818  0.00000000  0.00000000       0.005
   0.27272727  0.00000000  0.00000000       0.005
   0.36363636  0.00000000  0.00000000       0.005
   0.45454545  0.00000000  0.00000000       0.005
   0.09090909  0.09090909  0.00000000       0.009
   0.18181818  0.09090909  0.00000000       0.018
   0.27272727  0.09090909  0.00000000       0.018
   0.36363636  0.09090909  0.00000000       0.018
   0.45454545  0.09090909  0.00000000       0.018
   0.18181818  0.18181818  0.00000000       0.009
   0.27272727  0.18181818  0.00000000       0.018
   0.36363636  0.18181818  0.00000000       0.018
   0.45454545  0.18181818  0.00000000       0.018
   0.27272727  0.27272727  0.00000000       0.009
   0.36363636  0.27272727  0.00000000       0.018
   0.45454545  0.27272727  0.00000000       0.018
   0.36363636  0.36363636  0.00000000       0.009
   0.45454545  0.36363636  0.00000000       0.018
   0.45454545  0.45454545  0.00000000       0.009
   0.09090909  0.09090909  0.09090909       0.006
   0.18181818  0.09090909  0.09090909       0.018
   0.27272727  0.09090909  0.09090909       0.018
   0.36363636  0.09090909  0.09090909       0.018
   0.45454545  0.09090909  0.09090909       0.018
   0.18181818  0.18181818  0.09090909       0.018
   0.27272727  0.18181818  0.09090909       0.036
   0.36363636  0.18181818  0.09090909       0.036
   0.45454545  0.18181818  0.09090909       0.036
   0.27272727  0.27272727  0.09090909       0.018
   0.36363636  0.27272727  0.09090909       0.036
   0.45454545  0.27272727  0.09090909       0.036
   0.36363636  0.36363636  0.09090909       0.018
   0.45454545  0.36363636  0.09090909       0.036
   0.45454545  0.45454545  0.09090909       0.018
   0.18181818  0.18181818  0.18181818       0.006
   0.27272727  0.18181818  0.18181818       0.018
   0.36363636  0.18181818  0.18181818       0.018
   0.45454545  0.18181818  0.18181818       0.018
   0.27272727  0.27272727  0.18181818       0.018
   0.36363636  0.27272727  0.18181818       0.036
   0.45454545  0.27272727  0.18181818       0.036
   0.36363636  0.36363636  0.18181818       0.018
   0.45454545  0.36363636  0.18181818       0.036
   0.45454545  0.45454545  0.18181818       0.018
   0.27272727  0.27272727  0.27272727       0.006
   0.36363636  0.27272727  0.27272727       0.018
   0.45454545  0.27272727  0.27272727       0.018
   0.36363636  0.36363636  0.27272727       0.018
   0.45454545  0.36363636  0.27272727       0.036
   0.45454545  0.45454545  0.27272727       0.018
   0.36363636  0.36363636  0.36363636       0.006
   0.45454545  0.36363636  0.36363636       0.018
   0.45454545  0.45454545  0.36363636       0.018
   0.45454545  0.45454545  0.45454545       0.006
 
 position of ions in fractional coordinates (direct lattice) 
   0.00000000  0.00000000  0.00000000
   0.50000000  0.50000000  0.00000000
   0.50000000  0.00000000  0.50000000
   0.00000000  0.50000000  0.50000000
 
 position of ions in cartesian coordinates  (Angst):
   0.00000000  0.00000000  0.00000000
   1.66309553  1.66309553  0.00000000
   1.66309553  0.00000000  1.66309553
   0.00000000  1.66309553  1.66309553
 


--------------------------------------------------------------------------------------------------------


 k-point   1 :   0.0000 0.0000 0.0000  plane waves:     461
 k-point   2 :   0.0909 0.0000 0.0000  plane waves:     449
 k-point   3 :   0.1818 0.0000 0.0000  plane waves:     441
 k-point   4 :   0.2727 0.0000 0.0000  plane waves:     433
 k-point   5 :   0.3636 0.0000 0.0000  plane waves:     434
 k-point   6 :   0.4545 0.0000 0.0000  plane waves:     434
 k-point   7 :   0.0909 0.0909 0.0000  plane waves:     447
 k-point   8 :   0.1818 0.0909 0.0000  plane waves:     437
 k-point   9 :   0.2727 0.0909 0.0000  plane waves:     434
 k-point  10 :   0.3636 0.0909 0.0000  plane waves:     434
 k-point  11 :   0.4545 0.0909 0.0000  plane waves:     439
 k-point  12 :   0.1818 0.1818 0.0000  plane waves:     437
 k-point  13 :   0.2727 0.1818 0.0000  plane waves:     433
 k-point  14 :   0.3636 0.1818 0.0000  plane waves:     435
 k-point  15 :   0.4545 0.1818 0.0000  plane waves:     441
 k-point  16 :   0.2727 0.2727 0.0000  plane waves:     427
 k-point  17 :   0.3636 0.2727 0.0000  plane waves:     435
 k-point  18 :   0.4545 0.2727 0.0000  plane waves:     431
 k-point  19 :   0.3636 0.3636 0.0000  plane waves:     430
 k-point  20 :   0.4545 0.3636 0.0000  plane waves:     431
 k-point  21 :   0.4545 0.4545 0.0000  plane waves:     434
 k-point  22 :   0.0909 0.0909 0.0909  plane waves:     443
 k-point  23 :   0.1818 0.0909 0.0909  plane waves:     438
 k-point  24 :   0.2727 0.0909 0.0909  plane waves:     437
 k-point  25 :   0.3636 0.0909 0.0909  plane waves:     436
 k-point  26 :   0.4545 0.0909 0.0909  plane waves:     437
 k-point  27 :   0.1818 0.1818 0.0909  plane waves:     436
 k-point  28 :   0.2727 0.1818 0.0909  plane waves:     437
 k-point  29 :   0.3636 0.1818 0.0909  plane waves:     434
 k-point  30 :   0.4545 0.1818 0.0909  plane waves:     439
 k-point  31 :   0.2727 0.2727 0.0909  plane waves:     430
 k-point  32 :   0.3636 0.2727 0.0909  plane waves:     433
 k-point  33 :   0.4545 0.2727 0.0909  plane waves:     433
 k-point  34 :   0.3636 0.3636 0.0909  plane waves:     427
 k-point  35 :   0.4545 0.3636 0.0909  plane waves:     433
 k-point  36 :   0.4545 0.4545 0.0909  plane waves:     435
 k-point  37 :   0.1818 0.1818 0.1818  plane waves:     428
 k-point  38 :   0.2727 0.1818 0.1818  plane waves:     432
 k-point  39 :   0.3636 0.1818 0.1818  plane waves:     432
 k-point  40 :   0.4545 0.1818 0.1818  plane waves:     436
 k-point  41 :   0.2727 0.2727 0.1818  plane waves:     430
 k-point  42 :   0.3636 0.2727 0.1818  plane waves:     436
 k-point  43 :   0.4545 0.2727 0.1818  plane waves:     435
 k-point  44 :   0.3636 0.3636 0.1818  plane waves:     438
 k-point  45 :   0.4545 0.3636 0.1818  plane waves:     430
 k-point  46 :   0.4545 0.4545 0.1818  plane waves:     429
 k-point  47 :   0.2727 0.2727 0.2727  plane waves:     443
 k-point  48 :   0.3636 0.2727 0.2727  plane waves:     434
 k-point  49 :   0.4545 0.2727 0.2727  plane waves:     438
 k-point  50 :   0.3636 0.3636 0.2727  plane waves:     434
 k-point  51 :   0.4545 0.3636 0.2727  plane waves:     432
 k-point  52 :   0.4545 0.4545 0.2727  plane waves:     432
 k-point  53 :   0.3636 0.3636 0.3636  plane waves:     441
 k-point  54 :   0.4545 0.3636 0.3636  plane waves:     438
 k-point  55 :   0.4545 0.4545 0.3636  plane waves:     441
 k-point  56 :   0.4545 0.4545 0.4545  plane waves:     432

 maximum number of plane-waves:       461
 maximum index in each direction: 
   IXMAX=    4   IYMAX=    4   IZMAX=    4
   IXMIN=   -5   IYMIN=   -5   IZMIN=   -5


 total amount of memory used by VASP MPI-rank0    54127. kBytes
=======================================================================

   base      :      30000. kBytes
   nonl-proj :       3747. kBytes
   grid      :       1216. kBytes
   one-center:         62. kBytes
   wavefun   :      19102. kBytes
 
     INWAV:  cpu time    0.0000: real time    0.0000
 Broyden mixing: mesh for mixing (old mesh)
   NGX =  9   NGY =  9   NGZ =  9
  (NGX  = 28   NGY  = 28   NGZ  = 28)
  gives a total of    729 points

 initial charge density was supplied:
 charge density of overlapping atoms calculated
 number of electron      32.0000000 magnetization 
 keeping initial charge density in first step


--------------------------------------------------------------------------------------------------------


 Maximum index for augmentation-charges         2553 (set IRDMAX)


--------------------------------------------------------------------------------------------------------


 First call to EWALD:  gamma=   0.533
 Maximum number of real-space cells 3x 3x 3
 Maximum number of reciprocal cells 3x 3x 3

    FEWALD:  cpu time    0.0009: real time    0.0009


--------------------------------------- Iteration      1(   1)  ---------------------------------------


    POTLOK:  cpu time    0.0051: real time    0.0051
    SETDIJ:  cpu time    0.0041: real time    0.0041
     EDDAV:  cpu time    0.7162: real time    0.7375
       DOS:  cpu time    0.0040: real time    0.0040
    --------------------------------------------
      LOOP:  cpu time    0.7294: real time    0.7507

 eigenvalue-minimisations  :  4880
 total energy-change (2. order) : 0.1662031E+03  (-0.8181671E+03)
 number of electron      32.0000000 magnetization 
 augmentation part       32.0000000 magnetization 

 Free energy of the ion-electron system (eV)
  ---------------------------------------------------
  alpha Z        PSCENC =       300.49899629
  Ewald energy   TEWEN  =     -2540.65169267
  -Hartree energ DENC   =      -383.46475777
  -exchange      EXHF   =         0.00000000
  -V(xc)+E(xc)   XCENC  =        18.31556833
  PAW double counting   =      2219.38341365    -2250.19294531
  entropy T*S    EENTRO =        -0.00303259
  eigenvalues    EBANDS =       425.16406578
  atomic energy  EATOM  =      2377.15350596
  Solvation  Ediel_sol  =         0.00000000
  ---------------------------------------------------
  free energy    TOTEN  =       166.20312169 eV

  energy without entropy =      166.20615427  energy(sigma->0) =      166.20413255


--------------------------------------------------------------------------------------------------------




--------------------------------------- Iteration      1(   2)  ---------------------------------------


     EDDAV:  cpu time    0.6610: real time    0.6610
       DOS:  cpu time    0.0044: real time    0.0044
    --------------------------------------------
      LOOP:  cpu time    0.6654: real time    0.6654

 eigenvalue-minimisations  :  4648
 total energy-change (2. order) :-0.1899656E+03  (-0.1668019E+03)
 number of electron      32.0000000 magnetization 
 augmentation part       32.0000000 magnetization 

 Free energy of the ion-electron system (eV)
  ---------------------------------------------------
  alpha Z        PSCENC =       300.49899629
  Ewald energy   TEWEN  =     -2540.65169267
  -Hartree energ DENC   =      -383.46475777
  -exchange      EXHF   =         0.00000000
  -V(xc)+E(xc)   XCENC  =        18.31556833
  PAW double counting   =      2219.38341365    -2250.19294531
  entropy T*S    EENTRO =        -0.00491244
  eigenvalues    EBANDS =       235.20031556
  atomic energy  EATOM  =      2377.15350596
  Solvation  Ediel_sol  =         0.00000000
  ---------------------------------------------------
  free energy    TOTEN  =       -23.76250839 eV

  energy without entropy =      -23.75759594  energy(sigma->0) =      -23.76087091


--------------------------------------------------------------------------------------------------------




--------------------------------------- Iteration      1(   3)  ---------------------------------------


     EDDAV:  cpu time    0.6947: real time    0.6948
       DOS:  cpu time    0.0048: real time    0.0048
    --------------------------------------------
      LOOP:  cpu time    0.6996: real time    0.6996

 eigenvalue-minimisations  :  5152
 total energy-change (2. order) :-0.1368974E+02  (-0.1252843E+02)
 number of electron      32.0000000 magnetization 
 augmentation part       32.0000000 magnetization 

 Free energy of the ion-electron system (eV)
  ---------------------------------------------------
  alpha Z        PSCENC =       300.49899629
  Ewald energy   TEWEN  =     -2540.65169267
  -Hartree energ DENC   =      -383.46475777
  -exchange      EXHF   =         0.00000000
  -V(xc)+E(xc)   XCENC  =        18.31556833
  PAW double counting   =      2219.38341365    -2250.19294531
  entropy T*S    EENTRO =         0.00689472
  eigenvalues    EBANDS =       221.49877220
  atomic energy  EATOM  =      2377.15350596
  Solvation  Ediel_sol  =         0.00000000
  ---------------------------------------------------
  free energy    TOTEN  =       -37.45224459 eV

  energy without entropy =      -37.45913931  energy(sigma->0) =      -37.45454283


--------------------------------------------------------------------------------------------------------




--------------------------------------- Iteration      1(   4)  ---------------------------------------


     EDDAV:  cpu time    0.6602: real time    0.6603
       DOS:  cpu time    0.0049: real time    0.0049
    --------------------------------------------
      LOOP:  cpu time    0.6651: real time    0.6652

 eigenvalue-minimisations  :  4912
 total energy-change (2. order) :-0.1761869E+00  (-0.1758651E+00)
 number of electron      32.0000000 magnetization 
 augmentation part       32.0000000 magnetization 

 Free energy of the ion-electron system (eV)
  ---------------------------------------------------
  alpha Z        PSCENC =       300.49899629
  Ewald energy   TEWEN  =     -2540.65169267
  -Hartree energ DENC   =      -383.46475777
  -exchange      EXHF   =         0.00000000
  -V(xc)+E(xc)   XCENC  =        18.31556833
  PAW double counting   =      2219.38341365    -2250.19294531
  entropy T*S    EENTRO =         0.00735440
  eigenvalues    EBANDS =       221.32212564
  atomic energy  EATOM  =      2377.15350596
  Solvation  Ediel_sol  =         0.00000000
  ---------------------------------------------------
  free energy    TOTEN  =       -37.62843146 eV

  energy without entropy =      -37.63578586  energy(sigma->0) =      -37.63088293


--------------------------------------------------------------------------------------------------------




--------------------------------------- Iteration      1(   5)  ---------------------------------------


     EDDAV:  cpu time    0.6776: real time    0.6777
       DOS:  cpu time    0.0049: real time    0.0049
    CHARGE:  cpu time    0.0331: real time    0.0331
    MIXING:  cpu time    0.0002: real time    0.0002
    --------------------------------------------
      LOOP:  cpu time    0.7159: real time    0.7159

 eigenvalue-minimisations  :  5096
 total energy-change (2. order) :-0.1473247E-02  (-0.1473206E-02)
 number of electron      31.9999920 magnetization 
 augmentation part       14.3396511 magnetization 

 Broyden mixing:
  rms(total) = 0.26777E+01    rms(broyden)= 0.26775E+01
  rms(prec ) = 0.47427E+01
  weight for this iteration     100.00

 Free energy of the ion-electron system (eV)
  ---------------------------------------------------
  alpha Z        PSCENC =       300.49899629
  Ewald energy   TEWEN  =     -2540.65169267
  -Hartree energ DENC   =      -383.46475777
  -exchange      EXHF   =         0.00000000
  -V(xc)+E(xc)   XCENC  =        18.31556833
  PAW double counting   =      2219.38341365    -2250.19294531
  entropy T*S    EENTRO =         0.00735680
  eigenvalues    EBANDS =       221.32065000
  atomic energy  EATOM  =      2377.15350596
  Solvation  Ediel_sol  =         0.00000000
  ---------------------------------------------------
  free energy    TOTEN  =       -37.62990470 eV

  energy without entropy =      -37.63726151  energy(sigma->0) =      -37.63235697


--------------------------------------------------------------------------------------------------------




--------------------------------------- Iteration      1(   6)  ---------------------------------------


    POTLOK:  cpu time    0.0049: real time    0.0049
    SETDIJ:  cpu time    0.0039: real time    0.0039
     EDDAV:  cpu time    0.6771: real time    0.6771
       DOS:  cpu time    0.0051: real time    0.0051
    CHARGE:  cpu time    0.0352: real time    0.0352
    MIXING:  cpu time    0.0003: real time    0.0003
    --------------------------------------------
      LOOP:  cpu time    0.7266: real time    0.7266

 eigenvalue-minimisations  :  5080
 total energy-change (2. order) : 0.5449781E+01  (-0.9169231E+00)
 number of electron      31.9999914 magnetization 
 augmentation part       16.7132547 magnetization 

 Broyden mixing:
  rms(total) = 0.21550E+00    rms(broyden)= 0.21468E+00
  rms(prec ) = 0.31996E+00
  weight for this iteration     100.00

 eigenvalues of (default mixing * dielectric matrix)
  average eigenvalue GAMMA=   1.0024
  1.0024

 Free energy of the ion-electron system (eV)
  ---------------------------------------------------
  alpha Z        PSCENC =       300.49899629
  Ewald energy   TEWEN  =     -2540.65169267
  -Hartree energ DENC   =      -321.01369609
  -exchange      EXHF   =         0.00000000
  -V(xc)+E(xc)   XCENC  =        15.23878676
  PAW double counting   =      2636.48696453    -2660.43304965
  entropy T*S    EENTRO =         0.00676004
  eigenvalues    EBANDS =       160.53330152
  atomic energy  EATOM  =      2377.15350596
  Solvation  Ediel_sol  =         0.00000000
  ---------------------------------------------------
  free energy    TOTEN  =       -32.18012329 eV

  energy without entropy =      -32.18688333  energy(sigma->0) =      -32.18237663


--------------------------------------------------------------------------------------------------------




--------------------------------------- Iteration      1(   7)  ---------------------------------------


    POTLOK:  cpu time    0.0048: real time    0.0048
    SETDIJ:  cpu time    0.0039: real time    0.0039
     EDDAV:  cpu time    0.7428: real time    0.7429
       DOS:  cpu time    0.0051: real time    0.0051
    CHARGE:  cpu time    0.0340: real time    0.0340
    MIXING:  cpu time    0.0003: real time    0.0003
    --------------------------------------------
      LOOP:  cpu time    0.7909: real time    0.7910

 eigenvalue-minimisations  :  5376
 total energy-change (2. order) : 0.2019813E+00  (-0.6691872E-01)
 number of electron      31.9999915 magnetization 
 augmentation part       16.3475299 magnetization 

 Broyden mixing:
  rms(total) = 0.19042E+00    rms(broyden)= 0.19041E+00
  rms(prec ) = 0.33344E+00
  weight for this iteration     100.00

 eigenvalues of (default mixing * dielectric matrix)
  average eigenvalue GAMMA=   1.1230
  0.8119  1.4340

 Free energy of the ion-electron system (eV)
  ---------------------------------------------------
  alpha Z        PSCENC =       300.49899629
  Ewald energy   TEWEN  =     -2540.65169267
  -Hartree energ DENC   =      -323.82969328
  -exchange      EXHF   =         0.00000000
  -V(xc)+E(xc)   XCENC  =        15.45241207
  PAW double counting   =      2858.72095479    -2889.43707663
  entropy T*S    EENTRO =         0.00800306
  eigenvalues    EBANDS =       170.10644841
  atomic energy  EATOM  =      2377.15350596
  Solvation  Ediel_sol  =         0.00000000
  ---------------------------------------------------
  free energy    TOTEN  =       -31.97814200 eV

  energy without entropy =      -31.98614506  energy(sigma->0) =      -31.98080969


--------------------------------------------------------------------------------------------------------




--------------------------------------- Iteration      1(   8)  ---------------------------------------


    POTLOK:  cpu time    0.0053: real time    0.0053
    SETDIJ:  cpu time    0.0041: real time    0.0041
     EDDAV:  cpu time    0.8028: real time    0.8028
       DOS:  cpu time    0.0050: real time    0.0050
    CHARGE:  cpu time    0.0320: real time    0.0320
    MIXING:  cpu time    0.0003: real time    0.0003
    --------------------------------------------
      LOOP:  cpu time    0.8494: real time    0.8494

 eigenvalue-minimisations  :  6024
 total energy-change (2. order) : 0.6939261E-01  (-0.8641649E-03)
 number of electron      31.9999915 magnetization 
 augmentation part       16.3986291 magnetization 

 Broyden mixing:
  rms(total) = 0.68214E-01    rms(broyden)= 0.68213E-01
  rms(prec ) = 0.11864E+00
  weight for this iteration     100.00

 eigenvalues of (default mixing * dielectric matrix)
  average eigenvalue GAMMA=   1.5569
  2.7208  1.1068  0.8429

 Free energy of the ion-electron system (eV)
  ---------------------------------------------------
  alpha Z        PSCENC =       300.49899629
  Ewald energy   TEWEN  =     -2540.65169267
  -Hartree energ DENC   =      -319.00446481
  -exchange      EXHF   =         0.00000000
  -V(xc)+E(xc)   XCENC  =        15.25683063
  PAW double counting   =      3049.03204140    -3083.52203494
  entropy T*S    EENTRO =         0.00779371
  eigenvalues    EBANDS =       169.32027503
  atomic energy  EATOM  =      2377.15350596
  Solvation  Ediel_sol  =         0.00000000
  ---------------------------------------------------
  free energy    TOTEN  =       -31.90874939 eV

  energy without entropy =      -31.91654310  energy(sigma->0) =      -31.91134730


--------------------------------------------------------------------------------------------------------




--------------------------------------- Iteration      1(   9)  ---------------------------------------


    POTLOK:  cpu time    0.0048: real time    0.0048
    SETDIJ:  cpu time    0.0039: real time    0.0039
     EDDAV:  cpu time    0.7028: real time    0.7028
       DOS:  cpu time    0.0054: real time    0.0054
    CHARGE:  cpu time    0.0331: real time    0.0331
    MIXING:  cpu time    0.0003: real time    0.0003
    --------------------------------------------
      LOOP:  cpu time    0.7502: real time    0.7503

 eigenvalue-minimisations  :  5240
 total energy-change (2. order) : 0.1535093E-01  (-0.6267761E-03)
 number of electron      31.9999915 magnetization 
 augmentation part       16.4128190 magnetization 

 Broyden mixing:
  rms(total) = 0.89830E-02    rms(broyden)= 0.89799E-02
  rms(prec ) = 0.13443E-01
  weight for this iteration     100.00

 eigenvalues of (default mixing * dielectric matrix)
  average eigenvalue GAMMA=   1.3314
  2.7064  1.1461  0.8451  0.6279

 Free energy of the ion-electron system (eV)
  ---------------------------------------------------
  alpha Z        PSCENC =       300.49899629
  Ewald energy   TEWEN  =     -2540.65169267
  -Hartree energ DENC   =      -315.53390244
  -exchange      EXHF   =         0.00000000
  -V(xc)+E(xc)   XCENC  =        15.12534545
  PAW double counting   =      3219.71239644    -3257.56184074
  entropy T*S    EENTRO =         0.00755517
  eigenvalues    EBANDS =       169.35623807
  atomic energy  EATOM  =      2377.15350596
  Solvation  Ediel_sol  =         0.00000000
  ---------------------------------------------------
  free energy    TOTEN  =       -31.89339846 eV

  energy without entropy =      -31.90095363  energy(sigma->0) =      -31.89591685


--------------------------------------------------------------------------------------------------------




--------------------------------------- Iteration      1(  10)  ---------------------------------------


    POTLOK:  cpu time    0.0048: real time    0.0048
    SETDIJ:  cpu time    0.0039: real time    0.0039
     EDDAV:  cpu time    0.6808: real time    0.6808
       DOS:  cpu time    0.0052: real time    0.0052
    CHARGE:  cpu time    0.0356: real time    0.0357
    MIXING:  cpu time    0.0003: real time    0.0003
    --------------------------------------------
      LOOP:  cpu time    0.7308: real time    0.7308

 eigenvalue-minimisations  :  5056
 total energy-change (2. order) : 0.1656136E-03  (-0.2391024E-04)
 number of electron      31.9999915 magnetization 
 augmentation part       16.4148303 magnetization 

 Broyden mixing:
  rms(total) = 0.41999E-02    rms(broyden)= 0.41998E-02
  rms(prec ) = 0.75244E-02
  weight for this iteration     100.00

 eigenvalues of (default mixing * dielectric matrix)
  average eigenvalue GAMMA=   1.6033
  2.3766  2.3766  0.8383  1.0208  1.4041

 Free energy of the ion-electron system (eV)
  ---------------------------------------------------
  alpha Z        PSCENC =       300.49899629
  Ewald energy   TEWEN  =     -2540.65169267
  -Hartree energ DENC   =      -315.76747000
  -exchange      EXHF   =         0.00000000
  -V(xc)+E(xc)   XCENC  =        15.13453116
  PAW double counting   =      3210.64145595    -3248.17179166
  entropy T*S    EENTRO =         0.00755285
  eigenvalues    EBANDS =       169.26167927
  atomic energy  EATOM  =      2377.15350596
  Solvation  Ediel_sol  =         0.00000000
  ---------------------------------------------------
  free energy    TOTEN  =       -31.89323284 eV

  energy without entropy =      -31.90078569  energy(sigma->0) =      -31.89575046


--------------------------------------------------------------------------------------------------------




--------------------------------------- Iteration      1(  11)  ---------------------------------------


    POTLOK:  cpu time    0.0048: real time    0.0048
    SETDIJ:  cpu time    0.0039: real time    0.0039
     EDDAV:  cpu time    0.7195: real time    0.7195
       DOS:  cpu time    0.0050: real time    0.0050
    CHARGE:  cpu time    0.0322: real time    0.0322
    MIXING:  cpu time    0.0003: real time    0.0003
    --------------------------------------------
      LOOP:  cpu time    0.7657: real time    0.7657

 eigenvalue-minimisations  :  5424
 total energy-change (2. order) : 0.3161695E-04  (-0.2801846E-06)
 number of electron      31.9999915 magnetization 
 augmentation part       16.4133103 magnetization 

 Broyden mixing:
  rms(total) = 0.26005E-02    rms(broyden)= 0.26004E-02
  rms(prec ) = 0.46208E-02
  weight for this iteration     100.00

 eigenvalues of (default mixing * dielectric matrix)
  average eigenvalue GAMMA=   1.5238
  2.6000  2.4511  1.3330  0.8276  1.0321  0.8990

 Free energy of the ion-electron system (eV)
  ---------------------------------------------------
  alpha Z        PSCENC =       300.49899629
  Ewald energy   TEWEN  =     -2540.65169267
  -Hartree energ DENC   =      -316.09227769
  -exchange      EXHF   =         0.00000000
  -V(xc)+E(xc)   XCENC  =        15.14833439
  PAW double counting   =      3203.88515996    -3241.10414143
  entropy T*S    EENTRO =         0.00756030
  eigenvalues    EBANDS =       169.26135366
  atomic energy  EATOM  =      2377.15350596
  Solvation  Ediel_sol  =         0.00000000
  ---------------------------------------------------
  free energy    TOTEN  =       -31.89320123 eV

  energy without entropy =      -31.90076153  energy(sigma->0) =      -31.89572133


--------------------------------------------------------------------------------------------------------




--------------------------------------- Iteration      1(  12)  ---------------------------------------


    POTLOK:  cpu time    0.0048: real time    0.0048
    SETDIJ:  cpu time    0.0039: real time    0.0039
     EDDAV:  cpu time    0.5468: real time    0.5468
       DOS:  cpu time    0.0047: real time    0.0047
    --------------------------------------------
      LOOP:  cpu time    0.5602: real time    0.5603

 eigenvalue-minimisations  :  3720
 total energy-change (2. order) :-0.4038861E-06  (-0.7622042E-07)
 number of electron      31.9999915 magnetization 
 augmentation part       16.4133103 magnetization 

 Free energy of the ion-electron system (eV)
  ---------------------------------------------------
  alpha Z        PSCENC =       300.49899629
  Ewald energy   TEWEN  =     -2540.65169267
  -Hartree energ DENC   =      -315.98040247
  -exchange      EXHF   =         0.00000000
  -V(xc)+E(xc)   XCENC  =        15.14390708
  PAW double counting   =      3208.70356987    -3246.02379892
  entropy T*S    EENTRO =         0.00755296
  eigenvalues    EBANDS =       169.25516026
  atomic energy  EATOM  =      2377.15350596
  Solvation  Ediel_sol  =         0.00000000
  ---------------------------------------------------
  free energy    TOTEN  =       -31.89320163 eV

  energy without entropy =      -31.90075459  energy(sigma->0) =      -31.89571928


--------------------------------------------------------------------------------------------------------




 average (electrostatic) potential at core
  the test charge radii are     1.0103
  (the norm of the test charge is              1.0000)
       1 -41.5229       2 -41.5229       3 -41.5229       4 -41.5229
 
 
 
 E-fermi :   8.0584     XC(G=0): -14.4041     alpha+bet :-16.8486

 Fermi energy:         8.0584375097

 k-point     1 :       0.0000    0.0000    0.0000
  band No.  band energies     occupation 
      1      -1.3819      2.00000
      2       2.3438      2.00000
      3       2.3438      2.00000
      4       2.3438      2.00000
      5       3.1779      2.00000
      6       3.1779      2.00000
      7       3.1779      2.00000
      8       6.1649      2.00000
      9       6.1649      2.00000
     10       6.1649      2.00000
     11       7.9907      1.53814
     12       7.9907      1.53814
     13       9.2058     -0.00000
     14       9.2058     -0.00000
     15       9.2058     -0.00000
     16       9.5594     -0.00000
     17       9.5594     -0.00000
     18       9.5594     -0.00000
     19       9.5594     -0.00000
     20       9.5594     -0.00000
     21       9.5594     -0.00000
     22      11.6664     -0.00000
     23      11.6664     -0.00000
     24      11.6664     -0.00000
     25      21.0693      0.00000
     26      21.0693      0.00000
     27      21.0693      0.00000
     28      25.5574      0.00000
     29      25.5574      0.00000
     30      25.5574      0.00000
     31      25.5574      0.00000
     32      25.5574      0.00000
     33      25.5574      0.00000
     34      31.4145      0.00000
     35      31.4145      0.00000
     36      31.4145      0.00000
     37      32.2899      0.00000
     38      37.2050      0.00000
     39      37.2050      0.00000
     40      37.2050      0.00000

 k-point     2 :       0.0909    0.0000    0.0000
  band No.  band energies     occupation 
      1      -1.2532      2.00000
      2       2.3853      2.00000
      3       2.4267      2.00000
      4       2.4267      2.00000
      5       3.2301      2.00000
      6       3.2418      2.00000
      7       3.2418      2.00000
      8       6.0939      2.00000
      9       6.2153      2.00000
     10       6.2153      2.00000
     11       7.9243      1.89836
     12       8.0142      1.36466
     13       9.0170     -0.00000
     14       9.0170     -0.00000
     15       9.1191     -0.00000
     16       9.1191     -0.00000
     17       9.1800     -0.00000
     18       9.4608     -0.00000
     19       9.4608     -0.00000
     20       9.5598     -0.00000
     21       9.5598     -0.00000
     22      11.1676     -0.00000
     23      12.2898     -0.00000
     24      12.2898     -0.00000
     25      21.0553      0.00000
     26      21.0553      0.00000
     27      21.6983      0.00000
     28      25.0297      0.00000
     29      25.0297      0.00000
     30      25.3020      0.00000
     31      25.3020      0.00000
     32      25.7759      0.00000
     33      25.7759      0.00000
     34      31.4383      0.00000
     35      32.0585      0.00000
     36      32.0585      0.00000
     37      32.2441      0.00000
     38      37.2568      0.00000
     39      37.7458      0.00000
     40      37.7711      0.00000

 k-point     3 :       0.1818    0.0000    0.0000
  band No.  band energies     occupation 
      1      -0.8746      2.00000
      2       2.4879      2.00000
      3       2.6622      2.00000
      4       2.6622      2.00000
      5       3.3841      2.00000
      6       3.4331      2.00000
      7       3.4331      2.00000
      8       5.8898      2.00000
      9       6.3653      2.00000
     10       6.3653      2.00000
     11       7.7350      2.04455
     12       8.0657      0.93877
     13       8.0657      0.93877
     14       8.0828      0.79540
     15       8.8713     -0.00000
     16       8.8713     -0.00000
     17       9.1047     -0.00000
     18       9.1839     -0.00000
     19       9.1839     -0.00000
     20       9.5602     -0.00000
     21       9.5602     -0.00000
     22      10.0010     -0.00000
     23      13.4829     -0.00000
     24      13.4829     -0.00000
     25      21.0156      0.00000
     26      21.0156      0.00000
     27      23.2583      0.00000
     28      23.8261      0.00000
     29      23.8261      0.00000
     30      24.7020      0.00000
     31      24.7020      0.00000
     32      26.4089      0.00000
     33      26.4089      0.00000
     34      31.4514      0.00000
     35      32.1260      0.00000
     36      33.5693      0.00000
     37      33.5693      0.00000
     38      36.1399      0.00000
     39      36.7542      0.00000
     40      36.7542      0.00000

 k-point     4 :       0.2727    0.0000    0.0000
  band No.  band energies     occupation 
      1      -0.2713      2.00000
      2       2.5760      2.00000
      3       3.0069      2.00000
      4       3.0069      2.00000
      5       3.6318      2.00000
      6       3.7508      2.00000
      7       3.7508      2.00000
      8       5.5771      2.00000
      9       6.6107      2.00000
     10       6.6107      2.00000
     11       7.1080      2.00000
     12       7.1080      2.00000
     13       7.4555      2.00017
     14       8.1918      0.10432
     15       8.5057     -0.00693
     16       8.5057     -0.00693
     17       8.6860     -0.00008
     18       8.7789     -0.00000
     19       8.7789     -0.00000
     20       8.9871     -0.00000
     21       9.5609     -0.00000
     22       9.5609     -0.00000
     23      14.8413      0.00000
     24      14.8413      0.00000
     25      20.9573      0.00000
     26      20.9573      0.00000
     27      22.3770      0.00000
     28      22.3770      0.00000
     29      24.0556      0.00000
     30      24.0556      0.00000
     31      25.2509      0.00000
     32      27.3995      0.00000
     33      27.3995      0.00000
     34      31.4795      0.00000
     35      31.9760      0.00000
     36      34.4703      0.00000
     37      35.1746      0.00000
     38      35.1746      0.00000
     39      35.5394      0.00000
     40      35.5394      0.00000

 k-point     5 :       0.3636    0.0000    0.0000
  band No.  band energies     occupation 
      1       0.5046      2.00000
      2       2.4995      2.00000
      3       3.3751      2.00000
      4       3.3751      2.00000
      5       3.9593      2.00000
      6       4.1927      2.00000
      7       4.1927      2.00000
      8       5.1904      2.00000
      9       6.2228      2.00000
     10       6.2228      2.00000
     11       6.9438      2.00000
     12       6.9438      2.00000
     13       7.1504      2.00000
     14       7.6045      2.00609
     15       8.1138      0.55109
     16       8.1138      0.55109
     17       8.3051     -0.07089
     18       8.3051     -0.07089
     19       8.3334     -0.06531
     20       8.8377     -0.00000
     21       9.5614     -0.00000
     22       9.5614     -0.00000
     23      16.2830      0.00000
     24      16.2830      0.00000
     25      20.8475      0.00000
     26      20.8475      0.00000
     27      20.8932      0.00000
     28      20.8932      0.00000
     29      23.5605      0.00000
     30      23.5605      0.00000
     31      27.3430      0.00000
     32      28.6755      0.00000
     33      28.6755      0.00000
     34      31.5268      0.00000
     35      31.8301      0.00000
     36      32.8364      0.00000
     37      33.4815      0.00000
     38      33.4815      0.00000
     39      37.7952      0.00000
     40      37.7952      0.00000

 k-point     6 :       0.4545    0.0000    0.0000
  band No.  band energies     occupation 
      1       1.3516      2.00000
      2       2.0864      2.00000
      3       3.6286      2.00000
      4       3.6286      2.00000
      5       4.3469      2.00000
      6       4.7556      2.00000
      7       4.7556      2.00000
      8       4.7680      2.00000
      9       5.4346      2.00000
     10       5.4346      2.00000
     11       6.9390      2.00000
     12       7.0191      2.00000
     13       7.3522      2.00001
     14       7.3522      2.00001
     15       7.8163      2.07085
     16       7.8163      2.07085
     17       7.8436      2.06240
     18       7.8436      2.06240
     19       8.4969     -0.00818
     20       8.6703     -0.00013
     21       9.5617     -0.00000
     22       9.5617     -0.00000
     23      17.7758      0.00000
     24      17.7758      0.00000
     25      19.3040      0.00000
     26      19.3040      0.00000
     27      20.8500      0.00000
     28      20.8500      0.00000
     29      23.3011      0.00000
     30      23.3011      0.00000
     31      29.3492      0.00000
     32      30.1654      0.00000
     33      30.1654      0.00000
     34      31.1690      0.00000
     35      31.6204      0.00000
     36      31.7079      0.00000
     37      31.7835      0.00000
     38      31.7835      0.00000
     39      39.7618      0.00000
     40      40.3049      0.00000

 k-point     7 :       0.0909    0.0909    0.0000
  band No.  band energies     occupation 
      1      -1.1259      2.00000
      2       2.4693      2.00000
      3       2.4693      2.00000
      4       2.5071      2.00000
      5       3.2928      2.00000
      6       3.2928      2.00000
      7       3.3041      2.00000
      8       6.0528      2.00000
      9       6.2382      2.00000
     10       6.2594      2.00000
     11       7.9049      1.96254
     12       7.9974      1.49068
     13       8.6830     -0.00009
     14       8.8456     -0.00000
     15       8.8456     -0.00000
     16       9.0377     -0.00000
     17       9.1337     -0.00000
     18       9.1337     -0.00000
     19       9.4606     -0.00000
     20       9.4606     -0.00000
     21       9.4981     -0.00000
     22      11.8120     -0.00000
     23      11.8120     -0.00000
     24      12.7668     -0.00000
     25      21.0223      0.00000
     26      21.6950      0.00000
     27      21.6950      0.00000
     28      23.9076      0.00000
     29      25.2331      0.00000
     30      25.2331      0.00000
     31      25.5152      0.00000
     32      25.5152      0.00000
     33      25.9875      0.00000
     34      32.0807      0.00000
     35      32.0807      0.00000
     36      32.1438      0.00000
     37      32.2857      0.00000
     38      36.2915      0.00000
     39      37.7500      0.00000
     40      37.8243      0.00000

 k-point     8 :       0.1818    0.0909    0.0000
  band No.  band energies     occupation 
      1      -0.7514      2.00000
      2       2.5751      2.00000
      3       2.7082      2.00000
      4       2.7360      2.00000
      5       3.4430      2.00000
      6       3.4802      2.00000
      7       3.4897      2.00000
      8       5.8702      2.00000
      9       6.3732      2.00000
     10       6.3887      2.00000
     11       7.7426      2.04805
     12       7.9035      1.96662
     13       7.9060      1.95950
     14       8.0614      0.97519
     15       8.4412     -0.02091
     16       8.8036     -0.00000
     17       8.8790     -0.00000
     18       9.0665     -0.00000
     19       9.1833     -0.00000
     20       9.4602     -0.00000
     21       9.4644     -0.00000
     22      10.7532     -0.00000
     23      12.9643     -0.00000
     24      13.8239      0.00000
     25      20.8611      0.00000
     26      21.6867      0.00000
     27      22.6603      0.00000
     28      23.2581      0.00000
     29      24.0107      0.00000
     30      24.9095      0.00000
     31      25.8160      0.00000
     32      25.9855      0.00000
     33      26.1437      0.00000
     34      31.8675      0.00000
     35      32.1557      0.00000
     36      33.2422      0.00000
     37      33.6144      0.00000
     38      34.6351      0.00000
     39      36.9235      0.00000
     40      38.0111      0.00000

 k-point     9 :       0.2727    0.0909    0.0000
  band No.  band energies     occupation 
      1      -0.1548      2.00000
      2       2.6679      2.00000
      3       3.0592      2.00000
      4       3.0742      2.00000
      5       3.6845      2.00000
      6       3.7913      2.00000
      7       3.7933      2.00000
      8       5.5716      2.00000
      9       6.5853      2.00000
     10       6.6144      2.00000
     11       6.9686      2.00000
     12       7.0288      2.00000
     13       7.4962      2.00052
     14       7.8262      2.06956
     15       8.1875      0.12152
     16       8.4561     -0.01660
     17       8.5182     -0.00543
     18       8.7778     -0.00000
     19       8.8878     -0.00000
     20       9.4560     -0.00000
     21       9.4596     -0.00000
     22       9.7095     -0.00000
     23      14.2274      0.00000
     24      15.1104      0.00000
     25      20.3084      0.00000
     26      21.6698      0.00000
     27      21.8381      0.00000
     28      22.5511      0.00000
     29      24.2799      0.00000
     30      25.1860      0.00000
     31      25.3888      0.00000
     32      26.7081      0.00000
     33      27.1835      0.00000
     34      31.4480      0.00000
     35      32.2871      0.00000
     36      33.0424      0.00000
     37      34.9347      0.00000
     38      35.5918      0.00000
     39      35.7635      0.00000
     40      36.6111      0.00000

 k-point    10 :       0.3636    0.0909    0.0000
  band No.  band energies     occupation 
      1       0.6128      2.00000
      2       2.5953      2.00000
      3       3.4370      2.00000
      4       3.4437      2.00000
      5       4.0035      2.00000
      6       4.2044      2.00000
      7       4.2232      2.00000
      8       5.1984      2.00000
      9       6.1100      2.00000
     10       6.1900      2.00000
     11       6.7522      2.00000
     12       6.9453      2.00000
     13       7.1489      2.00000
     14       7.3316      2.00000
     15       8.0834      0.79076
     16       8.1275      0.45213
     17       8.3041     -0.07091
     18       8.3546     -0.05698
     19       8.5024     -0.00738
     20       9.0774     -0.00000
     21       9.4547     -0.00000
     22       9.4586     -0.00000
     23      15.5218      0.00000
     24      16.5107      0.00000
     25      19.2690      0.00000
     26      21.0253      0.00000
     27      21.5827      0.00000
     28      21.6393      0.00000
     29      23.8646      0.00000
     30      24.6568      0.00000
     31      27.0365      0.00000
     32      27.8066      0.00000
     33      28.6932      0.00000
     34      30.8608      0.00000
     35      31.5355      0.00000
     36      32.5246      0.00000
     37      34.5597      0.00000
     38      34.6876      0.00000
     39      37.1035      0.00000
     40      37.8656      0.00000

 k-point    11 :       0.4545    0.0909    0.0000
  band No.  band energies     occupation 
      1       1.4521      2.00000
      2       2.1832      2.00000
      3       3.7015      2.00000
      4       3.7045      2.00000
      5       4.3803      2.00000
      6       4.7205      2.00000
      7       4.7721      2.00000
      8       4.7892      2.00000
      9       5.3555      2.00000
     10       5.4312      2.00000
     11       6.7036      2.00000
     12       6.7413      2.00000
     13       7.3525      2.00001
     14       7.5390      2.00148
     15       7.8153      2.07089
     16       7.8323      2.06784
     17       7.8493      2.05850
     18       7.9813      1.60201
     19       8.5523     -0.00266
     20       8.7774     -0.00000
     21       9.4557     -0.00000
     22       9.4572     -0.00000
     23      16.8106      0.00000
     24      17.9779      0.00000
     25      18.0664      0.00000
     26      19.4902      0.00000
     27      21.5519      0.00000
     28      21.5903      0.00000
     29      23.7880      0.00000
     30      24.0746      0.00000
     31      28.6191      0.00000
     32      28.9758      0.00000
     33      30.0410      0.00000
     34      30.0826      0.00000
     35      30.6185      0.00000
     36      32.6781      0.00000
     37      32.9176      0.00000
     38      33.5734      0.00000
     39      39.5669      0.00000
     40      40.2665      0.00000

 k-point    12 :       0.1818    0.1818    0.0000
  band No.  band energies     occupation 
      1      -0.3894      2.00000
      2       2.8241      2.00000
      3       2.8241      2.00000
      4       2.9471      2.00000
      5       3.6190      2.00000
      6       3.6190      2.00000
      7       3.6565      2.00000
      8       5.7627      2.00000
      9       6.4516      2.00000
     10       6.4553      2.00000
     11       7.4382      2.00010
     12       7.5016      2.00059
     13       7.5016      2.00059
     14       7.6832      2.02337
     15       8.0884      0.74983
     16       8.6061     -0.00075
     17       8.8399     -0.00000
     18       8.8399     -0.00000
     19       9.1814     -0.00000
     20       9.1814     -0.00000
     21       9.3167     -0.00000
     22      11.8396     -0.00000
     23      11.8396     -0.00000
     24      14.6843      0.00000
     25      20.0693      0.00000
     26      21.8648      0.00000
     27      23.2339      0.00000
     28      23.2339      0.00000
     29      24.5388      0.00000
     30      24.5388      0.00000
     31      25.5656      0.00000
     32      25.5656      0.00000
     33      27.2006      0.00000
     34      31.2260      0.00000
     35      32.9556      0.00000
     36      32.9602      0.00000
     37      33.7619      0.00000
     38      33.7619      0.00000
     39      37.1228      0.00000
     40      39.5040      0.00000

 k-point    13 :       0.2727    0.1818    0.0000
  band No.  band energies     occupation 
      1       0.1871      2.00000
      2       2.9319      2.00000
      3       3.1939      2.00000
      4       3.2657      2.00000
      5       3.8414      2.00000
      6       3.9100      2.00000
      7       3.9196      2.00000
      8       5.5309      2.00000
      9       6.5384      2.00000
     10       6.6189      2.00000
     11       6.6535      2.00000
     12       6.7869      2.00000
     13       6.9737      2.00000
     14       7.5172      2.00088
     15       8.2510     -0.04164
     16       8.3079     -0.07076
     17       8.5002     -0.00770
     18       8.6833     -0.00009
     19       8.7752     -0.00000
     20       9.1785     -0.00000
     21       9.2307     -0.00000
     22      10.6868     -0.00000
     23      12.9589     -0.00000
     24      15.8323      0.00000
     25      18.7857      0.00000
     26      21.7418      0.00000
     27      23.0547      0.00000
     28      23.0907      0.00000
     29      24.8931      0.00000
     30      25.1023      0.00000
     31      25.3379      0.00000
     32      26.8425      0.00000
     33      27.3973      0.00000
     34      30.3992      0.00000
     35      31.4113      0.00000
     36      33.8103      0.00000
     37      34.0091      0.00000
     38      35.7747      0.00000
     39      36.8964      0.00000
     40      38.2282      0.00000

 k-point    14 :       0.3636    0.1818    0.0000
  band No.  band energies     occupation 
      1       0.9290      2.00000
      2       2.8707      2.00000
      3       3.6022      2.00000
      4       3.6365      2.00000
      5       4.1340      2.00000
      6       4.2454      2.00000
      7       4.3121      2.00000
      8       5.2106      2.00000
      9       5.8275      2.00000
     10       6.0863      2.00000
     11       6.4972      2.00000
     12       6.5361      2.00000
     13       6.9644      2.00000
     14       7.4392      2.00011
     15       7.9850      1.57728
     16       8.1216      0.49361
     17       8.3022     -0.07090
     18       8.3827     -0.04416
     19       8.5006     -0.00764
     20       9.1756     -0.00000
     21       9.1923     -0.00000
     22       9.7981     -0.00000
     23      14.0771      0.00000
     24      17.1408      0.00000
     25      17.5076      0.00000
     26      21.5322      0.00000
     27      21.8319      0.00000
     28      22.7643      0.00000
     29      25.0601      0.00000
     30      26.2417      0.00000
     31      26.3116      0.00000
     32      26.8068      0.00000
     33      28.8245      0.00000
     34      29.4595      0.00000
     35      29.9982      0.00000
     36      34.3725      0.00000
     37      35.7058      0.00000
     38      35.9305      0.00000
     39      36.2694      0.00000
     40      38.0764      0.00000

 k-point    15 :       0.4545    0.1818    0.0000
  band No.  band energies     occupation 
      1       1.7434      2.00000
      2       2.4618      2.00000
      3       3.9059      2.00000
      4       3.9230      2.00000
      5       4.4776      2.00000
      6       4.6266      2.00000
      7       4.8183      2.00000
      8       4.8469      2.00000
      9       5.1509      2.00000
     10       5.4167      2.00000
     11       6.2959      2.00000
     12       6.3851      2.00000
     13       7.3603      2.00001
     14       7.6217      2.00844
     15       7.7800      2.06411
     16       7.8168      2.07083
     17       7.8326      2.06774
     18       7.9839      1.58489
     19       8.8140     -0.00000
     20       9.1742     -0.00000
     21       9.1777     -0.00000
     22       9.2146     -0.00000
     23      15.1901      0.00000
     24      16.3189      0.00000
     25      18.5467      0.00000
     26      20.0189      0.00000
     27      22.0442      0.00000
     28      22.3680      0.00000
     29      25.4165      0.00000
     30      26.0468      0.00000
     31      27.3781      0.00000
     32      27.4590      0.00000
     33      28.4469      0.00000
     34      28.6922      0.00000
     35      31.1494      0.00000
     36      33.5544      0.00000
     37      34.8871      0.00000
     38      35.5378      0.00000
     39      38.0899      0.00000
     40      40.6166      0.00000

 k-point    16 :       0.2727    0.2727    0.0000
  band No.  band energies     occupation 
      1       0.7300      2.00000
      2       3.3297      2.00000
      3       3.3297      2.00000
      4       3.5547      2.00000
      5       4.0991      2.00000
      6       4.0991      2.00000
      7       4.1166      2.00000
      8       5.4094      2.00000
      9       6.1973      2.00000
     10       6.1973      2.00000
     11       6.3932      2.00000
     12       6.4899      2.00000
     13       6.7864      2.00000
     14       7.4151      2.00005
     15       8.0737      0.87150
     16       8.3716     -0.04928
     17       8.3716     -0.04928
     18       8.4848     -0.01021
     19       8.7723     -0.00001
     20       8.7723     -0.00001
     21       9.0243     -0.00000
     22      11.6708     -0.00000
     23      11.6708     -0.00000
     24      16.8545      0.00000
     25      17.2574      0.00000
     26      21.8581      0.00000
     27      23.8209      0.00000
     28      23.8209      0.00000
     29      24.2830      0.00000
     30      24.2830      0.00000
     31      26.8223      0.00000
     32      26.8223      0.00000
     33      29.0265      0.00000
     34      29.2521      0.00000
     35      29.9142      0.00000
     36      33.1979      0.00000
     37      36.0843      0.00000
     38      36.0843      0.00000
     39      37.8298      0.00000
     40      39.0606      0.00000

 k-point    17 :       0.3636    0.2727    0.0000
  band No.  band energies     occupation 
      1       1.4267      2.00000
      2       3.2872      2.00000
      3       3.7858      2.00000
      4       3.9110      2.00000
      5       4.3297      2.00000
      6       4.3450      2.00000
      7       4.4508      2.00000
      8       5.1966      2.00000
      9       5.5089      2.00000
     10       5.8954      2.00000
     11       5.9008      2.00000
     12       6.3731      2.00000
     13       7.0396      2.00000
     14       7.3408      2.00000
     15       7.8106      2.07085
     16       8.0162      1.34842
     17       8.1071      0.60121
     18       8.3046     -0.07091
     19       8.7733     -0.00001
     20       8.8444     -0.00000
     21       8.8896     -0.00000
     22      10.6208     -0.00000
     23      12.6555     -0.00000
     24      15.9012      0.00000
     25      18.0656      0.00000
     26      22.0841      0.00000
     27      22.3037      0.00000
[...]
     34      31.5905      0.00000
     35      32.4094      0.00000
     36      33.6279      0.00000
     37      35.0602      0.00000
     38      35.0602      0.00000
     39      36.0318      0.00000
     40      39.1176      0.00000

 k-point    51 :       0.4545    0.3636    0.2727
  band No.  band energies     occupation 
      1       2.5632      2.00000
      2       2.9095      2.00000
      3       3.2751      2.00000
      4       3.3350      2.00000
      5       5.2310      2.00000
      6       5.2931      2.00000
      7       5.6378      2.00000
      8       6.0043      2.00000
      9       6.1959      2.00000
     10       6.2079      2.00000
     11       6.3411      2.00000
     12       6.3842      2.00000
     13       6.4161      2.00000
     14       6.5365      2.00000
     15       6.6564      2.00000
     16       6.6621      2.00000
     17       8.6940     -0.00007
     18       9.0347     -0.00000
     19       9.0899     -0.00000
     20       9.0925     -0.00000
     21       9.3761     -0.00000
     22      10.1384     -0.00000
     23      11.7948     -0.00000
     24      12.2555     -0.00000
     25      17.6494      0.00000
     26      18.1264      0.00000
     27      19.8602      0.00000
     28      20.8987      0.00000
     29      28.0580      0.00000
     30      28.5578      0.00000
     31      29.9845      0.00000
     32      30.8355      0.00000
     33      31.5813      0.00000
     34      32.0860      0.00000
     35      33.2393      0.00000
     36      34.8640      0.00000
     37      35.1673      0.00000
     38      36.0876      0.00000
     39      36.1375      0.00000
     40      37.8239      0.00000

 k-point    52 :       0.4545    0.4545    0.2727
  band No.  band energies     occupation 
      1       2.7505      2.00000
      2       2.9864      2.00000
      3       2.9864      2.00000
      4       3.1258      2.00000
      5       5.5203      2.00000
      6       5.6754      2.00000
      7       5.6754      2.00000
      8       5.9508      2.00000
      9       6.3280      2.00000
     10       6.4070      2.00000
     11       6.4070      2.00000
     12       6.4741      2.00000
     13       6.4744      2.00000
     14       6.5387      2.00000
     15       6.5387      2.00000
     16       6.5922      2.00000
     17       8.6994     -0.00006
     18       8.9099     -0.00000
     19       8.9099     -0.00000
     20       8.9625     -0.00000
     21       9.9490     -0.00000
     22      10.7243     -0.00000
     23      10.7243     -0.00000
     24      11.4298     -0.00000
     25      18.0967      0.00000
     26      18.8552      0.00000
     27      18.8552      0.00000
     28      19.7858      0.00000
     29      28.7208      0.00000
     30      29.3925      0.00000
     31      29.3925      0.00000
     32      30.1374      0.00000
     33      33.6151      0.00000
     34      33.6151      0.00000
     35      34.0238      0.00000
     36      34.7152      0.00000
     37      34.8375      0.00000
     38      36.2922      0.00000
     39      36.2922      0.00000
     40      37.2131      0.00000

 k-point    53 :       0.3636    0.3636    0.3636
  band No.  band energies     occupation 
      1       2.3615      2.00000
      2       3.0916      2.00000
      3       3.0916      2.00000
      4       3.0916      2.00000
      5       5.4333      2.00000
      6       5.4333      2.00000
      7       5.4333      2.00000
      8       6.2303      2.00000
      9       6.2303      2.00000
     10       6.5174      2.00000
     11       6.5233      2.00000
     12       6.5233      2.00000
     13       6.5233      2.00000
     14       6.5541      2.00000
     15       6.5541      2.00000
     16       6.5541      2.00000
     17       8.7966     -0.00000
     18       8.7966     -0.00000
     19       9.2681     -0.00000
     20       9.2681     -0.00000
     21       9.2681     -0.00000
     22      11.2610     -0.00000
     23      11.2610     -0.00000
     24      11.2610     -0.00000
     25      18.0651      0.00000
     26      18.0651      0.00000
     27      18.0651      0.00000
     28      20.7872      0.00000
     29      29.2823      0.00000
     30      29.2823      0.00000
     31      29.2823      0.00000
     32      31.5297      0.00000
     33      33.2898      0.00000
     34      33.2898      0.00000
     35      33.2898      0.00000
     36      34.2950      0.00000
     37      34.2950      0.00000
     38      34.2950      0.00000
     39      37.3555      0.00000
     40      37.3555      0.00000

 k-point    54 :       0.4545    0.3636    0.3636
  band No.  band energies     occupation 
      1       2.5470      2.00000
      2       2.7907      2.00000
      3       3.0060      2.00000
      4       3.0060      2.00000
      5       5.5699      2.00000
      6       5.5699      2.00000
      7       5.8098      2.00000
      8       6.0857      2.00000
      9       6.2256      2.00000
     10       6.3260      2.00000
     11       6.3955      2.00000
     12       6.3955      2.00000
     13       6.7705      2.00000
     14       6.8278      2.00000
     15       6.8498      2.00000
     16       6.8498      2.00000
     17       9.0679     -0.00000
     18       9.1055     -0.00000
     19       9.2002     -0.00000
     20       9.2002     -0.00000
     21       9.2303     -0.00000
     22      10.0089     -0.00000
     23      11.2401     -0.00000
     24      11.2401     -0.00000
     25      17.6096      0.00000
     26      17.6096      0.00000
     27      18.7728      0.00000
     28      19.6863      0.00000
     29      29.5368      0.00000
     30      29.5368      0.00000
     31      30.4396      0.00000
     32      31.1018      0.00000
     33      33.2243      0.00000
     34      33.2243      0.00000
     35      34.4239      0.00000
     36      35.4900      0.00000
     37      35.4900      0.00000
     38      35.7687      0.00000
     39      35.7846      0.00000
     40      37.6978      0.00000

 k-point    55 :       0.4545    0.4545    0.3636
  band No.  band energies     occupation 
      1       2.6085      2.00000
      2       2.7609      2.00000
      3       2.7609      2.00000
      4       2.8321      2.00000
      5       5.7826      2.00000
      6       5.8651      2.00000
      7       5.8651      2.00000
      8       6.0549      2.00000
      9       6.1483      2.00000
     10       6.2198      2.00000
     11       6.2198      2.00000
     12       6.2423      2.00000
     13       7.2158      2.00000
     14       7.2158      2.00000
     15       7.2211      2.00000
     16       7.2955      2.00000
     17       8.9956     -0.00000
     18       9.1549     -0.00000
     19       9.1549     -0.00000
     20       9.1632     -0.00000
     21       9.5037     -0.00000
     22      10.2097     -0.00000
     23      10.2097     -0.00000
     24      10.6485     -0.00000
     25      17.6023      0.00000
     26      18.0111      0.00000
     27      18.0111      0.00000
     28      18.7202      0.00000
     29      30.0524      0.00000
     30      30.3627      0.00000
     31      30.3627      0.00000
     32      30.8383      0.00000
     33      34.7781      0.00000
     34      34.7781      0.00000
     35      34.8223      0.00000
     36      35.4087      0.00000
     37      35.8438      0.00000
     38      36.2899      0.00000
     39      36.2899      0.00000
     40      37.5623      0.00000

 k-point    56 :       0.4545    0.4545    0.4545
  band No.  band energies     occupation 
      1       2.5691      2.00000
      2       2.6435      2.00000
      3       2.6435      2.00000
      4       2.6435      2.00000
      5       5.9798      2.00000
      6       5.9798      2.00000
      7       5.9798      2.00000
      8       6.0720      2.00000
      9       6.0720      2.00000
     10       6.1044      2.00000
     11       6.1044      2.00000
     12       6.1044      2.00000
     13       7.8205      2.07052
     14       7.8205      2.07052
     15       7.8205      2.07052
     16       7.9970      1.49346
     17       9.1833     -0.00000
     18       9.1833     -0.00000
     19       9.2410     -0.00000
     20       9.2410     -0.00000
     21       9.2410     -0.00000
     22       9.7337     -0.00000
     23       9.7337     -0.00000
     24       9.7337     -0.00000
     25      17.5938      0.00000
     26      17.5938      0.00000
     27      17.5938      0.00000
     28      17.9832      0.00000
     29      30.6611      0.00000
     30      30.6611      0.00000
     31      30.6611      0.00000
     32      30.8863      0.00000
     33      36.2878      0.00000
     34      36.2878      0.00000
     35      36.2878      0.00000
     36      36.3812      0.00000
     37      36.3812      0.00000
     38      36.3812      0.00000
     39      37.2094      0.00000
     40      37.2094      0.00000


--------------------------------------------------------------------------------------------------------


 soft charge-density along one line, spin component           1
         0         1         2         3         4         5         6         7         8         9
x    15.5867    0.0000   -0.0000   -0.0000   -0.4163    0.0000    0.0000    0.0000   -0.0987   -0.0000
x     0.0000   -0.0000    0.0281    0.0000    0.0000    0.0000
y    15.5867    0.0000   -0.0000   -0.0000   -0.4163    0.0000    0.0000    0.0000   -0.0987   -0.0000
y     0.0000   -0.0000    0.0281    0.0000    0.0000    0.0000
z    15.5867    0.0000   -0.0000   -0.0000   -0.4163    0.0000    0.0000    0.0000   -0.0987   -0.0000
z     0.0000   -0.0000    0.0281    0.0000    0.0000    0.0000
 total charge-density along one line
x    32.0000    0.0000    0.0000    0.0000    8.5358    0.0000   -0.0000    0.0000    0.8201    0.0000
x     0.0000    0.0000   -0.0049    0.0000    0.0000    0.0000    0.0039    0.0000   -0.0000   -0.0000
x     0.0009    0.0000    0.0000    0.0000   -0.0011   -0.0000    0.0000    0.0000    0.0010    0.0000
y    32.0000    0.0000    0.0000    0.0000    8.5358    0.0000   -0.0000    0.0000    0.8201   -0.0000
y     0.0000    0.0000   -0.0049    0.0000   -0.0000   -0.0000    0.0039    0.0000   -0.0000    0.0000
y     0.0009   -0.0000    0.0000    0.0000   -0.0011   -0.0000   -0.0000    0.0000    0.0010    0.0000
z    32.0000    0.0000   -0.0000    0.0000    8.5358    0.0000   -0.0000    0.0000    0.8201    0.0000
z    -0.0000    0.0000   -0.0049    0.0000   -0.0000    0.0000    0.0039    0.0000   -0.0000   -0.0000
z     0.0009    0.0000    0.0000    0.0000   -0.0011    0.0000    0.0000    0.0000    0.0010   -0.0000
 
 pseudopotential strength for first ion, spin component:           1
 -3.730  -0.000   0.000  -0.000  -0.000  -4.314  -0.000   0.000
 -0.000  -3.730  -0.000  -0.000  -0.000  -0.000  -4.314  -0.000
  0.000  -0.000  -3.712   0.000   0.000   0.000  -0.000  -4.296
 -0.000  -0.000   0.000  -3.730  -0.000  -0.000  -0.000   0.000
 -0.000  -0.000   0.000  -0.000  -3.712  -0.000  -0.000   0.000
 -4.314  -0.000   0.000  -0.000  -0.000  -4.854  -0.000   0.000
 -0.000  -4.314  -0.000  -0.000  -0.000  -0.000  -4.854  -0.000
  0.000  -0.000  -4.296   0.000   0.000   0.000  -0.000  -4.837
 -0.000  -0.000   0.000  -4.314  -0.000  -0.000  -0.000   0.000
 -0.000  -0.000   0.000  -0.000  -4.296  -0.000  -0.000   0.000
  0.000   0.000   0.000   0.000   0.000   0.000   0.000   0.000
  0.000   0.000   0.000   0.000   0.000   0.000   0.000   0.000
  0.000   0.000  -0.000  -0.000  -0.000   0.000   0.000  -0.000
 -0.000   0.000   0.000   0.000  -0.000  -0.000   0.000   0.000
  0.000  -0.000  -0.000   0.000   0.000   0.000  -0.000  -0.000
  0.000   0.000  -0.000  -0.000  -0.000   0.000   0.000  -0.000
 -0.000   0.000   0.000   0.000  -0.000  -0.000   0.000   0.000
  0.000  -0.000  -0.000   0.000   0.000   0.000  -0.000  -0.000
 total augmentation occupancy for first ion, spin component:           1
  1.480   0.000   0.000  -0.000   0.000  -1.104  -0.000   0.000   0.000  -0.000   0.000   0.000  -0.000   0.000   0.000  -0.000
 -0.000   1.480   0.000  -0.000   0.000  -0.000  -1.104   0.000  -0.000   0.000   0.000  -0.000  -0.000   0.000   0.000   0.000
  0.000   0.000   2.590   0.000  -0.000  -0.000  -0.000  -1.756   0.000   0.000   0.000  -0.000  -0.000  -0.000   0.000  -0.000
 -0.000  -0.000   0.000   1.480  -0.000  -0.000   0.000   0.000  -1.104  -0.000  -0.000  -0.000   0.000  -0.000   0.000   0.000
  0.000   0.000   0.000   0.000   2.590  -0.000  -0.000   0.000  -0.000  -1.756   0.000   0.000   0.000   0.000   0.000  -0.000
 -1.104   0.000  -0.000  -0.000  -0.000   2.075   0.000  -0.000  -0.000  -0.000  -0.000   0.000   0.000   0.000   0.000   0.000
 -0.000  -1.104  -0.000   0.000  -0.000  -0.000   2.075  -0.000  -0.000   0.000   0.000   0.000  -0.000   0.000   0.000  -0.000
  0.000   0.000  -1.756  -0.000   0.000  -0.000  -0.000   2.306   0.000   0.000  -0.000   0.000   0.000   0.000  -0.000   0.000
 -0.000   0.000  -0.000  -1.104   0.000  -0.000  -0.000   0.000   2.075   0.000  -0.000  -0.000  -0.000  -0.000  -0.000   0.000
 -0.000   0.000   0.000  -0.000  -1.756  -0.000   0.000  -0.000  -0.000   2.306   0.000   0.000  -0.000  -0.000  -0.000  -0.000
  0.000  -0.000   0.000   0.000   0.000  -0.000   0.000  -0.000  -0.000   0.000   2.999  -0.358   0.000   0.000   0.000   0.000
  0.000  -0.000  -0.000   0.000   0.000  -0.000   0.000   0.000  -0.000  -0.000  -0.358   0.048   0.000  -0.000   0.000   0.000
  0.000  -0.000  -0.000  -0.000   0.000   0.000  -0.000  -0.000  -0.000   0.000  -0.000   0.000   0.402   0.000   0.000  -0.033
  0.000   0.000  -0.000  -0.000  -0.000  -0.000  -0.000  -0.000  -0.000   0.000  -0.000  -0.000   0.000   0.402   0.000  -0.000
 -0.000  -0.000  -0.000   0.000   0.000  -0.000   0.000   0.000  -0.000  -0.000   0.000  -0.000   0.000  -0.000   0.402  -0.000
  0.000   0.000   0.000   0.000  -0.000   0.000  -0.000  -0.000  -0.000   0.000  -0.000  -0.000  -0.033  -0.000   0.000   0.003
  0.000   0.000   0.000  -0.000  -0.000   0.000  -0.000   0.000  -0.000   0.000   0.000   0.000  -0.000  -0.033   0.000  -0.000
 -0.000  -0.000   0.000  -0.000  -0.000   0.000  -0.000   0.000   0.000  -0.000  -0.000   0.000  -0.000  -0.000  -0.033  -0.000


------------------------ aborting loop because EDIFF is reached ----------------------------------------


    CHARGE:  cpu time    0.0364: real time    0.0364
    FORLOC:  cpu time    0.0004: real time    0.0004
    FORNL :  cpu time    0.2152: real time    0.2153
    STRESS:  cpu time    0.2570: real time    0.2570
    FORCOR:  cpu time    0.0051: real time    0.0051
    FORHAR:  cpu time    0.0012: real time    0.0012
    MIXING:  cpu time    0.0003: real time    0.0003

  FORCE on cell =-STRESS in cart. coord.  units (eV):
  Direction    XX          YY          ZZ          XY          YZ          ZX
  --------------------------------------------------------------------------------------
  Alpha Z   300.49900   300.49900   300.49900
  Ewald    -846.88427  -846.88427  -846.88427    -0.00000     0.00000     0.00000
  Hartree   105.32621   105.32621   105.32621    -0.00000    -0.00000    -0.00000
  E(xc)    -159.18889  -159.18889  -159.18889     0.00000    -0.00000     0.00000
  Local     254.03113   254.03113   254.03113     0.00000    -0.00000    -0.00000
  n-local  -102.26050  -102.31714   -97.06939     4.18862     1.35781     1.56879
  augment   150.71334   150.71334   150.71334     0.00000    -0.00000     0.00000
  Kinetic   321.08904   300.99150   292.53718     1.60801     6.63416     5.20372
  Fock        0.00000     0.00000     0.00000     0.00000     0.00000     0.00000
  -------------------------------------------------------------------------------------
  Total       8.82008     8.82008     8.82008    -0.00000    -0.00000     0.00000
  in kB     384.00917   384.00917   384.00917    -0.00000    -0.00000     0.00000
  external pressure =      384.01 kB  Pullay stress =        0.00 kB


 VOLUME and BASIS-vectors are now :
 -----------------------------------------------------------------------------
  energy-cutoff  :      300.00
  volume of cell :       36.80
      direct lattice vectors                 reciprocal lattice vectors
     3.326191066  0.000000000  0.000000000     0.300644184  0.000000000  0.000000000
     0.000000000  3.326191066  0.000000000     0.000000000  0.300644184  0.000000000
     0.000000000  0.000000000  3.326191066     0.000000000  0.000000000  0.300644184

  length of vectors
     3.326191066  3.326191066  3.326191066     0.300644184  0.300644184  0.300644184


 FORCES acting on ions
    electron-ion (+dipol)            ewald-force                    non-local-force                 convergence-correction
 -----------------------------------------------------------------------------------------------
   -.659E-13 -.167E-13 -.152E-13   -.931E-14 -.294E-14 0.379E-14   -.116E-22 -.775E-23 -.200E-23   -.251E-13 -.196E-13 0.282E-14
   0.146E-12 0.188E-12 -.153E-13   -.795E-14 0.337E-14 0.376E-14   0.536E-23 0.478E-23 -.322E-24   -.307E-13 -.425E-14 0.283E-14
   0.147E-12 -.201E-13 0.195E-12   0.139E-13 -.471E-14 -.279E-14   0.517E-23 -.237E-24 0.452E-23   -.271E-13 -.603E-14 -.177E-13
   -.622E-13 0.179E-12 0.188E-12   0.114E-14 0.160E-14 -.282E-14   0.122E-24 -.879E-24 -.276E-24   -.225E-13 0.729E-14 -.107E-13
 -----------------------------------------------------------------------------------------------
   0.165E-12 0.331E-12 0.352E-12   -.227E-14 -.268E-14 0.194E-14   -.958E-24 -.409E-23 0.192E-23   -.105E-12 -.225E-13 -.228E-13
 
 
 POSITION                                       TOTAL-FORCE (eV/Angst)
 -----------------------------------------------------------------------------------
      0.00000      0.00000      0.00000         0.000000     -0.000000     -0.000000
      1.66310      1.66310      0.00000         0.000000     -0.000000     -0.000000
      1.66310      0.00000      1.66310        -0.000000     -0.000000      0.000000
      0.00000      1.66310      1.66310        -0.000000      0.000000      0.000000
 -----------------------------------------------------------------------------------
    total drift:                                0.000000      0.000000      0.000000


--------------------------------------------------------------------------------------------------------



  FREE ENERGIE OF THE ION-ELECTRON SYSTEM (eV)
  ---------------------------------------------------
  free  energy   TOTEN  =       -31.89320163 eV

  energy  without entropy=      -31.90075459  energy(sigma->0) =      -31.89571928
 


--------------------------------------------------------------------------------------------------------


    POTLOK:  cpu time    0.0088: real time    0.0088


--------------------------------------------------------------------------------------------------------


 writing wavefunctions
     LOOP+:  cpu time    9.2177: real time    9.2394
    4ORBIT:  cpu time    0.0000: real time    0.0000

 total amount of memory used by VASP MPI-rank0    54127. kBytes
=======================================================================

   base      :      30000. kBytes
   nonl-proj :       3747. kBytes
   grid      :       1216. kBytes
   one-center:         62. kBytes
   wavefun   :      19102. kBytes
 
  
  
 General timing and accounting informations for this job:
 ========================================================
  
                  Total CPU time used (sec):        9.449
                            User time (sec):        9.413
                          System time (sec):        0.036
                         Elapsed time (sec):        9.459
  
                   Maximum memory used (kb):       59664.
                   Average memory used (kb):          N/A
  
                          Minor page faults:         8438
                          Major page faults:            0
                 Voluntary context switches:           26
