unknown system                          
   1.00000000000000     
     3.866000    0.000000    0.000000
     0.000000    3.866000    0.000000
     0.000000    0.000000    3.866000
   Pd   Ir   Pt   Cu
     1     1     1     1
Direct
  0.000000  0.000000  0.000000
  0.500000  0.500000  0.000000
  0.500000  0.000000  0.500000
  0.000000  0.500000  0.500000
 
   28   28   28
  355.38      334.63      282.88      221.22      163.48      112.44      69.354      39.077      23.243      15.834    
  12.483      10.486      9.4487      9.6096      9.9439      9.6096      9.4487      10.486      12.483      15.834    
  23.243      39.077      69.354      112.44      163.48      221.22      282.88      334.63      334.74      315.27    
  266.65      208.52      153.98      105.86      65.559      37.476      22.742      15.685      12.485      10.568    
  9.5557      9.6694      9.9661      9.6694      9.5557      10.568      12.485      15.685      22.742      37.476    
  65.559      105.86      153.98      208.52      266.65      315.27      282.34      266.07      225.24      176.03    
  129.60      89.065      55.973      33.489      21.463      15.392      12.650      11.019      10.143      10.185    
  10.402      10.185      10.143      11.019      12.650      15.392      21.463      33.489      55.973      89.065    
  129.60      176.03      225.24      266.07      218.27      205.79      174.24      135.80      99.505      68.605    
  44.567      28.838      19.913      15.276      13.270      12.168      11.622      11.686      11.844      11.686    
  11.622      12.168      13.270      15.276      19.913      28.838      44.567      68.605      99.505      135.80    
  174.24      205.79      157.88      148.87      125.96      97.881      71.632      50.258      34.722      24.800    
  18.646      15.653      14.585      14.222      14.211      14.465      14.633      14.465      14.211      14.222    
  14.585      15.653      18.646      24.800      34.722      50.258      71.632      97.881      125.96      148.87    
  106.46      100.48      85.260      66.667      49.692      36.620      27.675      21.685      18.151      16.891    
  16.984      17.618      18.409      19.113      19.408      19.113      18.409      17.618      16.984      16.891    
  18.151      21.685      27.675      36.620      49.692      66.667      85.260      100.48      65.479      62.124    
  53.620      43.378      34.303      27.571      22.828      19.855      18.852      19.468      21.088      23.288    
  25.671      27.591      28.337      27.591      25.671      23.288      21.088      19.468      18.852      19.855    
  22.828      27.571      34.303      43.378      53.620      62.124      37.431      36.021      32.479      28.267    
  24.506      21.534      19.780      19.604      21.002      23.763      27.852      32.976      38.293      42.429    
  44.004      42.429      38.293      32.976      27.852      23.763      21.002      19.604      19.780      21.534    
  24.506      28.267      32.479      36.021      22.394      21.953      20.821      19.435      18.296      17.887    
  18.653      20.874      24.655      30.303      37.792      46.557      55.263      61.862      64.345      61.862    
  55.263      46.557      37.792      30.303      24.655      20.874      18.653      17.887      18.296      19.435    
  20.821      21.953      15.050      14.931      14.707      14.671      15.124      16.436      19.073      23.403    
  29.993      38.929      49.707      61.451      72.644      80.975      84.092      80.975      72.644      61.451    
  49.707      38.929      29.993      23.403      19.073      16.436      15.124      14.671      14.707      14.931    
  11.636      11.650      11.842      12.494      13.855      16.307      20.425      27.064      36.819      48.917    
  62.132      75.531      87.955      97.218      100.71      97.218      87.955      75.531      62.132      48.917    
  36.819      27.064      20.425      16.307      13.855      12.494      11.842      11.650      9.6538      9.7339    
  10.170      11.293      13.333      16.713      22.266      31.515      44.569      59.519      74.473      88.889    
  102.37      112.78      116.81      112.78      102.37      88.889      74.473      59.519      44.569      31.515    
  22.266      16.713      13.333      11.293      10.170      9.7339      8.6793      8.7712      9.3046      10.694    
  13.190      17.273      24.214      36.028      52.166      69.628      86.151      101.94      117.41      130.01    
  135.03      130.01      117.41      101.94      86.151      69.628      52.166      36.028      24.214      17.273    
  13.190      10.694      9.3046      8.7712      8.8582      8.8965      9.3362      10.707      13.332      17.780    
  25.753      39.496      57.918      77.262      95.173      112.60      130.50      145.64      151.77      145.64    
  130.50      112.60      95.173      77.262      57.918      39.496      25.753      17.780      13.332      10.707    
  9.3362      8.8965      9.1848      9.1842      9.5387      10.838      13.451      17.995      26.345      40.810    
  60.088      80.152      98.653      116.85      135.89      152.19      158.82      152.19      135.89      116.85    
  98.653      80.152      60.088      40.810      26.345      17.995      13.451      10.838      9.5387      9.1842    
  8.8582      8.8965      9.3362      10.707      13.332      17.780      25.753      39.496      57.918      77.262    
  95.173      112.60      130.50      145.64      151.77      145.64      130.50      112.60      95.173      77.262    
  57.918      39.496      25.753      17.780      13.332      10.707      9.3362      8.8965      8.6793      8.7712    
  9.3046      10.694      13.190      17.273      24.214      36.028      52.166      69.628      86.151      101.94    
  117.41      130.01      135.03      130.01      117.41      101.94      86.151      69.628      52.166      36.028    
  24.214      17.273      13.190      10.694      9.3046      8.7712      9.6538      9.7339      10.170      11.293    
  13.333      16.713      22.266      31.515      44.569      59.519      74.473      88.889      102.37      112.78    
  116.81      112.78      102.37      88.889      74.473      59.519      44.569      31.515      22.266      16.713    
  13.333      11.293      10.170      9.7339      11.636      11.650      11.842      12.494      13.855      16.307    
  20.425      27.064      36.819      48.917      62.132      75.531      87.955      97.218      100.71      97.218    
  87.955      75.531      62.132      48.917      36.819      27.064      20.425      16.307      13.855      12.494    
  11.842      11.650      15.050      14.931      14.707      14.671      15.124      16.436      19.073      23.403    
  29.993      38.929      49.707      61.451      72.644      80.975      84.092      80.975      72.644      61.451    
  49.707      38.929      29.993      23.403      19.073      16.436      15.124      14.671      14.707      14.931    
  22.394      21.953      20.821      19.435      18.296      17.887      18.653      20.874      24.655      30.303    
  37.792      46.557      55.263      61.862      64.345      61.862      55.263      46.557      37.792      30.303    
  24.655      20.874      18.653      17.887      18.296      19.435      20.821      21.953      37.431      36.021    
  32.479      28.267      24.506      21.534      19.780      19.604      21.002      23.763      27.852      32.976    
  38.293      42.429      44.004      42.429      38.293      32.976      27.852      23.763      21.002      19.604    
  19.780      21.534      24.506      28.267      32.479      36.021      65.479      62.124      53.620      43.378    
  34.303      27.571      22.828      19.855      18.852      19.468      21.088      23.288      25.671      27.591    
  28.337      27.591      25.671      23.288      21.088      19.468      18.852      19.855      22.828      27.571    
  34.303      43.378      53.620      62.124      106.46      100.48      85.260      66.667      49.692      36.620    
  27.675      21.685      18.151      16.891      16.984      17.618      18.409      19.113      19.408      19.113    
  18.409      17.618      16.984      16.891      18.151      21.685      27.675      36.620      49.692      66.667    
  85.260      100.48      157.88      148.87      125.96      97.881      71.632      50.258      34.722      24.800    
  18.646      15.653      14.585      14.222      14.211      14.465      14.633      14.465      14.211      14.222    
  14.585      15.653      18.646      24.800      34.722      50.258      71.632      97.881      125.96      148.87    
  218.27      205.79      174.24      135.80      99.505      68.605      44.567      28.838      19.913      15.276    
  13.270      12.168      11.622      11.686      11.844      11.686      11.622      12.168      13.270      15.276    
  19.913      28.838      44.567      68.605      99.505      135.80      174.24      205.79      282.34      266.07    
  225.24      176.03      129.60      89.065      55.973      33.489      21.463      15.392      12.650      11.019    
  10.143      10.185      10.402      10.185      10.143      11.019      12.650      15.392      21.463      33.489    
  55.973      89.065      129.60      176.03      225.24      266.07      334.74      315.27      266.65      208.52    
  153.98      105.86      65.559      37.476      22.742      15.685      12.485      10.568      9.5557      9.6694    
  9.9661      9.6694      9.5557      10.568      12.485      15.685      22.742      37.476      65.559      105.86    
  153.98      208.52      266.65      315.27      335.10      315.73      267.28      209.23      154.56      106.20    
  65.683      37.497      22.737      15.670      12.449      10.499      9.4490      9.5323      9.8173      9.5323    
  9.4490      10.499      12.449      15.670      22.737      37.497      65.683      106.20      154.56      209.23    
  267.28      315.73      316.45      298.21      252.52      197.61      145.80      100.12      62.181      36.023    
  22.263      15.535      12.461      10.593      9.5715      9.6149      9.8663      9.6149      9.5715      10.593    
  12.461      15.535      22.263      36.023      62.181      100.12      145.80      197.61      252.52      298.21    
  268.71      253.32      214.58      167.65      123.22      84.546      53.320      32.341      21.046      15.273    
  12.647      11.063      10.184      10.172      10.354      10.172      10.184      11.063      12.647      15.273    
  21.046      32.341      53.320      84.546      123.22      167.65      214.58      253.32      209.35      197.40    
  167.11      130.08      95.079      65.471      42.736      28.014      19.567      15.178      13.271      12.208    
  11.661      11.687      11.819      11.687      11.661      12.208      13.271      15.178      19.567      28.014    
  42.736      65.471      95.079      130.08      167.11      197.40      152.10      143.40      121.26      94.088    
  68.729      48.247      33.547      24.190      18.354      15.546      14.552      14.213      14.195      14.418    
  14.566      14.418      14.195      14.213      14.552      15.546      18.354      24.190      33.547      48.247    
  68.729      94.088      121.26      143.40      102.48      96.723      82.047      64.133      47.832      35.374    
  26.901      21.194      17.877      16.729      16.856      17.487      18.252      18.917      19.192      18.917    
  18.252      17.487      16.856      16.729      17.877      21.194      26.901      35.374      47.832      64.133    
  82.047      96.723      62.917      59.712      51.592      41.825      33.191      26.791      22.248      19.445    
  18.547      19.191      20.780      22.891      25.148      26.953      27.653      26.953      25.148      22.891    
  20.780      19.191      18.547      19.445      22.248      26.791      33.191      41.825      51.592      59.712    
  36.170      34.836      31.482      27.481      23.872      21.007      19.348      19.222      20.612      23.288    
  27.197      32.061      37.084      40.979      42.460      40.979      37.084      32.061      27.197      23.288    
  20.612      19.222      19.348      21.007      23.872      27.481      31.482      34.836      21.919      21.494    
  20.396      19.051      17.951      17.561      18.310      20.470      24.117      29.532      36.692      45.033    
  53.275      59.495      61.830      59.495      53.275      45.033      36.692      29.532      24.117      20.470    
  18.310      17.561      17.951      19.051      20.396      21.494      14.841      14.735      14.539      14.520    
  14.964      16.226      18.763      22.928      29.260      37.878      48.266      59.506      70.113      77.940    
  80.854      77.940      70.113      59.506      48.266      37.878      29.260      22.928      18.763      16.226    
  14.964      14.520      14.539      14.735      11.493      11.527      11.760      12.437      13.777      16.148    
  20.115      26.485      35.913      47.704      60.582      73.478      85.205      93.802      97.014      93.802    
  85.205      73.478      60.582      47.704      35.913      26.485      20.115      16.148      13.777      12.437    
  11.760      11.527      9.4627      9.5742      10.077      11.249      13.280      16.572      21.924      30.830    
  43.549      58.280      73.007      86.900      99.468      108.93      112.54      108.93      99.468      86.900    
  73.007      58.280      43.549      30.830      21.924      16.572      13.280      11.249      10.077      9.5742    
  8.3545      8.4921      9.1271      10.604      13.120      17.129      23.829      35.256      51.082      68.433    
  84.810      99.962      114.15      125.37      129.78      125.37      114.15      99.962      84.810      68.433    
  51.082      35.256      23.829      17.129      13.120      10.604      9.1271      8.4921      8.3542      8.4529    
  9.0310      10.533      13.218      17.616      25.328      38.665      56.805      76.113      93.901      110.52    
  126.76      140.10      145.44      140.10      126.76      110.52      93.901      76.113      56.805      38.665    
  25.328      17.616      13.218      10.533      9.0310      8.4529      8.5918      8.6584      9.1684      10.620    
  13.313      17.819      25.904      39.958      58.965      79.019      97.397      114.71      131.92      146.24    
  152.01      146.24      131.92      114.71      97.397      79.019      58.965      39.958      25.904      17.819    
  13.313      10.620      9.1684      8.6584      8.3542      8.4529      9.0310      10.533      13.218      17.616    
  25.328      38.665      56.805      76.113      93.901      110.52      126.76      140.10      145.44      140.10    
  126.76      110.52      93.901      76.113      56.805      38.665      25.328      17.616      13.218      10.533    
  9.0310      8.4529      8.3545      8.4921      9.1271      10.604      13.120      17.129      23.829      35.256    
  51.082      68.433      84.810      99.962      114.15      125.37      129.78      125.37      114.15      99.962    
  84.810      68.433      51.082      35.256      23.829      17.129      13.120      10.604      9.1271      8.4921    
  9.4627      9.5742      10.077      11.249      13.280      16.572      21.924      30.830      43.549      58.280    
  73.007      86.900      99.468      108.93      112.54      108.93      99.468      86.900      73.007      58.280    
  43.549      30.830      21.924      16.572      13.280      11.249      10.077      9.5742      11.493      11.527    
  11.760      12.437      13.777      16.148      20.115      26.485      35.913      47.704      60.582      73.478    
  85.205      93.802      97.014      93.802      85.205      73.478      60.582      47.704      35.913      26.485    
  20.115      16.148      13.777      12.437      11.760      11.527      14.841      14.735      14.539      14.520    
  14.964      16.226      18.763      22.928      29.260      37.878      48.266      59.506      70.113      77.940    
  80.854      77.940      70.113      59.506      48.266      37.878      29.260      22.928      18.763      16.226    
  14.964      14.520      14.539      14.735      21.919      21.494      20.396      19.051      17.951      17.561    
  18.310      20.470      24.117      29.532      36.692      45.033      53.275      59.495      61.830      59.495    
  53.275      45.033      36.692      29.532      24.117      20.470      18.310      17.561      17.951      19.051    
  20.396      21.494      36.170      34.836      31.482      27.481      23.872      21.007      19.348      19.222    
  20.612      23.288      27.197      32.061      37.084      40.979      42.460      40.979      37.084      32.061    
  27.197      23.288      20.612      19.222      19.348      21.007      23.872      27.481      31.482      34.836    
  62.917      59.712      51.592      41.825      33.191      26.791      22.248      19.445      18.547      19.191    
  20.780      22.891      25.148      26.953      27.653      26.953      25.148      22.891      20.780      19.191    
  18.547      19.445      22.248      26.791      33.191      41.825      51.592      59.712      102.48      96.723    
  82.047      64.133      47.832      35.374      26.901      21.194      17.877      16.729      16.856      17.487    
  18.252      18.917      19.192      18.917      18.252      17.487      16.856      16.729      17.877      21.194    
  26.901      35.374      47.832      64.133      82.047      96.723      152.10      143.40      121.26      94.088    
  68.729      48.247      33.547      24.190      18.354      15.546      14.552      14.213      14.195      14.418    
  14.566      14.418      14.195      14.213      14.552      15.546      18.354      24.190      33.547      48.247    
  68.729      94.088      121.26      143.40      209.35      197.40      167.11      130.08      95.079      65.471    
  42.736      28.014      19.567      15.178      13.271      12.208      11.661      11.687      11.819      11.687    
  11.661      12.208      13.271      15.178      19.567      28.014      42.736      65.471      95.079      130.08    
  167.11      197.40      268.71      253.32      214.58      167.65      123.22      84.546      53.320      32.341    
  21.046      15.273      12.647      11.063      10.184      10.172      10.354      10.172      10.184      11.063    
  12.647      15.273      21.046      32.341      53.320      84.546      123.22      167.65      214.58      253.32    
  316.45      298.21      252.52      197.61      145.80      100.12      62.181      36.023      22.263      15.535    
  12.461      10.593      9.5715      9.6149      9.8663      9.6149      9.5715      10.593      12.461      15.535    
  22.263      36.023      62.181      100.12      145.80      197.61      252.52      298.21      283.35      267.38    
  227.11      178.13      131.31      90.019      56.295      33.523      21.436      15.343      12.559      10.862    
  9.9084      9.8873      10.080      9.8873      9.9084      10.862      12.559      15.343      21.436      33.523    
  56.295      90.019      131.31      178.13      227.11      267.38      269.38      254.19      215.84      169.07    
  124.36      85.180      53.527      32.358      21.024      15.237      12.588      10.966      10.043      9.9950    
  10.162      9.9950      10.043      10.966      12.588      15.237      21.024      32.358      53.527      85.180    
  124.36      169.07      215.84      254.19      232.69      219.54      186.17      145.26      106.23      72.686    
  46.484      29.419      19.963      15.032      12.790      11.428      10.645      10.568      10.685      10.568    
  10.645      11.428      12.790      15.032      19.963      29.419      46.484      72.686      106.23      145.26    
  186.17      219.54      184.68      174.15      147.33      114.29      83.049      57.146      37.981      25.870    
  18.666      14.968      13.374      12.486      12.011      11.991      12.078      11.991      12.011      12.486    
  13.374      14.968      18.666      25.870      37.981      57.146      83.049      114.29      147.33      174.15    
  135.40      127.63      107.78      83.360      60.724      42.863      30.462      22.548      17.595      15.294    
  14.521      14.287      14.294      14.474      14.588      14.474      14.294      14.287      14.521      15.294    
  17.595      22.548      30.462      42.863      60.724      83.360      107.78      127.63      90.975      85.868    
  72.857      57.016      42.741      32.038      24.819      19.889      17.165      16.319      16.544      17.179    
  17.897      18.489      18.725      18.489      17.897      17.179      16.544      16.319      17.165      19.889    
  24.819      32.038      42.741      57.016      72.857      85.868      55.750      52.985      45.985      37.592    
  30.203      24.683      20.691      18.363      17.742      18.458      19.974      21.865      23.815      25.343    
  25.929      25.343      23.815      21.865      19.974      18.458      17.742      18.363      20.691      24.683    
  30.203      37.592      45.985      52.985      32.762      31.637      28.795      25.357      22.142      19.598    
  18.204      18.208      19.568      22.025      25.463      29.652      33.919      37.199      38.440      37.199    
  33.919      29.652      25.463      22.025      19.568      18.208      18.204      19.598      22.142      25.357    
  28.795      31.637      20.564      20.180      19.191      17.986      17.014      16.695      17.402      19.385    
  22.669      27.452      33.723      40.947      47.988      53.238      55.197      53.238      47.988      40.947    
  33.723      27.452      22.669      19.385      17.402      16.695      17.014      17.986      19.191      20.180    
  14.260      14.183      14.050      14.077      14.506      15.650      17.926      21.648      27.253      34.957    
  44.258      54.172      63.293      69.866      72.279      69.866      63.293      54.172      44.258      34.957    
  27.253      21.648      17.926      15.650      14.506      14.077      14.050      14.183      11.217      11.283    
  11.575      12.267      13.529      15.682      19.252      24.889      33.355      44.195      56.096      67.700    
  77.740      84.758      87.309      84.758      77.740      67.700      56.096      44.195      33.355      24.889    
  19.252      15.682      13.529      12.267      11.575      11.283      9.2829      9.4354      10.010      11.193    
  13.116      16.136      20.954      28.887      40.550      54.499      68.530      81.165      91.638      98.913    
  101.57      98.913      91.638      81.165      68.530      54.499      40.550      28.887      20.954      16.136    
  13.116      11.193      10.010      9.4354      8.0990      8.2924      9.0292      10.540      12.953      16.679    
  22.714      33.004      47.775      64.576      80.486      94.191      105.52      113.61      116.63      113.61    
  105.52      94.191      80.486      64.576      47.775      33.004      22.714      16.679      12.953      10.540    
  9.0292      8.2924      7.8565      8.0320      8.7621      10.354      12.983      17.125      24.088      36.197    
  53.309      72.236      89.645      104.48      117.02      126.29      129.83      126.29      117.02      104.48    
  89.645      72.236      53.309      36.197      24.088      17.125      12.983      10.354      8.7621      8.0320    
  7.9493      8.1037      8.7934      10.368      13.034      17.303      24.614      37.412      55.405      75.135    
  93.144      108.50      121.64      131.48      135.27      131.48      121.64      108.50      93.144      75.135    
  55.405      37.412      24.614      17.303      13.034      10.368      8.7934      8.1037      7.8565      8.0320    
  8.7621      10.354      12.983      17.125      24.088      36.197      53.309      72.236      89.645      104.48    
  117.02      126.29      129.83      126.29      117.02      104.48      89.645      72.236      53.309      36.197    
  24.088      17.125      12.983      10.354      8.7621      8.0320      8.0990      8.2924      9.0292      10.540    
  12.953      16.679      22.714      33.004      47.775      64.576      80.486      94.191      105.52      113.61    
  116.63      113.61      105.52      94.191      80.486      64.576      47.775      33.004      22.714      16.679    
  12.953      10.540      9.0292      8.2924      9.2829      9.4354      10.010      11.193      13.116      16.136    
  20.954      28.887      40.550      54.499      68.530      81.165      91.638      98.913      101.57      98.913    
  91.638      81.165      68.530      54.499      40.550      28.887      20.954      16.136      13.116      11.193    
  10.010      9.4354      11.217      11.283      11.575      12.267      13.529      15.682      19.252      24.889    
  33.355      44.195      56.096      67.700      77.740      84.758      87.309      84.758      77.740      67.700    
  56.096      44.195      33.355      24.889      19.252      15.682      13.529      12.267      11.575      11.283    
  14.260      14.183      14.050      14.077      14.506      15.650      17.926      21.648      27.253      34.957    
  44.258      54.172      63.293      69.866      72.279      69.866      63.293      54.172      44.258      34.957    
  27.253      21.648      17.926      15.650      14.506      14.077      14.050      14.183      20.564      20.180    
  19.191      17.986      17.014      16.695      17.402      19.385      22.669      27.452      33.723      40.947    
  47.988      53.238      55.197      53.238      47.988      40.947      33.723      27.452      22.669      19.385    
  17.402      16.695      17.014      17.986      19.191      20.180      32.762      31.637      28.795      25.357    
  22.142      19.598      18.204      18.208      19.568      22.025      25.463      29.652      33.919      37.199    
  38.440      37.199      33.919      29.652      25.463      22.025      19.568      18.208      18.204      19.598    
  22.142      25.357      28.795      31.637      55.750      52.985      45.985      37.592      30.203      24.683    
  20.691      18.363      17.742      18.458      19.974      21.865      23.815      25.343      25.929      25.343    
  23.815      21.865      19.974      18.458      17.742      18.363      20.691      24.683      30.203      37.592    
  45.985      52.985      90.975      85.868      72.857      57.016      42.741      32.038      24.819      19.889    
  17.165      16.319      16.544      17.179      17.897      18.489      18.725      18.489      17.897      17.179    
  16.544      16.319      17.165      19.889      24.819      32.038      42.741      57.016      72.857      85.868    
  135.40      127.63      107.78      83.360      60.724      42.863      30.462      22.548      17.595      15.294    
  14.521      14.287      14.294      14.474      14.588      14.474      14.294      14.287      14.521      15.294    
  17.595      22.548      30.462      42.863      60.724      83.360      107.78      127.63      184.68      174.15    
  147.33      114.29      83.049      57.146      37.981      25.870      18.666      14.968      13.374      12.486    
  12.011      11.991      12.078      11.991      12.011      12.486      13.374      14.968      18.666      25.870    
  37.981      57.146      83.049      114.29      147.33      174.15      232.69      219.54      186.17      145.26    
  106.23      72.686      46.484      29.419      19.963      15.032      12.790      11.428      10.645      10.568    
  10.685      10.568      10.645      11.428      12.790      15.032      19.963      29.419      46.484      72.686    
  106.23      145.26      186.17      219.54      269.38      254.19      215.84      169.07      124.36      85.180    
  53.527      32.358      21.024      15.237      12.588      10.966      10.043      9.9950      10.162      9.9950    
  10.043      10.966      12.588      15.237      21.024      32.358      53.527      85.180      124.36      169.07    
  215.84      254.19      219.43      207.39      176.68      138.57      101.70      69.742      44.873      28.809    
  19.825      15.179      13.154      12.017      11.429      11.456      11.599      11.456      11.429      12.017    
  13.154      15.179      19.825      28.809      44.873      69.742      101.70      138.57      176.68      207.39    
  210.25      198.65      169.05      132.29      96.812      66.353      42.960      27.979      19.486      15.091    
  13.174      12.094      11.526      11.533      11.657      11.533      11.526      12.094      13.174      15.091    
  19.486      27.979      42.960      66.353      96.812      132.29      169.05      198.65      185.03      174.68    
  148.18      115.26      83.800      57.504      38.050      25.835      18.611      14.912      13.320      12.436    
  11.968      11.953      12.041      11.953      11.968      12.436      13.320      14.912      18.611      25.835    
  38.050      57.504      83.800      115.26      148.18      174.68      149.44      140.92      119.09      92.033    