unknown system                          
   1.00000000000000     
     3.866000    0.000000    0.000000
     0.000000    3.866000    0.000000
     0.000000    0.000000    3.866000
   Pd   Ir   Pt   Cu
     1     1     1     1
Direct
  0.000000  0.000000  0.000000
  0.500000  0.500000  0.000000
  0.500000  0.000000  0.500000
  0.000000  0.500000  0.500000
 
   28   28   28
 0.35538329078E+03 0.33463062006E+03 0.28288266158E+03 0.22121560187E+03 0.16348496137E+03
 0.11243792934E+03 0.69353962846E+02 0.39076766285E+02 0.23243002346E+02 0.15834039586E+02
 0.12483443675E+02 0.10486267940E+02 0.94487281962E+01 0.96095568578E+01 0.99438681162E+01
 0.96095568578E+01 0.94487281962E+01 0.10486267940E+02 0.12483443675E+02 0.15834039586E+02
 0.23243002346E+02 0.39076766285E+02 0.69353962846E+02 0.11243792934E+03 0.16348496137E+03
 0.22121560187E+03 0.28288266158E+03 0.33463062006E+03 0.33473782563E+03 0.31527058890E+03
 0.26664658719E+03 0.20852407748E+03 0.15397873647E+03 0.10585980712E+03 0.65559257613E+02
 0.37476195172E+02 0.22741901965E+02 0.15685296093E+02 0.12484816029E+02 0.10568434009E+02
 0.95557132375E+01 0.96693854929E+01 0.99661029377E+01 0.96693854929E+01 0.95557132375E+01
 0.10568434009E+02 0.12484816029E+02 0.15685296093E+02 0.22741901965E+02 0.37476195172E+02
 0.65559257613E+02 0.10585980712E+03 0.15397873647E+03 0.20852407748E+03 0.26664658719E+03
 0.31527058890E+03 0.28233683631E+03 0.26607100223E+03 0.22524277250E+03 0.17602549605E+03
 0.12960289013E+03 0.89064918319E+02 0.55973380805E+02 0.33488937202E+02 0.21462751319E+02
 0.15392031934E+02 0.12649517438E+02 0.11019017132E+02 0.10143199525E+02 0.10185296579E+02
 0.10402474033E+02 0.10185296579E+02 0.10143199525E+02 0.11019017132E+02 0.12649517438E+02
 0.15392031934E+02 0.21462751319E+02 0.33488937202E+02 0.55973380805E+02 0.89064918319E+02
 0.12960289013E+03 0.17602549605E+03 0.22524277250E+03 0.26607100223E+03 0.21826888030E+03
 0.20578785031E+03 0.17423609197E+03 0.13580077794E+03 0.99505130928E+02 0.68605274738E+02
 0.44567308058E+02 0.28838126121E+02 0.19913390422E+02 0.15276059236E+02 0.13269894171E+02
 0.12167651214E+02 0.11621735283E+02 0.11686354940E+02 0.11844382773E+02 0.11686354940E+02
 0.11621735283E+02 0.12167651214E+02 0.13269894171E+02 0.15276059236E+02 0.19913390422E+02
 0.28838126121E+02 0.44567308058E+02 0.68605274738E+02 0.99505130928E+02 0.13580077794E+03
 0.17423609197E+03 0.20578785031E+03 0.15787696971E+03 0.14887059166E+03 0.12596126813E+03
 0.97881059416E+02 0.71632322904E+02 0.50258325166E+02 0.34721805352E+02 0.24800335990E+02
 0.18646376361E+02 0.15652820079E+02 0.14585316329E+02 0.14222422811E+02 0.14210855638E+02
 0.14465456305E+02 0.14632527463E+02 0.14465456305E+02 0.14210855638E+02 0.14222422811E+02
 0.14585316329E+02 0.15652820079E+02 0.18646376361E+02 0.24800335990E+02 0.34721805352E+02
 0.50258325166E+02 0.71632322904E+02 0.97881059416E+02 0.12596126813E+03 0.14887059166E+03
 0.10646023674E+03 0.10048396053E+03 0.85259558875E+02 0.66666894267E+02 0.49691684720E+02
 0.36620136555E+02 0.27675460153E+02 0.21684706303E+02 0.18150511941E+02 0.16890951347E+02
 0.16983834470E+02 0.17617510618E+02 0.18408711116E+02 0.19112649543E+02 0.19407569438E+02
 0.19112649543E+02 0.18408711116E+02 0.17617510618E+02 0.16983834470E+02 0.16890951347E+02
 0.18150511941E+02 0.21684706303E+02 0.27675460153E+02 0.36620136555E+02 0.49691684720E+02
 0.66666894267E+02 0.85259558875E+02 0.10048396053E+03 0.65479166592E+02 0.62124244085E+02
 0.53619542363E+02 0.43378085211E+02 0.34302976818E+02 0.27571326230E+02 0.22827671044E+02
 0.19854534052E+02 0.18852160011E+02 0.19468461558E+02 0.21087558427E+02 0.23287800062E+02
 0.25670576632E+02 0.27590609841E+02 0.28337288072E+02 0.27590609841E+02 0.25670576632E+02
 0.23287800062E+02 0.21087558427E+02 0.19468461558E+02 0.18852160011E+02 0.19854534052E+02
 0.22827671044E+02 0.27571326230E+02 0.34302976818E+02 0.43378085211E+02 0.53619542363E+02
 0.62124244085E+02 0.37430760633E+02 0.36021128937E+02 0.32479360524E+02 0.28267495454E+02
 0.24505929302E+02 0.21534284294E+02 0.19779990598E+02 0.19603962766E+02 0.21002053476E+02
 0.23762555481E+02 0.27852057167E+02 0.32975955357E+02 0.38293140726E+02 0.42428922770E+02
 0.44003825943E+02 0.42428922770E+02 0.38293140726E+02 0.32975955357E+02 0.27852057167E+02
 0.23762555481E+02 0.21002053476E+02 0.19603962766E+02 0.19779990598E+02 0.21534284294E+02
 0.24505929302E+02 0.28267495454E+02 0.32479360524E+02 0.36021128937E+02 0.22393862812E+02
 0.21953271436E+02 0.20820991279E+02 0.19434688656E+02 0.18296150742E+02 0.17886962811E+02
 0.18652799579E+02 0.20874127860E+02 0.24655146496E+02 0.30302603087E+02 0.37791676986E+02
 0.46556711520E+02 0.55263491094E+02 0.61862285761E+02 0.64345163830E+02 0.61862285761E+02
 0.55263491094E+02 0.46556711520E+02 0.37791676986E+02 0.30302603087E+02 0.24655146496E+02
 0.20874127860E+02 0.18652799579E+02 0.17886962811E+02 0.18296150742E+02 0.19434688656E+02
 0.20820991279E+02 0.21953271436E+02 0.15050272617E+02 0.14930897590E+02 0.14707459909E+02
 0.14670528902E+02 0.15123877743E+02 0.16435965740E+02 0.19073210897E+02 0.23402562897E+02
 0.29992737512E+02 0.38929393551E+02 0.49707456610E+02 0.61450717067E+02 0.72643941593E+02
 0.80975171268E+02 0.84091951258E+02 0.80975171268E+02 0.72643941593E+02 0.61450717067E+02
 0.49707456610E+02 0.38929393551E+02 0.29992737512E+02 0.23402562897E+02 0.19073210897E+02
 0.16435965740E+02 0.15123877743E+02 0.14670528902E+02 0.14707459909E+02 0.14930897590E+02
 0.11635682013E+02 0.11649924659E+02 0.11842193024E+02 0.12494257553E+02 0.13854739704E+02
 0.16306843822E+02 0.20425482097E+02 0.27064496385E+02 0.36818829545E+02 0.48917121387E+02
 0.62132186876E+02 0.75531489993E+02 0.87955028937E+02 0.97218131409E+02 0.10070946950E+03
 0.97218131409E+02 0.87955028937E+02 0.75531489993E+02 0.62132186876E+02 0.48917121387E+02
 0.36818829545E+02 0.27064496385E+02 0.20425482097E+02 0.16306843822E+02 0.13854739704E+02
 0.12494257553E+02 0.11842193024E+02 0.11649924659E+02 0.96537670505E+01 0.97338784213E+01
 0.10170086468E+02 0.11292733052E+02 0.13332660577E+02 0.16712835209E+02 0.22265899893E+02
 0.31515197042E+02 0.44569446011E+02 0.59519221025E+02 0.74473253447E+02 0.88888690666E+02
 0.10236949902E+03 0.11278353516E+03 0.11680908824E+03 0.11278353516E+03 0.10236949902E+03
 0.88888690666E+02 0.74473253447E+02 0.59519221025E+02 0.44569446011E+02 0.31515197042E+02
 0.22265899893E+02 0.16712835209E+02 0.13332660577E+02 0.11292733052E+02 0.10170086468E+02
 0.97338784213E+01 0.86792564706E+01 0.87711609815E+01 0.93046242087E+01 0.10694356817E+02
 0.13189819369E+02 0.17272732497E+02 0.24214089352E+02 0.36028256948E+02 0.52165944672E+02
 0.69628155244E+02 0.86151232762E+02 0.10194155252E+03 0.11741155084E+03 0.13001343191E+03
 0.13502798956E+03 0.13001343191E+03 0.11741155084E+03 0.10194155252E+03 0.86151232762E+02
 0.69628155244E+02 0.52165944672E+02 0.36028256948E+02 0.24214089352E+02 0.17272732497E+02
 0.13189819369E+02 0.10694356817E+02 0.93046242087E+01 0.87711609815E+01 0.88581761892E+01
 0.88964998944E+01 0.93361731628E+01 0.10707138760E+02 0.13332401219E+02 0.17780249540E+02
 0.25752652298E+02 0.39495913543E+02 0.57918496572E+02 0.77262359819E+02 0.95173067880E+02
 0.11259927078E+03 0.13050244550E+03 0.14564468005E+03 0.15177476055E+03 0.14564468005E+03
 0.13050244550E+03 0.11259927078E+03 0.95173067880E+02 0.77262359819E+02 0.57918496572E+02
 0.39495913543E+02 0.25752652298E+02 0.17780249540E+02 0.13332401219E+02 0.10707138760E+02
 0.93361731628E+01 0.88964998944E+01 0.91847521846E+01 0.91842007907E+01 0.95387482468E+01
 0.10837928036E+02 0.13451209342E+02 0.17994524191E+02 0.26344945031E+02 0.40810395267E+02
 0.60088353686E+02 0.80152087949E+02 0.98653024994E+02 0.11684972588E+03 0.13588834037E+03
 0.15218722606E+03 0.15881886073E+03 0.15218722606E+03 0.13588834037E+03 0.11684972588E+03
 0.98653024994E+02 0.80152087949E+02 0.60088353686E+02 0.40810395267E+02 0.26344945031E+02
 0.17994524191E+02 0.13451209342E+02 0.10837928036E+02 0.95387482468E+01 0.91842007907E+01
 0.88581761892E+01 0.88964998944E+01 0.93361731628E+01 0.10707138760E+02 0.13332401219E+02
 0.17780249540E+02 0.25752652298E+02 0.39495913543E+02 0.57918496572E+02 0.77262359819E+02
 0.95173067880E+02 0.11259927078E+03 0.13050244550E+03 0.14564468005E+03 0.15177476055E+03
 0.14564468005E+03 0.13050244550E+03 0.11259927078E+03 0.95173067880E+02 0.77262359819E+02
 0.57918496572E+02 0.39495913543E+02 0.25752652298E+02 0.17780249540E+02 0.13332401219E+02
 0.10707138760E+02 0.93361731628E+01 0.88964998944E+01 0.86792564706E+01 0.87711609815E+01
 0.93046242087E+01 0.10694356817E+02 0.13189819369E+02 0.17272732497E+02 0.24214089352E+02
 0.36028256948E+02 0.52165944672E+02 0.69628155244E+02 0.86151232762E+02 0.10194155252E+03
 0.11741155084E+03 0.13001343191E+03 0.13502798956E+03 0.13001343191E+03 0.11741155084E+03
 0.10194155252E+03 0.86151232762E+02 0.69628155244E+02 0.52165944672E+02 0.36028256948E+02
 0.24214089352E+02 0.17272732497E+02 0.13189819369E+02 0.10694356817E+02 0.93046242087E+01
 0.87711609815E+01 0.96537670505E+01 0.97338784213E+01 0.10170086468E+02 0.11292733052E+02
 0.13332660577E+02 0.16712835209E+02 0.22265899893E+02 0.31515197042E+02 0.44569446011E+02
 0.59519221025E+02 0.74473253447E+02 0.88888690666E+02 0.10236949902E+03 0.11278353516E+03
 0.11680908824E+03 0.11278353516E+03 0.10236949902E+03 0.88888690666E+02 0.74473253447E+02
 0.59519221025E+02 0.44569446011E+02 0.31515197042E+02 0.22265899893E+02 0.16712835209E+02
 0.13332660577E+02 0.11292733052E+02 0.10170086468E+02 0.97338784213E+01 0.11635682013E+02
 0.11649924659E+02 0.11842193024E+02 0.12494257553E+02 0.13854739704E+02 0.16306843822E+02
 0.20425482097E+02 0.27064496385E+02 0.36818829545E+02 0.48917121387E+02 0.62132186876E+02
 0.75531489993E+02 0.87955028937E+02 0.97218131409E+02 0.10070946950E+03 0.97218131409E+02
 0.87955028937E+02 0.75531489993E+02 0.62132186876E+02 0.48917121387E+02 0.36818829545E+02
 0.27064496385E+02 0.20425482097E+02 0.16306843822E+02 0.13854739704E+02 0.12494257553E+02
 0.11842193024E+02 0.11649924659E+02 0.15050272617E+02 0.14930897590E+02 0.14707459909E+02
 0.14670528902E+02 0.15123877743E+02 0.16435965740E+02 0.19073210897E+02 0.23402562897E+02
 0.29992737512E+02 0.38929393551E+02 0.49707456610E+02 0.61450717067E+02 0.72643941593E+02
 0.80975171268E+02 0.84091951258E+02 0.80975171268E+02 0.72643941593E+02 0.61450717067E+02
 0.49707456610E+02 0.38929393551E+02 0.29992737512E+02 0.23402562897E+02 0.19073210897E+02
 0.16435965740E+02 0.15123877743E+02 0.14670528902E+02 0.14707459909E+02 0.14930897590E+02
 0.22393862812E+02 0.21953271436E+02 0.20820991279E+02 0.19434688656E+02 0.18296150742E+02
 0.17886962811E+02 0.18652799579E+02 0.20874127860E+02 0.24655146496E+02 0.30302603087E+02
 0.37791676986E+02 0.46556711520E+02 0.55263491094E+02 0.61862285761E+02 0.64345163830E+02
 0.61862285761E+02 0.55263491094E+02 0.46556711520E+02 0.37791676986E+02 0.30302603087E+02
 0.24655146496E+02 0.20874127860E+02 0.18652799579E+02 0.17886962811E+02 0.18296150742E+02
 0.19434688656E+02 0.20820991279E+02 0.21953271436E+02 0.37430760633E+02 0.36021128937E+02
 0.32479360524E+02 0.28267495454E+02 0.24505929302E+02 0.21534284294E+02 0.19779990598E+02
 0.19603962766E+02 0.21002053476E+02 0.23762555481E+02 0.27852057167E+02 0.32975955357E+02
 0.38293140726E+02 0.42428922770E+02 0.44003825943E+02 0.42428922770E+02 0.38293140726E+02
 0.32975955357E+02 0.27852057167E+02 0.23762555481E+02 0.21002053476E+02 0.19603962766E+02
 0.19779990598E+02 0.21534284294E+02 0.24505929302E+02 0.28267495454E+02 0.32479360524E+02
 0.36021128937E+02 0.65479166592E+02 0.62124244085E+02 0.53619542363E+02 0.43378085211E+02
 0.34302976818E+02 0.27571326230E+02 0.22827671044E+02 0.19854534052E+02 0.18852160011E+02
 0.19468461558E+02 0.21087558427E+02 0.23287800062E+02 0.25670576632E+02 0.27590609841E+02
 0.28337288072E+02 0.27590609841E+02 0.25670576632E+02 0.23287800062E+02 0.21087558427E+02
 0.19468461558E+02 0.18852160011E+02 0.19854534052E+02 0.22827671044E+02 0.27571326230E+02
 0.34302976818E+02 0.43378085211E+02 0.53619542363E+02 0.62124244085E+02 0.10646023674E+03
 0.10048396053E+03 0.85259558875E+02 0.66666894267E+02 0.49691684720E+02 0.36620136555E+02
 0.27675460153E+02 0.21684706303E+02 0.18150511941E+02 0.16890951347E+02 0.16983834470E+02
 0.17617510618E+02 0.18408711116E+02 0.19112649543E+02 0.19407569438E+02 0.19112649543E+02
 0.18408711116E+02 0.17617510618E+02 0.16983834470E+02 0.16890951347E+02 0.18150511941E+02
 0.21684706303E+02 0.27675460153E+02 0.36620136555E+02 0.49691684720E+02 0.66666894267E+02
 0.85259558875E+02 0.10048396053E+03 0.15787696971E+03 0.14887059166E+03 0.12596126813E+03
 0.97881059416E+02 0.71632322904E+02 0.50258325166E+02 0.34721805352E+02 0.24800335990E+02
 0.18646376361E+02 0.15652820079E+02 0.14585316329E+02 0.14222422811E+02 0.14210855638E+02
 0.14465456305E+02 0.14632527463E+02 0.14465456305E+02 0.14210855638E+02 0.14222422811E+02
 0.14585316329E+02 0.15652820079E+02 0.18646376361E+02 0.24800335990E+02 0.34721805352E+02
 0.50258325166E+02 0.71632322904E+02 0.97881059416E+02 0.12596126813E+03 0.14887059166E+03
 0.21826888030E+03 0.20578785031E+03 0.17423609197E+03 0.13580077794E+03 0.99505130928E+02
 0.68605274738E+02 0.44567308058E+02 0.28838126121E+02 0.19913390422E+02 0.15276059236E+02
 0.13269894171E+02 0.12167651214E+02 0.11621735283E+02 0.11686354940E+02 0.11844382773E+02
 0.11686354940E+02 0.11621735283E+02 0.12167651214E+02 0.13269894171E+02 0.15276059236E+02
 0.19913390422E+02 0.28838126121E+02 0.44567308058E+02 0.68605274738E+02 0.99505130928E+02
 0.13580077794E+03 0.17423609197E+03 0.20578785031E+03 0.28233683631E+03 0.26607100223E+03
 0.22524277250E+03 0.17602549605E+03 0.12960289013E+03 0.89064918319E+02 0.55973380805E+02
 0.33488937202E+02 0.21462751319E+02 0.15392031934E+02 0.12649517438E+02 0.11019017132E+02
 0.10143199525E+02 0.10185296579E+02 0.10402474033E+02 0.10185296579E+02 0.10143199525E+02
 0.11019017132E+02 0.12649517438E+02 0.15392031934E+02 0.21462751319E+02 0.33488937202E+02
 0.55973380805E+02 0.89064918319E+02 0.12960289013E+03 0.17602549605E+03 0.22524277250E+03
 0.26607100223E+03 0.33473782563E+03 0.31527058890E+03 0.26664658719E+03 0.20852407748E+03
 0.15397873647E+03 0.10585980712E+03 0.65559257613E+02 0.37476195172E+02 0.22741901965E+02
 0.15685296093E+02 0.12484816029E+02 0.10568434009E+02 0.95557132375E+01 0.96693854929E+01
 0.99661029377E+01 0.96693854929E+01 0.95557132375E+01 0.10568434009E+02 0.12484816029E+02
 0.15685296093E+02 0.22741901965E+02 0.37476195172E+02 0.65559257613E+02 0.10585980712E+03
 0.15397873647E+03 0.20852407748E+03 0.26664658719E+03 0.31527058890E+03 0.33510290771E+03
 0.31572820534E+03 0.26728361775E+03 0.20923496391E+03 0.15456354722E+03 0.10619834774E+03
 0.65683426015E+02 0.37496601522E+02 0.22737229625E+02 0.15669732624E+02 0.12448536153E+02
 0.10499290426E+02 0.94489740729E+01 0.95322817024E+01 0.98172673808E+01 0.95322817024E+01
 0.94489740729E+01 0.10499290426E+02 0.12448536153E+02 0.15669732624E+02 0.22737229625E+02
 0.37496601522E+02 0.65683426015E+02 0.10619834774E+03 0.15456354722E+03 0.20923496391E+03
 0.26728361775E+03 0.31572820534E+03 0.31644682379E+03 0.29820617499E+03 0.25251856689E+03
 0.19760999749E+03 0.14579871684E+03 0.10011716619E+03 0.62181499468E+02 0.36022870218E+02
 0.22263260663E+02 0.15535377035E+02 0.12461459327E+02 0.10593402749E+02 0.95715450619E+01
 0.96148841391E+01 0.98663386178E+01 0.96148841391E+01 0.95715450619E+01 0.10593402749E+02
 0.12461459327E+02 0.15535377035E+02 0.22263260663E+02 0.36022870218E+02 0.62181499468E+02
 0.10011716619E+03 0.14579871684E+03 0.19760999749E+03 0.25251856689E+03 0.29820617499E+03
 0.26871194120E+03 0.25331985334E+03 0.21457780601E+03 0.16764715119E+03 0.12321702204E+03
 0.84545789730E+02 0.53319580665E+02 0.32341147932E+02 0.21046049073E+02 0.15272551448E+02
 0.12646825758E+02 0.11063066855E+02 0.10184480432E+02 0.10172385953E+02 0.10353889276E+02
 0.10172385953E+02 0.10184480432E+02 0.11063066855E+02 0.12646825758E+02 0.15272551448E+02
 0.21046049073E+02 0.32341147932E+02 0.53319580665E+02 0.84545789730E+02 0.12321702204E+03
 0.16764715119E+03 0.21457780601E+03 0.25331985334E+03 0.20935452544E+03 0.19739948933E+03
 0.16710790168E+03 0.13008002648E+03 0.95079079657E+02 0.65470937757E+02 0.42736298773E+02
 0.28014044517E+02 0.19567418186E+02 0.15177612442E+02 0.13270557590E+02 0.12207788437E+02
 0.11660995402E+02 0.11686656678E+02 0.11819114283E+02 0.11686656678E+02 0.11660995402E+02
 0.12207788437E+02 0.13270557590E+02 0.15177612442E+02 0.19567418186E+02 0.28014044517E+02
 0.42736298773E+02 0.65470937757E+02 0.95079079657E+02 0.13008002648E+03 0.16710790168E+03
 0.19739948933E+03 0.15209734448E+03 0.14340425724E+03 0.12126312129E+03 0.94088024791E+02
 0.68728959075E+02 0.48247452111E+02 0.33547081448E+02 0.24189848611E+02 0.18354456105E+02
 0.15545710800E+02 0.14551551297E+02 0.14213305211E+02 0.14194578943E+02 0.14418037143E+02
 0.14566485350E+02 0.14418037143E+02 0.14194578943E+02 0.14213305211E+02 0.14551551297E+02
 0.15545710800E+02 0.18354456105E+02 0.24189848611E+02 0.33547081448E+02 0.48247452111E+02
 0.68728959075E+02 0.94088024791E+02 0.12126312129E+03 0.14340425724E+03 0.10248319304E+03
 0.96723270071E+02 0.82046883061E+02 0.64133308275E+02 0.47832454350E+02 0.35373635439E+02
 0.26900718786E+02 0.21194387959E+02 0.17877047304E+02 0.16729170914E+02 0.16856364835E+02
 0.17486506058E+02 0.18251541744E+02 0.18916944899E+02 0.19192279408E+02 0.18916944899E+02
 0.18251541744E+02 0.17486506058E+02 0.16856364835E+02 0.16729170914E+02 0.17877047304E+02
 0.21194387959E+02 0.26900718786E+02 0.35373635439E+02 0.47832454350E+02 0.64133308275E+02
 0.82046883061E+02 0.96723270071E+02 0.62916665223E+02 0.59712060171E+02 0.51591567717E+02
 0.41824808755E+02 0.33191189245E+02 0.26790618854E+02 0.22247513131E+02 0.19445444441E+02
 0.18546583675E+02 0.19191017550E+02 0.20780416141E+02 0.22890565702E+02 0.25147512725E+02
 0.26953303236E+02 0.27653239357E+02 0.26953303236E+02 0.25147512725E+02 0.22890565702E+02
 0.20780416141E+02 0.19191017550E+02 0.18546583675E+02 0.19445444441E+02 0.22247513131E+02
 0.26790618854E+02 0.33191189245E+02 0.41824808755E+02 0.51591567717E+02 0.59712060171E+02
 0.36170208155E+02 0.34836400525E+02 0.31482055104E+02 0.27480838196E+02 0.23872272621E+02
 0.21007333270E+02 0.19347925801E+02 0.19221738602E+02 0.20612222023E+02 0.23287532399E+02
 0.27196770117E+02 0.32060711164E+02 0.37084041735E+02 0.40978793807E+02 0.42459542290E+02
 0.40978793807E+02 0.37084041735E+02 0.32060711164E+02 0.27196770117E+02 0.23287532399E+02
 0.20612222023E+02 0.19221738602E+02 0.19347925801E+02 0.21007333270E+02 0.23872272621E+02
 0.27480838196E+02 0.31482055104E+02 0.34836400525E+02 0.21919082831E+02 0.21493692924E+02
 0.20395502899E+02 0.19051415126E+02 0.17950791576E+02 0.17560813384E+02 0.18309816784E+02
 0.20469683731E+02 0.24116517818E+02 0.29532408148E+02 0.36692245256E+02 0.45033441691E+02
 0.53275352041E+02 0.59494895362E+02 0.61829621712E+02 0.59494895362E+02 0.53275352041E+02
 0.45033441691E+02 0.36692245256E+02 0.29532408148E+02 0.24116517818E+02 0.20469683731E+02
 0.18309816784E+02 0.17560813384E+02 0.17950791576E+02 0.19051415126E+02 0.20395502899E+02
 0.21493692924E+02 0.14841237201E+02 0.14734874354E+02 0.14538758829E+02 0.14519991964E+02
 0.14963914939E+02 0.16225878514E+02 0.18763196335E+02 0.22927644101E+02 0.29260034429E+02
 0.37878278997E+02 0.48265666568E+02 0.59505651099E+02 0.70112836114E+02 0.77939758680E+02
 0.80853988563E+02 0.77939758680E+02 0.70112836114E+02 0.59505651099E+02 0.48265666568E+02
 0.37878278997E+02 0.29260034429E+02 0.22927644101E+02 0.18763196335E+02 0.16225878514E+02
 0.14963914939E+02 0.14519991964E+02 0.14538758829E+02 0.14734874354E+02 0.11493404243E+02
 0.11527487562E+02 0.11760448160E+02 0.12436859199E+02 0.13777296753E+02 0.16147890899E+02
 0.20114665260E+02 0.26484729156E+02 0.35913443112E+02 0.47704300479E+02 0.60582430754E+02
 0.73478370304E+02 0.85204589376E+02 0.93802429031E+02 0.97014419044E+02 0.93802429031E+02
 0.85204589376E+02 0.73478370304E+02 0.60582430754E+02 0.47704300479E+02 0.35913443112E+02
 0.26484729156E+02 0.20114665260E+02 0.16147890899E+02 0.13777296753E+02 0.12436859199E+02
 0.11760448160E+02 0.11527487562E+02 0.94627013358E+01 0.95741860592E+01 0.10077297180E+02
 0.11248958206E+02 0.13280305749E+02 0.16572251704E+02 0.21924410509E+02 0.30829912674E+02
 0.43548575236E+02 0.58279589071E+02 0.73006689422E+02 0.86900094246E+02 0.99467911652E+02
 0.10892725696E+03 0.11253865806E+03 0.10892725696E+03 0.99467911652E+02 0.86900094246E+02
 0.73006689422E+02 0.58279589071E+02 0.43548575236E+02 0.30829912674E+02 0.21924410509E+02
 0.16572251704E+02 0.13280305749E+02 0.11248958206E+02 0.10077297180E+02 0.95741860592E+01
 0.83544845016E+01 0.84921076699E+01 0.91270526863E+01 0.10603945119E+02 0.13119860738E+02
 0.17128669331E+02 0.23828856268E+02 0.35255559721E+02 0.51082209379E+02 0.68432925449E+02
 0.84810163966E+02 0.99961676093E+02 0.11415293332E+03 0.12537049664E+03 0.12977854681E+03
 0.12537049664E+03 0.11415293332E+03 0.99961676093E+02 0.84810163966E+02 0.68432925449E+02
 0.51082209379E+02 0.35255559721E+02 0.23828856268E+02 0.17128669331E+02 0.13119860738E+02
 0.10603945119E+02 0.91270526863E+01 0.84921076699E+01 0.83541999366E+01 0.84529102659E+01
 0.90309592134E+01 0.10533457079E+02 0.13218346092E+02 0.17616397376E+02 0.25327974434E+02
 0.38664552626E+02 0.56804738296E+02 0.76112839287E+02 0.93901159312E+02 0.11052116555E+03
 0.12676348564E+03 0.14010358533E+03 0.14544445740E+03 0.14010358533E+03 0.12676348564E+03
 0.11052116555E+03 0.93901159312E+02 0.76112839287E+02 0.56804738296E+02 0.38664552626E+02
 0.25327974434E+02 0.17616397376E+02 0.13218346092E+02 0.10533457079E+02 0.90309592134E+01
 0.84529102659E+01 0.85918275192E+01 0.86583574738E+01 0.91684192843E+01 0.10620389136E+02
 0.13312843014E+02 0.17818679450E+02 0.25904071525E+02 0.39958082101E+02 0.58965449545E+02
 0.79019181751E+02 0.97396943252E+02 0.11470680148E+03 0.13191849792E+03 0.14623897016E+03
 0.15200510557E+03 0.14623897016E+03 0.13191849792E+03 0.11470680148E+03 0.97396943252E+02
 0.79019181751E+02 0.58965449545E+02 0.39958082101E+02 0.25904071525E+02 0.17818679450E+02
 0.13312843014E+02 0.10620389136E+02 0.91684192843E+01 0.86583574738E+01 0.83541999366E+01
 0.84529102659E+01 0.90309592134E+01 0.10533457079E+02 0.13218346092E+02 0.17616397376E+02
 0.25327974434E+02 0.38664552626E+02 0.56804738296E+02 0.76112839287E+02 0.93901159312E+02
 0.11052116555E+03 0.12676348564E+03 0.14010358533E+03 0.14544445740E+03 0.14010358533E+03
 0.12676348564E+03 0.11052116555E+03 0.93901159312E+02 0.76112839287E+02 0.56804738296E+02
 0.38664552626E+02 0.25327974434E+02 0.17616397376E+02 0.13218346092E+02 0.10533457079E+02
 0.90309592134E+01 0.84529102659E+01 0.83544845016E+01 0.84921076699E+01 0.91270526863E+01
 0.10603945119E+02 0.13119860738E+02 0.17128669331E+02 0.23828856268E+02 0.35255559721E+02
 0.51082209379E+02 0.68432925449E+02 0.84810163966E+02 0.99961676093E+02 0.11415293332E+03
 0.12537049664E+03 0.12977854681E+03 0.12537049664E+03 0.11415293332E+03 0.99961676093E+02
 0.84810163966E+02 0.68432925449E+02 0.51082209379E+02 0.35255559721E+02 0.23828856268E+02
 0.17128669331E+02 0.13119860738E+02 0.10603945119E+02 0.91270526863E+01 0.84921076699E+01
 0.94627013358E+01 0.95741860592E+01 0.10077297180E+02 0.11248958206E+02 0.13280305749E+02
 0.16572251704E+02 0.21924410509E+02 0.30829912674E+02 0.43548575236E+02 0.58279589071E+02
 0.73006689422E+02 0.86900094246E+02 0.99467911652E+02 0.10892725696E+03 0.11253865806E+03
 0.10892725696E+03 0.99467911652E+02 0.86900094246E+02 0.73006689422E+02 0.58279589071E+02
 0.43548575236E+02 0.30829912674E+02 0.21924410509E+02 0.16572251704E+02 0.13280305749E+02
 0.11248958206E+02 0.10077297180E+02 0.95741860592E+01 0.11493404243E+02 0.11527487562E+02
 0.11760448160E+02 0.12436859199E+02 0.13777296753E+02 0.16147890899E+02 0.20114665260E+02
 0.26484729156E+02 0.35913443112E+02 0.47704300479E+02 0.60582430754E+02 0.73478370304E+02
 0.85204589376E+02 0.93802429031E+02 0.97014419044E+02 0.93802429031E+02 0.85204589376E+02
 0.73478370304E+02 0.60582430754E+02 0.47704300479E+02 0.35913443112E+02 0.26484729156E+02
 0.20114665260E+02 0.16147890899E+02 0.13777296753E+02 0.12436859199E+02 0.11760448160E+02
 0.11527487562E+02 0.14841237201E+02 0.14734874354E+02 0.14538758829E+02 0.14519991964E+02
 0.14963914939E+02 0.16225878514E+02 0.18763196335E+02 0.22927644101E+02 0.29260034429E+02
 0.37878278997E+02 0.48265666568E+02 0.59505651099E+02 0.70112836114E+02 0.77939758680E+02
 0.80853988563E+02 0.77939758680E+02 0.70112836114E+02 0.59505651099E+02 0.48265666568E+02
 0.37878278997E+02 0.29260034429E+02 0.22927644101E+02 0.18763196335E+02 0.16225878514E+02
 0.14963914939E+02 0.14519991964E+02 0.14538758829E+02 0.14734874354E+02 0.21919082831E+02
 0.21493692924E+02 0.20395502899E+02 0.19051415126E+02 0.17950791576E+02 0.17560813384E+02
 0.18309816784E+02 0.20469683731E+02 0.24116517818E+02 0.29532408148E+02 0.36692245256E+02
 0.45033441691E+02 0.53275352041E+02 0.59494895362E+02 0.61829621712E+02 0.59494895362E+02
 0.53275352041E+02 0.45033441691E+02 0.36692245256E+02 0.29532408148E+02 0.24116517818E+02
 0.20469683731E+02 0.18309816784E+02 0.17560813384E+02 0.17950791576E+02 0.19051415126E+02
 0.20395502899E+02 0.21493692924E+02 0.36170208155E+02 0.34836400525E+02 0.31482055104E+02
 0.27480838196E+02 0.23872272621E+02 0.21007333270E+02 0.19347925801E+02 0.19221738602E+02
 0.20612222023E+02 0.23287532399E+02 0.27196770117E+02 0.32060711164E+02 0.37084041735E+02
 0.40978793807E+02 0.42459542290E+02 0.40978793807E+02 0.37084041735E+02 0.32060711164E+02
 0.27196770117E+02 0.23287532399E+02 0.20612222023E+02 0.19221738602E+02 0.19347925801E+02
 0.21007333270E+02 0.23872272621E+02 0.27480838196E+02 0.31482055104E+02 0.34836400525E+02
 0.62916665223E+02 0.59712060171E+02 0.51591567717E+02 0.41824808755E+02 0.33191189245E+02
 0.26790618854E+02 0.22247513131E+02 0.19445444441E+02 0.18546583675E+02 0.19191017550E+02
 0.20780416141E+02 0.22890565702E+02 0.25147512725E+02 0.26953303236E+02 0.27653239357E+02
 0.26953303236E+02 0.25147512725E+02 0.22890565702E+02 0.20780416141E+02 0.19191017550E+02
 0.18546583675E+02 0.19445444441E+02 0.22247513131E+02 0.26790618854E+02 0.33191189245E+02
 0.41824808755E+02 0.51591567717E+02 0.59712060171E+02 0.10248319304E+03 0.96723270071E+02
 0.82046883061E+02 0.64133308275E+02 0.47832454350E+02 0.35373635439E+02 0.26900718786E+02
 0.21194387959E+02 0.17877047304E+02 0.16729170914E+02 0.16856364835E+02 0.17486506058E+02
 0.18251541744E+02 0.18916944899E+02 0.19192279408E+02 0.18916944899E+02 0.18251541744E+02
 0.17486506058E+02 0.16856364835E+02 0.16729170914E+02 0.17877047304E+02 0.21194387959E+02
 0.26900718786E+02 0.35373635439E+02 0.47832454350E+02 0.64133308275E+02 0.82046883061E+02
 0.96723270071E+02 0.15209734448E+03 0.14340425724E+03 0.12126312129E+03 0.94088024791E+02
 0.68728959075E+02 0.48247452111E+02 0.33547081448E+02 0.24189848611E+02 0.18354456105E+02
 0.15545710800E+02 0.14551551297E+02 0.14213305211E+02 0.14194578943E+02 0.14418037143E+02
 0.14566485350E+02 0.14418037143E+02 0.14194578943E+02 0.14213305211E+02 0.14551551297E+02
 0.15545710800E+02 0.18354456105E+02 0.24189848611E+02 0.33547081448E+02 0.48247452111E+02
 0.68728959075E+02 0.94088024791E+02 0.12126312129E+03 0.14340425724E+03 0.20935452544E+03
 0.19739948933E+03 0.16710790168E+03 0.13008002648E+03 0.95079079657E+02 0.65470937757E+02
 0.42736298773E+02 0.28014044517E+02 0.19567418186E+02 0.15177612442E+02 0.13270557590E+02
 0.12207788437E+02 0.11660995402E+02 0.11686656678E+02 0.11819114283E+02 0.11686656678E+02
 0.11660995402E+02 0.12207788437E+02 0.13270557590E+02 0.15177612442E+02 0.19567418186E+02
 0.28014044517E+02 0.42736298773E+02 0.65470937757E+02 0.95079079657E+02 0.13008002648E+03
 0.16710790168E+03 0.19739948933E+03 0.26871194120E+03 0.25331985334E+03 0.21457780601E+03
 0.16764715119E+03 0.12321702204E+03 0.84545789730E+02 0.53319580665E+02 0.32341147932E+02
 0.21046049073E+02 0.15272551448E+02 0.12646825758E+02 0.11063066855E+02 0.10184480432E+02
 0.10172385953E+02 0.10353889276E+02 0.10172385953E+02 0.10184480432E+02 0.11063066855E+02
 0.12646825758E+02 0.15272551448E+02 0.21046049073E+02 0.32341147932E+02 0.53319580665E+02
 0.84545789730E+02 0.12321702204E+03 0.16764715119E+03 0.21457780601E+03 0.25331985334E+03
 0.31644682379E+03 0.29820617499E+03 0.25251856689E+03 0.19760999749E+03 0.14579871684E+03
 0.10011716619E+03 0.62181499468E+02 0.36022870218E+02 0.22263260663E+02 0.15535377035E+02
 0.12461459327E+02 0.10593402749E+02 0.95715450619E+01 0.96148841391E+01 0.98663386178E+01
 0.96148841391E+01 0.95715450619E+01 0.10593402749E+02 0.12461459327E+02 0.15535377035E+02
 0.22263260663E+02 0.36022870218E+02 0.62181499468E+02 0.10011716619E+03 0.14579871684E+03
 0.19760999749E+03 0.25251856689E+03 0.29820617499E+03 0.28334912485E+03 0.26737613056E+03
 0.22711321831E+03 0.17812502782E+03 0.13130839262E+03 0.90018948479E+02 0.56295101837E+02
 0.33523135340E+02 0.21435621603E+02 0.15342779987E+02 0.12559034666E+02 0.10861555128E+02
 0.99083824595E+01 0.98872527722E+01 0.10079760754E+02 0.98872527722E+01 0.99083824595E+01
 0.10861555128E+02 0.12559034666E+02 0.15342779987E+02 0.21435621603E+02 0.33523135340E+02
 0.56295101837E+02 0.90018948479E+02 0.13130839262E+03 0.17812502782E+03 0.22711321831E+03
 0.26737613056E+03 0.26938091313E+03 0.25419161112E+03 0.21584036471E+03 0.16906700009E+03
 0.12436492777E+03 0.85179829328E+02 0.53526593929E+02 0.32358221269E+02 0.21023897412E+02
 0.15237235954E+02 0.12587892383E+02 0.10965896357E+02 0.10043260911E+02 0.99950334530E+01
 0.10162373215E+02 0.99950334530E+01 0.10043260911E+02 0.10965896357E+02 0.12587892383E+02
 0.15237235954E+02 0.21023897412E+02 0.32358221269E+02 0.53526593929E+02 0.85179829328E+02
 0.12436492777E+03 0.16906700009E+03 0.21584036471E+03 0.25419161112E+03 0.23269174172E+03