   4   4   0   0
  0.1444527E+02  0.3866000E-09  0.3866000E-09  0.3866000E-09  0.5000000E-15
  1.000000000000000E-004
  CAR 
 unknown system                          
     27.44366386     -1.88476496  301      9.11625727      1.00000000
     -1.885  0.0000E+00  0.0000E+00
     -1.787  0.0000E+00  0.0000E+00
     -1.689  0.0000E+00  0.0000E+00
     -1.591  0.0000E+00  0.0000E+00
     -1.494 -0.2904E-28 -0.2839E-29
     -1.396 -0.5590E-25 -0.5468E-26
     -1.298 -0.6645E-22 -0.6502E-23
     -1.200 -0.4874E-19 -0.4772E-20
     -1.103 -0.2204E-16 -0.2160E-17
     -1.005 -0.5947E-14 -0.5835E-15
     -0.907 -0.1011E-11 -0.9944E-13
     -0.809 -0.1053E-09 -0.1039E-10
     -0.712 -0.6687E-08 -0.6641E-09
     -0.614 -0.2573E-06 -0.2581E-07
     -0.516 -0.5932E-05 -0.6058E-06
     -0.418 -0.8046E-04 -0.8471E-05
     -0.321 -0.6167E-03 -0.6876E-04
     -0.223 -0.2402E-02 -0.3036E-03
     -0.125 -0.2685E-02 -0.5661E-03
     -0.027  0.1161E-01  0.5691E-03
      0.070  0.4538E-01  0.5005E-02
      0.168  0.6221E-01  0.1109E-01
      0.266  0.3010E-01  0.1403E-01
      0.364 -0.6086E-02  0.1344E-01
      0.462  0.5345E-01  0.1866E-01
      0.559  0.2418E+00  0.4230E-01
      0.657  0.3722E+00  0.7869E-01
      0.755  0.2499E+00  0.1031E+00
      0.853  0.5572E-01  0.1086E+00
      0.950  0.1549E+00  0.1237E+00
      1.048  0.5600E+00  0.1784E+00
      1.146  0.7535E+00  0.2521E+00
      1.244  0.4546E+00  0.2966E+00
      1.341  0.1758E+00  0.3137E+00
      1.439  0.3142E+00  0.3445E+00
      1.537  0.5257E+00  0.3958E+00
      1.635  0.4373E+00  0.4386E+00
      1.732  0.1915E+00  0.4573E+00
      1.830  0.4255E-01  0.4615E+00
      1.928  0.1043E+00  0.4717E+00
      2.026  0.3608E+00  0.5070E+00
      2.123  0.5915E+00  0.5648E+00
      2.221  0.7393E+00  0.6370E+00
      2.319  0.1152E+01  0.7497E+00
      2.417  0.1722E+01  0.9181E+00
      2.514  0.1827E+01  0.1097E+01
      2.612  0.1355E+01  0.1229E+01
      2.710  0.7025E+00  0.1298E+01
      2.808  0.5895E+00  0.1355E+01
      2.906  0.1404E+01  0.1493E+01
      3.003  0.2471E+01  0.1734E+01
      3.101  0.2896E+01  0.2017E+01
      3.199  0.2676E+01  0.2279E+01
      3.297  0.2126E+01  0.2487E+01
      3.394  0.1650E+01  0.2648E+01
      3.492  0.2443E+01  0.2887E+01
      3.590  0.4538E+01  0.3330E+01
      3.688  0.5678E+01  0.3886E+01
      3.785  0.5247E+01  0.4399E+01
      3.883  0.5329E+01  0.4920E+01
      3.981  0.6433E+01  0.5548E+01
      4.079  0.7317E+01  0.6264E+01
      4.176  0.7515E+01  0.6998E+01
      4.274  0.6825E+01  0.7666E+01
      4.372  0.5488E+01  0.8202E+01
      4.470  0.5054E+01  0.8696E+01
      4.567  0.5857E+01  0.9269E+01
      4.665  0.6279E+01  0.9883E+01
      4.763  0.5637E+01  0.1043E+02
      4.861  0.4828E+01  0.1091E+02
      4.959  0.4439E+01  0.1134E+02
      5.056  0.4430E+01  0.1177E+02
      5.154  0.4541E+01  0.1222E+02
      5.252  0.4331E+01  0.1264E+02
      5.350  0.4168E+01  0.1305E+02
      5.447  0.4806E+01  0.1352E+02
      5.545  0.6009E+01  0.1410E+02
      5.643  0.6912E+01  0.1478E+02
      5.741  0.6873E+01  0.1545E+02
      5.838  0.6247E+01  0.1606E+02
      5.936  0.6556E+01  0.1670E+02
      6.034  0.7993E+01  0.1749E+02
      6.132  0.8567E+01  0.1832E+02
      6.229  0.7814E+01  0.1909E+02
      6.327  0.8023E+01  0.1987E+02
      6.425  0.1022E+02  0.2087E+02
      6.523  0.1190E+02  0.2203E+02
      6.620  0.1059E+02  0.2307E+02
      6.718  0.8137E+01  0.2386E+02
      6.816  0.7754E+01  0.2462E+02
      6.914  0.8888E+01  0.2549E+02
      7.012  0.9646E+01  0.2643E+02
      7.109  0.1011E+02  0.2742E+02
      7.207  0.1030E+02  0.2843E+02
      7.305  0.9014E+01  0.2931E+02
      7.403  0.6626E+01  0.2996E+02
      7.500  0.5243E+01  0.3047E+02
      7.598  0.5231E+01  0.3098E+02
      7.696  0.5197E+01  0.3149E+02
      7.794  0.4817E+01  0.3196E+02
      7.891  0.4918E+01  0.3244E+02
      7.989  0.5826E+01  0.3301E+02
      8.087  0.7170E+01  0.3371E+02
      8.185  0.8172E+01  0.3451E+02
      8.282  0.8026E+01  0.3530E+02
      8.380  0.6777E+01  0.3596E+02
      8.478  0.5413E+01  0.3649E+02
      8.576  0.4676E+01  0.3694E+02
      8.673  0.4441E+01  0.3738E+02
      8.771  0.4774E+01  0.3785E+02
      8.869  0.5776E+01  0.3841E+02
      8.967  0.6572E+01  0.3905E+02
      9.065  0.6486E+01  0.3969E+02
      9.162  0.5893E+01  0.4026E+02
      9.260  0.5119E+01  0.4076E+02
      9.358  0.4278E+01  0.4118E+02
      9.456  0.3488E+01  0.4152E+02
      9.553  0.3055E+01  0.4182E+02
      9.651  0.3454E+01  0.4216E+02
      9.749  0.3729E+01  0.4252E+02
      9.847  0.2587E+01  0.4278E+02
      9.944  0.1127E+01  0.4289E+02
     10.042  0.8646E+00  0.4297E+02
     10.140  0.1245E+01  0.4309E+02
     10.238  0.1149E+01  0.4320E+02
     10.335  0.7800E+00  0.4328E+02
     10.433  0.8415E+00  0.4336E+02
     10.531  0.1063E+01  0.4347E+02
     10.629  0.9236E+00  0.4356E+02
     10.726  0.7653E+00  0.4363E+02
     10.824  0.1020E+01  0.4373E+02
     10.922  0.1432E+01  0.4387E+02
     11.020  0.1672E+01  0.4404E+02
     11.118  0.1557E+01  0.4419E+02
     11.215  0.9462E+00  0.4428E+02
     11.313  0.4027E+00  0.4432E+02
     11.411  0.5882E+00  0.4438E+02
     11.509  0.1023E+01  0.4448E+02
     11.606  0.9410E+00  0.4457E+02
     11.704  0.6597E+00  0.4463E+02
     11.802  0.7692E+00  0.4471E+02
     11.900  0.9893E+00  0.4481E+02
     11.997  0.8895E+00  0.4489E+02
     12.095  0.6417E+00  0.4496E+02
     12.193  0.4937E+00  0.4500E+02
     12.291  0.3658E+00  0.4504E+02
     12.388  0.3161E+00  0.4507E+02
     12.486  0.5607E+00  0.4513E+02
     12.584  0.1093E+01  0.4523E+02
     12.682  0.1619E+01  0.4539E+02
     12.779  0.1724E+01  0.4556E+02
     12.877  0.1512E+01  0.4571E+02
     12.975  0.1351E+01  0.4584E+02
     13.073  0.1185E+01  0.4595E+02
     13.170  0.9151E+00  0.4604E+02
     13.268  0.6975E+00  0.4611E+02
     13.366  0.7300E+00  0.4618E+02
     13.464  0.9209E+00  0.4627E+02
     13.562  0.9879E+00  0.4637E+02
     13.659  0.1168E+01  0.4648E+02
     13.757  0.1820E+01  0.4666E+02
     13.855  0.2230E+01  0.4688E+02
     13.953  0.1834E+01  0.4706E+02
     14.050  0.1169E+01  0.4717E+02
     14.148  0.5469E+00  0.4723E+02
     14.246  0.9577E-01  0.4724E+02
     14.344  0.8101E-01  0.4724E+02
     14.441  0.4333E+00  0.4729E+02
     14.539  0.6984E+00  0.4736E+02
     14.637  0.5255E+00  0.4741E+02
     14.735  0.1762E+00  0.4742E+02
     14.832  0.1377E+00  0.4744E+02
     14.930  0.4282E+00  0.4748E+02
     15.028  0.8074E+00  0.4756E+02
     15.126  0.1217E+01  0.4768E+02
     15.223  0.1427E+01  0.4782E+02
     15.321  0.1273E+01  0.4794E+02
     15.419  0.1314E+01  0.4807E+02
     15.517  0.1844E+01  0.4825E+02
     15.615  0.2185E+01  0.4846E+02
     15.712  0.1988E+01  0.4866E+02
     15.810  0.1600E+01  0.4881E+02
     15.908  0.1129E+01  0.4892E+02
     16.006  0.8390E+00  0.4901E+02
     16.103  0.1187E+01  0.4912E+02
     16.201  0.1807E+01  0.4930E+02
     16.299  0.1749E+01  0.4947E+02
     16.397  0.9138E+00  0.4956E+02
     16.494  0.1249E+00  0.4957E+02
     16.592 -0.9113E-01  0.4956E+02
     16.690  0.3354E+00  0.4960E+02
     16.788  0.1300E+01  0.4972E+02
     16.885  0.2152E+01  0.4993E+02
     16.983  0.2180E+01  0.5015E+02
     17.081  0.1507E+01  0.5029E+02
     17.179  0.6576E+00  0.5036E+02
     17.276  0.1205E+00  0.5037E+02
     17.374  0.2463E+00  0.5039E+02
     17.472  0.8502E+00  0.5048E+02
     17.570  0.1301E+01  0.5060E+02
     17.668  0.1386E+01  0.5074E+02
     17.765  0.1601E+01  0.5090E+02
     17.863  0.2384E+01  0.5113E+02
     17.961  0.3067E+01  0.5143E+02
     18.059  0.2536E+01  0.5168E+02
     18.156  0.1222E+01  0.5180E+02
     18.254  0.4313E+00  0.5184E+02
     18.352  0.4575E+00  0.5188E+02
     18.450  0.7978E+00  0.5196E+02
     18.547  0.1238E+01  0.5208E+02
     18.645  0.1683E+01  0.5225E+02
     18.743  0.1794E+01  0.5242E+02
     18.841  0.1637E+01  0.5258E+02
     18.938  0.1595E+01  0.5274E+02
     19.036  0.1448E+01  0.5288E+02
     19.134  0.8600E+00  0.5296E+02
     19.232  0.3109E+00  0.5299E+02
     19.329  0.4402E+00  0.5304E+02
     19.427  0.1097E+01  0.5314E+02
     19.525  0.1558E+01  0.5330E+02
     19.623  0.1485E+01  0.5344E+02
     19.721  0.1364E+01  0.5358E+02
     19.818  0.1696E+01  0.5374E+02
     19.916  0.2206E+01  0.5396E+02
     20.014  0.2530E+01  0.5420E+02
     20.112  0.2558E+01  0.5445E+02
     20.209  0.2071E+01  0.5466E+02
     20.307  0.1506E+01  0.5480E+02
     20.405  0.1675E+01  0.5497E+02
     20.503  0.2081E+01  0.5517E+02
     20.600  0.1809E+01  0.5535E+02
     20.698  0.1144E+01  0.5546E+02
     20.796  0.6387E+00  0.5552E+02
     20.894  0.4953E+00  0.5557E+02
     20.991  0.9553E+00  0.5566E+02
     21.089  0.1815E+01  0.5584E+02
     21.187  0.2273E+01  0.5606E+02
     21.285  0.1957E+01  0.5625E+02
     21.382  0.1547E+01  0.5641E+02
     21.480  0.1808E+01  0.5658E+02
     21.578  0.2440E+01  0.5682E+02
     21.676  0.2613E+01  0.5708E+02
     21.774  0.2209E+01  0.5729E+02
     21.871  0.1754E+01  0.5746E+02
     21.969  0.1551E+01  0.5762E+02
     22.067  0.1509E+01  0.5776E+02
     22.165  0.1616E+01  0.5792E+02
     22.262  0.1809E+01  0.5810E+02
     22.360  0.1887E+01  0.5828E+02
     22.458  0.1705E+01  0.5845E+02
     22.556  0.1185E+01  0.5856E+02
     22.653  0.7355E+00  0.5864E+02
     22.751  0.8021E+00  0.5872E+02
     22.849  0.1204E+01  0.5883E+02
     22.947  0.1529E+01  0.5898E+02
     23.044  0.1430E+01  0.5912E+02
     23.142  0.8910E+00  0.5921E+02
     23.240  0.4158E+00  0.5925E+02
     23.338  0.3593E+00  0.5929E+02
     23.435  0.4288E+00  0.5933E+02
     23.533  0.2940E+00  0.5936E+02
     23.631  0.8059E-01  0.5936E+02
     23.729 -0.1466E-01  0.5936E+02
     23.826 -0.1658E-01  0.5936E+02
     23.924 -0.5352E-02  0.5936E+02
     24.022 -0.4932E-02  0.5936E+02
     24.120 -0.1889E-01  0.5936E+02
     24.218 -0.3511E-01  0.5935E+02
     24.315  0.3427E-01  0.5936E+02
     24.413  0.3039E+00  0.5939E+02
     24.511  0.7214E+00  0.5946E+02
     24.609  0.1080E+01  0.5956E+02
     24.706  0.1102E+01  0.5967E+02
     24.804  0.6674E+00  0.5974E+02
     24.902  0.1597E+00  0.5975E+02
     25.000 -0.6138E-01  0.5975E+02
     25.097 -0.7810E-01  0.5974E+02
     25.195  0.4462E-01  0.5974E+02
     25.293  0.4208E+00  0.5978E+02
     25.391  0.8662E+00  0.5987E+02
     25.488  0.8866E+00  0.5996E+02
     25.586  0.4570E+00  0.6000E+02
     25.684  0.7128E-01  0.6001E+02
     25.782 -0.4046E-01  0.6000E+02
     25.879 -0.2404E-01  0.6000E+02
     25.977 -0.5558E-02  0.6000E+02
     26.075 -0.6894E-03  0.6000E+02
     26.173 -0.4943E-04  0.6000E+02
     26.271 -0.2109E-05  0.6000E+02
     26.368 -0.5429E-07  0.6000E+02
     26.466 -0.8501E-09  0.6000E+02
     26.564 -0.8134E-11  0.6000E+02
     26.662 -0.4768E-13  0.6000E+02
     26.759 -0.2907E-15  0.6000E+02
     26.857  0.0000E+00  0.6000E+02
     26.955  0.0000E+00  0.6000E+02
     27.053  0.0000E+00  0.6000E+02
     27.150  0.0000E+00  0.6000E+02
     27.248  0.0000E+00  0.6000E+02
     27.346  0.0000E+00  0.6000E+02
     27.444  0.0000E+00  0.6000E+02
