    4    4    1    1
  0.1444527E+02  0.3866000E-09  0.3866000E-09  0.3866000E-09  0.5000000E-15
  1.000000000000000E-004
  CAR 
 unknown system                          
     40     27     30
 
  0.0000000E+00  0.0000000E+00  0.0000000E+00  0.8000000E-02
    1        0.115235   1.000000
    2        2.539105   1.000000
    3        3.498977   1.000000
    4        3.553716   1.000000
    5        3.637545   1.000000
    6        3.693730   1.000000
    7        3.738803   1.000000
    8        6.224965   1.000000
    9        6.264754   1.000000
   10        6.371350   1.000000
   11        7.501027   1.000000
   12        7.623702   1.000000
   13        8.027293   1.000000
   14        8.272813   1.000000
   15        8.384995   1.000001
   16        9.120717   0.481136
   17        9.313719  -0.023760
   18        9.367379  -0.035317
   19        9.688587  -0.000198
   20       10.150675  -0.000000
   21       10.737073  -0.000000
   22       11.422422  -0.000000
   23       11.432501  -0.000000
   24       11.443746  -0.000000
   25       17.849334   0.000000
   26       18.152904   0.000000
   27       19.723562   0.000000
   28       20.335549   0.000000
   29       20.483649   0.000000
   30       20.728746   0.000000
 
  0.2000000E+00  0.0000000E+00  0.0000000E+00  0.1600000E-01
    1        0.579074   1.000000
    2        2.838050   1.000000
    3        3.665319   1.000000
    4        3.706016   1.000000
    5        3.883061   1.000000
    6        3.971918   1.000000
    7        4.007302   1.000000
    8        6.074264   1.000000
    9        6.353603   1.000000
   10        6.519082   1.000000
   11        7.276993   1.000000
   12        7.457988   1.000000
   13        7.564772   1.000000
   14        7.768971   1.000000
   15        7.837204   1.000000
   16        8.022376   1.000000
   17        8.903718   1.030470
   18        9.034322   0.816541
   19        9.149734   0.360527
   20        9.408047  -0.029437
   21        9.705551  -0.000126
   22       10.738155  -0.000000
   23       13.169412  -0.000000
   24       13.170204  -0.000000
   25       17.842656   0.000000
   26       18.018874   0.000000
   27       20.428659   0.000000
   28       20.473258   0.000000
   29       20.617815   0.000000
   30       20.978742   0.000000
 
  0.0000000E+00  0.2000000E+00  0.0000000E+00  0.1600000E-01
    1        0.634139   1.000000
    2        2.858681   1.000000
    3        3.605608   1.000000
    4        3.787424   1.000000
    5        3.828675   1.000000
    6        3.970453   1.000000
    7        4.044514   1.000000
    8        6.207071   1.000000
    9        6.386623   1.000000
   10        6.401416   1.000000
   11        7.187506   1.000000
   12        7.458314   1.000000
   13        7.580972   1.000000
   14        7.653989   1.000000
   15        8.171426   1.000000
   16        8.672508   1.003704
   17        8.923169   1.021159
   18        9.085060   0.630242
   19        9.144428   0.382101
   20        9.190957   0.207035
   21        9.352065  -0.035115
   22        9.690901  -0.000186
   23       13.280888  -0.000000
   24       13.403103  -0.000000
   25       17.429038   0.000000
   26       18.627491   0.000000
   27       20.363288   0.000000
   28       20.420116   0.000000
   29       20.621608   0.000000
   30       21.266329   0.000000
 
  0.0000000E+00  0.0000000E+00  0.2000000E+00  0.1600000E-01
    1        0.635860   1.000000
    2        2.870215   1.000000
    3        3.755756   1.000000
    4        3.837210   1.000000
    5        3.862360   1.000000
    6        3.890791   1.000000
    7        3.916621   1.000000
    8        6.016030   1.000000
    9        6.368896   1.000000
   10        6.517662   1.000000
   11        7.205465   1.000000
   12        7.431831   1.000000
   13        7.546928   1.000000
   14        7.861626   1.000000
   15        7.953393   1.000000
   16        8.368521   1.000001
   17        8.727764   1.009585
   18        9.045481   0.779702
   19        9.097975   0.577004
   20        9.223026   0.111884
   21        9.714474  -0.000098
   22       10.138910  -0.000000
   23       13.247880  -0.000000
   24       13.369297  -0.000000
   25       17.112004   0.000000
   26       18.837365   0.000000
   27       20.455831   0.000000
   28       20.471649   0.000000
   29       20.735998   0.000000
   30       21.199376   0.000000
 
  0.4000000E+00  0.0000000E+00  0.0000000E+00  0.1600000E-01
    1        1.672059   1.000000
    2        3.488771   1.000000
    3        3.799682   1.000000
    4        4.026785   1.000000
    5        4.647256   1.000000
    6        4.689135   1.000000
    7        4.722116   1.000000
    8        5.745224   1.000000
    9        5.939036   1.000000
   10        6.040462   1.000000
   11        6.857106   1.000000
   12        6.902477   1.000000
   13        6.930678   1.000000
   14        7.168288   1.000000
   15        7.260831   1.000000
   16        7.491033   1.000000
   17        7.929476   1.000000
   18        8.144252   1.000000
   19        8.169459   1.000000
   20        8.490036   1.000044
   21        9.279452   0.005978
   22       10.720456  -0.000000
   23       15.699447   0.000000
   24       15.771184   0.000000
   25       17.060227   0.000000
   26       17.979182   0.000000
   27       18.646022   0.000000
   28       18.764996   0.000000
   29       19.110744   0.000000
   30       21.826046   0.000000
 
  0.0000000E+00  0.4000000E+00  0.0000000E+00  0.1600000E-01
    1        2.005071   1.000000
    2        3.299264   1.000000
    3        3.713982   1.000000
    4        4.104140   1.000000
    5        4.579378   1.000000
    6        4.625884   1.000000
    7        4.915710   1.000000
    8        5.882007   1.000000
    9        6.265798   1.000000
   10        6.304815   1.000000
   11        6.784453   1.000000
   12        6.856345   1.000000
   13        6.874888   1.000000
   14        7.142619   1.000000
   15        7.446909   1.000000
   16        7.773847   1.000000
   17        7.785438   1.000000
   18        8.009647   1.000000
   19        8.121431   1.000000
   20        8.348236   1.000000
   21        8.993677   0.925720
   22        9.295259  -0.010523
   23       15.918186   0.000000
   24       15.956062   0.000000
   25       16.690471   0.000000
   26       18.466857   0.000000
   27       18.488461   0.000000
   28       18.638717   0.000000
   29       20.434494   0.000000
   30       20.732854   0.000000
 
  0.0000000E+00  0.0000000E+00  0.4000000E+00  0.1600000E-01
    1        2.022812   1.000000
    2        3.298858   1.000000
    3        3.930390   1.000000
    4        4.330864   1.000000
    5        4.562071   1.000000
    6        4.672506   1.000000
    7        4.679822   1.000000
    8        5.578413   1.000000
    9        5.941185   1.000000
   10        6.070201   1.000000
   11        6.822974   1.000000
   12        6.939550   1.000000
   13        6.945545   1.000000
   14        7.107949   1.000000
   15        7.328328   1.000000
   16        7.604208   1.000000
   17        7.935103   1.000000
   18        7.955640   1.000000
   19        8.279139   1.000000
   20        8.361013   1.000001
   21        8.854999   1.034543
   22       10.098235  -0.000000
   23       15.892487   0.000000
   24       16.005199   0.000000
   25       16.248365   0.000000
   26       18.463218   0.000000
   27       18.733006   0.000000
   28       18.956225   0.000000
   29       20.031651   0.000000
   30       21.095450   0.000000
 
  0.2000000E+00  0.2000000E+00  0.0000000E+00  0.3200000E-01
    1        1.075959   1.000000
    2        3.157988   1.000000
    3        3.910965   1.000000
    4        3.919442   1.000000
    5        4.096246   1.000000
    6        4.115079   1.000000
    7        4.346511   1.000000
    8        5.979874   1.000000
    9        6.342471   1.000000
   10        6.567709   1.000000
   11        7.018797   1.000000
   12        7.136349   1.000000
   13        7.194064   1.000000
   14        7.285141   1.000000
   15        7.691101   1.000000
   16        7.898046   1.000000
   17        8.218342   1.000000
   18        8.828286   1.030229
   19        8.876412   1.035354
   20        8.980880   0.951544
   21        9.648468  -0.000547
   22       10.846090  -0.000000
   23       11.851873  -0.000000
   24       14.533854  -0.000000
   25       16.979744   0.000000
   26       18.989372   0.000000
   27       20.053938   0.000000
   28       20.407790   0.000000
   29       21.090682   0.000000
   30       21.724039   0.000000
 
  0.0000000E+00  0.2000000E+00  0.2000000E+00  0.3200000E-01
    1        1.104349   1.000000
    2        3.192915   1.000000
    3        3.891640   1.000000
    4        3.971447   1.000000
    5        4.028905   1.000000
    6        4.234558   1.000000
    7        4.290595   1.000000
    8        5.939427   1.000000
    9        6.357624   1.000000
   10        6.558823   1.000000
   11        7.021309   1.000000
   12        7.147201   1.000000
   13        7.202536   1.000000
   14        7.269096   1.000000
   15        7.664731   1.000000
   16        7.993916   1.000000
   17        8.337202   1.000000
   18        8.626219   1.001442
   19        8.827089   1.029984
   20        8.834943   1.031529
   21        9.468267  -0.016013
   22       10.893541  -0.000000
   23       12.211267  -0.000000
   24       14.433541  -0.000000
   25       16.837947   0.000000
   26       19.049819   0.000000
   27       19.544886   0.000000
   28       20.942462   0.000000
   29       21.238563   0.000000
   30       21.945607   0.000000
 
  0.2000000E+00  0.0000000E+00  0.2000000E+00  0.3200000E-01
    1        1.075922   1.000000
    2        3.173643   1.000000
    3        3.922625   1.000000
    4        3.938468   1.000000
    5        4.056343   1.000000
    6        4.235928   1.000000
    7        4.278208   1.000000
    8        5.825307   1.000000
    9        6.491130   1.000000
   10        6.520335   1.000000
   11        6.965596   1.000000
   12        7.132937   1.000000
   13        7.178922   1.000000
   14        7.233956   1.000000
   15        7.688581   1.000000
   16        7.756509   1.000000
   17        8.073192   1.000000
   18        8.922755   1.021419
   19        8.977069   0.958448
   20        9.189091   0.213303
   21        9.772819  -0.000018
   22       11.090209  -0.000000
   23       11.510975  -0.000000
   24       14.531507  -0.000000
   25       16.943833   0.000000
   26       18.919931   0.000000
   27       20.001310   0.000000
   28       20.532392   0.000000
   29       21.173212   0.000000
   30       21.856741   0.000000
 
  0.4000000E+00  0.2000000E+00  0.0000000E+00  0.3200000E-01
    1        2.137083   1.000000
    2        3.768375   1.000000
    3        4.111179   1.000000
    4        4.245309   1.000000
    5        4.627821   1.000000
    6        4.814962   1.000000
    7        4.960059   1.000000
    8        5.472037   1.000000
    9        5.643194   1.000000
   10        6.015111   1.000000
   11        6.349057   1.000000
   12        6.504077   1.000000
   13        6.919848   1.000000
   14        7.162758   1.000000
   15        7.262912   1.000000
   16        7.594634   1.000000
   17        7.702912   1.000000
   18        8.309540   1.000000
   19        8.382375   1.000001
   20        8.875201   1.035398
   21        9.479967  -0.013729
   22        9.739752  -0.000048
   23       13.079040  -0.000000
   24       15.187982   0.000000
   25       16.898832   0.000000
   26       18.074855   0.000000
   27       19.592644   0.000000
   28       19.805092   0.000000
   29       21.872109   0.000000
   30       23.096178   0.000000
 
  0.0000000E+00  0.4000000E+00  0.2000000E+00  0.3200000E-01
    1        2.354147   1.000000
    2        3.632132   1.000000
    3        3.980550   1.000000
    4        4.248510   1.000000
    5        4.551893   1.000000
    6        4.787257   1.000000
    7        5.113638   1.000000
    8        5.643234   1.000000
    9        5.758583   1.000000
   10        6.224709   1.000000
   11        6.359789   1.000000
   12        6.511647   1.000000
   13        6.861044   1.000000
   14        7.145627   1.000000
   15        7.528858   1.000000
   16        7.630636   1.000000
   17        7.677766   1.000000
   18        8.082600   1.000000
   19        8.289299   1.000000
   20        8.851349   1.034123
   21        8.966631   0.975562
   22        9.298260  -0.013093
   23       13.577369  -0.000000
   24       15.138287   0.000000
   25       16.775473   0.000000
   26       18.358090   0.000000
   27       19.405189   0.000000
   28       19.574007   0.000000
   29       21.705017   0.000000
   30       23.326083   0.000000
 
  0.2000000E+00  0.0000000E+00  0.4000000E+00  0.3200000E-01
    1        2.394611   1.000000
    2        3.638322   1.000000
    3        4.196725   1.000000
    4        4.387086   1.000000
    5        4.590728   1.000000
    6        4.908925   1.000000
    7        4.934526   1.000000
    8        5.286675   1.000000
    9        5.541748   1.000000
   10        6.075339   1.000000
   11        6.434608   1.000000
   12        6.532209   1.000000
   13        6.939078   1.000000
   14        7.149739   1.000000
   15        7.316850   1.000000
   16        7.582110   1.000000
   17        7.896297   1.000000
   18        8.139890   1.000000
   19        8.403359   1.000003
   20        8.619688   1.001250
   21        9.188596   0.214976
   22        9.363792  -0.035433
   23       13.432060  -0.000000
   24       15.180963   0.000000
   25       16.841163   0.000000
   26       17.944661   0.000000
   27       19.396619   0.000000
   28       20.122928   0.000000
   29       21.968522   0.000000
   30       22.993310   0.000000
 
 -0.2000000E+00  0.4000000E+00  0.0000000E+00  0.3200000E-01
    1        2.390165   1.000000
    2        3.615946   1.000000
    3        4.030510   1.000000
    4        4.261536   1.000000
    5        4.569919   1.000000
    6        4.747910   1.000000
    7        5.104012   1.000000
    8        5.646098   1.000000
    9        5.953322   1.000000
   10        6.196756   1.000000
   11        6.264754   1.000000
   12        6.483645   1.000000
   13        6.874992   1.000000
   14        7.180630   1.000000
   15        7.433632   1.000000
   16        7.650933   1.000000
   17        7.711047   1.000000
   18        8.108050   1.000000
   19        8.379591   1.000001
   20        8.747566   1.012818
   21        8.868331   1.035424
   22        9.148273   0.366438
   23       13.488912  -0.000000
   24       15.175510   0.000000
   25       16.834164   0.000000
   26       18.321585   0.000000
   27       19.380218   0.000000
   28       19.741911   0.000000
   29       22.010355   0.000000
   30       23.021271   0.000000
 
 -0.4000000E+00  0.0000000E+00  0.2000000E+00  0.3200000E-01
    1        2.133271   1.000000
    2        3.806157   1.000000
    3        4.068221   1.000000
    4        4.213320   1.000000
    5        4.575079   1.000000
    6        4.864401   1.000000
    7        5.012231   1.000000
    8        5.408757   1.000000
    9        5.550659   1.000000
   10        6.083760   1.000000
   11        6.431641   1.000000
   12        6.554751   1.000000
   13        6.926734   1.000000
   14        7.132964   1.000000
   15        7.260409   1.000000
   16        7.571797   1.000000
   17        7.894199   1.000000
   18        8.081189   1.000000
   19        8.486850   1.000040
   20        8.906364   1.029528
   21        9.442518  -0.021625
   22        9.691847  -0.000182
   23       13.054382  -0.000000
   24       15.249294   0.000000
   25       16.857717   0.000000
   26       18.040206   0.000000
   27       19.500926   0.000000
   28       19.742371   0.000000
   29       21.972706   0.000000
   30       22.987889   0.000000
 
  0.0000000E+00  0.2000000E+00  0.4000000E+00  0.3200000E-01
    1        2.364039   1.000000
    2        3.613044   1.000000
    3        4.209391   1.000000
    4        4.420860   1.000000
    5        4.603662   1.000000
    6        4.870831   1.000000
    7        4.896474   1.000000
    8        5.355754   1.000000
    9        5.526947   1.000000
   10        6.030933   1.000000
   11        6.328130   1.000000
   12        6.535452   1.000000
   13        6.933908   1.000000
   14        7.145546   1.000000
   15        7.380346   1.000000
   16        7.613317   1.000000
   17        7.651372   1.000000
   18        8.231496   1.000000
   19        8.507647   1.000073
   20        8.542995   1.000193
   21        9.392077  -0.032509
   22        9.485397  -0.012737
   23       13.535474  -0.000000
   24       15.079332   0.000000
   25       16.829880   0.000000
   26       18.003314   0.000000
   27       19.507587   0.000000
   28       20.014177   0.000000
   29       21.592237   0.000000
   30       23.422248   0.000000
 
  0.4000000E+00  0.4000000E+00  0.0000000E+00  0.3200000E-01
    1        3.274857   1.000000
    2        4.188675   1.000000
    3        4.438017   1.000000
    4        4.746510   1.000000
    5        4.847539   1.000000
    6        5.049436   1.000000
    7        5.178851   1.000000
    8        5.293846   1.000000
    9        5.334997   1.000000
   10        5.865027   1.000000
   11        5.992636   1.000000
   12        6.211020   1.000000
   13        6.817469   1.000000
   14        7.042029   1.000000
   15        7.096018   1.000000
   16        7.276045   1.000000
   17        7.438404   1.000000
   18        8.035273   1.000000
   19        8.333340   1.000000
   20        8.354780   1.000001
   21        9.017767   0.865925
   22       10.051517  -0.000000
   23       11.562256  -0.000000
   24       12.933293  -0.000000
   25       18.818132   0.000000
   26       18.975003   0.000000
   27       20.491651   0.000000
   28       21.207837   0.000000
   29       21.232721   0.000000
   30       21.705868   0.000000
 
  0.0000000E+00  0.4000000E+00  0.4000000E+00  0.3200000E-01
    1        3.172844   1.000000
    2        3.964605   1.000000
    3        4.344012   1.000000
    4        4.717827   1.000000
    5        4.927953   1.000000
    6        5.082146   1.000000
    7        5.094409   1.000000
    8        5.377528   1.000000
    9        5.396730   1.000000
   10        5.881888   1.000000
   11        6.098246   1.000000
   12        6.202816   1.000000
   13        6.851745   1.000000
   14        6.998373   1.000000
   15        7.099826   1.000000
   16        7.202345   1.000000
   17        7.334565   1.000000
   18        7.974405   1.000000
   19        8.564467   1.000337
   20        8.612148   1.001056
   21        9.086923   0.622656
   22        9.877954  -0.000001
   23       12.135542  -0.000000
   24       12.985969  -0.000000
   25       18.557874   0.000000
   26       18.699862   0.000000
   27       20.390222   0.000000
   28       20.513386   0.000000
   29       21.086724   0.000000
   30       22.168675   0.000000
 
  0.4000000E+00  0.0000000E+00  0.4000000E+00  0.3200000E-01
    1        3.242681   1.000000
    2        4.329063   1.000000
    3        4.418121   1.000000
    4        4.619501   1.000000
    5        4.715557   1.000000
    6        4.954865   1.000000
    7        5.020253   1.000000
    8        5.220215   1.000000
    9        5.566994   1.000000
   10        6.016263   1.000000
   11        6.163957   1.000000
   12        6.307226   1.000000
   13        6.776685   1.000000
   14        7.026207   1.000000
   15        7.123699   1.000000
   16        7.250295   1.000000
   17        7.709456   1.000000
   18        7.889341   1.000000
   19        8.149325   1.000000
   20        8.219725   1.000000
   21        9.229553   0.095596
   22       10.441820  -0.000000
   23       11.105957  -0.000000
   24       12.813888  -0.000000
   25       18.731589   0.000000
   26       18.945003   0.000000
   27       20.711012   0.000000
   28       21.026783   0.000000
   29       21.420513   0.000000
   30       21.527575   0.000000
 
  0.2000000E+00  0.2000000E+00  0.2000000E+00  0.6400000E-01
    1        1.487649   1.000000
    2        3.406445   1.000000
    3        3.990773   1.000000
    4        4.094641   1.000000
    5        4.186114   1.000000
    6        4.519530   1.000000
    7        4.644809   1.000000
    8        5.697338   1.000000
    9        6.397063   1.000000
   10        6.487343   1.000000
   11        6.614396   1.000000
   12        6.853428   1.000000
   13        7.011860   1.000000
   14        7.183074   1.000000
   15        7.282142   1.000000
   16        7.523731   1.000000
   17        8.192309   1.000000
   18        8.275156   1.000000
   19        8.469096   1.000024
   20        8.979227   0.954582
   21        9.734163  -0.000056
   22       11.785390  -0.000000
   23       12.471957  -0.000000
   24       12.684063  -0.000000
   25       17.689766   0.000000
   26       17.916695   0.000000
   27       18.617752   0.000000
   28       21.112234   0.000000
   29       21.532868   0.000000
   30       21.724543   0.000000
 
  0.4000000E+00  0.2000000E+00  0.2000000E+00  0.6400000E-01
    1        2.385720   1.000000
    2        3.732583   1.000000
    3        4.189922   1.000000
    4        4.506582   1.000000
    5        4.521300   1.000000
    6        4.802234   1.000000
    7        5.297937   1.000000
    8        5.533677   1.000000
    9        5.767020   1.000000
   10        5.987571   1.000000
   11        6.387099   1.000000
   12        6.513396   1.000000
   13        6.734020   1.000000
   14        6.968215   1.000000
   15        7.085593   1.000000
   16        7.499640   1.000000
   17        7.976214   1.000000
   18        8.138097   1.000000
   19        8.568034   1.000369
   20        8.928011   1.017904
   21        9.454927  -0.018838
   22        9.732948  -0.000058
   23       13.771202  -0.000000
   24       13.791492  -0.000000
   25       15.500409   0.000000
   26       16.294135   0.000000
   27       20.117139   0.000000
   28       21.541963   0.000000
   29       22.128493   0.000000
   30       22.389815   0.000000
 
  0.2000000E+00  0.4000000E+00  0.2000000E+00  0.6400000E-01
    1        2.565295   1.000000
    2        3.619712   1.000000
    3        3.987114   1.000000
    4        4.462168   1.000000
    5        4.655276   1.000000
    6        4.839470   1.000000
    7        5.503952   1.000000
    8        5.599767   1.000000
    9        5.762989   1.000000
   10        6.079305   1.000000
   11        6.482421   1.000000
   12        6.531215   1.000000
   13        6.645750   1.000000
   14        6.950403   1.000000
   15        7.113414   1.000000
   16        7.261785   1.000000
   17        8.110269   1.000000
   18        8.181069   1.000000
   19        8.317106   1.000000
   20        8.846668   1.033491
   21        9.274268   0.012541
   22        9.603162  -0.001544
   23       13.785043  -0.000000
   24       14.027409  -0.000000
   25       15.592878   0.000000
   26       16.115404   0.000000
   27       20.204023   0.000000
   28       21.602039   0.000000
   29       22.263767   0.000000
   30       22.414783   0.000000
 
  0.2000000E+00  0.2000000E+00  0.4000000E+00  0.6400000E-01
    1        2.571031   1.000000
    2        3.619193   1.000000
    3        4.136704   1.000000
    4        4.474645   1.000000
    5        4.643989   1.000000
    6        5.010193   1.000000
    7        5.164625   1.000000
    8        5.524586   1.000000
    9        5.710154   1.000000
   10        5.950187   1.000000
   11        6.374018   1.000000
   12        6.518176   1.000000
   13        6.743143   1.000000
   14        6.992854   1.000000
   15        7.128743   1.000000
   16        7.363019   1.000000
   17        8.101843   1.000000
   18        8.132527   1.000000
   19        8.483021   1.000036
   20        8.768959   1.016987
   21        9.379990  -0.034265
   22        9.678331  -0.000259
   23       13.787122  -0.000000
   24       13.967770  -0.000000
   25       15.573478   0.000000
   26       16.203614   0.000000
   27       20.115925   0.000000
   28       21.383050   0.000000
   29       22.224630   0.000000
   30       22.483688   0.000000
 
  0.4000000E+00  0.4000000E+00  0.2000000E+00  0.6400000E-01
    1        3.020928   1.000000
    2        3.540080   1.000000
    3        3.844573   1.000000
    4        4.236375   1.000000
    5        5.170539   1.000000
    6        5.450994   1.000000
    7        5.708608   1.000000
    8        5.868054   1.000000
    9        6.037607   1.000000
   10        6.126434   1.000000
   11        6.300876   1.000000
   12        6.469324   1.000000
   13        6.576755   1.000000
   14        6.673696   1.000000
   15        6.833874   1.000000
   16        6.981589   1.000000
   17        7.829532   1.000000
   18        8.273239   1.000000
   19        8.678711   1.004162
   20        8.991929   0.929488
   21        9.153263   0.346349
   22       10.198974  -0.000000
   23       11.459748  -0.000000
   24       12.699480  -0.000000
   25       15.781520   0.000000
   26       17.479128   0.000000
   27       17.888722   0.000000
   28       19.880190   0.000000
   29       22.824031   0.000000
   30       24.622722   0.000000
 
  0.2000000E+00  0.4000000E+00  0.4000000E+00  0.6400000E-01
    1        3.011220   1.000000
    2        3.566749   1.000000
    3        3.626681   1.000000
    4        4.239405   1.000000
    5        5.174013   1.000000
    6        5.457835   1.000000
    7        5.696256   1.000000
    8        5.922865   1.000000
    9        6.036233   1.000000
   10        6.111022   1.000000
   11        6.302945   1.000000
   12        6.482250   1.000000
   13        6.586229   1.000000
   14        6.675420   1.000000
   15        6.820930   1.000000
   16        6.971182   1.000000
   17        7.872364   1.000000
   18        8.295933   1.000000
   19        8.812942   1.026906
   20        8.980483   0.952279
   21        9.133266   0.428318
   22       10.078391  -0.000000
   23       11.948281  -0.000000
   24       12.881950  -0.000000
   25       15.522263   0.000000
   26       17.039404   0.000000
   27       17.940986   0.000000
   28       19.846206   0.000000
   29       22.908719   0.000000
   30       24.468405   0.000000
 
  0.4000000E+00  0.2000000E+00  0.4000000E+00  0.6400000E-01
    1        3.015363   1.000000
    2        3.573390   1.000000
    3        3.879719   1.000000
    4        4.067818   1.000000
    5        5.135697   1.000000
    6        5.359965   1.000000
    7        5.671924   1.000000
    8        6.059121   1.000000
    9        6.148728   1.000000
   10        6.199899   1.000000
   11        6.408440   1.000000
   12        6.415446   1.000000
   13        6.569573   1.000000
   14        6.755005   1.000000
   15        6.826493   1.000000
   16        6.838449   1.000000
   17        8.001370   1.000000
   18        8.034364   1.000000
   19        8.489802   1.000044
   20        9.130750   0.438854
   21        9.282638   0.002234
   22       10.559726  -0.000000
   23       11.008112  -0.000000
   24       12.631579  -0.000000
   25       15.761393   0.000000
   26       17.523963   0.000000
   27       17.874870   0.000000
   28       19.941404   0.000000
   29       22.694902   0.000000
   30       24.688759   0.000000
 
  0.4000000E+00  0.4000000E+00  0.4000000E+00  0.6400000E-01
    1        2.893100   1.000000
    2        3.022425   1.000000
    3        3.246401   1.000000
    4        3.634492   1.000000
    5        5.584337   1.000000
    6        5.704871   1.000000
    7        5.842215   1.000000
    8        6.075741   1.000000
    9        6.193904   1.000000
   10        6.464929   1.000000
   11        6.576853   1.000000
   12        6.784273   1.000000
   13        7.245498   1.000000
   14        7.330161   1.000000
   15        7.501435   1.000000
   16        7.836539   1.000000
   17        8.232723   1.000000
   18        8.634799   1.001735
   19        8.691465   1.005248
   20        9.106411   0.541606
   21        9.659452  -0.000418
   22       10.448748  -0.000000
   23       10.863335  -0.000000
   24       11.099784  -0.000000
   25       14.932210   0.000000
   26       15.373006   0.000000
   27       16.185245   0.000000
   28       17.683736   0.000000
   29       25.344653   0.000000
   30       25.443664   0.000000
