 vasp.6.2.0 18Jan21 (build Mar 17 2021 09:06:54) complex                        
  
 executed on             LinuxIFC date 2021.06.11  11:56:31
 serial version


--------------------------------------------------------------------------------------------------------


 INCAR:
   ENCUT = 200.000000
   SIGMA = 0.200000
   EDIFF = 1.00e-06
   GGA = PE
   PREC = normal
   IBRION = -1
   ICHARG = 1
   ISMEAR = 1
   KPAR = 1
   NBANDS = 30
   NSW = 0
   NCORE = 1
   LCHARG = .TRUE.

 POTCAR:    PAW_PBE Pd 04Jan2005                  
 POTCAR:    PAW_PBE Ir 06Sep2000                  
 POTCAR:    PAW_PBE Pt 04Feb2005                  
 POTCAR:    PAW_PBE Cu 22Jun2005                  
 POTCAR:    PAW_PBE Pd 04Jan2005                  
   SHA256 =  dd6f6f02930356371984e2b707ff5e456046761dc76b07c1eba30abd15eb3c39 Pd/POTCAR             
   COPYR  = (c) Copyright 04Jan2005 Georg Kresse                                                    
   COPYR  = This file is part of the software VASP. Any use, copying, and all other rights are regul
   COPYR  = If you do not have a valid VASP license, you may not use, copy or distribute this file. 
   VRHFIN =Pd : s1 d9                                                                               
   LEXCH  = PE                                                                                      
   EATOM  =   809.7530 eV,   59.5152 Ry                                                             
                                                                                                    
   TITEL  = PAW_PBE Pd 04Jan2005                                                                    
   LULTRA =        F    use ultrasoft PP ?                                                          
   IUNSCR =        1    unscreen: 0-lin 1-nonlin 2-no                                               
   RPACOR =    2.000    partial core radius                                                         
   POMASS =  106.420; ZVAL   =   10.000    mass and valenz                                          
   RCORE  =    2.600    outmost cutoff radius                                                       
   RWIGS  =    2.710; RWIGS  =    1.434    wigner-seitz radius (au A)                               
   ENMAX  =  250.925; ENMIN  =  188.194 eV                                                          
   ICORE  =        3    local potential                                                             
   LCOR   =        T    correct aug charges                                                         
   LPAW   =        T    paw PP                                                                      
   EAUG   =  416.230                                                                                
   DEXC   =    0.000                                                                                
   RMAX   =    2.653    core radius for proj-oper                                                   
   RAUG   =    1.300    factor for augmentation sphere                                              
   RDEP   =    2.734    radius for radial grids                                                     
   RDEPT  =    2.103    core radius for aug-charge                                                  
                                                                                                    
   Atomic configuration                                                                             
   12 entries                                                                                       
     n  l   j            E        occ.                                                              
     1  0  0.50    -24164.6631   2.0000                                                             
     2  0  0.50     -3530.9218   2.0000                                                             
     2  1  1.50     -3165.6822   6.0000                                                             
     3  0  0.50      -639.4577   2.0000                                                             
     3  1  1.50      -519.4532   6.0000                                                             
     3  2  2.50      -328.9757  10.0000                                                             
     4  0  0.50       -88.7014   2.0000                                                             
     4  1  1.50       -54.4540   6.0000                                                             
     4  2  2.50        -6.6878   9.0000                                                             
     5  0  0.50        -4.3543   1.0000                                                             
     5  1  0.50        -1.3606   0.0000                                                             
     4  3  2.50        -1.3606   0.0000                                                             
   Description                                                                                      
     l       E           TYP  RCUT    TYP  RCUT                                                     
     2     -6.6878251     23  2.400                                                                 
     2     -8.0484077     23  2.400                                                                 
     0     -4.3542939     23  2.400                                                                 
     0      4.3406793     23  2.400                                                                 
     1     -4.0817478     23  2.600                                                                 
     1     15.8380318     23  2.600                                                                 
     3     -4.0817478     23  2.400                                                                 
  local pseudopotential read in
  partial core-charges read in
  partial kinetic energy density read in
  atomic valenz-charges read in
  non local Contribution for L=           2  read in
    real space projection operators read in
  non local Contribution for L=           2  read in
    real space projection operators read in
  non local Contribution for L=           0  read in
    real space projection operators read in
  non local Contribution for L=           0  read in
    real space projection operators read in
  non local Contribution for L=           1  read in
    real space projection operators read in
  non local Contribution for L=           1  read in
    real space projection operators read in
    PAW grid and wavefunctions read in
 
   number of l-projection  operators is LMAX  =           6
   number of lm-projection operators is LMMAX =          18
 
 POTCAR:    PAW_PBE Ir 06Sep2000                  
   SHA256 =  7c6af8d4d487b237782eb51e6f62977b27a1da78c3c96acd1cebefd6c308f120 Ir/POTCAR             
   COPYR  = (c) Copyright 06Sep2000 Georg Kresse                                                    
   COPYR  = This file is part of the software VASP. Any use, copying, and all other rights are regul
   COPYR  = If you do not have a valid VASP license, you may not use, copy or distribute this file. 
   VRHFIN =Ir: s1d8                                                                                 
   LEXCH  = PE                                                                                      
   EATOM  =   560.1833 eV,   41.1723 Ry                                                             
                                                                                                    
   TITEL  = PAW_PBE Ir 06Sep2000                                                                    
   LULTRA =        F    use ultrasoft PP ?                                                          
   IUNSCR =        1    unscreen: 0-lin 1-nonlin 2-no                                               
   RPACOR =    2.250    partial core radius                                                         
   POMASS =  192.220; ZVAL   =    9.000    mass and valenz                                          
   RCORE  =    2.600    outmost cutoff radius                                                       
   RWIGS  =    2.690; RWIGS  =    1.423    wigner-seitz radius (au A)                               
   ENMAX  =  210.864; ENMIN  =  158.148 eV                                                          
   RCLOC  =    1.857    cutoff for local pot                                                        
   LCOR   =        T    correct aug charges                                                         
   LPAW   =        T    paw PP                                                                      
   EAUG   =  318.962                                                                                
   DEXC   =    0.000                                                                                
   RMAX   =    2.667    core radius for proj-oper                                                   
   RAUG   =    1.300    factor for augmentation sphere                                              
   RDEP   =    2.748    radius for radial grids                                                     
   RDEPT  =    2.300    core radius for aug-charge                                                  
                                                                                                    
   Atomic configuration                                                                             
   16 entries                                                                                       
     n  l   j            E        occ.                                                              
     1  0  0.50    -76100.0449   2.0000                                                             
     2  0  0.50    -13308.1683   2.0000                                                             
     2  1  1.50    -11558.0021   6.0000                                                             
     3  0  0.50     -3110.7274   2.0000                                                             
     3  1  1.50     -2599.2109   6.0000                                                             
     3  2  2.50     -2037.1515  10.0000                                                             
     4  0  0.50      -661.6001   2.0000                                                             
     4  1  1.50      -493.8981   6.0000                                                             
     4  2  2.50      -288.1909  10.0000                                                             
     4  3  3.50       -59.5718  14.0000                                                             
     5  0  0.50       -95.3879   2.0000                                                             
     5  1  1.50       -52.2747   6.0000                                                             
     5  2  2.50        -5.4180   8.0000                                                             
     6  0  0.50        -5.5479   1.0000                                                             
     6  1  1.50        -6.8029   0.0000                                                             
     5  3  2.50        -1.3606   0.0000                                                             
   Description                                                                                      
     l       E           TYP  RCUT    TYP  RCUT                                                     
     2     -5.4179967     23  2.600                                                                 
     2     -6.7785793     23  2.600                                                                 
     0     -5.5478636     23  2.600                                                                 
     0      2.2542272     23  2.600                                                                 
     1     -2.7211652     23  2.600                                                                 
     1     20.4087390     23  2.600                                                                 
  local pseudopotential read in
  partial core-charges read in
  partial kinetic energy density read in
  atomic valenz-charges read in
  non local Contribution for L=           2  read in
    real space projection operators read in
  non local Contribution for L=           2  read in
    real space projection operators read in
  non local Contribution for L=           0  read in
    real space projection operators read in
  non local Contribution for L=           0  read in
    real space projection operators read in
  non local Contribution for L=           1  read in
    real space projection operators read in
  non local Contribution for L=           1  read in
    real space projection operators read in
    PAW grid and wavefunctions read in
 
   number of l-projection  operators is LMAX  =           6
   number of lm-projection operators is LMMAX =          18
 
 POTCAR:    PAW_PBE Pt 04Feb2005                  
   SHA256 =  3ed90460adef76debcff1cfb73ee1349b515b1a3db03439735b44de3a8db7dc8 Pt/POTCAR             
   COPYR  = (c) Copyright 04Feb2005 Georg Kresse                                                    
   COPYR  = This file is part of the software VASP. Any use, copying, and all other rights are regul
   COPYR  = If you do not have a valid VASP license, you may not use, copy or distribute this file. 
   VRHFIN =Pt: s1d9                                                                                 
   LEXCH  = PE                                                                                      
   EATOM  =   729.1176 eV,   53.5886 Ry                                                             
                                                                                                    
   TITEL  = PAW_PBE Pt 04Feb2005                                                                    
   LULTRA =        F    use ultrasoft PP ?                                                          
   IUNSCR =        1    unscreen: 0-lin 1-nonlin 2-no                                               
   RPACOR =    2.330    partial core radius                                                         
   POMASS =  195.080; ZVAL   =   10.000    mass and valenz                                          
   RCORE  =    2.600    outmost cutoff radius                                                       
   RWIGS  =    2.750; RWIGS  =    1.455    wigner-seitz radius (au A)                               
   ENMAX  =  230.283; ENMIN  =  172.712 eV                                                          
   ICORE  =        3    local potential                                                             
   LCOR   =        T    correct aug charges                                                         
   LPAW   =        T    paw PP                                                                      
   EAUG   =  358.966                                                                                
   DEXC   =    0.000                                                                                
   RMAX   =    2.658    core radius for proj-oper                                                   
   RAUG   =    1.300    factor for augmentation sphere                                              
   RDEP   =    2.761    radius for radial grids                                                     
   RDEPT  =    2.203    core radius for aug-charge                                                  
                                                                                                    
   Atomic configuration                                                                             
   16 entries                                                                                       
     n  l   j            E        occ.                                                              
     1  0  0.50    -78401.1885   2.0000                                                             
     2  0  0.50    -13770.7750   2.0000                                                             
     2  1  1.50    -11931.0468   6.0000                                                             
     3  0  0.50     -3234.7234   2.0000                                                             
     3  1  1.50     -2699.2216   6.0000                                                             
     3  2  2.50     -2119.5714  10.0000                                                             
     4  0  0.50      -695.1528   2.0000                                                             
     4  1  1.50      -519.6034   6.0000                                                             
     4  2  2.50      -306.6786  10.0000                                                             
     4  3  3.50       -70.1041  14.0000                                                             
     5  0  0.50      -101.7747   2.0000                                                             
     5  1  1.50       -55.9873   6.0000                                                             
     5  2  2.50        -6.1423   9.0000                                                             
     6  0  0.50        -5.6573   1.0000                                                             
     6  1  1.50        -6.8029   0.0000                                                             
     5  3  2.50        -1.3606   0.0000                                                             
   Description                                                                                      
     l       E           TYP  RCUT    TYP  RCUT                                                     
     2     -6.1423404     23  2.500                                                                 
     2     -7.5029230     23  2.500                                                                 
     0     -5.6573207     23  2.500                                                                 
     0      0.7416693     23  2.500                                                                 
     1     -2.7211652     23  2.600                                                                 
     1     20.4087390     23  2.600                                                                 
     3     -1.3605826     23  2.500                                                                 
  local pseudopotential read in
  partial core-charges read in
  partial kinetic energy density read in
  atomic valenz-charges read in
  non local Contribution for L=           2  read in
    real space projection operators read in
  non local Contribution for L=           2  read in
    real space projection operators read in
  non local Contribution for L=           0  read in
    real space projection operators read in
  non local Contribution for L=           0  read in
    real space projection operators read in
  non local Contribution for L=           1  read in
    real space projection operators read in
  non local Contribution for L=           1  read in
    real space projection operators read in
    PAW grid and wavefunctions read in
 
   number of l-projection  operators is LMAX  =           6
   number of lm-projection operators is LMMAX =          18
 
 POTCAR:    PAW_PBE Cu 22Jun2005                  
   SHA256 =  0e71e558f37a4e8407882b4609ceaae59938afaad9ced71dfe8490308a0ab630 Cu/POTCAR             
   COPYR  = (c) Copyright 22Jun2005 Georg Kresse                                                    
   COPYR  = This file is part of the software VASP. Any use, copying, and all other rights are regul
   COPYR  = If you do not have a valid VASP license, you may not use, copy or distribute this file. 
   VRHFIN =Cu: d10 p1                                                                               
   LEXCH  = PE                                                                                      
   EATOM  =  1390.9808 eV,  102.2342 Ry                                                             
                                                                                                    
   TITEL  = PAW_PBE Cu 22Jun2005                                                                    
   LULTRA =        F    use ultrasoft PP ?                                                          
   IUNSCR =        1    unscreen: 0-lin 1-nonlin 2-no                                               
   RPACOR =    2.000    partial core radius                                                         
   POMASS =   63.546; ZVAL   =   11.000    mass and valenz                                          
   RCORE  =    2.300    outmost cutoff radius                                                       
   RWIGS  =    2.200; RWIGS  =    1.164    wigner-seitz radius (au A)                               
   ENMAX  =  295.446; ENMIN  =  221.585 eV                                                          
   ICORE  =        3    local potential                                                             
   LCOR   =        T    correct aug charges                                                         
   LPAW   =        T    paw PP                                                                      
   EAUG   =  586.980                                                                                
   DEXC   =    0.000                                                                                
   RMAX   =    2.344    core radius for proj-oper                                                   
   RAUG   =    1.300    factor for augmentation sphere                                              
   RDEP   =    2.302    radius for radial grids                                                     
   RDEPT  =    1.771    core radius for aug-charge                                                  
                                                                                                    
   Atomic configuration                                                                             
    9 entries                                                                                       
     n  l   j            E        occ.                                                              
     1  0  0.50     -8850.2468   2.0000                                                             
     2  0  0.50     -1062.3498   2.0000                                                             
     2  1  1.50      -916.8226   6.0000                                                             
     3  0  0.50      -114.6929   2.0000                                                             
     3  1  1.50       -72.1325   6.0000                                                             
     3  2  2.50        -5.0394  10.0000                                                             
     4  0  0.50        -4.6097   1.0000                                                             
     4  1  0.50        -4.0817   0.0000                                                             
     4  3  2.50        -1.3606   0.0000                                                             
   Description                                                                                      
     l       E           TYP  RCUT    TYP  RCUT                                                     
     2     -5.0393973     23  2.200                                                                 
     2     10.8846608     23  2.200                                                                 
     0     -4.6097109     23  2.200                                                                 
     0      8.2520465     23  2.200                                                                 
     1     -2.7211652     23  2.200                                                                 
     1     21.7055443     23  2.200                                                                 
     3      2.7211652     23  2.300                                                                 
  local pseudopotential read in
  partial core-charges read in
  partial kinetic energy density read in
  atomic valenz-charges read in
  non local Contribution for L=           2  read in
    real space projection operators read in
  non local Contribution for L=           2  read in
    real space projection operators read in
  non local Contribution for L=           0  read in
    real space projection operators read in
  non local Contribution for L=           0  read in
    real space projection operators read in
  non local Contribution for L=           1  read in
    real space projection operators read in
  non local Contribution for L=           1  read in
    real space projection operators read in
    PAW grid and wavefunctions read in
 
   number of l-projection  operators is LMAX  =           6
   number of lm-projection operators is LMMAX =          18
 
  PAW_PBE Pd 04Jan2005                  :
 energy of atom  1       EATOM= -809.7530
 kinetic energy error for atom=    0.6770 (will be added to EATOM!!)
  PAW_PBE Ir 06Sep2000                  :
 energy of atom  2       EATOM= -560.1833
 kinetic energy error for atom=    0.0784 (will be added to EATOM!!)
  PAW_PBE Pt 04Feb2005                  :
 energy of atom  3       EATOM= -729.1176
 kinetic energy error for atom=    0.2729 (will be added to EATOM!!)
  PAW_PBE Cu 22Jun2005                  :
 energy of atom  4       EATOM=-1390.9808
 kinetic energy error for atom=    1.9611 (will be added to EATOM!!)
 
 
 POSCAR: Pd Ir Pt Cu
  positions in cartesian coordinates
  No initial velocities read in
 exchange correlation table for  LEXCH =        8
   RHO(1)=    0.500       N(1)  =     2000
   RHO(2)=  100.500       N(2)  =     4000
 


--------------------------------------------------------------------------------------------------------


 ion  position               nearest neighbor table
   1  0.000  0.000  0.000-   2 2.73   3 2.73   4 2.73   3 2.73   4 2.73   2 2.73   4 2.73   4 2.73
                             2 2.73   3 2.73   3 2.73   2 2.73
   2  0.500  0.500  0.000-   1 2.73   3 2.73   4 2.73   3 2.73   4 2.73   1 2.73   3 2.73   3 2.73
                             1 2.73   4 2.73   4 2.73   1 2.73
   3  0.500  0.000  0.500-   1 2.73   2 2.73   4 2.73   1 2.73   2 2.73   2 2.73   4 2.73   2 2.73
                             1 2.73   4 2.73   1 2.73   4 2.73
   4  0.000  0.500  0.500-   1 2.73   2 2.73   3 2.73   1 2.73   2 2.73   1 2.73   3 2.73   1 2.73
                             2 2.73   3 2.73   2 2.73   3 2.73
 
  LATTYP: Found a simple cubic cell.
 ALAT       =     3.8660000000
  
  Lattice vectors:
  
 A1 = (   3.8660000000,   0.0000000000,   0.0000000000)
 A2 = (   0.0000000000,   3.8660000000,   0.0000000000)
 A3 = (   0.0000000000,   0.0000000000,   3.8660000000)


Analysis of symmetry for initial positions (statically):
=====================================================================
 Subroutine PRICEL returns:
 Original cell was already a primitive cell.
 

 Routine SETGRP: Setting up the symmetry group for a 
 simple cubic supercell.


 Subroutine GETGRP returns: Found  8 space group operations
 (whereof  8 operations were pure point group operations)
 out of a pool of 48 trial point group operations.


The static configuration has the point symmetry D_2h.


Analysis of symmetry for dynamics (positions and initial velocities):
=====================================================================
 Subroutine PRICEL returns:
 Original cell was already a primitive cell.
 

 Routine SETGRP: Setting up the symmetry group for a 
 simple cubic supercell.


 Subroutine GETGRP returns: Found  8 space group operations
 (whereof  8 operations were pure point group operations)
 out of a pool of 48 trial point group operations.


The dynamic configuration has the point symmetry D_2h.


 Subroutine INISYM returns: Found  8 space group operations
 (whereof  8 operations are pure point group operations),
 and found     1 'primitive' translations


----------------------------------------------------------------------------------------

                                     Primitive cell                                     

  volume of cell :      57.7811

  direct lattice vectors                    reciprocal lattice vectors
     3.866000000  0.000000000  0.000000000     0.258665287  0.000000000  0.000000000
     0.000000000  3.866000000  0.000000000     0.000000000  0.258665287  0.000000000
     0.000000000  0.000000000  3.866000000     0.000000000  0.000000000  0.258665287

  length of vectors
     3.866000000  3.866000000  3.866000000     0.258665287  0.258665287  0.258665287

  position of ions in fractional coordinates (direct lattice)
     0.000000000  0.000000000  0.000000000
     0.500000000  0.500000000  0.000000000
     0.500000000  0.000000000  0.500000000
     0.000000000  0.500000000  0.500000000

  ion indices of the primitive-cell ions
   primitive index   ion index
                 1           1
                 2           2
                 3           3
                 4           4

----------------------------------------------------------------------------------------

 
 
 KPOINTS: KPOINTS created by Atomic Simulation Env

Automatic generation of k-mesh.
 Grid dimensions read from file:
 generate k-points for:    5    5    5

 Generating k-lattice:

  Cartesian coordinates                     Fractional coordinates (reciprocal lattice)
     0.051733057  0.000000000  0.000000000     0.200000000  0.000000000  0.000000000
     0.000000000  0.051733057  0.000000000     0.000000000  0.200000000  0.000000000
     0.000000000  0.000000000  0.051733057     0.000000000  0.000000000  0.200000000

  Length of vectors
     0.051733057  0.051733057  0.051733057

  Shift w.r.t. Gamma in fractional coordinates (k-lattice)
     0.000000000  0.000000000  0.000000000

 
 Subroutine IBZKPT returns following result:
 ===========================================
 
 Found     27 irreducible k-points:
 
 Following reciprocal coordinates:
            Coordinates               Weight
  0.000000  0.000000  0.000000      1.000000
  0.200000  0.000000  0.000000      2.000000
  0.000000  0.200000  0.000000      2.000000
  0.000000  0.000000  0.200000      2.000000
  0.400000  0.000000  0.000000      2.000000
  0.000000  0.400000  0.000000      2.000000
  0.000000  0.000000  0.400000      2.000000
  0.200000  0.200000  0.000000      4.000000
  0.000000  0.200000  0.200000      4.000000
  0.200000  0.000000  0.200000      4.000000
  0.400000  0.200000  0.000000      4.000000
  0.000000  0.400000  0.200000      4.000000
  0.200000  0.000000  0.400000      4.000000
 -0.200000  0.400000  0.000000      4.000000
 -0.400000  0.000000  0.200000      4.000000
  0.000000  0.200000  0.400000      4.000000
  0.400000  0.400000  0.000000      4.000000
  0.000000  0.400000  0.400000      4.000000
  0.400000  0.000000  0.400000      4.000000
  0.200000  0.200000  0.200000      8.000000
  0.400000  0.200000  0.200000      8.000000
  0.200000  0.400000  0.200000      8.000000
  0.200000  0.200000  0.400000      8.000000
  0.400000  0.400000  0.200000      8.000000
  0.200000  0.400000  0.400000      8.000000
  0.400000  0.200000  0.400000      8.000000
  0.400000  0.400000  0.400000      8.000000
 
 Following cartesian coordinates:
            Coordinates               Weight
  0.000000  0.000000  0.000000      1.000000
  0.051733  0.000000  0.000000      2.000000
  0.000000  0.051733  0.000000      2.000000
  0.000000  0.000000  0.051733      2.000000
  0.103466  0.000000  0.000000      2.000000
  0.000000  0.103466  0.000000      2.000000
  0.000000  0.000000  0.103466      2.000000
  0.051733  0.051733  0.000000      4.000000
  0.000000  0.051733  0.051733      4.000000
  0.051733  0.000000  0.051733      4.000000
  0.103466  0.051733  0.000000      4.000000
  0.000000  0.103466  0.051733      4.000000
  0.051733  0.000000  0.103466      4.000000
 -0.051733  0.103466  0.000000      4.000000
 -0.103466  0.000000  0.051733      4.000000
  0.000000  0.051733  0.103466      4.000000
  0.103466  0.103466  0.000000      4.000000
  0.000000  0.103466  0.103466      4.000000
  0.103466  0.000000  0.103466      4.000000
  0.051733  0.051733  0.051733      8.000000
  0.103466  0.051733  0.051733      8.000000
  0.051733  0.103466  0.051733      8.000000
  0.051733  0.051733  0.103466      8.000000
  0.103466  0.103466  0.051733      8.000000
  0.051733  0.103466  0.103466      8.000000
  0.103466  0.051733  0.103466      8.000000
  0.103466  0.103466  0.103466      8.000000
 


--------------------------------------------------------------------------------------------------------




 Dimension of arrays:
   k-points           NKPTS =     27   k-points in BZ     NKDIM =     27   number of bands    NBANDS=     30
   number of dos      NEDOS =    301   number of ions     NIONS =      4
   non local maximal  LDIM  =      6   non local SUM 2l+1 LMDIM =     18
   total plane-waves  NPLWV =   2744
   max r-space proj   IRMAX =      1   max aug-charges    IRDMAX=   3633
   dimension x,y,z NGX =    14 NGY =   14 NGZ =   14
   dimension x,y,z NGXF=    28 NGYF=   28 NGZF=   28
   support grid    NGXF=    28 NGYF=   28 NGZF=   28
   ions per type =               1   1   1   1
   NGX,Y,Z   is equivalent  to a cutoff of   6.02,  6.02,  6.02 a.u.
   NGXF,Y,Z  is equivalent  to a cutoff of  12.04, 12.04, 12.04 a.u.

 SYSTEM =  unknown system                          
 POSCAR =  Pd Ir Pt Cu                             

 Startparameter for this run:
   NWRITE =      2    write-flag & timer
   PREC   = normal    normal or accurate (medium, high low for compatibility)
   ISTART =      1    job   : 0-new  1-cont  2-samecut
   ICHARG =      1    charge: 1-file 2-atom 10-const
   ISPIN  =      1    spin polarized calculation?
   LNONCOLLINEAR =      F non collinear calculations
   LSORBIT =      F    spin-orbit coupling
   INIWAV =      1    electr: 0-lowe 1-rand  2-diag
   LASPH  =      F    aspherical Exc in radial PAW
   METAGGA=      F    non-selfconsistent MetaGGA calc.

 Electronic Relaxation 1
   ENCUT  =  200.0 eV  14.70 Ry    3.83 a.u.   4.46  4.46  4.46*2*pi/ulx,y,z
   ENINI  =  200.0     initial cutoff
   ENAUG  =  587.0 eV  augmentation charge cutoff
   NELM   =     60;   NELMIN=  2; NELMDL=  0     # of ELM steps 
   EDIFF  = 0.1E-05   stopping-criterion for ELM
   LREAL  =      F    real-space projection
   NLSPLINE    = F    spline interpolate recip. space projectors
   LCOMPAT=      F    compatible to vasp.4.4
   GGA_COMPAT  = T    GGA compatible to vasp.4.4-vasp.4.6
   LMAXPAW     = -100 max onsite density
   LMAXMIX     =    2 max onsite mixed and CHGCAR
   VOSKOWN=      0    Vosko Wilk Nusair interpolation
   ROPT   =    0.00000   0.00000   0.00000   0.00000
 Ionic relaxation
   EDIFFG = 0.1E-04   stopping-criterion for IOM
   NSW    =      0    number of steps for IOM
   NBLOCK =      1;   KBLOCK =      1    inner block; outer block 
   IBRION =     -1    ionic relax: 0-MD 1-quasi-New 2-CG
   NFREE  =      0    steps in history (QN), initial steepest desc. (CG)
   ISIF   =      2    stress and relaxation
   IWAVPR =      0    prediction:  0-non 1-charg 2-wave 3-comb
   ISYM   =      2    0-nonsym 1-usesym 2-fastsym
   LCORR  =      T    Harris-Foulkes like correction to forces

   POTIM  = 0.5000    time-step for ionic-motion
   TEIN   =    0.0    initial temperature
   TEBEG  =    0.0;   TEEND  =   0.0 temperature during run
   SMASS  =  -3.00    Nose mass-parameter (am)
   estimated Nose-frequenzy (Omega)   =  0.10E-29 period in steps = 0.13E+47 mass=  -0.342E-27a.u.
   SCALEE = 1.0000    scale energy and forces
   NPACO  =    256;   APACO  = 16.0  distance and # of slots for P.C.
   PSTRESS=    0.0 pullay stress

  Mass of Ions in am
   POMASS = 106.42192.22195.08 63.55
  Ionic Valenz
   ZVAL   =  10.00  9.00 10.00 11.00
  Atomic Wigner-Seitz radii
   RWIGS  =  -1.00 -1.00 -1.00 -1.00
  virtual crystal weights 
   VCA    =   1.00  1.00  1.00  1.00
   NELECT =      40.0000    total number of electrons
   NUPDOWN=      -1.0000    fix difference up-down

 DOS related values:
   EMIN   =  10.00;   EMAX   =-10.00  energy-range for DOS
   EFERMI =   0.00
   ISMEAR =     1;   SIGMA  =   0.20  broadening in eV -4-tet -1-fermi 0-gaus

 Electronic relaxation 2 (details)
   IALGO  =     38    algorithm
   LDIAG  =      T    sub-space diagonalisation (order eigenvalues)
   LSUBROT=      F    optimize rotation matrix (better conditioning)
   TURBO    =      0    0=normal 1=particle mesh
   IRESTART =      0    0=no restart 2=restart with 2 vectors
   NREBOOT  =      0    no. of reboots
   NMIN     =      0    reboot dimension
   EREF     =   0.00    reference energy to select bands
   IMIX   =      4    mixing-type and parameters
     AMIX     =   0.40;   BMIX     =  1.00
     AMIX_MAG =   1.60;   BMIX_MAG =  1.00
     AMIN     =   0.10
     WC   =   100.;   INIMIX=   1;  MIXPRE=   1;  MAXMIX= -45

 Intra band minimization:
   WEIMIN = 0.0000     energy-eigenvalue tresh-hold
   EBREAK =  0.83E-08  absolut break condition
   DEPER  =   0.30     relativ break condition  

   TIME   =   0.40     timestep for ELM

  volume/ion in A,a.u.               =      14.45        97.48
  Fermi-wavevector in a.u.,A,eV,Ry     =   1.448215  2.736729 28.535854  2.097326
  Thomas-Fermi vector in A             =   2.566081
 
 Write flags
   LWAVE        =      T    write WAVECAR
   LDOWNSAMPLE  =      F    k-point downsampling of WAVECAR
   LCHARG       =      T    write CHGCAR
   LVTOT        =      F    write LOCPOT, total local potential
   LVHAR        =      F    write LOCPOT, Hartree potential only
   LELF         =      F    write electronic localiz. function (ELF)
   LORBIT       =      0    0 simple, 1 ext, 2 COOP (PROOUT), +10 PAW based schemes


 Dipole corrections
   LMONO  =      F    monopole corrections only (constant potential shift)
   LDIPOL =      F    correct potential (dipole corrections)
   IDIPOL =      0    1-x, 2-y, 3-z, 4-all directions 
   EPSILON=  1.0000000 bulk dielectric constant

 Exchange correlation treatment:
   GGA     =    PE    GGA type
   LEXCH   =     8    internal setting for exchange type
   VOSKOWN=      0    Vosko Wilk Nusair interpolation
   LHFCALC =     F    Hartree Fock is set to
   LHFONE  =     F    Hartree Fock one center treatment
   AEXX    =    0.0000 exact exchange contribution

 Linear response parameters
   LEPSILON=     F    determine dielectric tensor
   LRPA    =     F    only Hartree local field effects (RPA)
   LNABLA  =     F    use nabla operator in PAW spheres
   LVEL    =     F    velocity operator in full k-point grid
   LINTERFAST=   F  fast interpolation
   KINTER  =     0    interpolate to denser k-point grid
   CSHIFT  =0.1000    complex shift for real part using Kramers Kronig
   OMEGAMAX=  -1.0    maximum frequency
   DEG_THRESHOLD= 0.2000000E-02 threshold for treating states as degnerate
   RTIME   =   -0.100 relaxation time in fs
  (WPLASMAI=    0.000 imaginary part of plasma frequency in eV, 0.658/RTIME)
   DFIELD  = 0.0000000 0.0000000 0.0000000 field for delta impulse in time
 
 Orbital magnetization related:
   ORBITALMAG=     F  switch on orbital magnetization
   LCHIMAG   =     F  perturbation theory with respect to B field
   DQ        =  0.001000  dq finite difference perturbation B field
   LLRAUG    =     F  two centre corrections for induced B field



--------------------------------------------------------------------------------------------------------


 Static calculation
 charge density and potential will be updated during run
 non-spin polarized calculation
 Variant of blocked Davidson
 Davidson routine will perform the subspace rotation
 perform sub-space diagonalisation
    after iterative eigenvector-optimisation
 modified Broyden-mixing scheme, WC =      100.0
 initial mixing is a Kerker type mixing with AMIX =  0.4000 and BMIX =      1.0000
 Hartree-type preconditioning will be used
 using additional bands           10
 reciprocal scheme for non local part
 use partial core corrections
 calculate Harris-corrections to forces 
   (improved forces if not selfconsistent)
 use gradient corrections 
 use of overlap-Matrix (Vanderbilt PP)
 Methfessel and Paxton  Order N= 1 SIGMA  =   0.20


--------------------------------------------------------------------------------------------------------


  energy-cutoff  :      200.00
  volume of cell :       57.78
      direct lattice vectors                 reciprocal lattice vectors
     3.866000000  0.000000000  0.000000000     0.258665287  0.000000000  0.000000000
     0.000000000  3.866000000  0.000000000     0.000000000  0.258665287  0.000000000
     0.000000000  0.000000000  3.866000000     0.000000000  0.000000000  0.258665287

  length of vectors
     3.866000000  3.866000000  3.866000000     0.258665287  0.258665287  0.258665287


 
 old parameters found on file WAVECAR:
  energy-cutoff  :      200.00
  volume of cell :       57.78
      direct lattice vectors                 reciprocal lattice vectors
     3.866000000  0.000000000  0.000000000     0.258665287  0.000000000  0.000000000
     0.000000000  3.866000000  0.000000000     0.000000000  0.258665287  0.000000000
     0.000000000  0.000000000  3.866000000     0.000000000  0.000000000  0.258665287

  length of vectors

 
 k-points in units of 2pi/SCALE and weight: KPOINTS created by Atomic Simulation Env
   0.00000000  0.00000000  0.00000000       0.008
   0.05173306  0.00000000  0.00000000       0.016
   0.00000000  0.05173306  0.00000000       0.016
   0.00000000  0.00000000  0.05173306       0.016
   0.10346611  0.00000000  0.00000000       0.016
   0.00000000  0.10346611  0.00000000       0.016
   0.00000000  0.00000000  0.10346611       0.016
   0.05173306  0.05173306  0.00000000       0.032
   0.00000000  0.05173306  0.05173306       0.032
   0.05173306  0.00000000  0.05173306       0.032
   0.10346611  0.05173306  0.00000000       0.032
   0.00000000  0.10346611  0.05173306       0.032
   0.05173306  0.00000000  0.10346611       0.032
  -0.05173306  0.10346611  0.00000000       0.032
  -0.10346611  0.00000000  0.05173306       0.032
   0.00000000  0.05173306  0.10346611       0.032
   0.10346611  0.10346611  0.00000000       0.032
   0.00000000  0.10346611  0.10346611       0.032
   0.10346611  0.00000000  0.10346611       0.032
   0.05173306  0.05173306  0.05173306       0.064
   0.10346611  0.05173306  0.05173306       0.064
   0.05173306  0.10346611  0.05173306       0.064
   0.05173306  0.05173306  0.10346611       0.064
   0.10346611  0.10346611  0.05173306       0.064
   0.05173306  0.10346611  0.10346611       0.064
   0.10346611  0.05173306  0.10346611       0.064
   0.10346611  0.10346611  0.10346611       0.064
 
 k-points in reciprocal lattice and weights: KPOINTS created by Atomic Simulation Env
   0.00000000  0.00000000  0.00000000       0.008
   0.20000000  0.00000000  0.00000000       0.016
   0.00000000  0.20000000  0.00000000       0.016
   0.00000000  0.00000000  0.20000000       0.016
   0.40000000  0.00000000  0.00000000       0.016
   0.00000000  0.40000000  0.00000000       0.016
   0.00000000  0.00000000  0.40000000       0.016
   0.20000000  0.20000000  0.00000000       0.032
   0.00000000  0.20000000  0.20000000       0.032
   0.20000000  0.00000000  0.20000000       0.032
   0.40000000  0.20000000  0.00000000       0.032
   0.00000000  0.40000000  0.20000000       0.032
   0.20000000  0.00000000  0.40000000       0.032
  -0.20000000  0.40000000  0.00000000       0.032
  -0.40000000  0.00000000  0.20000000       0.032
   0.00000000  0.20000000  0.40000000       0.032
   0.40000000  0.40000000  0.00000000       0.032
   0.00000000  0.40000000  0.40000000       0.032
   0.40000000  0.00000000  0.40000000       0.032
   0.20000000  0.20000000  0.20000000       0.064
   0.40000000  0.20000000  0.20000000       0.064
   0.20000000  0.40000000  0.20000000       0.064
   0.20000000  0.20000000  0.40000000       0.064
   0.40000000  0.40000000  0.20000000       0.064
   0.20000000  0.40000000  0.40000000       0.064
   0.40000000  0.20000000  0.40000000       0.064
   0.40000000  0.40000000  0.40000000       0.064
 
 position of ions in fractional coordinates (direct lattice) 
   0.00000000  0.00000000  0.00000000
   0.50000000  0.50000000  0.00000000
   0.50000000  0.00000000  0.50000000
   0.00000000  0.50000000  0.50000000
 
 position of ions in cartesian coordinates  (Angst):
   0.00000000  0.00000000  0.00000000
   1.93300000  1.93300000  0.00000000
   1.93300000  0.00000000  1.93300000
   0.00000000  1.93300000  1.93300000
 


--------------------------------------------------------------------------------------------------------


 k-point   1 :   0.0000 0.0000 0.0000  plane waves:     365
 k-point   2 :   0.2000 0.0000 0.0000  plane waves:     373
 k-point   3 :   0.0000 0.2000 0.0000  plane waves:     373
 k-point   4 :   0.0000 0.0000 0.2000  plane waves:     373
 k-point   5 :   0.4000 0.0000 0.0000  plane waves:     373
 k-point   6 :   0.0000 0.4000 0.0000  plane waves:     373
 k-point   7 :   0.0000 0.0000 0.4000  plane waves:     373
 k-point   8 :   0.2000 0.2000 0.0000  plane waves:     372
 k-point   9 :   0.0000 0.2000 0.2000  plane waves:     372
 k-point  10 :   0.2000 0.0000 0.2000  plane waves:     372
 k-point  11 :   0.4000 0.2000 0.0000  plane waves:     371
 k-point  12 :   0.0000 0.4000 0.2000  plane waves:     371
 k-point  13 :   0.2000 0.0000 0.4000  plane waves:     371
 k-point  14 :  -0.2000 0.4000 0.0000  plane waves:     371
 k-point  15 :  -0.4000 0.0000 0.2000  plane waves:     371
 k-point  16 :   0.0000 0.2000 0.4000  plane waves:     371
 k-point  17 :   0.4000 0.4000 0.0000  plane waves:     372
 k-point  18 :   0.0000 0.4000 0.4000  plane waves:     372
 k-point  19 :   0.4000 0.0000 0.4000  plane waves:     372
 k-point  20 :   0.2000 0.2000 0.2000  plane waves:     377
 k-point  21 :   0.4000 0.2000 0.2000  plane waves:     369
 k-point  22 :   0.2000 0.4000 0.2000  plane waves:     369
 k-point  23 :   0.2000 0.2000 0.4000  plane waves:     369
 k-point  24 :   0.4000 0.4000 0.2000  plane waves:     371
 k-point  25 :   0.2000 0.4000 0.4000  plane waves:     371
 k-point  26 :   0.4000 0.2000 0.4000  plane waves:     371
 k-point  27 :   0.4000 0.4000 0.4000  plane waves:     356

 maximum number of plane-waves:       377
 maximum index in each direction: 
   IXMAX=    4   IYMAX=    4   IZMAX=    4
   IXMIN=   -4   IYMIN=   -4   IZMIN=   -4


 total amount of memory used by VASP MPI-rank0    43549. kBytes
=======================================================================

   base      :      30000. kBytes
   nonl-proj :       5887. kBytes
   grid      :       1781. kBytes
   one-center:         62. kBytes
   wavefun   :       5819. kBytes
 
     INWAV:  cpu time    0.0070: real time    0.0070
 Broyden mixing: mesh for mixing (old mesh)
   NGX =  9   NGY =  9   NGZ =  9
  (NGX  = 28   NGY  = 28   NGZ  = 28)
  gives a total of    729 points

 initial charge density was supplied:
 number of electron      39.9998799 magnetization 
 keeping initial charge density in first step


--------------------------------------------------------------------------------------------------------


 Maximum index for augmentation-charges         3287 (set IRDMAX)


--------------------------------------------------------------------------------------------------------


 First call to EWALD:  gamma=   0.458
 Maximum number of real-space cells 3x 3x 3
 Maximum number of reciprocal cells 3x 3x 3

    FEWALD:  cpu time    0.0009: real time    0.0009


--------------------------------------- Iteration      1(   1)  ---------------------------------------


    POTLOK:  cpu time    0.0055: real time    0.0055
    SETDIJ:  cpu time    0.0038: real time    0.0038
     EDDAV:  cpu time    0.2520: real time    0.2724
       DOS:  cpu time    0.0024: real time    0.0024
    CHARGE:  cpu time    0.0156: real time    0.0156
    MIXING:  cpu time    0.0002: real time    0.0002
    --------------------------------------------
      LOOP:  cpu time    0.2794: real time    0.2998

 eigenvalue-minimisations  :  1958
 total energy-change (2. order) :-0.2146122E+02  (-0.5777678E-03)
 number of electron      39.9998798 magnetization 
 augmentation part       16.7920527 magnetization 

 Broyden mixing:
  rms(total) = 0.12688E-01    rms(broyden)= 0.12071E-01
  rms(prec ) = 0.23976E-01
  weight for this iteration     100.00

 Free energy of the ion-electron system (eV)
  ---------------------------------------------------
  alpha Z        PSCENC =       244.65455147
  Ewald energy   TEWEN  =     -3423.86860972
  -Hartree energ DENC   =      -594.94061728
  -exchange      EXHF   =         0.00000000
  -V(xc)+E(xc)   XCENC  =         1.51854053
  PAW double counting   =      3968.44261461    -3948.35268458
  entropy T*S    EENTRO =        -0.00300788
  eigenvalues    EBANDS =       244.04268285
  atomic energy  EATOM  =      3487.04531016
  Solvation  Ediel_sol  =         0.00000000
  ---------------------------------------------------
  free energy    TOTEN  =       -21.46121985 eV

  energy without entropy =      -21.45821197  energy(sigma->0) =      -21.46021722


--------------------------------------------------------------------------------------------------------




--------------------------------------- Iteration      1(   2)  ---------------------------------------


    POTLOK:  cpu time    0.0054: real time    0.0054
    SETDIJ:  cpu time    0.0038: real time    0.0038
     EDDAV:  cpu time    0.2370: real time    0.2370
       DOS:  cpu time    0.0024: real time    0.0024
    CHARGE:  cpu time    0.0153: real time    0.0153
    MIXING:  cpu time    0.0002: real time    0.0002
    --------------------------------------------
      LOOP:  cpu time    0.2642: real time    0.2642

 eigenvalue-minimisations  :  1976
 total energy-change (2. order) : 0.2719482E-01  (-0.9008890E-03)
 number of electron      39.9998801 magnetization 
 augmentation part       16.7878092 magnetization 

 Broyden mixing:
  rms(total) = 0.20175E-01    rms(broyden)= 0.19773E-01
  rms(prec ) = 0.54644E-01
  weight for this iteration     100.00

 eigenvalues of (default mixing * dielectric matrix)
  average eigenvalue GAMMA=   0.3711
  0.3711

 Free energy of the ion-electron system (eV)
  ---------------------------------------------------
  alpha Z        PSCENC =       244.65455147
  Ewald energy   TEWEN  =     -3423.86860972
  -Hartree energ DENC   =      -595.01114258
  -exchange      EXHF   =         0.00000000
  -V(xc)+E(xc)   XCENC  =         1.52388829
  PAW double counting   =      3968.72485717    -3948.71579720
  entropy T*S    EENTRO =        -0.00503793
  eigenvalues    EBANDS =       244.21795533
  atomic energy  EATOM  =      3487.04531016
  Solvation  Ediel_sol  =         0.00000000
  ---------------------------------------------------
  free energy    TOTEN  =       -21.43402503 eV

  energy without entropy =      -21.42898710  energy(sigma->0) =      -21.43234572


--------------------------------------------------------------------------------------------------------




--------------------------------------- Iteration      1(   3)  ---------------------------------------


    POTLOK:  cpu time    0.0052: real time    0.0052
    SETDIJ:  cpu time    0.0038: real time    0.0038
     EDDAV:  cpu time    0.2580: real time    0.2580
       DOS:  cpu time    0.0024: real time    0.0024
    CHARGE:  cpu time    0.0158: real time    0.0158
    MIXING:  cpu time    0.0002: real time    0.0002
    --------------------------------------------
      LOOP:  cpu time    0.2855: real time    0.2855

 eigenvalue-minimisations  :  2162
 total energy-change (2. order) : 0.6307049E-03  (-0.1192483E-03)
 number of electron      39.9998799 magnetization 
 augmentation part       16.7924876 magnetization 

 Broyden mixing:
  rms(total) = 0.45962E-02    rms(broyden)= 0.45485E-02
  rms(prec ) = 0.99856E-02
  weight for this iteration     100.00

 eigenvalues of (default mixing * dielectric matrix)
  average eigenvalue GAMMA=   0.4615
  0.5534  0.3697

 Free energy of the ion-electron system (eV)
  ---------------------------------------------------
  alpha Z        PSCENC =       244.65455147
  Ewald energy   TEWEN  =     -3423.86860972
  -Hartree energ DENC   =      -594.92390996
  -exchange      EXHF   =         0.00000000
  -V(xc)+E(xc)   XCENC  =         1.51908441
  PAW double counting   =      3968.63535693    -3948.57288401
  entropy T*S    EENTRO =        -0.00433467
  eigenvalues    EBANDS =       244.08204107
  atomic energy  EATOM  =      3487.04531016
  Solvation  Ediel_sol  =         0.00000000
  ---------------------------------------------------
  free energy    TOTEN  =       -21.43339433 eV

  energy without entropy =      -21.42905966  energy(sigma->0) =      -21.43194944


--------------------------------------------------------------------------------------------------------




--------------------------------------- Iteration      1(   4)  ---------------------------------------


    POTLOK:  cpu time    0.0052: real time    0.0052
    SETDIJ:  cpu time    0.0038: real time    0.0038
     EDDAV:  cpu time    0.2599: real time    0.2599
       DOS:  cpu time    0.0024: real time    0.0024
    CHARGE:  cpu time    0.0153: real time    0.0153
    MIXING:  cpu time    0.0003: real time    0.0003
    --------------------------------------------
      LOOP:  cpu time    0.2868: real time    0.2868

 eigenvalue-minimisations  :  2226
 total energy-change (2. order) : 0.3387565E-05  (-0.6676485E-05)
 number of electron      39.9998799 magnetization 
 augmentation part       16.7913230 magnetization 

 Broyden mixing:
  rms(total) = 0.38246E-02    rms(broyden)= 0.38235E-02
  rms(prec ) = 0.80516E-02
  weight for this iteration     100.00

 eigenvalues of (default mixing * dielectric matrix)
  average eigenvalue GAMMA=   0.4413
  0.5186  0.5186  0.2866

 Free energy of the ion-electron system (eV)
  ---------------------------------------------------
  alpha Z        PSCENC =       244.65455147
  Ewald energy   TEWEN  =     -3423.86860972
  -Hartree energ DENC   =      -594.95854339
  -exchange      EXHF   =         0.00000000
  -V(xc)+E(xc)   XCENC  =         1.52023903
  PAW double counting   =      3968.61879258    -3948.56407503
  entropy T*S    EENTRO =        -0.00444634
  eigenvalues    EBANDS =       244.12339031
  atomic energy  EATOM  =      3487.04531016
  Solvation  Ediel_sol  =         0.00000000
  ---------------------------------------------------
  free energy    TOTEN  =       -21.43339094 eV

  energy without entropy =      -21.42894460  energy(sigma->0) =      -21.43190883


--------------------------------------------------------------------------------------------------------




--------------------------------------- Iteration      1(   5)  ---------------------------------------


    POTLOK:  cpu time    0.0052: real time    0.0052
    SETDIJ:  cpu time    0.0038: real time    0.0038
     EDDAV:  cpu time    0.2234: real time    0.2234
       DOS:  cpu time    0.0024: real time    0.0024
    CHARGE:  cpu time    0.0153: real time    0.0153
    MIXING:  cpu time    0.0002: real time    0.0002
    --------------------------------------------
      LOOP:  cpu time    0.2502: real time    0.2502

 eigenvalue-minimisations  :  1790
 total energy-change (2. order) : 0.4686444E-05  (-0.9249934E-06)
 number of electron      39.9998799 magnetization 
 augmentation part       16.7918962 magnetization 

 Broyden mixing:
  rms(total) = 0.28617E-02    rms(broyden)= 0.28608E-02
  rms(prec ) = 0.57140E-02
  weight for this iteration     100.00

 eigenvalues of (default mixing * dielectric matrix)
  average eigenvalue GAMMA=   0.5311
  0.7335  0.7335  0.3287  0.3287

 Free energy of the ion-electron system (eV)
  ---------------------------------------------------
  alpha Z        PSCENC =       244.65455147
  Ewald energy   TEWEN  =     -3423.86860972
  -Hartree energ DENC   =      -594.94107767
  -exchange      EXHF   =         0.00000000
  -V(xc)+E(xc)   XCENC  =         1.51938965
  PAW double counting   =      3968.58457191    -3948.52371958
  entropy T*S    EENTRO =        -0.00437729
  eigenvalues    EBANDS =       244.10057483
  atomic energy  EATOM  =      3487.04531016
  Solvation  Ediel_sol  =         0.00000000
  ---------------------------------------------------
  free energy    TOTEN  =       -21.43338625 eV

  energy without entropy =      -21.42900896  energy(sigma->0) =      -21.43192715


--------------------------------------------------------------------------------------------------------




--------------------------------------- Iteration      1(   6)  ---------------------------------------


    POTLOK:  cpu time    0.0053: real time    0.0053
    SETDIJ:  cpu time    0.0038: real time    0.0038
     EDDAV:  cpu time    0.1493: real time    0.1493
       DOS:  cpu time    0.0023: real time    0.0023
    --------------------------------------------
      LOOP:  cpu time    0.1607: real time    0.1607

 eigenvalue-minimisations  :   972
 total energy-change (2. order) : 0.2544675E-07  (-0.1017943E-06)
 number of electron      39.9998799 magnetization 
 augmentation part       16.7918962 magnetization 

 Free energy of the ion-electron system (eV)
  ---------------------------------------------------
  alpha Z        PSCENC =       244.65455147
  Ewald energy   TEWEN  =     -3423.86860972
  -Hartree energ DENC   =      -594.93969896
  -exchange      EXHF   =         0.00000000
  -V(xc)+E(xc)   XCENC  =         1.51917065
  PAW double counting   =      3968.55007484    -3948.48796795
  entropy T*S    EENTRO =        -0.00437049
  eigenvalues    EBANDS =       244.09815378
  atomic energy  EATOM  =      3487.04531016
  Solvation  Ediel_sol  =         0.00000000
  ---------------------------------------------------
  free energy    TOTEN  =       -21.43338623 eV

  energy without entropy =      -21.42901574  energy(sigma->0) =      -21.43192940


--------------------------------------------------------------------------------------------------------




 average (electrostatic) potential at core
  the test charge radii are     1.1199  1.2793  1.2059  0.9430
  (the norm of the test charge is              1.0000)
       1 -72.0866       2 -48.9071       3 -65.0583       4 -62.1014
 
 
 
 E-fermi :   9.1163     XC(G=0): -13.1337     alpha+bet :-15.1862

 Fermi energy:         9.1162572696

 k-point     1 :       0.0000    0.0000    0.0000
  band No.  band energies     occupation 
      1       0.1152      2.00000
      2       2.5391      2.00000
      3       3.4990      2.00000
      4       3.5537      2.00000
      5       3.6375      2.00000
      6       3.6937      2.00000
      7       3.7388      2.00000
      8       6.2250      2.00000
      9       6.2648      2.00000
     10       6.3713      2.00000
     11       7.5010      2.00000
     12       7.6237      2.00000
     13       8.0273      2.00000
     14       8.2728      2.00000
     15       8.3850      2.00000
     16       9.1207      0.96227
     17       9.3137     -0.04752
     18       9.3674     -0.07063
     19       9.6886     -0.00040
     20      10.1507     -0.00000
     21      10.7371     -0.00000
     22      11.4224     -0.00000
     23      11.4325     -0.00000
     24      11.4437     -0.00000
     25      17.8493      0.00000
     26      18.1529      0.00000
     27      19.7236      0.00000
     28      20.3355      0.00000
     29      20.4836      0.00000
     30      20.7287      0.00000

 k-point     2 :       0.2000    0.0000    0.0000
  band No.  band energies     occupation 
      1       0.5791      2.00000
      2       2.8381      2.00000
      3       3.6653      2.00000
      4       3.7060      2.00000
      5       3.8831      2.00000
      6       3.9719      2.00000
      7       4.0073      2.00000
      8       6.0743      2.00000
      9       6.3536      2.00000
     10       6.5191      2.00000
     11       7.2770      2.00000
     12       7.4580      2.00000
     13       7.5648      2.00000
     14       7.7690      2.00000
     15       7.8372      2.00000
     16       8.0224      2.00000
     17       8.9037      2.06094
     18       9.0343      1.63308
     19       9.1497      0.72105
     20       9.4080     -0.05887
     21       9.7056     -0.00025
     22      10.7382     -0.00000
     23      13.1694     -0.00000
     24      13.1702     -0.00000
     25      17.8427      0.00000
     26      18.0189      0.00000
     27      20.4287      0.00000
     28      20.4733      0.00000
     29      20.6178      0.00000
     30      20.9787      0.00000

 k-point     3 :       0.0000    0.2000    0.0000
  band No.  band energies     occupation 
      1       0.6341      2.00000
      2       2.8587      2.00000
      3       3.6056      2.00000
      4       3.7874      2.00000
      5       3.8287      2.00000
      6       3.9705      2.00000
      7       4.0445      2.00000
      8       6.2071      2.00000
      9       6.3866      2.00000
     10       6.4014      2.00000
     11       7.1875      2.00000
     12       7.4583      2.00000
     13       7.5810      2.00000
     14       7.6540      2.00000
     15       8.1714      2.00000
     16       8.6725      2.00741
     17       8.9232      2.04232
     18       9.0851      1.26048
     19       9.1444      0.76420
     20       9.1910      0.41407
     21       9.3521     -0.07023
     22       9.6909     -0.00037
     23      13.2809     -0.00000
     24      13.4031     -0.00000
     25      17.4290      0.00000
     26      18.6275      0.00000
     27      20.3633      0.00000
     28      20.4201      0.00000
     29      20.6216      0.00000
     30      21.2663      0.00000

 k-point     4 :       0.0000    0.0000    0.2000
  band No.  band energies     occupation 
      1       0.6359      2.00000
      2       2.8702      2.00000
      3       3.7558      2.00000
      4       3.8372      2.00000
      5       3.8624      2.00000
      6       3.8908      2.00000
      7       3.9166      2.00000
      8       6.0160      2.00000
      9       6.3689      2.00000
     10       6.5177      2.00000
     11       7.2055      2.00000
     12       7.4318      2.00000
     13       7.5469      2.00000
     14       7.8616      2.00000
     15       7.9534      2.00000
     16       8.3685      2.00000
     17       8.7278      2.01917
     18       9.0455      1.55940
     19       9.0980      1.15401
     20       9.2230      0.22377
     21       9.7145     -0.00020
     22      10.1389     -0.00000
     23      13.2479     -0.00000
     24      13.3693     -0.00000
     25      17.1120      0.00000
     26      18.8374      0.00000
     27      20.4558      0.00000
     28      20.4716      0.00000
     29      20.7360      0.00000
     30      21.1994      0.00000

 k-point     5 :       0.4000    0.0000    0.0000
  band No.  band energies     occupation 
      1       1.6721      2.00000
      2       3.4888      2.00000
      3       3.7997      2.00000
      4       4.0268      2.00000
      5       4.6473      2.00000
      6       4.6891      2.00000
      7       4.7221      2.00000
      8       5.7452      2.00000
      9       5.9390      2.00000
     10       6.0405      2.00000
     11       6.8571      2.00000
     12       6.9025      2.00000
     13       6.9307      2.00000
     14       7.1683      2.00000
     15       7.2608      2.00000
     16       7.4910      2.00000
     17       7.9295      2.00000
     18       8.1443      2.00000
     19       8.1695      2.00000
     20       8.4900      2.00009
     21       9.2795      0.01196
     22      10.7205     -0.00000
     23      15.6994      0.00000
     24      15.7712      0.00000
     25      17.0602      0.00000
     26      17.9792      0.00000
     27      18.6460      0.00000
     28      18.7650      0.00000
     29      19.1107      0.00000
     30      21.8260      0.00000

 k-point     6 :       0.0000    0.4000    0.0000
  band No.  band energies     occupation 
      1       2.0051      2.00000
      2       3.2993      2.00000
      3       3.7140      2.00000
      4       4.1041      2.00000
      5       4.5794      2.00000
      6       4.6259      2.00000
      7       4.9157      2.00000
      8       5.8820      2.00000
      9       6.2658      2.00000
     10       6.3048      2.00000
     11       6.7845      2.00000
     12       6.8563      2.00000
     13       6.8749      2.00000
     14       7.1426      2.00000
     15       7.4469      2.00000
     16       7.7738      2.00000
     17       7.7854      2.00000
     18       8.0096      2.00000
     19       8.1214      2.00000
     20       8.3482      2.00000
     21       8.9937      1.85144
     22       9.2953     -0.02105
     23      15.9182      0.00000
     24      15.9561      0.00000
     25      16.6905      0.00000
     26      18.4669      0.00000
     27      18.4885      0.00000
     28      18.6387      0.00000
     29      20.4345      0.00000
     30      20.7329      0.00000

 k-point     7 :       0.0000    0.0000    0.4000
  band No.  band energies     occupation 
      1       2.0228      2.00000
      2       3.2989      2.00000
      3       3.9304      2.00000
      4       4.3309      2.00000
      5       4.5621      2.00000
      6       4.6725      2.00000
      7       4.6798      2.00000
      8       5.5784      2.00000
      9       5.9412      2.00000
     10       6.0702      2.00000
     11       6.8230      2.00000
     12       6.9396      2.00000
     13       6.9455      2.00000
     14       7.1079      2.00000
     15       7.3283      2.00000
     16       7.6042      2.00000
     17       7.9351      2.00000
     18       7.9556      2.00000
     19       8.2791      2.00000
     20       8.3610      2.00000
     21       8.8550      2.06909
     22      10.0982     -0.00000
     23      15.8925      0.00000
     24      16.0052      0.00000
     25      16.2484      0.00000
     26      18.4632      0.00000
     27      18.7330      0.00000
     28      18.9562      0.00000
     29      20.0317      0.00000
     30      21.0955      0.00000

 k-point     8 :       0.2000    0.2000    0.0000
  band No.  band energies     occupation 
      1       1.0760      2.00000
      2       3.1580      2.00000
      3       3.9110      2.00000
      4       3.9194      2.00000
      5       4.0962      2.00000
      6       4.1151      2.00000
      7       4.3465      2.00000
      8       5.9799      2.00000
      9       6.3425      2.00000
     10       6.5677      2.00000
     11       7.0188      2.00000
     12       7.1363      2.00000
     13       7.1941      2.00000
     14       7.2851      2.00000
     15       7.6911      2.00000
     16       7.8980      2.00000
     17       8.2183      2.00000
     18       8.8283      2.06046
     19       8.8764      2.07071
     20       8.9809      1.90309
     21       9.6485     -0.00109
     22      10.8461     -0.00000
     23      11.8519     -0.00000
     24      14.5339     -0.00000
     25      16.9797      0.00000
     26      18.9894      0.00000
     27      20.0539      0.00000
     28      20.4078      0.00000
     29      21.0907      0.00000
     30      21.7240      0.00000

 k-point     9 :       0.0000    0.2000    0.2000
  band No.  band energies     occupation 
      1       1.1043      2.00000
      2       3.1929      2.00000
      3       3.8916      2.00000
      4       3.9714      2.00000
      5       4.0289      2.00000
      6       4.2346      2.00000
      7       4.2906      2.00000
      8       5.9394      2.00000
      9       6.3576      2.00000
     10       6.5588      2.00000
     11       7.0213      2.00000
     12       7.1472      2.00000
     13       7.2025      2.00000
     14       7.2691      2.00000
     15       7.6647      2.00000
     16       7.9939      2.00000
     17       8.3372      2.00000
     18       8.6262      2.00288
     19       8.8271      2.05997
     20       8.8349      2.06306
     21       9.4683     -0.03203
     22      10.8935     -0.00000
     23      12.2113     -0.00000
     24      14.4335     -0.00000
     25      16.8379      0.00000
     26      19.0498      0.00000
     27      19.5449      0.00000
     28      20.9425      0.00000
     29      21.2386      0.00000
     30      21.9456      0.00000

 k-point    10 :       0.2000    0.0000    0.2000
  band No.  band energies     occupation 
      1       1.0759      2.00000
      2       3.1736      2.00000
      3       3.9226      2.00000
      4       3.9385      2.00000
      5       4.0563      2.00000
      6       4.2359      2.00000
      7       4.2782      2.00000
      8       5.8253      2.00000
      9       6.4911      2.00000
     10       6.5203      2.00000
     11       6.9656      2.00000
     12       7.1329      2.00000
     13       7.1789      2.00000
     14       7.2340      2.00000
     15       7.6886      2.00000
     16       7.7565      2.00000
     17       8.0732      2.00000
     18       8.9228      2.04284
     19       8.9771      1.91690
     20       9.1891      0.42661
     21       9.7728     -0.00004
     22      11.0902     -0.00000
     23      11.5110     -0.00000
     24      14.5315     -0.00000
     25      16.9438      0.00000
     26      18.9199      0.00000
     27      20.0013      0.00000
     28      20.5324      0.00000
     29      21.1732      0.00000
     30      21.8567      0.00000

 k-point    11 :       0.4000    0.2000    0.0000
  band No.  band energies     occupation 
      1       2.1371      2.00000
      2       3.7684      2.00000
      3       4.1112      2.00000
      4       4.2453      2.00000
      5       4.6278      2.00000
      6       4.8150      2.00000
      7       4.9601      2.00000
      8       5.4720      2.00000
      9       5.6432      2.00000
     10       6.0151      2.00000
     11       6.3491      2.00000
     12       6.5041      2.00000
     13       6.9198      2.00000
     14       7.1628      2.00000
     15       7.2629      2.00000
     16       7.5946      2.00000
     17       7.7029      2.00000
     18       8.3095      2.00000
     19       8.3824      2.00000
     20       8.8752      2.07080
     21       9.4800     -0.02746
     22       9.7398     -0.00010
     23      13.0790     -0.00000
     24      15.1880      0.00000
     25      16.8988      0.00000
     26      18.0749      0.00000
     27      19.5926      0.00000
     28      19.8051      0.00000
     29      21.8721      0.00000
     30      23.0962      0.00000

 k-point    12 :       0.0000    0.4000    0.2000
  band No.  band energies     occupation 
      1       2.3541      2.00000
      2       3.6321      2.00000
      3       3.9805      2.00000
      4       4.2485      2.00000
      5       4.5519      2.00000
      6       4.7873      2.00000
      7       5.1136      2.00000
      8       5.6432      2.00000
      9       5.7586      2.00000
     10       6.2247      2.00000
     11       6.3598      2.00000
     12       6.5116      2.00000
     13       6.8610      2.00000
     14       7.1456      2.00000
     15       7.5289      2.00000
     16       7.6306      2.00000
     17       7.6778      2.00000
     18       8.0826      2.00000
     19       8.2893      2.00000
     20       8.8513      2.06825
     21       8.9666      1.95112
     22       9.2983     -0.02619
     23      13.5774     -0.00000
     24      15.1383      0.00000
     25      16.7755      0.00000
     26      18.3581      0.00000
     27      19.4052      0.00000
     28      19.5740      0.00000
     29      21.7050      0.00000
     30      23.3261      0.00000

 k-point    13 :       0.2000    0.0000    0.4000
  band No.  band energies     occupation 
      1       2.3946      2.00000
      2       3.6383      2.00000
      3       4.1967      2.00000
      4       4.3871      2.00000
      5       4.5907      2.00000
      6       4.9089      2.00000
      7       4.9345      2.00000
      8       5.2867      2.00000
      9       5.5417      2.00000
     10       6.0753      2.00000
     11       6.4346      2.00000
     12       6.5322      2.00000
     13       6.9391      2.00000
     14       7.1497      2.00000
     15       7.3168      2.00000
     16       7.5821      2.00000
     17       7.8963      2.00000
     18       8.1399      2.00000
     19       8.4034      2.00001
     20       8.6197      2.00250
     21       9.1886      0.42995
     22       9.3638     -0.07087
     23      13.4321     -0.00000
     24      15.1810      0.00000
     25      16.8412      0.00000
     26      17.9447      0.00000
     27      19.3966      0.00000
     28      20.1229      0.00000
     29      21.9685      0.00000
     30      22.9933      0.00000

 k-point    14 :      -0.2000    0.4000    0.0000
  band No.  band energies     occupation 
      1       2.3902      2.00000
      2       3.6159      2.00000
      3       4.0305      2.00000
      4       4.2615      2.00000
      5       4.5699      2.00000
      6       4.7479      2.00000
      7       5.1040      2.00000
      8       5.6461      2.00000
      9       5.9533      2.00000
     10       6.1968      2.00000
     11       6.2648      2.00000
     12       6.4836      2.00000
     13       6.8750      2.00000
     14       7.1806      2.00000
     15       7.4336      2.00000
     16       7.6509      2.00000
     17       7.7110      2.00000
     18       8.1080      2.00000
     19       8.3796      2.00000
     20       8.7476      2.02564
     21       8.8683      2.07085
     22       9.1483      0.73288
     23      13.4889     -0.00000
     24      15.1755      0.00000
     25      16.8342      0.00000
     26      18.3216      0.00000
     27      19.3802      0.00000
     28      19.7419      0.00000
     29      22.0104      0.00000
     30      23.0213      0.00000

 k-point    15 :      -0.4000    0.0000    0.2000
  band No.  band energies     occupation 
      1       2.1333      2.00000
      2       3.8062      2.00000
      3       4.0682      2.00000
      4       4.2133      2.00000
      5       4.5751      2.00000
      6       4.8644      2.00000
      7       5.0122      2.00000
      8       5.4088      2.00000
      9       5.5507      2.00000
     10       6.0838      2.00000
     11       6.4316      2.00000
     12       6.5548      2.00000
     13       6.9267      2.00000
     14       7.1330      2.00000
     15       7.2604      2.00000
     16       7.5718      2.00000
     17       7.8942      2.00000
     18       8.0812      2.00000
     19       8.4869      2.00008
     20       8.9064      2.05906
     21       9.4425     -0.04325
     22       9.6918     -0.00036
     23      13.0544     -0.00000
     24      15.2493      0.00000
     25      16.8577      0.00000
     26      18.0402      0.00000
     27      19.5009      0.00000
     28      19.7424      0.00000
     29      21.9727      0.00000
     30      22.9879      0.00000

 k-point    16 :       0.0000    0.2000    0.4000
  band No.  band energies     occupation 
      1       2.3640      2.00000
      2       3.6130      2.00000
      3       4.2094      2.00000
      4       4.4209      2.00000
      5       4.6037      2.00000
      6       4.8708      2.00000
      7       4.8965      2.00000
      8       5.3558      2.00000
      9       5.5269      2.00000
     10       6.0309      2.00000
     11       6.3281      2.00000
     12       6.5355      2.00000
     13       6.9339      2.00000
     14       7.1455      2.00000
     15       7.3803      2.00000
     16       7.6133      2.00000
     17       7.6514      2.00000
     18       8.2315      2.00000
     19       8.5076      2.00015
     20       8.5430      2.00039
     21       9.3921     -0.06502
     22       9.4854     -0.02547
     23      13.5355     -0.00000
     24      15.0793      0.00000
     25      16.8299      0.00000
     26      18.0033      0.00000
     27      19.5076      0.00000
     28      20.0142      0.00000
     29      21.5922      0.00000
     30      23.4222      0.00000

 k-point    17 :       0.4000    0.4000    0.0000
  band No.  band energies     occupation 
      1       3.2749      2.00000
      2       4.1887      2.00000
      3       4.4380      2.00000
      4       4.7465      2.00000
      5       4.8475      2.00000
      6       5.0494      2.00000
      7       5.1789      2.00000
      8       5.2938      2.00000
      9       5.3350      2.00000
     10       5.8650      2.00000
     11       5.9926      2.00000
     12       6.2110      2.00000
     13       6.8175      2.00000
     14       7.0420      2.00000
     15       7.0960      2.00000
     16       7.2760      2.00000
     17       7.4384      2.00000
     18       8.0353      2.00000
     19       8.3333      2.00000
     20       8.3548      2.00000
     21       9.0178      1.73185
     22      10.0515     -0.00000
     23      11.5623     -0.00000
     24      12.9333     -0.00000
     25      18.8181      0.00000
     26      18.9750      0.00000
     27      20.4917      0.00000
     28      21.2078      0.00000
     29      21.2327      0.00000
     30      21.7059      0.00000

 k-point    18 :       0.0000    0.4000    0.4000
  band No.  band energies     occupation 
      1       3.1728      2.00000
      2       3.9646      2.00000
      3       4.3440      2.00000
      4       4.7178      2.00000
      5       4.9280      2.00000
      6       5.0821      2.00000
      7       5.0944      2.00000
      8       5.3775      2.00000
      9       5.3967      2.00000
     10       5.8819      2.00000
     11       6.0982      2.00000
     12       6.2028      2.00000
     13       6.8517      2.00000
     14       6.9984      2.00000
     15       7.0998      2.00000
     16       7.2023      2.00000
     17       7.3346      2.00000
     18       7.9744      2.00000
     19       8.5645      2.00067
     20       8.6121      2.00211
     21       9.0869      1.24531
     22       9.8780     -0.00000
     23      12.1355     -0.00000
     24      12.9860     -0.00000
     25      18.5579      0.00000
     26      18.6999      0.00000
     27      20.3902      0.00000
     28      20.5134      0.00000
     29      21.0867      0.00000
     30      22.1687      0.00000

 k-point    19 :       0.4000    0.0000    0.4000
  band No.  band energies     occupation 
      1       3.2427      2.00000
      2       4.3291      2.00000
      3       4.4181      2.00000
      4       4.6195      2.00000
      5       4.7156      2.00000
      6       4.9549      2.00000
      7       5.0203      2.00000
      8       5.2202      2.00000
      9       5.5670      2.00000
     10       6.0163      2.00000
     11       6.1640      2.00000
     12       6.3072      2.00000
     13       6.7767      2.00000
     14       7.0262      2.00000
     15       7.1237      2.00000
     16       7.2503      2.00000
     17       7.7095      2.00000
     18       7.8893      2.00000
     19       8.1493      2.00000
     20       8.2197      2.00000
     21       9.2296      0.19119
     22      10.4418     -0.00000
     23      11.1060     -0.00000
     24      12.8139     -0.00000
     25      18.7316      0.00000
     26      18.9450      0.00000
     27      20.7110      0.00000
     28      21.0268      0.00000
     29      21.4205      0.00000
     30      21.5276      0.00000

 k-point    20 :       0.2000    0.2000    0.2000
  band No.  band energies     occupation 
      1       1.4876      2.00000
      2       3.4064      2.00000
      3       3.9908      2.00000
      4       4.0946      2.00000
      5       4.1861      2.00000
      6       4.5195      2.00000
      7       4.6448      2.00000
      8       5.6973      2.00000
      9       6.3971      2.00000
     10       6.4873      2.00000
     11       6.6144      2.00000
     12       6.8534      2.00000
     13       7.0119      2.00000
     14       7.1831      2.00000
     15       7.2821      2.00000
     16       7.5237      2.00000
     17       8.1923      2.00000
     18       8.2752      2.00000
     19       8.4691      2.00005
     20       8.9792      1.90916
     21       9.7342     -0.00011
     22      11.7854     -0.00000
     23      12.4720     -0.00000
     24      12.6841     -0.00000
     25      17.6898      0.00000
     26      17.9167      0.00000
     27      18.6178      0.00000
     28      21.1122      0.00000
     29      21.5329      0.00000
     30      21.7245      0.00000

 k-point    21 :       0.4000    0.2000    0.2000
  band No.  band energies     occupation 
      1       2.3857      2.00000
      2       3.7326      2.00000
      3       4.1899      2.00000
      4       4.5066      2.00000
      5       4.5213      2.00000
      6       4.8022      2.00000
      7       5.2979      2.00000
      8       5.5337      2.00000
      9       5.7670      2.00000
     10       5.9876      2.00000
     11       6.3871      2.00000
     12       6.5134      2.00000
     13       6.7340      2.00000
     14       6.9682      2.00000
     15       7.0856      2.00000
     16       7.4996      2.00000
     17       7.9762      2.00000
     18       8.1381      2.00000
     19       8.5680      2.00074
     20       8.9280      2.03581
     21       9.4549     -0.03768
     22       9.7329     -0.00012
     23      13.7712     -0.00000
     24      13.7915     -0.00000
     25      15.5004      0.00000
     26      16.2941      0.00000
     27      20.1171      0.00000
     28      21.5420      0.00000
     29      22.1285      0.00000
     30      22.3898      0.00000

 k-point    22 :       0.2000    0.4000    0.2000
  band No.  band energies     occupation 
      1       2.5653      2.00000
      2       3.6197      2.00000
      3       3.9871      2.00000
      4       4.4622      2.00000
      5       4.6553      2.00000
      6       4.8395      2.00000
      7       5.5040      2.00000
      8       5.5998      2.00000
      9       5.7630      2.00000
     10       6.0793      2.00000
     11       6.4824      2.00000
     12       6.5312      2.00000
     13       6.6458      2.00000
     14       6.9504      2.00000
     15       7.1134      2.00000
     16       7.2618      2.00000
     17       8.1103      2.00000
     18       8.1811      2.00000
     19       8.3171      2.00000
     20       8.8467      2.06698
     21       9.2743      0.02508
     22       9.6032     -0.00309
     23      13.7850     -0.00000
     24      14.0274     -0.00000
     25      15.5929      0.00000
     26      16.1154      0.00000
     27      20.2040      0.00000
     28      21.6020      0.00000
     29      22.2638      0.00000
     30      22.4148      0.00000

 k-point    23 :       0.2000    0.2000    0.4000
  band No.  band energies     occupation 
      1       2.5710      2.00000
      2       3.6192      2.00000
      3       4.1367      2.00000
      4       4.4746      2.00000
      5       4.6440      2.00000
      6       5.0102      2.00000
      7       5.1646      2.00000
      8       5.5246      2.00000
      9       5.7102      2.00000
     10       5.9502      2.00000
     11       6.3740      2.00000
     12       6.5182      2.00000
     13       6.7431      2.00000
     14       6.9929      2.00000
     15       7.1287      2.00000
     16       7.3630      2.00000
     17       8.1018      2.00000
     18       8.1325      2.00000
     19       8.4830      2.00007
     20       8.7690      2.03397
     21       9.3800     -0.06853
     22       9.6783     -0.00052
     23      13.7871     -0.00000
     24      13.9678     -0.00000
     25      15.5735      0.00000
     26      16.2036      0.00000
     27      20.1159      0.00000
     28      21.3831      0.00000
     29      22.2246      0.00000
     30      22.4837      0.00000

 k-point    24 :       0.4000    0.4000    0.2000
  band No.  band energies     occupation 
      1       3.0209      2.00000
      2       3.5401      2.00000
      3       3.8446      2.00000
      4       4.2364      2.00000
      5       5.1705      2.00000
      6       5.4510      2.00000
      7       5.7086      2.00000
      8       5.8681      2.00000
      9       6.0376      2.00000
     10       6.1264      2.00000
     11       6.3009      2.00000
     12       6.4693      2.00000
     13       6.5768      2.00000
     14       6.6737      2.00000
     15       6.8339      2.00000
     16       6.9816      2.00000
     17       7.8295      2.00000
     18       8.2732      2.00000
     19       8.6787      2.00832
     20       8.9919      1.85898
     21       9.1533      0.69270
     22      10.1990     -0.00000
     23      11.4597     -0.00000
     24      12.6995     -0.00000
     25      15.7815      0.00000
     26      17.4791      0.00000
     27      17.8887      0.00000
     28      19.8802      0.00000
     29      22.8240      0.00000
     30      24.6227      0.00000

 k-point    25 :       0.2000    0.4000    0.4000
  band No.  band energies     occupation 
      1       3.0112      2.00000
      2       3.5667      2.00000
      3       3.6267      2.00000
      4       4.2394      2.00000
      5       5.1740      2.00000
      6       5.4578      2.00000
      7       5.6963      2.00000
      8       5.9229      2.00000
      9       6.0362      2.00000
     10       6.1110      2.00000
     11       6.3029      2.00000
     12       6.4823      2.00000
     13       6.5862      2.00000
     14       6.6754      2.00000
     15       6.8209      2.00000
     16       6.9712      2.00000
     17       7.8724      2.00000
     18       8.2959      2.00000
     19       8.8129      2.05381
     20       8.9805      1.90456
     21       9.1333      0.85664
     22      10.0784     -0.00000
     23      11.9483     -0.00000
     24      12.8820     -0.00000
     25      15.5223      0.00000
     26      17.0394      0.00000
     27      17.9410      0.00000
     28      19.8462      0.00000
     29      22.9087      0.00000
     30      24.4684      0.00000

 k-point    26 :       0.4000    0.2000    0.4000
  band No.  band energies     occupation 
      1       3.0154      2.00000
      2       3.5734      2.00000
      3       3.8797      2.00000
      4       4.0678      2.00000
      5       5.1357      2.00000
      6       5.3600      2.00000
      7       5.6719      2.00000
      8       6.0591      2.00000
      9       6.1487      2.00000
     10       6.1999      2.00000
     11       6.4084      2.00000
     12       6.4154      2.00000
     13       6.5696      2.00000
     14       6.7550      2.00000
     15       6.8265      2.00000
     16       6.8384      2.00000
     17       8.0014      2.00000
     18       8.0344      2.00000
     19       8.4898      2.00009
     20       9.1307      0.87771
     21       9.2826      0.00447
     22      10.5597     -0.00000
     23      11.0081     -0.00000
     24      12.6316     -0.00000
     25      15.7614      0.00000
     26      17.5240      0.00000
     27      17.8749      0.00000
     28      19.9414      0.00000
     29      22.6949      0.00000
     30      24.6888      0.00000

 k-point    27 :       0.4000    0.4000    0.4000
  band No.  band energies     occupation 
      1       2.8931      2.00000
      2       3.0224      2.00000
      3       3.2464      2.00000
      4       3.6345      2.00000
      5       5.5843      2.00000
      6       5.7049      2.00000
      7       5.8422      2.00000
      8       6.0757      2.00000
      9       6.1939      2.00000
     10       6.4649      2.00000
     11       6.5769      2.00000
     12       6.7843      2.00000
     13       7.2455      2.00000
     14       7.3302      2.00000
     15       7.5014      2.00000
     16       7.8365      2.00000
     17       8.2327      2.00000
     18       8.6348      2.00347
     19       8.6915      2.01050
     20       9.1064      1.08321
     21       9.6595     -0.00084
     22      10.4487     -0.00000
     23      10.8633     -0.00000
     24      11.0998     -0.00000
     25      14.9322      0.00000
     26      15.3730      0.00000
     27      16.1852      0.00000
     28      17.6837      0.00000
     29      25.3447      0.00000
     30      25.4437      0.00000


--------------------------------------------------------------------------------------------------------


 soft charge-density along one line, spin component           1
         0         1         2         3         4         5         6         7         8         9
x    23.2080    0.0000   -1.3695    0.0000    0.8304    0.0000    0.2495    0.0000   -0.5070    0.0000
x    -0.0359    0.0000    0.1096    0.0000    0.0000    0.0000
y    23.2080    0.0000    1.4332    0.0000    0.8766    0.0000   -0.2922   -0.0000   -0.4801    0.0000
y     0.0182   -0.0000    0.1069    0.0000    0.0000    0.0000
z    23.2080    0.0000    0.3942   -0.0000    0.8762    0.0000   -0.1664   -0.0000   -0.4923    0.0000
z     0.0104    0.0000    0.1078    0.0000    0.0000    0.0000
 total charge-density along one line
x    39.9999    0.0000    3.7611    0.0000   10.8313    0.0000    3.1614    0.0000    1.3282    0.0000
x     0.4278    0.0000    0.1455    0.0000   -0.0177    0.0000    0.0021    0.0000    0.0067   -0.0000
x     0.0017    0.0000   -0.0014    0.0000   -0.0011    0.0000    0.0002    0.0000    0.0009    0.0000
y    39.9999    0.0000   -0.9359    0.0000   10.9195    0.0000   -1.8305    0.0000    1.3869   -0.0000
y    -0.3363    0.0000    0.1264   -0.0000    0.0351    0.0000   -0.0021    0.0000   -0.0092    0.0000
y     0.0018   -0.0000    0.0029    0.0000   -0.0011   -0.0000   -0.0007    0.0000    0.0008    0.0000
z    39.9999    0.0000   -2.7352    0.0000   10.8869   -0.0000   -2.1319    0.0000    1.3451   -0.0000
z    -0.3852    0.0000    0.1322   -0.0000    0.0229   -0.0000   -0.0000   -0.0000   -0.0077   -0.0000
z     0.0018    0.0000    0.0023   -0.0000   -0.0011    0.0000   -0.0005    0.0000    0.0008    0.0000
 
 pseudopotential strength for first ion, spin component:           1
 -2.894   0.000  -0.000   0.000  -0.000  -3.109   0.000  -0.000
  0.000  -2.808   0.000   0.000  -0.000   0.000  -3.027   0.000
 -0.000   0.000  -2.819   0.000  -0.009  -0.000   0.000  -3.038
  0.000   0.000   0.000  -2.865   0.000   0.000   0.000   0.000
 -0.000  -0.000  -0.009   0.000  -2.829  -0.000  -0.000  -0.009
 -3.109   0.000  -0.000   0.000  -0.000  -3.292   0.000  -0.000
  0.000  -3.027   0.000   0.000  -0.000   0.000  -3.213   0.000
 -0.000   0.000  -3.038   0.000  -0.009  -0.000   0.000  -3.223
  0.000   0.000   0.000  -3.081   0.000   0.000   0.000   0.000
 -0.000  -0.000  -0.009   0.000  -3.046  -0.000  -0.000  -0.008
 -0.000  -0.000  -0.009  -0.000   0.006  -0.000  -0.000  -0.008
 -0.000  -0.000  -0.015  -0.000   0.010  -0.000  -0.000  -0.014
  0.000  -0.000  -0.000  -0.000  -0.000   0.000  -0.000  -0.000
 -0.000  -0.000  -0.000   0.000   0.000  -0.000  -0.000  -0.000
  0.000  -0.000  -0.000  -0.000   0.000   0.000  -0.000  -0.000
  0.000  -0.000  -0.000  -0.000  -0.000   0.000  -0.000  -0.000
 -0.000  -0.000  -0.000   0.000   0.000  -0.000  -0.000  -0.000
  0.000  -0.000  -0.000  -0.000   0.000   0.000  -0.000  -0.000
 total augmentation occupancy for first ion, spin component:           1
  1.712   0.000  -0.000   0.000   0.000  -1.534   0.000  -0.000   0.000   0.000   0.000   0.000   0.000   0.000   0.000   0.000
  0.000   3.222   0.000   0.000   0.000   0.000  -2.223   0.000   0.000   0.000   0.000   0.000   0.000   0.000   0.000   0.000
  0.000   0.000   2.391   0.000  -0.504  -0.000   0.000  -1.513   0.000   0.320   0.258  -0.063   0.000   0.000   0.000   0.000
  0.000   0.000   0.000   2.729   0.000   0.000  -0.000   0.000  -2.310   0.000   0.000   0.000   0.000   0.000   0.000   0.000
  0.000   0.000  -0.504   0.000   3.378  -0.000   0.000   0.319   0.000  -2.234  -0.424   0.102   0.000   0.000   0.000   0.000
 -1.534   0.000   0.000   0.000   0.000   3.038   0.000   0.000   0.000  -0.000  -0.000   0.000   0.000   0.000   0.000   0.000
  0.000  -2.223   0.000  -0.000   0.000   0.000   3.133   0.000  -0.000   0.000   0.000   0.000   0.000   0.000   0.000   0.000
 -0.000   0.000  -1.513   0.000   0.319   0.000   0.000   2.494   0.000  -0.196  -0.202   0.032   0.000   0.000   0.000   0.000
  0.000  -0.000   0.000  -2.310   0.000   0.000   0.000   0.000   3.618   0.000   0.000   0.000   0.000   0.000   0.000   0.000
  0.000   0.000   0.320   0.000  -2.234   0.000   0.000  -0.196   0.000   3.014   0.351  -0.082   0.000   0.000   0.000   0.000
  0.000   0.000   0.258   0.000  -0.424  -0.000   0.000  -0.202   0.000   0.351   1.960  -0.295   0.000   0.000   0.000   0.000
  0.000   0.000  -0.063   0.000   0.102   0.000   0.000   0.032   0.000  -0.082  -0.295   0.067   0.000   0.000   0.000   0.000
  0.000   0.000   0.000   0.000   0.000   0.000   0.000   0.000   0.000   0.000   0.000   0.000   0.274   0.000  -0.000  -0.014
  0.000   0.000   0.000   0.000   0.000   0.000   0.000   0.000   0.000   0.000   0.000   0.000   0.000   0.264   0.000   0.000
  0.000   0.000   0.000   0.000   0.000   0.000   0.000   0.000   0.000   0.000   0.000   0.000  -0.000   0.000   0.338  -0.000
  0.000   0.000   0.000   0.000   0.000   0.000   0.000   0.000   0.000   0.000   0.000   0.000  -0.014   0.000  -0.000   0.003
  0.000   0.000   0.000   0.000   0.000   0.000   0.000   0.000   0.000   0.000   0.000   0.000   0.000  -0.014   0.000   0.000
  0.000   0.000   0.000   0.000   0.000   0.000   0.000   0.000   0.000   0.000   0.000   0.000   0.000   0.000  -0.021   0.000


------------------------ aborting loop because EDIFF is reached ----------------------------------------


    CHARGE:  cpu time    0.0156: real time    0.0156
    FORLOC:  cpu time    0.0009: real time    0.0009
    FORNL :  cpu time    0.0666: real time    0.0666
    STRESS:  cpu time    0.1173: real time    0.1173
    FORCOR:  cpu time    0.0063: real time    0.0063
    FORHAR:  cpu time    0.0018: real time    0.0018
    MIXING:  cpu time    0.0003: real time    0.0003

  FORCE on cell =-STRESS in cart. coord.  units (eV):
  Direction    XX          YY          ZZ          XY          YZ          ZX
  --------------------------------------------------------------------------------------
  Alpha Z   244.65455   244.65455   244.65455
  Ewald   -1143.04101 -1137.78808 -1143.04101     0.00000     0.00000     0.00000
  Hartree   193.36403   204.66147   196.87740    -0.00000    -0.00000    -0.00000
  E(xc)    -202.82859  -202.68817  -202.79162    -0.00000    -0.00000    -0.00000
  Local     175.30700   162.06548   174.53238     0.00000     0.00000     0.00000
  n-local   -64.63963   -62.83409   -65.63164     5.91521     7.60166     6.29381
  augment   261.04771   259.38642   260.61804     0.00000     0.00000     0.00000
  Kinetic   505.11906   501.16331   502.84572     2.19800     3.11696     1.64152
  Fock        0.00000     0.00000     0.00000     0.00000     0.00000     0.00000
  -------------------------------------------------------------------------------------
  Total     -31.01687   -31.37912   -31.93618     0.00000     0.00000     0.00000
  in kB    -860.04861  -870.09338  -885.53971     0.00000     0.00000     0.00000
  external pressure =     -871.89 kB  Pullay stress =        0.00 kB


 VOLUME and BASIS-vectors are now :
 -----------------------------------------------------------------------------
  energy-cutoff  :      200.00
  volume of cell :       57.78
      direct lattice vectors                 reciprocal lattice vectors
     3.866000000  0.000000000  0.000000000     0.258665287  0.000000000  0.000000000
     0.000000000  3.866000000  0.000000000     0.000000000  0.258665287  0.000000000
     0.000000000  0.000000000  3.866000000     0.000000000  0.000000000  0.258665287

  length of vectors
     3.866000000  3.866000000  3.866000000     0.258665287  0.258665287  0.258665287


 FORCES acting on ions
    electron-ion (+dipol)            ewald-force                    non-local-force                 convergence-correction
 -----------------------------------------------------------------------------------------------
   -.528E-13 -.178E-13 -.266E-13   0.892E-14 -.838E-14 -.466E-14   -.406E-25 0.186E-24 -.191E-26   -.183E-13 0.252E-13 0.128E-13
   0.597E-13 0.937E-13 -.226E-13   0.112E-14 0.145E-13 -.285E-14   0.264E-25 -.156E-25 0.121E-25   -.138E-13 -.149E-13 -.502E-14
   0.103E-12 -.177E-13 0.157E-12   -.749E-14 -.139E-13 0.598E-14   0.398E-24 0.148E-24 -.288E-24   -.142E-13 0.172E-13 0.667E-14
   -.108E-12 0.752E-12 0.756E-12   -.120E-14 0.656E-14 0.190E-14   -.904E-27 0.959E-25 0.113E-24   -.682E-13 -.104E-12 -.682E-13
 -----------------------------------------------------------------------------------------------
   0.161E-14 0.810E-12 0.864E-12   0.135E-14 -.120E-14 0.371E-15   0.383E-24 0.413E-24 -.165E-24   -.115E-12 -.762E-13 -.538E-13
 
 
 POSITION                                       TOTAL-FORCE (eV/Angst)
 -----------------------------------------------------------------------------------
      0.00000      0.00000      0.00000         0.000000     -0.000000      0.000000
      1.93300      1.93300      0.00000         0.000000     -0.000000      0.000000
      1.93300      0.00000      1.93300        -0.000000     -0.000000      0.000000
      0.00000      1.93300      1.93300         0.000000      0.000000     -0.000000
 -----------------------------------------------------------------------------------
    total drift:                               -0.000000      0.000000      0.000000


--------------------------------------------------------------------------------------------------------



  FREE ENERGIE OF THE ION-ELECTRON SYSTEM (eV)
  ---------------------------------------------------
  free  energy   TOTEN  =       -21.43338623 eV

  energy  without entropy=      -21.42901574  energy(sigma->0) =      -21.43192940
 


--------------------------------------------------------------------------------------------------------


    POTLOK:  cpu time    0.0091: real time    0.0091


--------------------------------------------------------------------------------------------------------


 writing wavefunctions
     LOOP+:  cpu time    1.7692: real time    1.7896
    4ORBIT:  cpu time    0.0000: real time    0.0000

 total amount of memory used by VASP MPI-rank0    43549. kBytes
=======================================================================

   base      :      30000. kBytes
   nonl-proj :       5887. kBytes
   grid      :       1781. kBytes
   one-center:         62. kBytes
   wavefun   :       5819. kBytes
 
  
  
 General timing and accounting informations for this job:
 ========================================================
  
                  Total CPU time used (sec):        1.947
                            User time (sec):        1.931
                          System time (sec):        0.016
                         Elapsed time (sec):        1.963
  
                   Maximum memory used (kb):       50848.
                   Average memory used (kb):          N/A
  
                          Minor page faults:         6369
                          Major page faults:            0
                 Voluntary context switches:           27
