<?xml version="1.0" encoding="ISO-8859-1"?>
<modeling>
 <generator>
  <i name="program" type="string">vasp </i>
  <i name="version" type="string">6.2.0  </i>
  <i name="subversion" type="string">18Jan21 (build Mar 17 2021 09:06:54) complex                          serial </i>
  <i name="platform" type="string">LinuxIFC </i>
  <i name="date" type="string">2021 06 11 </i>
  <i name="time" type="string">11:56:31 </i>
 </generator>
 <incar>
  <i type="string" name="PREC">normal</i>
  <i type="int" name="ICHARG">     1</i>
  <i type="int" name="IBRION">    -1</i>
  <i name="EDIFF">      0.00000100</i>
  <i type="int" name="NSW">     0</i>
  <i name="ENCUT">    200.00000000</i>
  <i type="int" name="NBANDS">    30</i>
  <i type="int" name="ISMEAR">     1</i>
  <i name="SIGMA">      0.20000000</i>
  <i type="logical" name="LCHARG"> T  </i>
  <i type="int" name="KPAR">     1</i>
  <i type="int" name="NCORE">     1</i>
  <i type="string" name="GGA">PE</i>
 </incar>
 <primitive_cell>
  <structure name="primitive_cell" >
   <crystal>
    <varray name="basis" >
     <v>       3.86600000       0.00000000       0.00000000 </v>
     <v>       0.00000000       3.86600000       0.00000000 </v>
     <v>       0.00000000       0.00000000       3.86600000 </v>
    </varray>
    <i name="volume">     57.78106590 </i>
    <varray name="rec_basis" >
     <v>       0.25866529       0.00000000       0.00000000 </v>
     <v>       0.00000000       0.25866529       0.00000000 </v>
     <v>       0.00000000       0.00000000       0.25866529 </v>
    </varray>
   </crystal>
   <varray name="positions" >
    <v>       0.00000000       0.00000000       0.00000000 </v>
    <v>       0.50000000       0.50000000       0.00000000 </v>
    <v>       0.50000000       0.00000000       0.50000000 </v>
    <v>       0.00000000       0.50000000       0.50000000 </v>
   </varray>
  </structure>
  <varray name="primitive_index" >
   <v type="int" >        1 </v>
   <v type="int" >        2 </v>
   <v type="int" >        3 </v>
   <v type="int" >        4 </v>
  </varray>
 </primitive_cell>
 <kpoints>
  <generation param="Monkhorst-Pack">
   <v type="int" name="divisions">       5        5        5 </v>
   <v name="usershift">      0.00000000       0.00000000       0.00000000 </v>
   <v name="genvec1">      0.20000000       0.00000000       0.00000000 </v>
   <v name="genvec2">      0.00000000       0.20000000       0.00000000 </v>
   <v name="genvec3">      0.00000000       0.00000000       0.20000000 </v>
   <v name="shift">      0.00000000       0.00000000       0.00000000 </v>
  </generation>
  <varray name="kpointlist" >
   <v>       0.00000000       0.00000000       0.00000000 </v>
   <v>       0.20000000       0.00000000       0.00000000 </v>
   <v>       0.00000000       0.20000000       0.00000000 </v>
   <v>       0.00000000       0.00000000       0.20000000 </v>
   <v>       0.40000000       0.00000000       0.00000000 </v>
   <v>       0.00000000       0.40000000       0.00000000 </v>
   <v>       0.00000000       0.00000000       0.40000000 </v>
   <v>       0.20000000       0.20000000       0.00000000 </v>
   <v>       0.00000000       0.20000000       0.20000000 </v>
   <v>       0.20000000       0.00000000       0.20000000 </v>
   <v>       0.40000000       0.20000000       0.00000000 </v>
   <v>       0.00000000       0.40000000       0.20000000 </v>
   <v>       0.20000000       0.00000000       0.40000000 </v>
   <v>      -0.20000000       0.40000000       0.00000000 </v>
   <v>      -0.40000000       0.00000000       0.20000000 </v>
   <v>       0.00000000       0.20000000       0.40000000 </v>
   <v>       0.40000000       0.40000000       0.00000000 </v>
   <v>       0.00000000       0.40000000       0.40000000 </v>
   <v>       0.40000000       0.00000000       0.40000000 </v>
   <v>       0.20000000       0.20000000       0.20000000 </v>
   <v>       0.40000000       0.20000000       0.20000000 </v>
   <v>       0.20000000       0.40000000       0.20000000 </v>
   <v>       0.20000000       0.20000000       0.40000000 </v>
   <v>       0.40000000       0.40000000       0.20000000 </v>
   <v>       0.20000000       0.40000000       0.40000000 </v>
   <v>       0.40000000       0.20000000       0.40000000 </v>
   <v>       0.40000000       0.40000000       0.40000000 </v>
  </varray>
  <varray name="weights" >
   <v>       0.00800000 </v>
   <v>       0.01600000 </v>
   <v>       0.01600000 </v>
   <v>       0.01600000 </v>
   <v>       0.01600000 </v>
   <v>       0.01600000 </v>
   <v>       0.01600000 </v>
   <v>       0.03200000 </v>
   <v>       0.03200000 </v>
   <v>       0.03200000 </v>
   <v>       0.03200000 </v>
   <v>       0.03200000 </v>
   <v>       0.03200000 </v>
   <v>       0.03200000 </v>
   <v>       0.03200000 </v>
   <v>       0.03200000 </v>
   <v>       0.03200000 </v>
   <v>       0.03200000 </v>
   <v>       0.03200000 </v>
   <v>       0.06400000 </v>
   <v>       0.06400000 </v>
   <v>       0.06400000 </v>
   <v>       0.06400000 </v>
   <v>       0.06400000 </v>
   <v>       0.06400000 </v>
   <v>       0.06400000 </v>
   <v>       0.06400000 </v>
  </varray>
 </kpoints>
 <parameters>
  <separator name="general" >
   <i type="string" name="SYSTEM">unknown system</i>
   <i type="logical" name="LCOMPAT"> F  </i>
  </separator>
  <separator name="electronic" >
   <i type="string" name="PREC">normal</i>
   <i name="ENMAX">    200.00000000</i>
   <i name="ENAUG">    586.98000000</i>
   <i name="EDIFF">      0.00000100</i>
   <i type="int" name="IALGO">    38</i>
   <i type="int" name="IWAVPR">     0</i>
   <i type="int" name="NBANDS">    30</i>
   <i type="int" name="NBANDSLOW">    -1</i>
   <i type="int" name="NBANDSHIGH">    -1</i>
   <i name="NELECT">     40.00000000</i>
   <i type="int" name="TURBO">     0</i>
   <i type="int" name="IRESTART">     0</i>
   <i type="int" name="NREBOOT">     0</i>
   <i type="int" name="NMIN">     0</i>
   <i name="EREF">      0.00000000</i>
   <separator name="electronic smearing" >
    <i type="int" name="ISMEAR">     1</i>
    <i name="SIGMA">      0.20000000</i>
    <i name="KSPACING">      0.50000000</i>
    <i type="logical" name="KGAMMA"> T  </i>
    <i type="logical" name="KBLOWUP"> T  </i>
   </separator>
   <separator name="electronic projectors" >
    <i type="logical" name="LREAL"> F  </i>
    <v name="ROPT">      0.00000000      0.00000000      0.00000000      0.00000000</v>
    <i type="int" name="LMAXPAW">  -100</i>
    <i type="int" name="LMAXMIX">     2</i>
    <i type="logical" name="NLSPLINE"> F  </i>
   </separator>
   <separator name="electronic startup" >
    <i type="int" name="ISTART">     1</i>
    <i type="int" name="ICHARG">     1</i>
    <i type="int" name="INIWAV">     1</i>
   </separator>
   <separator name="electronic spin" >
    <i type="int" name="ISPIN">     1</i>
    <i type="logical" name="LNONCOLLINEAR"> F  </i>
    <v name="MAGMOM">      1.00000000      1.00000000      1.00000000      1.00000000</v>
    <i name="NUPDOWN">     -1.00000000</i>
    <i type="logical" name="LSORBIT"> F  </i>
    <v name="SAXIS">      0.00000000      0.00000000      1.00000000</v>
    <i type="logical" name="LSPIRAL"> F  </i>
    <v name="QSPIRAL">      0.00000000      0.00000000      0.00000000</v>
    <i type="logical" name="LZEROZ"> F  </i>
   </separator>
   <separator name="electronic exchange-correlation" >
    <i type="logical" name="LASPH"> F  </i>
    <i type="logical" name="LMETAGGA"> F  </i>
   </separator>
   <separator name="electronic convergence" >
    <i type="int" name="NELM">    60</i>
    <i type="int" name="NELMDL">     0</i>
    <i type="int" name="NELMIN">     2</i>
    <i name="ENINI">    200.00000000</i>
    <separator name="electronic convergence detail" >
     <i type="logical" name="LDIAG"> T  </i>
     <i type="logical" name="LSUBROT"> F  </i>
     <i name="WEIMIN">      0.00000000</i>
     <i name="EBREAK">      0.00000001</i>
     <i name="DEPER">      0.30000000</i>
     <i type="int" name="NRMM">     4</i>
     <i name="TIME">      0.40000000</i>
    </separator>
   </separator>
   <separator name="electronic mixer" >
    <i name="AMIX">      0.40000000</i>
    <i name="BMIX">      1.00000000</i>
    <i name="AMIN">      0.10000000</i>
    <i name="AMIX_MAG">      1.60000000</i>
    <i name="BMIX_MAG">      1.00000000</i>
    <separator name="electronic mixer details" >
     <i type="int" name="IMIX">     4</i>
     <i type="logical" name="MIXFIRST"> F  </i>
     <i type="int" name="MAXMIX">   -45</i>
     <i name="WC">    100.00000000</i>
     <i type="int" name="INIMIX">     1</i>
     <i type="int" name="MIXPRE">     1</i>
     <i type="int" name="MREMOVE">     5</i>
    </separator>
   </separator>
   <separator name="electronic dipolcorrection" >
    <i type="logical" name="LDIPOL"> F  </i>
    <i type="logical" name="LMONO"> F  </i>
    <i type="int" name="IDIPOL">     0</i>
    <i name="EPSILON">      1.00000000</i>
    <v name="DIPOL">   -100.00000000   -100.00000000   -100.00000000</v>
    <i name="EFIELD">      0.00000000</i>
   </separator>
  </separator>
  <separator name="grids" >
   <i type="int" name="NGX">    14</i>
   <i type="int" name="NGY">    14</i>
   <i type="int" name="NGZ">    14</i>
   <i type="int" name="NGXF">    28</i>
   <i type="int" name="NGYF">    28</i>
   <i type="int" name="NGZF">    28</i>
   <i type="logical" name="ADDGRID"> F  </i>
  </separator>
  <separator name="ionic" >
   <i type="int" name="NSW">     0</i>
   <i type="int" name="IBRION">    -1</i>
   <i type="int" name="MDALGO">     0</i>
   <i type="int" name="ISIF">     2</i>
   <i name="PSTRESS">      0.00000000</i>
   <i name="EDIFFG">      0.00001000</i>
   <i type="int" name="NFREE">     0</i>
   <i name="POTIM">      0.50000000</i>
   <i name="SMASS">     -3.00000000</i>
   <i name="SCALEE">      1.00000000</i>
  </separator>
  <separator name="ionic md" >
   <i name="TEBEG">      0.00010000</i>
   <i name="TEEND">      0.00010000</i>
   <i type="int" name="NBLOCK">     1</i>
   <i type="int" name="KBLOCK">     1</i>
   <i type="int" name="NPACO">   256</i>
   <i name="APACO">     16.00000000</i>
  </separator>
  <separator name="symmetry" >
   <i type="int" name="ISYM">     2</i>
   <i name="SYMPREC">      0.00001000</i>
  </separator>
  <separator name="dos" >
   <i type="int" name="LORBIT">     0</i>
   <v name="RWIGS">     -1.00000000     -1.00000000     -1.00000000     -1.00000000</v>
   <i type="int" name="NEDOS">   301</i>
   <i name="EMIN">     10.00000000</i>
   <i name="EMAX">    -10.00000000</i>
   <i name="EFERMI">      0.00000000</i>
  </separator>
  <separator name="writing" >
   <i type="int" name="NWRITE">     2</i>
   <i type="logical" name="LWAVE"> T  </i>
   <i type="logical" name="LDOWNSAMPLE"> F  </i>
   <i type="logical" name="LCHARG"> T  </i>
   <i type="logical" name="LPARD"> F  </i>
   <i type="logical" name="LVTOT"> F  </i>
   <i type="logical" name="LVHAR"> F  </i>
   <i type="logical" name="LELF"> F  </i>
   <i type="logical" name="LOPTICS"> F  </i>
   <v name="STM">      0.00000000      0.00000000      0.00000000      0.00000000      0.00000000      0.00000000      0.00000000</v>
  </separator>
  <separator name="performance" >
   <i type="int" name="NPAR">     1</i>
   <i type="int" name="NSIM">     4</i>
   <i type="int" name="NBLK">    -1</i>
   <i type="logical" name="LPLANE"> T  </i>
   <i type="logical" name="LSCALAPACK"> F  </i>
   <i type="logical" name="LSCAAWARE"> F  </i>
   <i type="logical" name="LSCALU"> F  </i>
   <i type="logical" name="LASYNC"> F  </i>
   <i type="logical" name="LORBITALREAL"> F  </i>
  </separator>
  <separator name="miscellaneous" >
   <i type="int" name="IDIOT">     3</i>
   <i type="int" name="PHON_NSTRUCT">    -1</i>
   <i type="logical" name="LMUSIC"> F  </i>
   <v name="POMASS">    106.42000000    192.22000000    195.08000000     63.54600000</v>
   <v name="DARWINR">      0.00000000      0.00000000      0.00000000      0.00000000</v>
   <v name="DARWINV">      1.00000000      1.00000000      1.00000000      1.00000000</v>
   <i type="logical" name="LCORR"> T  </i>
  </separator>
  <i type="logical" name="GGA_COMPAT"> T  </i>
  <i type="logical" name="LBERRY"> F  </i>
  <i type="int" name="ICORELEVEL">     0</i>
  <i type="logical" name="LDAU"> F  </i>
  <i type="int" name="I_CONSTRAINED_M">     0</i>
  <separator name="electronic exchange-correlation" >
   <i type="string" name="GGA">PE</i>
   <i type="int" name="VOSKOWN">     0</i>
   <i type="logical" name="LHFCALC"> F  </i>
   <i type="string" name="PRECFOCK"></i>
   <i type="logical" name="LSYMGRAD"> F  </i>
   <i type="logical" name="LHFONE"> F  </i>
   <i type="logical" name="LRHFCALC"> F  </i>
   <i type="logical" name="LTHOMAS"> F  </i>
   <i type="logical" name="LMODELHF"> F  </i>
   <i type="logical" name="LFOCKACE"> F  </i>
   <i name="ENCUT4O">     -1.00000000</i>
   <i type="int" name="EXXOEP">     0</i>
   <i type="int" name="FOURORBIT">     0</i>
   <i name="AEXX">      0.00000000</i>
   <i name="HFALPHA">      0.00000000</i>
   <i name="MCALPHA">      0.00000000</i>
   <i name="ALDAX">      1.00000000</i>
   <i name="AGGAX">      1.00000000</i>
   <i name="ALDAC">      1.00000000</i>
   <i name="AGGAC">      1.00000000</i>
   <i type="int" name="NKREDX">     1</i>
   <i type="int" name="NKREDY">     1</i>
   <i type="int" name="NKREDZ">     1</i>
   <i type="logical" name="SHIFTRED"> F  </i>
   <i type="logical" name="ODDONLY"> F  </i>
   <i type="logical" name="EVENONLY"> F  </i>
   <i type="int" name="LMAXFOCK">     0</i>
   <i type="int" name="NMAXFOCKAE">     0</i>
   <i type="logical" name="LFOCKAEDFT"> F  </i>
   <i name="HFSCREEN">      0.00000000</i>
   <i name="HFSCREENC">      0.00000000</i>
   <i type="int" name="NBANDSGWLOW">     0</i>
  </separator>
  <separator name="vdW DFT" >
   <i type="logical" name="LUSE_VDW"> F  </i>
   <i name="Zab_VDW">     -0.84910000</i>
   <i name="PARAM1">      0.12340000</i>
   <i name="PARAM2">      1.00000000</i>
   <i name="PARAM3">      0.00000000</i>
  </separator>
  <separator name="model GW" >
   <i type="int" name="MODEL_GW">     0</i>
   <i name="MODEL_EPS0">      8.66715988</i>
   <i name="MODEL_ALPHA">      1.00000000</i>
  </separator>
  <separator name="linear response parameters" >
   <i type="logical" name="LEPSILON"> F  </i>
   <i type="logical" name="LRPA"> F  </i>
   <i type="logical" name="LNABLA"> F  </i>
   <i type="logical" name="LVEL"> F  </i>
   <i type="int" name="KINTER">     0</i>
   <i name="CSHIFT">      0.10000000</i>
   <i name="OMEGAMAX">     -1.00000000</i>
   <i name="DEG_THRESHOLD">      0.00200000</i>
   <i name="RTIME">     -0.10000000</i>
   <i name="WPLASMAI">      0.00000000</i>
   <v name="DFIELD">      0.00000000      0.00000000      0.00000000</v>
   <v name="WPLASMA">      0.00000000      0.00000000      0.00000000      0.00000000      0.00000000      0.00000000      0.00000000      0.00000000      0.00000000</v>
  </separator>
  <separator name="orbital magnetization" >
   <i type="logical" name="NUCIND"> F  </i>
   <v name="MAGPOS">      0.00000000      0.00000000      0.00000000</v>
   <i type="logical" name="LNICSALL"> T  </i>
   <i type="logical" name="ORBITALMAG"> F  </i>
   <i type="logical" name="LMAGBLOCH"> F  </i>
   <i type="logical" name="LCHIMAG"> F  </i>
   <i type="logical" name="LGAUGE"> T  </i>
   <i type="int" name="MAGATOM">     0</i>
   <v name="MAGDIPOL">      0.00000000      0.00000000      0.00000000</v>
   <v name="AVECCONST">      0.00000000      0.00000000      0.00000000</v>
  </separator>
  <separator name="response functions" >
   <i type="logical" name="LFINITE_TEMPERATURE"> F  </i>
   <i type="logical" name="LADDER"> F  </i>
   <i type="logical" name="LRPAFORCE"> F  </i>
   <i type="logical" name="LFXC"> F  </i>
   <i type="logical" name="LHARTREE"> T  </i>
   <i type="int" name="IBSE">     0</i>
   <v type="int" name="KPOINT">    -1     0     0     0</v>
   <i type="logical" name="LTCTC"> F  </i>
   <i type="logical" name="LTCTE"> F  </i>
   <i type="logical" name="LTETE"> F  </i>
   <i type="logical" name="LTRIPLET"> F  </i>
   <i type="logical" name="LFXCEPS"> F  </i>
   <i type="logical" name="LFXHEG"> F  </i>
   <i type="int" name="NATURALO">     2</i>
   <i type="logical" name="LHOLEGF"> F  </i>
   <i type="logical" name="L2ORDER"> F  </i>
   <i type="logical" name="LDMP1"> F  </i>
   <i type="logical" name="LMP2LT"> F  </i>
   <i type="logical" name="LSMP2LT"> F  </i>
   <i type="logical" name="LGWLF"> F  </i>
   <i name="ENCUTGW">     -2.00000000</i>
   <i name="ENCUTGWSOFT">     -2.00000000</i>
   <i name="ENCUTLF">     -1.00000000</i>
   <i type="logical" name="LESF_SPLINES"> F  </i>
   <i type="int" name="LMAXMP2">    -1</i>
   <i name="SCISSOR">      0.00000000</i>
   <i type="int" name="NOMEGA">     0</i>
   <i type="int" name="NOMEGAR">     0</i>
   <i type="int" name="NBANDSGW">    -1</i>
   <i type="int" name="NBANDSO">    -1</i>
   <i type="int" name="NBANDSV">    -1</i>
   <i type="int" name="NELM">     1</i>
   <i type="int" name="NELMHF">     1</i>
   <i type="int" name="DIM">     3</i>
   <i type="int" name="IESPILON">     4</i>
   <i type="int" name="ANTIRES">     0</i>
   <i name="OMEGAMAX">    -30.00000000</i>
   <i name="OMEGAMIN">    -30.00000000</i>
   <i name="OMEGATL">   -200.00000000</i>
   <i type="int" name="OMEGAGRID">     0</i>
   <i name="CSHIFT">     -0.10000000</i>
   <i type="logical" name="LSELFENERGY"> F  </i>
   <i type="logical" name="LSPECTRAL"> F  </i>
   <i type="logical" name="LSPECTRALGW"> F  </i>
   <i type="logical" name="LSINGLES"> F  </i>
   <i type="logical" name="LFERMIGW"> F  </i>
   <i type="logical" name="ODDONLYGW"> F  </i>
   <i type="logical" name="EVENONLYGW"> F  </i>
   <i type="int" name="NKREDLFX">     1</i>
   <i type="int" name="NKREDLFY">     1</i>
   <i type="int" name="NKREDLFZ">     1</i>
   <i type="int" name="MAXMEM">  2800</i>
   <i type="int" name="TELESCOPE">     0</i>
   <i type="int" name="NTAUPAR">    -1</i>
   <i type="int" name="NOMEGAPAR">    -1</i>
   <i name="DAMP_NEWTON">      0.80000001</i>
   <i name="LAMBDA">      1.00000000</i>
  </separator>
  <separator name="External order field" >
   <i name="OFIELD_KAPPA">      0.00000000</i>
   <v name="OFIELD_K">      0.00000000      0.00000000      0.00000000</v>
   <i name="OFIELD_Q6_NEAR">      0.00000000</i>
   <i name="OFIELD_Q6_FAR">      0.00000000</i>
   <i name="OFIELD_A">      0.00000000</i>
  </separator>
 </parameters>
 <atominfo>
  <atoms>       4 </atoms>
  <types>       4 </types>
  <array name="atoms" >
   <dimension dim="1">ion</dimension>
   <field type="string">element</field>
   <field type="int">atomtype</field>
   <set>
    <rc><c>Pd</c><c>   1</c></rc>
    <rc><c>Ir</c><c>   2</c></rc>
    <rc><c>Pt</c><c>   3</c></rc>
    <rc><c>Cu</c><c>   4</c></rc>
   </set>
  </array>
  <array name="atomtypes" >
   <dimension dim="1">type</dimension>
   <field type="int">atomspertype</field>
   <field type="string">element</field>
   <field>mass</field>
   <field>valence</field>
   <field type="string">pseudopotential</field>
   <set>
    <rc><c>   1</c><c>Pd</c><c>    106.42000000</c><c>     10.00000000</c><c>  PAW_PBE Pd 04Jan2005                  </c></rc>
    <rc><c>   1</c><c>Ir</c><c>    192.22000000</c><c>      9.00000000</c><c>  PAW_PBE Ir 06Sep2000                  </c></rc>
    <rc><c>   1</c><c>Pt</c><c>    195.08000000</c><c>     10.00000000</c><c>  PAW_PBE Pt 04Feb2005                  </c></rc>
    <rc><c>   1</c><c>Cu</c><c>     63.54600000</c><c>     11.00000000</c><c>  PAW_PBE Cu 22Jun2005                  </c></rc>
   </set>
  </array>
 </atominfo>
 <structure name="initialpos" >
  <crystal>
   <varray name="basis" >
    <v>       3.86600000       0.00000000       0.00000000 </v>
    <v>       0.00000000       3.86600000       0.00000000 </v>
    <v>       0.00000000       0.00000000       3.86600000 </v>
   </varray>
   <i name="volume">     57.78106590 </i>
   <varray name="rec_basis" >
    <v>       0.25866529       0.00000000       0.00000000 </v>
    <v>       0.00000000       0.25866529       0.00000000 </v>
    <v>       0.00000000       0.00000000       0.25866529 </v>
   </varray>
  </crystal>
  <varray name="positions" >
   <v>       0.00000000       0.00000000       0.00000000 </v>
   <v>       0.50000000       0.50000000       0.00000000 </v>
   <v>       0.50000000       0.00000000       0.50000000 </v>
   <v>       0.00000000       0.50000000       0.50000000 </v>
  </varray>
 </structure>
 <calculation>
  <scstep>
   <time name="dav">    0.25    0.27</time>
   <time name="total">    0.28    0.30</time>
   <energy>
    <i name="alphaZ">    244.65455147 </i>
    <i name="ewald">  -3423.86860972 </i>
    <i name="hartreedc">   -594.94061728 </i>
    <i name="XCdc">      1.51854053 </i>
    <i name="pawpsdc">   3968.44261461 </i>
    <i name="pawaedc">  -3948.35268458 </i>
    <i name="eentropy">     -0.00300788 </i>
    <i name="bandstr">    244.04268285 </i>
    <i name="atom">   3487.04531016 </i>
    <i name="e_fr_energy">    -21.46121985 </i>
    <i name="e_wo_entrp">    -21.45821197 </i>
    <i name="e_0_energy">    -21.46021722 </i>
   </energy>
  </scstep>
  <scstep>
   <time name="dav">    0.24    0.24</time>
   <time name="total">    0.26    0.26</time>
   <energy>
    <i name="e_fr_energy">    -21.43402503 </i>
    <i name="e_wo_entrp">    -21.42898710 </i>
    <i name="e_0_energy">    -21.43234572 </i>
   </energy>
  </scstep>
  <scstep>
   <time name="dav">    0.26    0.26</time>
   <time name="total">    0.29    0.29</time>
   <energy>
    <i name="e_fr_energy">    -21.43339433 </i>
    <i name="e_wo_entrp">    -21.42905966 </i>
    <i name="e_0_energy">    -21.43194944 </i>
   </energy>
  </scstep>
  <scstep>
   <time name="dav">    0.26    0.26</time>
   <time name="total">    0.29    0.29</time>
   <energy>
    <i name="e_fr_energy">    -21.43339094 </i>
    <i name="e_wo_entrp">    -21.42894460 </i>
    <i name="e_0_energy">    -21.43190883 </i>
   </energy>
  </scstep>
  <scstep>
   <time name="dav">    0.22    0.22</time>
   <time name="total">    0.25    0.25</time>
   <energy>
    <i name="e_fr_energy">    -21.43338625 </i>
    <i name="e_wo_entrp">    -21.42900896 </i>
    <i name="e_0_energy">    -21.43192715 </i>
   </energy>
  </scstep>
  <scstep>
   <time name="dav">    0.15    0.15</time>
   <time name="total">    0.16    0.16</time>
   <energy>
    <i name="alphaZ">    244.65455147 </i>
    <i name="ewald">  -3423.86860972 </i>
    <i name="hartreedc">   -594.93969896 </i>
    <i name="XCdc">      1.51917065 </i>
    <i name="pawpsdc">   3968.55007484 </i>
    <i name="pawaedc">  -3948.48796795 </i>
    <i name="eentropy">     -0.00437049 </i>
    <i name="bandstr">    244.09815378 </i>
    <i name="atom">   3487.04531016 </i>
    <i name="e_fr_energy">    -21.43338623 </i>
    <i name="e_wo_entrp">    -21.42901574 </i>
    <i name="e_0_energy">    -21.43192940 </i>
   </energy>
  </scstep>
  <structure>
   <crystal>
    <varray name="basis" >
     <v>       3.86600000       0.00000000       0.00000000 </v>
     <v>       0.00000000       3.86600000       0.00000000 </v>
     <v>       0.00000000       0.00000000       3.86600000 </v>
    </varray>
    <i name="volume">     57.78106590 </i>
    <varray name="rec_basis" >
     <v>       0.25866529       0.00000000       0.00000000 </v>
     <v>       0.00000000       0.25866529       0.00000000 </v>
     <v>       0.00000000       0.00000000       0.25866529 </v>
    </varray>
   </crystal>
   <varray name="positions" >
    <v>       0.00000000       0.00000000       0.00000000 </v>
    <v>       0.50000000       0.50000000       0.00000000 </v>
    <v>       0.50000000       0.00000000       0.50000000 </v>
    <v>       0.00000000       0.50000000       0.50000000 </v>
   </varray>
  </structure>
  <varray name="forces" >
   <v>       0.00000000      -0.00000000       0.00000000 </v>
   <v>       0.00000000      -0.00000000       0.00000000 </v>
   <v>      -0.00000000      -0.00000000       0.00000000 </v>
   <v>       0.00000000       0.00000000      -0.00000000 </v>
  </varray>
  <varray name="stress" >
   <v>    -860.04860632       0.00000000       0.00000000 </v>
   <v>       0.00000000    -870.09337560       0.00000000 </v>
   <v>       0.00000000       0.00000000    -885.53971282 </v>
  </varray>
  <energy>
   <i name="e_fr_energy">    -21.43338623 </i>
   <i name="e_wo_entrp">    -21.42901574 </i>
   <i name="e_0_energy">    -21.43192940 </i>
  </energy>
  <time name="totalsc">    1.77    1.79</time>
  <eigenvalues>
   <array>
    <dimension dim="1">band</dimension>
    <dimension dim="2">kpoint</dimension>
    <dimension dim="3">spin</dimension>
    <field>eigene</field>
    <field>occ</field>
    <set>
     <set comment="spin 1">
      <set comment="kpoint 1">
       <r>    0.1152    1.0000 </r>
       <r>    2.5391    1.0000 </r>
       <r>    3.4990    1.0000 </r>
       <r>    3.5537    1.0000 </r>
       <r>    3.6375    1.0000 </r>
       <r>    3.6937    1.0000 </r>
       <r>    3.7388    1.0000 </r>
       <r>    6.2250    1.0000 </r>
       <r>    6.2648    1.0000 </r>
       <r>    6.3713    1.0000 </r>
       <r>    7.5010    1.0000 </r>
       <r>    7.6237    1.0000 </r>
       <r>    8.0273    1.0000 </r>
       <r>    8.2728    1.0000 </r>
       <r>    8.3850    1.0000 </r>
       <r>    9.1207    0.4811 </r>
       <r>    9.3137   -0.0238 </r>
       <r>    9.3674   -0.0353 </r>
       <r>    9.6886   -0.0002 </r>
       <r>   10.1507   -0.0000 </r>
       <r>   10.7371   -0.0000 </r>
       <r>   11.4224   -0.0000 </r>
       <r>   11.4325   -0.0000 </r>
       <r>   11.4437   -0.0000 </r>
       <r>   17.8493    0.0000 </r>
       <r>   18.1529    0.0000 </r>
       <r>   19.7236    0.0000 </r>
       <r>   20.3355    0.0000 </r>
       <r>   20.4836    0.0000 </r>
       <r>   20.7287    0.0000 </r>
      </set>
      <set comment="kpoint 2">
       <r>    0.5791    1.0000 </r>
       <r>    2.8381    1.0000 </r>
       <r>    3.6653    1.0000 </r>
       <r>    3.7060    1.0000 </r>
       <r>    3.8831    1.0000 </r>
       <r>    3.9719    1.0000 </r>
       <r>    4.0073    1.0000 </r>
       <r>    6.0743    1.0000 </r>
       <r>    6.3536    1.0000 </r>
       <r>    6.5191    1.0000 </r>
       <r>    7.2770    1.0000 </r>
       <r>    7.4580    1.0000 </r>
       <r>    7.5648    1.0000 </r>
       <r>    7.7690    1.0000 </r>
       <r>    7.8372    1.0000 </r>
       <r>    8.0224    1.0000 </r>
       <r>    8.9037    1.0305 </r>
       <r>    9.0343    0.8165 </r>
       <r>    9.1497    0.3605 </r>
       <r>    9.4080   -0.0294 </r>
       <r>    9.7056   -0.0001 </r>
       <r>   10.7382   -0.0000 </r>
       <r>   13.1694   -0.0000 </r>
       <r>   13.1702   -0.0000 </r>
       <r>   17.8427    0.0000 </r>
       <r>   18.0189    0.0000 </r>
       <r>   20.4287    0.0000 </r>
       <r>   20.4733    0.0000 </r>
       <r>   20.6178    0.0000 </r>
       <r>   20.9787    0.0000 </r>
      </set>
      <set comment="kpoint 3">
       <r>    0.6341    1.0000 </r>
       <r>    2.8587    1.0000 </r>
       <r>    3.6056    1.0000 </r>
       <r>    3.7874    1.0000 </r>
       <r>    3.8287    1.0000 </r>
       <r>    3.9705    1.0000 </r>
       <r>    4.0445    1.0000 </r>
       <r>    6.2071    1.0000 </r>
       <r>    6.3866    1.0000 </r>
       <r>    6.4014    1.0000 </r>
       <r>    7.1875    1.0000 </r>
       <r>    7.4583    1.0000 </r>
       <r>    7.5810    1.0000 </r>
       <r>    7.6540    1.0000 </r>
       <r>    8.1714    1.0000 </r>
       <r>    8.6725    1.0037 </r>
       <r>    8.9232    1.0212 </r>
       <r>    9.0851    0.6302 </r>
       <r>    9.1444    0.3821 </r>
       <r>    9.1910    0.2070 </r>
       <r>    9.3521   -0.0351 </r>
       <r>    9.6909   -0.0002 </r>
       <r>   13.2809   -0.0000 </r>
       <r>   13.4031   -0.0000 </r>
       <r>   17.4290    0.0000 </r>
       <r>   18.6275    0.0000 </r>
       <r>   20.3633    0.0000 </r>
       <r>   20.4201    0.0000 </r>
       <r>   20.6216    0.0000 </r>
       <r>   21.2663    0.0000 </r>
      </set>
      <set comment="kpoint 4">
       <r>    0.6359    1.0000 </r>
       <r>    2.8702    1.0000 </r>
       <r>    3.7558    1.0000 </r>
       <r>    3.8372    1.0000 </r>
       <r>    3.8624    1.0000 </r>
       <r>    3.8908    1.0000 </r>
       <r>    3.9166    1.0000 </r>
       <r>    6.0160    1.0000 </r>
       <r>    6.3689    1.0000 </r>
       <r>    6.5177    1.0000 </r>
       <r>    7.2055    1.0000 </r>
       <r>    7.4318    1.0000 </r>
       <r>    7.5469    1.0000 </r>
       <r>    7.8616    1.0000 </r>
       <r>    7.9534    1.0000 </r>
       <r>    8.3685    1.0000 </r>
       <r>    8.7278    1.0096 </r>
       <r>    9.0455    0.7797 </r>
       <r>    9.0980    0.5770 </r>
       <r>    9.2230    0.1119 </r>
       <r>    9.7145   -0.0001 </r>
       <r>   10.1389   -0.0000 </r>
       <r>   13.2479   -0.0000 </r>
       <r>   13.3693   -0.0000 </r>
       <r>   17.1120    0.0000 </r>
       <r>   18.8374    0.0000 </r>
       <r>   20.4558    0.0000 </r>
       <r>   20.4716    0.0000 </r>
       <r>   20.7360    0.0000 </r>
       <r>   21.1994    0.0000 </r>
      </set>
      <set comment="kpoint 5">
       <r>    1.6721    1.0000 </r>
       <r>    3.4888    1.0000 </r>
       <r>    3.7997    1.0000 </r>
       <r>    4.0268    1.0000 </r>
       <r>    4.6473    1.0000 </r>
       <r>    4.6891    1.0000 </r>
       <r>    4.7221    1.0000 </r>
       <r>    5.7452    1.0000 </r>
       <r>    5.9390    1.0000 </r>
       <r>    6.0405    1.0000 </r>
       <r>    6.8571    1.0000 </r>
       <r>    6.9025    1.0000 </r>
       <r>    6.9307    1.0000 </r>
       <r>    7.1683    1.0000 </r>
       <r>    7.2608    1.0000 </r>
       <r>    7.4910    1.0000 </r>
       <r>    7.9295    1.0000 </r>
       <r>    8.1443    1.0000 </r>
       <r>    8.1695    1.0000 </r>
       <r>    8.4900    1.0000 </r>
       <r>    9.2795    0.0060 </r>
       <r>   10.7205   -0.0000 </r>
       <r>   15.6994    0.0000 </r>
       <r>   15.7712    0.0000 </r>
       <r>   17.0602    0.0000 </r>
       <r>   17.9792    0.0000 </r>
       <r>   18.6460    0.0000 </r>
       <r>   18.7650    0.0000 </r>
       <r>   19.1107    0.0000 </r>
       <r>   21.8260    0.0000 </r>
      </set>
      <set comment="kpoint 6">
       <r>    2.0051    1.0000 </r>
       <r>    3.2993    1.0000 </r>
       <r>    3.7140    1.0000 </r>
       <r>    4.1041    1.0000 </r>
       <r>    4.5794    1.0000 </r>
       <r>    4.6259    1.0000 </r>
       <r>    4.9157    1.0000 </r>
       <r>    5.8820    1.0000 </r>
       <r>    6.2658    1.0000 </r>
       <r>    6.3048    1.0000 </r>
       <r>    6.7845    1.0000 </r>
       <r>    6.8563    1.0000 </r>
       <r>    6.8749    1.0000 </r>
       <r>    7.1426    1.0000 </r>
       <r>    7.4469    1.0000 </r>
       <r>    7.7738    1.0000 </r>
       <r>    7.7854    1.0000 </r>
       <r>    8.0096    1.0000 </r>
       <r>    8.1214    1.0000 </r>
       <r>    8.3482    1.0000 </r>
       <r>    8.9937    0.9257 </r>
       <r>    9.2953   -0.0105 </r>
       <r>   15.9182    0.0000 </r>
       <r>   15.9561    0.0000 </r>
       <r>   16.6905    0.0000 </r>
       <r>   18.4669    0.0000 </r>
       <r>   18.4885    0.0000 </r>
       <r>   18.6387    0.0000 </r>
       <r>   20.4345    0.0000 </r>
       <r>   20.7329    0.0000 </r>
      </set>
      <set comment="kpoint 7">
       <r>    2.0228    1.0000 </r>
       <r>    3.2989    1.0000 </r>
       <r>    3.9304    1.0000 </r>
       <r>    4.3309    1.0000 </r>
       <r>    4.5621    1.0000 </r>
       <r>    4.6725    1.0000 </r>
       <r>    4.6798    1.0000 </r>
       <r>    5.5784    1.0000 </r>
       <r>    5.9412    1.0000 </r>
       <r>    6.0702    1.0000 </r>
       <r>    6.8230    1.0000 </r>
       <r>    6.9396    1.0000 </r>
       <r>    6.9455    1.0000 </r>
       <r>    7.1079    1.0000 </r>
       <r>    7.3283    1.0000 </r>
       <r>    7.6042    1.0000 </r>
       <r>    7.9351    1.0000 </r>
       <r>    7.9556    1.0000 </r>
       <r>    8.2791    1.0000 </r>
       <r>    8.3610    1.0000 </r>
       <r>    8.8550    1.0345 </r>
       <r>   10.0982   -0.0000 </r>
       <r>   15.8925    0.0000 </r>
       <r>   16.0052    0.0000 </r>
       <r>   16.2484    0.0000 </r>
       <r>   18.4632    0.0000 </r>
       <r>   18.7330    0.0000 </r>
       <r>   18.9562    0.0000 </r>
       <r>   20.0317    0.0000 </r>
       <r>   21.0955    0.0000 </r>
      </set>
      <set comment="kpoint 8">
       <r>    1.0760    1.0000 </r>
       <r>    3.1580    1.0000 </r>
       <r>    3.9110    1.0000 </r>
       <r>    3.9194    1.0000 </r>
       <r>    4.0962    1.0000 </r>
       <r>    4.1151    1.0000 </r>
       <r>    4.3465    1.0000 </r>
       <r>    5.9799    1.0000 </r>
       <r>    6.3425    1.0000 </r>
       <r>    6.5677    1.0000 </r>
       <r>    7.0188    1.0000 </r>
       <r>    7.1363    1.0000 </r>
       <r>    7.1941    1.0000 </r>
       <r>    7.2851    1.0000 </r>
       <r>    7.6911    1.0000 </r>
       <r>    7.8980    1.0000 </r>
       <r>    8.2183    1.0000 </r>
       <r>    8.8283    1.0302 </r>
       <r>    8.8764    1.0354 </r>
       <r>    8.9809    0.9515 </r>
       <r>    9.6485   -0.0005 </r>
       <r>   10.8461   -0.0000 </r>
       <r>   11.8519   -0.0000 </r>
       <r>   14.5339   -0.0000 </r>
       <r>   16.9797    0.0000 </r>
       <r>   18.9894    0.0000 </r>
       <r>   20.0539    0.0000 </r>
       <r>   20.4078    0.0000 </r>
       <r>   21.0907    0.0000 </r>
       <r>   21.7240    0.0000 </r>
      </set>
      <set comment="kpoint 9">
       <r>    1.1043    1.0000 </r>
       <r>    3.1929    1.0000 </r>
       <r>    3.8916    1.0000 </r>
       <r>    3.9714    1.0000 </r>
       <r>    4.0289    1.0000 </r>
       <r>    4.2346    1.0000 </r>
       <r>    4.2906    1.0000 </r>
       <r>    5.9394    1.0000 </r>
       <r>    6.3576    1.0000 </r>
       <r>    6.5588    1.0000 </r>
       <r>    7.0213    1.0000 </r>
       <r>    7.1472    1.0000 </r>
       <r>    7.2025    1.0000 </r>
       <r>    7.2691    1.0000 </r>
       <r>    7.6647    1.0000 </r>
       <r>    7.9939    1.0000 </r>
       <r>    8.3372    1.0000 </r>
       <r>    8.6262    1.0014 </r>
       <r>    8.8271    1.0300 </r>
       <r>    8.8349    1.0315 </r>
       <r>    9.4683   -0.0160 </r>
       <r>   10.8935   -0.0000 </r>
       <r>   12.2113   -0.0000 </r>
       <r>   14.4335   -0.0000 </r>
       <r>   16.8379    0.0000 </r>
       <r>   19.0498    0.0000 </r>
       <r>   19.5449    0.0000 </r>
       <r>   20.9425    0.0000 </r>
       <r>   21.2386    0.0000 </r>
       <r>   21.9456    0.0000 </r>
      </set>
      <set comment="kpoint 10">
       <r>    1.0759    1.0000 </r>
       <r>    3.1736    1.0000 </r>
       <r>    3.9226    1.0000 </r>
       <r>    3.9385    1.0000 </r>
       <r>    4.0563    1.0000 </r>
       <r>    4.2359    1.0000 </r>
       <r>    4.2782    1.0000 </r>
       <r>    5.8253    1.0000 </r>
       <r>    6.4911    1.0000 </r>
       <r>    6.5203    1.0000 </r>
       <r>    6.9656    1.0000 </r>
       <r>    7.1329    1.0000 </r>
       <r>    7.1789    1.0000 </r>
       <r>    7.2340    1.0000 </r>
       <r>    7.6886    1.0000 </r>
       <r>    7.7565    1.0000 </r>
       <r>    8.0732    1.0000 </r>
       <r>    8.9228    1.0214 </r>
       <r>    8.9771    0.9584 </r>
       <r>    9.1891    0.2133 </r>
       <r>    9.7728   -0.0000 </r>
       <r>   11.0902   -0.0000 </r>
       <r>   11.5110   -0.0000 </r>
       <r>   14.5315   -0.0000 </r>
       <r>   16.9438    0.0000 </r>
       <r>   18.9199    0.0000 </r>
       <r>   20.0013    0.0000 </r>
       <r>   20.5324    0.0000 </r>
       <r>   21.1732    0.0000 </r>
       <r>   21.8567    0.0000 </r>
      </set>
      <set comment="kpoint 11">
       <r>    2.1371    1.0000 </r>
       <r>    3.7684    1.0000 </r>
       <r>    4.1112    1.0000 </r>
       <r>    4.2453    1.0000 </r>
       <r>    4.6278    1.0000 </r>
       <r>    4.8150    1.0000 </r>
       <r>    4.9601    1.0000 </r>
       <r>    5.4720    1.0000 </r>
       <r>    5.6432    1.0000 </r>
       <r>    6.0151    1.0000 </r>
       <r>    6.3491    1.0000 </r>
       <r>    6.5041    1.0000 </r>
       <r>    6.9198    1.0000 </r>
       <r>    7.1628    1.0000 </r>
       <r>    7.2629    1.0000 </r>
       <r>    7.5946    1.0000 </r>
       <r>    7.7029    1.0000 </r>
       <r>    8.3095    1.0000 </r>
       <r>    8.3824    1.0000 </r>
       <r>    8.8752    1.0354 </r>
       <r>    9.4800   -0.0137 </r>
       <r>    9.7398   -0.0000 </r>
       <r>   13.0790   -0.0000 </r>
       <r>   15.1880    0.0000 </r>
       <r>   16.8988    0.0000 </r>
       <r>   18.0749    0.0000 </r>
       <r>   19.5926    0.0000 </r>
       <r>   19.8051    0.0000 </r>
       <r>   21.8721    0.0000 </r>
       <r>   23.0962    0.0000 </r>
      </set>
      <set comment="kpoint 12">
       <r>    2.3541    1.0000 </r>
       <r>    3.6321    1.0000 </r>
       <r>    3.9805    1.0000 </r>
       <r>    4.2485    1.0000 </r>
       <r>    4.5519    1.0000 </r>
       <r>    4.7873    1.0000 </r>
       <r>    5.1136    1.0000 </r>
       <r>    5.6432    1.0000 </r>
       <r>    5.7586    1.0000 </r>
       <r>    6.2247    1.0000 </r>
       <r>    6.3598    1.0000 </r>
       <r>    6.5116    1.0000 </r>
       <r>    6.8610    1.0000 </r>
       <r>    7.1456    1.0000 </r>
       <r>    7.5289    1.0000 </r>
       <r>    7.6306    1.0000 </r>
       <r>    7.6778    1.0000 </r>
       <r>    8.0826    1.0000 </r>
       <r>    8.2893    1.0000 </r>
       <r>    8.8513    1.0341 </r>
       <r>    8.9666    0.9756 </r>
       <r>    9.2983   -0.0131 </r>
       <r>   13.5774   -0.0000 </r>
       <r>   15.1383    0.0000 </r>
       <r>   16.7755    0.0000 </r>
       <r>   18.3581    0.0000 </r>
       <r>   19.4052    0.0000 </r>
       <r>   19.5740    0.0000 </r>
       <r>   21.7050    0.0000 </r>
       <r>   23.3261    0.0000 </r>
      </set>
      <set comment="kpoint 13">
       <r>    2.3946    1.0000 </r>
       <r>    3.6383    1.0000 </r>
       <r>    4.1967    1.0000 </r>
       <r>    4.3871    1.0000 </r>
       <r>    4.5907    1.0000 </r>
       <r>    4.9089    1.0000 </r>
       <r>    4.9345    1.0000 </r>
       <r>    5.2867    1.0000 </r>
       <r>    5.5417    1.0000 </r>
       <r>    6.0753    1.0000 </r>
       <r>    6.4346    1.0000 </r>
       <r>    6.5322    1.0000 </r>
       <r>    6.9391    1.0000 </r>
       <r>    7.1497    1.0000 </r>
       <r>    7.3168    1.0000 </r>
       <r>    7.5821    1.0000 </r>
       <r>    7.8963    1.0000 </r>
       <r>    8.1399    1.0000 </r>
       <r>    8.4034    1.0000 </r>
       <r>    8.6197    1.0012 </r>
       <r>    9.1886    0.2150 </r>
       <r>    9.3638   -0.0354 </r>
       <r>   13.4321   -0.0000 </r>
       <r>   15.1810    0.0000 </r>
       <r>   16.8412    0.0000 </r>
       <r>   17.9447    0.0000 </r>
       <r>   19.3966    0.0000 </r>
       <r>   20.1229    0.0000 </r>
       <r>   21.9685    0.0000 </r>
       <r>   22.9933    0.0000 </r>
      </set>
      <set comment="kpoint 14">
       <r>    2.3902    1.0000 </r>
       <r>    3.6159    1.0000 </r>
       <r>    4.0305    1.0000 </r>
       <r>    4.2615    1.0000 </r>
       <r>    4.5699    1.0000 </r>
       <r>    4.7479    1.0000 </r>
       <r>    5.1040    1.0000 </r>
       <r>    5.6461    1.0000 </r>
       <r>    5.9533    1.0000 </r>
       <r>    6.1968    1.0000 </r>
       <r>    6.2648    1.0000 </r>
       <r>    6.4836    1.0000 </r>
       <r>    6.8750    1.0000 </r>
       <r>    7.1806    1.0000 </r>
       <r>    7.4336    1.0000 </r>
       <r>    7.6509    1.0000 </r>
       <r>    7.7110    1.0000 </r>
       <r>    8.1080    1.0000 </r>
       <r>    8.3796    1.0000 </r>
       <r>    8.7476    1.0128 </r>
       <r>    8.8683    1.0354 </r>
       <r>    9.1483    0.3664 </r>
       <r>   13.4889   -0.0000 </r>
       <r>   15.1755    0.0000 </r>
       <r>   16.8342    0.0000 </r>
       <r>   18.3216    0.0000 </r>
       <r>   19.3802    0.0000 </r>
       <r>   19.7419    0.0000 </r>
       <r>   22.0104    0.0000 </r>
       <r>   23.0213    0.0000 </r>
      </set>
      <set comment="kpoint 15">
       <r>    2.1333    1.0000 </r>
       <r>    3.8062    1.0000 </r>
       <r>    4.0682    1.0000 </r>
       <r>    4.2133    1.0000 </r>
       <r>    4.5751    1.0000 </r>
       <r>    4.8644    1.0000 </r>
       <r>    5.0122    1.0000 </r>
       <r>    5.4088    1.0000 </r>
       <r>    5.5507    1.0000 </r>
       <r>    6.0838    1.0000 </r>
       <r>    6.4316    1.0000 </r>
       <r>    6.5548    1.0000 </r>
       <r>    6.9267    1.0000 </r>
       <r>    7.1330    1.0000 </r>
       <r>    7.2604    1.0000 </r>
       <r>    7.5718    1.0000 </r>
       <r>    7.8942    1.0000 </r>
       <r>    8.0812    1.0000 </r>
       <r>    8.4869    1.0000 </r>
       <r>    8.9064    1.0295 </r>
       <r>    9.4425   -0.0216 </r>
       <r>    9.6918   -0.0002 </r>
       <r>   13.0544   -0.0000 </r>
       <r>   15.2493    0.0000 </r>
       <r>   16.8577    0.0000 </r>
       <r>   18.0402    0.0000 </r>
       <r>   19.5009    0.0000 </r>
       <r>   19.7424    0.0000 </r>
       <r>   21.9727    0.0000 </r>
       <r>   22.9879    0.0000 </r>
      </set>
      <set comment="kpoint 16">
       <r>    2.3640    1.0000 </r>
       <r>    3.6130    1.0000 </r>
       <r>    4.2094    1.0000 </r>
       <r>    4.4209    1.0000 </r>
       <r>    4.6037    1.0000 </r>
       <r>    4.8708    1.0000 </r>
       <r>    4.8965    1.0000 </r>
       <r>    5.3558    1.0000 </r>
       <r>    5.5269    1.0000 </r>
       <r>    6.0309    1.0000 </r>
       <r>    6.3281    1.0000 </r>
       <r>    6.5355    1.0000 </r>
       <r>    6.9339    1.0000 </r>
       <r>    7.1455    1.0000 </r>
       <r>    7.3803    1.0000 </r>
       <r>    7.6133    1.0000 </r>
       <r>    7.6514    1.0000 </r>
       <r>    8.2315    1.0000 </r>
       <r>    8.5076    1.0001 </r>
       <r>    8.5430    1.0002 </r>
       <r>    9.3921   -0.0325 </r>
       <r>    9.4854   -0.0127 </r>
       <r>   13.5355   -0.0000 </r>
       <r>   15.0793    0.0000 </r>
       <r>   16.8299    0.0000 </r>
       <r>   18.0033    0.0000 </r>
       <r>   19.5076    0.0000 </r>
       <r>   20.0142    0.0000 </r>
       <r>   21.5922    0.0000 </r>
       <r>   23.4222    0.0000 </r>
      </set>
      <set comment="kpoint 17">
       <r>    3.2749    1.0000 </r>
       <r>    4.1887    1.0000 </r>
       <r>    4.4380    1.0000 </r>
       <r>    4.7465    1.0000 </r>
       <r>    4.8475    1.0000 </r>
       <r>    5.0494    1.0000 </r>
       <r>    5.1789    1.0000 </r>
       <r>    5.2938    1.0000 </r>
       <r>    5.3350    1.0000 </r>
       <r>    5.8650    1.0000 </r>
       <r>    5.9926    1.0000 </r>
       <r>    6.2110    1.0000 </r>
       <r>    6.8175    1.0000 </r>
       <r>    7.0420    1.0000 </r>
       <r>    7.0960    1.0000 </r>
       <r>    7.2760    1.0000 </r>
       <r>    7.4384    1.0000 </r>
       <r>    8.0353    1.0000 </r>
       <r>    8.3333    1.0000 </r>
       <r>    8.3548    1.0000 </r>
       <r>    9.0178    0.8659 </r>
       <r>   10.0515   -0.0000 </r>
       <r>   11.5623   -0.0000 </r>
       <r>   12.9333   -0.0000 </r>
       <r>   18.8181    0.0000 </r>
       <r>   18.9750    0.0000 </r>
       <r>   20.4917    0.0000 </r>
       <r>   21.2078    0.0000 </r>
       <r>   21.2327    0.0000 </r>
       <r>   21.7059    0.0000 </r>
      </set>
      <set comment="kpoint 18">
       <r>    3.1728    1.0000 </r>
       <r>    3.9646    1.0000 </r>
       <r>    4.3440    1.0000 </r>
       <r>    4.7178    1.0000 </r>
       <r>    4.9280    1.0000 </r>
       <r>    5.0821    1.0000 </r>
       <r>    5.0944    1.0000 </r>
       <r>    5.3775    1.0000 </r>
       <r>    5.3967    1.0000 </r>
       <r>    5.8819    1.0000 </r>
       <r>    6.0982    1.0000 </r>
       <r>    6.2028    1.0000 </r>
       <r>    6.8517    1.0000 </r>
       <r>    6.9984    1.0000 </r>
       <r>    7.0998    1.0000 </r>
       <r>    7.2023    1.0000 </r>
       <r>    7.3346    1.0000 </r>
       <r>    7.9744    1.0000 </r>
       <r>    8.5645    1.0003 </r>
       <r>    8.6121    1.0011 </r>
       <r>    9.0869    0.6227 </r>
       <r>    9.8780   -0.0000 </r>
       <r>   12.1355   -0.0000 </r>
       <r>   12.9860   -0.0000 </r>
       <r>   18.5579    0.0000 </r>
       <r>   18.6999    0.0000 </r>
       <r>   20.3902    0.0000 </r>
       <r>   20.5134    0.0000 </r>
       <r>   21.0867    0.0000 </r>
       <r>   22.1687    0.0000 </r>
      </set>
      <set comment="kpoint 19">
       <r>    3.2427    1.0000 </r>
       <r>    4.3291    1.0000 </r>
       <r>    4.4181    1.0000 </r>
       <r>    4.6195    1.0000 </r>
       <r>    4.7156    1.0000 </r>
       <r>    4.9549    1.0000 </r>
       <r>    5.0203    1.0000 </r>
       <r>    5.2202    1.0000 </r>
       <r>    5.5670    1.0000 </r>
       <r>    6.0163    1.0000 </r>
       <r>    6.1640    1.0000 </r>
       <r>    6.3072    1.0000 </r>
       <r>    6.7767    1.0000 </r>
       <r>    7.0262    1.0000 </r>
       <r>    7.1237    1.0000 </r>
       <r>    7.2503    1.0000 </r>
       <r>    7.7095    1.0000 </r>
       <r>    7.8893    1.0000 </r>
       <r>    8.1493    1.0000 </r>
       <r>    8.2197    1.0000 </r>
       <r>    9.2296    0.0956 </r>
       <r>   10.4418   -0.0000 </r>
       <r>   11.1060   -0.0000 </r>
       <r>   12.8139   -0.0000 </r>
       <r>   18.7316    0.0000 </r>
       <r>   18.9450    0.0000 </r>
       <r>   20.7110    0.0000 </r>
       <r>   21.0268    0.0000 </r>
       <r>   21.4205    0.0000 </r>
       <r>   21.5276    0.0000 </r>
      </set>
      <set comment="kpoint 20">
       <r>    1.4876    1.0000 </r>
       <r>    3.4064    1.0000 </r>
       <r>    3.9908    1.0000 </r>
       <r>    4.0946    1.0000 </r>
       <r>    4.1861    1.0000 </r>
       <r>    4.5195    1.0000 </r>
       <r>    4.6448    1.0000 </r>
       <r>    5.6973    1.0000 </r>
       <r>    6.3971    1.0000 </r>
       <r>    6.4873    1.0000 </r>
       <r>    6.6144    1.0000 </r>
       <r>    6.8534    1.0000 </r>
       <r>    7.0119    1.0000 </r>
       <r>    7.1831    1.0000 </r>
       <r>    7.2821    1.0000 </r>
       <r>    7.5237    1.0000 </r>
       <r>    8.1923    1.0000 </r>
       <r>    8.2752    1.0000 </r>
       <r>    8.4691    1.0000 </r>
       <r>    8.9792    0.9546 </r>
       <r>    9.7342   -0.0001 </r>
       <r>   11.7854   -0.0000 </r>
       <r>   12.4720   -0.0000 </r>
       <r>   12.6841   -0.0000 </r>
       <r>   17.6898    0.0000 </r>
       <r>   17.9167    0.0000 </r>
       <r>   18.6178    0.0000 </r>
       <r>   21.1122    0.0000 </r>
       <r>   21.5329    0.0000 </r>
       <r>   21.7245    0.0000 </r>
      </set>
      <set comment="kpoint 21">
       <r>    2.3857    1.0000 </r>
       <r>    3.7326    1.0000 </r>
       <r>    4.1899    1.0000 </r>
       <r>    4.5066    1.0000 </r>
       <r>    4.5213    1.0000 </r>
       <r>    4.8022    1.0000 </r>
       <r>    5.2979    1.0000 </r>
       <r>    5.5337    1.0000 </r>
       <r>    5.7670    1.0000 </r>
       <r>    5.9876    1.0000 </r>
       <r>    6.3871    1.0000 </r>
       <r>    6.5134    1.0000 </r>
       <r>    6.7340    1.0000 </r>
       <r>    6.9682    1.0000 </r>
       <r>    7.0856    1.0000 </r>
       <r>    7.4996    1.0000 </r>
       <r>    7.9762    1.0000 </r>
       <r>    8.1381    1.0000 </r>
       <r>    8.5680    1.0004 </r>
       <r>    8.9280    1.0179 </r>
       <r>    9.4549   -0.0188 </r>
       <r>    9.7329   -0.0001 </r>
       <r>   13.7712   -0.0000 </r>
       <r>   13.7915   -0.0000 </r>
       <r>   15.5004    0.0000 </r>
       <r>   16.2941    0.0000 </r>
       <r>   20.1171    0.0000 </r>
       <r>   21.5420    0.0000 </r>
       <r>   22.1285    0.0000 </r>
       <r>   22.3898    0.0000 </r>
      </set>
      <set comment="kpoint 22">
       <r>    2.5653    1.0000 </r>
       <r>    3.6197    1.0000 </r>
       <r>    3.9871    1.0000 </r>
       <r>    4.4622    1.0000 </r>
       <r>    4.6553    1.0000 </r>
       <r>    4.8395    1.0000 </r>
       <r>    5.5040    1.0000 </r>
       <r>    5.5998    1.0000 </r>
       <r>    5.7630    1.0000 </r>
       <r>    6.0793    1.0000 </r>
       <r>    6.4824    1.0000 </r>
       <r>    6.5312    1.0000 </r>
       <r>    6.6458    1.0000 </r>
       <r>    6.9504    1.0000 </r>
       <r>    7.1134    1.0000 </r>
       <r>    7.2618    1.0000 </r>
       <r>    8.1103    1.0000 </r>
       <r>    8.1811    1.0000 </r>
       <r>    8.3171    1.0000 </r>
       <r>    8.8467    1.0335 </r>
       <r>    9.2743    0.0125 </r>
       <r>    9.6032   -0.0015 </r>
       <r>   13.7850   -0.0000 </r>
       <r>   14.0274   -0.0000 </r>
       <r>   15.5929    0.0000 </r>
       <r>   16.1154    0.0000 </r>
       <r>   20.2040    0.0000 </r>
       <r>   21.6020    0.0000 </r>
       <r>   22.2638    0.0000 </r>
       <r>   22.4148    0.0000 </r>
      </set>
      <set comment="kpoint 23">
       <r>    2.5710    1.0000 </r>
       <r>    3.6192    1.0000 </r>
       <r>    4.1367    1.0000 </r>
       <r>    4.4746    1.0000 </r>
       <r>    4.6440    1.0000 </r>
       <r>    5.0102    1.0000 </r>
       <r>    5.1646    1.0000 </r>
       <r>    5.5246    1.0000 </r>
       <r>    5.7102    1.0000 </r>
       <r>    5.9502    1.0000 </r>
       <r>    6.3740    1.0000 </r>
       <r>    6.5182    1.0000 </r>
       <r>    6.7431    1.0000 </r>
       <r>    6.9929    1.0000 </r>
       <r>    7.1287    1.0000 </r>
       <r>    7.3630    1.0000 </r>
       <r>    8.1018    1.0000 </r>
       <r>    8.1325    1.0000 </r>
       <r>    8.4830    1.0000 </r>
       <r>    8.7690    1.0170 </r>
       <r>    9.3800   -0.0343 </r>
       <r>    9.6783   -0.0003 </r>
       <r>   13.7871   -0.0000 </r>
       <r>   13.9678   -0.0000 </r>
       <r>   15.5735    0.0000 </r>
       <r>   16.2036    0.0000 </r>
       <r>   20.1159    0.0000 </r>
       <r>   21.3831    0.0000 </r>
       <r>   22.2246    0.0000 </r>
       <r>   22.4837    0.0000 </r>
      </set>
      <set comment="kpoint 24">
       <r>    3.0209    1.0000 </r>
       <r>    3.5401    1.0000 </r>
       <r>    3.8446    1.0000 </r>
       <r>    4.2364    1.0000 </r>
       <r>    5.1705    1.0000 </r>
       <r>    5.4510    1.0000 </r>
       <r>    5.7086    1.0000 </r>
       <r>    5.8681    1.0000 </r>
       <r>    6.0376    1.0000 </r>
       <r>    6.1264    1.0000 </r>
       <r>    6.3009    1.0000 </r>
       <r>    6.4693    1.0000 </r>
       <r>    6.5768    1.0000 </r>
       <r>    6.6737    1.0000 </r>
       <r>    6.8339    1.0000 </r>
       <r>    6.9816    1.0000 </r>
       <r>    7.8295    1.0000 </r>
       <r>    8.2732    1.0000 </r>
       <r>    8.6787    1.0042 </r>
       <r>    8.9919    0.9295 </r>
       <r>    9.1533    0.3463 </r>
       <r>   10.1990   -0.0000 </r>
       <r>   11.4597   -0.0000 </r>
       <r>   12.6995   -0.0000 </r>
       <r>   15.7815    0.0000 </r>
       <r>   17.4791    0.0000 </r>
       <r>   17.8887    0.0000 </r>
       <r>   19.8802    0.0000 </r>
       <r>   22.8240    0.0000 </r>
       <r>   24.6227    0.0000 </r>
      </set>
      <set comment="kpoint 25">
       <r>    3.0112    1.0000 </r>
       <r>    3.5667    1.0000 </r>
       <r>    3.6267    1.0000 </r>
       <r>    4.2394    1.0000 </r>
       <r>    5.1740    1.0000 </r>
       <r>    5.4578    1.0000 </r>
       <r>    5.6963    1.0000 </r>
       <r>    5.9229    1.0000 </r>
       <r>    6.0362    1.0000 </r>
       <r>    6.1110    1.0000 </r>
       <r>    6.3029    1.0000 </r>
       <r>    6.4823    1.0000 </r>
       <r>    6.5862    1.0000 </r>
       <r>    6.6754    1.0000 </r>
       <r>    6.8209    1.0000 </r>
       <r>    6.9712    1.0000 </r>
       <r>    7.8724    1.0000 </r>
       <r>    8.2959    1.0000 </r>
       <r>    8.8129    1.0269 </r>
       <r>    8.9805    0.9523 </r>
       <r>    9.1333    0.4283 </r>
       <r>   10.0784   -0.0000 </r>
       <r>   11.9483   -0.0000 </r>
       <r>   12.8820   -0.0000 </r>
       <r>   15.5223    0.0000 </r>
       <r>   17.0394    0.0000 </r>
       <r>   17.9410    0.0000 </r>
       <r>   19.8462    0.0000 </r>
       <r>   22.9087    0.0000 </r>
       <r>   24.4684    0.0000 </r>
      </set>
      <set comment="kpoint 26">
       <r>    3.0154    1.0000 </r>
       <r>    3.5734    1.0000 </r>
       <r>    3.8797    1.0000 </r>
       <r>    4.0678    1.0000 </r>
       <r>    5.1357    1.0000 </r>
       <r>    5.3600    1.0000 </r>
       <r>    5.6719    1.0000 </r>
       <r>    6.0591    1.0000 </r>
       <r>    6.1487    1.0000 </r>
       <r>    6.1999    1.0000 </r>
       <r>    6.4084    1.0000 </r>
       <r>    6.4154    1.0000 </r>
       <r>    6.5696    1.0000 </r>
       <r>    6.7550    1.0000 </r>
       <r>    6.8265    1.0000 </r>
       <r>    6.8384    1.0000 </r>
       <r>    8.0014    1.0000 </r>
       <r>    8.0344    1.0000 </r>
       <r>    8.4898    1.0000 </r>
       <r>    9.1307    0.4389 </r>
       <r>    9.2826    0.0022 </r>
       <r>   10.5597   -0.0000 </r>
       <r>   11.0081   -0.0000 </r>
       <r>   12.6316   -0.0000 </r>
       <r>   15.7614    0.0000 </r>
       <r>   17.5240    0.0000 </r>
       <r>   17.8749    0.0000 </r>
       <r>   19.9414    0.0000 </r>
       <r>   22.6949    0.0000 </r>
       <r>   24.6888    0.0000 </r>
      </set>
      <set comment="kpoint 27">
       <r>    2.8931    1.0000 </r>
       <r>    3.0224    1.0000 </r>
       <r>    3.2464    1.0000 </r>
       <r>    3.6345    1.0000 </r>
       <r>    5.5843    1.0000 </r>
       <r>    5.7049    1.0000 </r>
       <r>    5.8422    1.0000 </r>
       <r>    6.0757    1.0000 </r>
       <r>    6.1939    1.0000 </r>
       <r>    6.4649    1.0000 </r>
       <r>    6.5769    1.0000 </r>
       <r>    6.7843    1.0000 </r>
       <r>    7.2455    1.0000 </r>
       <r>    7.3302    1.0000 </r>
       <r>    7.5014    1.0000 </r>
       <r>    7.8365    1.0000 </r>
       <r>    8.2327    1.0000 </r>
       <r>    8.6348    1.0017 </r>
       <r>    8.6915    1.0052 </r>
       <r>    9.1064    0.5416 </r>
       <r>    9.6595   -0.0004 </r>
       <r>   10.4487   -0.0000 </r>
       <r>   10.8633   -0.0000 </r>
       <r>   11.0998   -0.0000 </r>
       <r>   14.9322    0.0000 </r>
       <r>   15.3730    0.0000 </r>
       <r>   16.1852    0.0000 </r>
       <r>   17.6837    0.0000 </r>
       <r>   25.3447    0.0000 </r>
       <r>   25.4437    0.0000 </r>
      </set>
     </set>
    </set>
   </array>
  </eigenvalues>
  <separator name="orbital magnetization" >
   <v name="MAGDIPOLOUT">      0.00000000      0.00000000      0.00000000</v>
  </separator>
  <dos>
   <i name="efermi">      9.11625727 </i>
   <total>
    <array>
     <dimension dim="1">gridpoints</dimension>
     <dimension dim="2">spin</dimension>
     <field>energy</field>
     <field>total</field>
     <field>integrated</field>
     <set>
      <set comment="spin 1">
       <r>    -1.8848     0.0000     0.0000 </r>
       <r>    -1.7870     0.0000     0.0000 </r>
       <r>    -1.6892     0.0000     0.0000 </r>
       <r>    -1.5915     0.0000     0.0000 </r>
       <r>    -1.4937    -0.0000    -0.0000 </r>
       <r>    -1.3960    -0.0000    -0.0000 </r>
       <r>    -1.2982    -0.0000    -0.0000 </r>
       <r>    -1.2004    -0.0000    -0.0000 </r>
       <r>    -1.1027    -0.0000    -0.0000 </r>
       <r>    -1.0049    -0.0000    -0.0000 </r>
       <r>    -0.9072    -0.0000    -0.0000 </r>
       <r>    -0.8094    -0.0000    -0.0000 </r>
       <r>    -0.7116    -0.0000    -0.0000 </r>
       <r>    -0.6139    -0.0000    -0.0000 </r>
       <r>    -0.5161    -0.0000    -0.0000 </r>
       <r>    -0.4183    -0.0001    -0.0000 </r>
       <r>    -0.3206    -0.0006    -0.0001 </r>
       <r>    -0.2228    -0.0024    -0.0003 </r>
       <r>    -0.1251    -0.0027    -0.0006 </r>
       <r>    -0.0273     0.0116     0.0006 </r>
       <r>     0.0705     0.0454     0.0050 </r>
       <r>     0.1682     0.0622     0.0111 </r>
       <r>     0.2660     0.0301     0.0140 </r>
       <r>     0.3637    -0.0061     0.0134 </r>
       <r>     0.4615     0.0535     0.0187 </r>
       <r>     0.5593     0.2418     0.0423 </r>
       <r>     0.6570     0.3722     0.0787 </r>
       <r>     0.7548     0.2499     0.1031 </r>
       <r>     0.8526     0.0557     0.1086 </r>
       <r>     0.9503     0.1549     0.1237 </r>
       <r>     1.0481     0.5600     0.1784 </r>
       <r>     1.1458     0.7535     0.2521 </r>
       <r>     1.2436     0.4546     0.2966 </r>
       <r>     1.3414     0.1758     0.3137 </r>
       <r>     1.4391     0.3142     0.3445 </r>
       <r>     1.5369     0.5257     0.3958 </r>
       <r>     1.6346     0.4373     0.4386 </r>
       <r>     1.7324     0.1915     0.4573 </r>
       <r>     1.8302     0.0426     0.4615 </r>
       <r>     1.9279     0.1043     0.4717 </r>
       <r>     2.0257     0.3608     0.5070 </r>
       <r>     2.1235     0.5915     0.5648 </r>
       <r>     2.2212     0.7393     0.6370 </r>
       <r>     2.3190     1.1525     0.7497 </r>
       <r>     2.4167     1.7221     0.9181 </r>
       <r>     2.5145     1.8266     1.0966 </r>
       <r>     2.6123     1.3553     1.2291 </r>
       <r>     2.7100     0.7025     1.2978 </r>
       <r>     2.8078     0.5895     1.3554 </r>
       <r>     2.9055     1.4035     1.4927 </r>
       <r>     3.0033     2.4711     1.7342 </r>
       <r>     3.1011     2.8960     2.0173 </r>
       <r>     3.1988     2.6757     2.2789 </r>
       <r>     3.2966     2.1258     2.4867 </r>
       <r>     3.3944     1.6495     2.6480 </r>
       <r>     3.4921     2.4428     2.8868 </r>
       <r>     3.5899     4.5382     3.3305 </r>
       <r>     3.6876     5.6778     3.8856 </r>
       <r>     3.7854     5.2474     4.3985 </r>
       <r>     3.8832     5.3294     4.9196 </r>
       <r>     3.9809     6.4326     5.5484 </r>
       <r>     4.0787     7.3167     6.2637 </r>
       <r>     4.1764     7.5154     6.9984 </r>
       <r>     4.2742     6.8247     7.6656 </r>
       <r>     4.3720     5.4885     8.2022 </r>
       <r>     4.4697     5.0536     8.6962 </r>
       <r>     4.5675     5.8574     9.2688 </r>
       <r>     4.6653     6.2786     9.8827 </r>
       <r>     4.7630     5.6367    10.4337 </r>
       <r>     4.8608     4.8282    10.9057 </r>
       <r>     4.9585     4.4386    11.3396 </r>
       <r>     5.0563     4.4305    11.7728 </r>
       <r>     5.1541     4.5407    12.2167 </r>
       <r>     5.2518     4.3307    12.6400 </r>
       <r>     5.3496     4.1679    13.0475 </r>
       <r>     5.4473     4.8058    13.5173 </r>
       <r>     5.5451     6.0092    14.1048 </r>
       <r>     5.6429     6.9123    14.7806 </r>
       <r>     5.7406     6.8726    15.4524 </r>
       <r>     5.8384     6.2473    16.0632 </r>
       <r>     5.9361     6.5564    16.7041 </r>
       <r>     6.0339     7.9929    17.4855 </r>
       <r>     6.1317     8.5668    18.3230 </r>
       <r>     6.2294     7.8138    19.0869 </r>
       <r>     6.3272     8.0229    19.8713 </r>
       <r>     6.4250    10.2216    20.8705 </r>
       <r>     6.5227    11.9003    22.0339 </r>
       <r>     6.6205    10.5860    23.0688 </r>
       <r>     6.7182     8.1367    23.8643 </r>
       <r>     6.8160     7.7545    24.6224 </r>
       <r>     6.9138     8.8882    25.4913 </r>
       <r>     7.0115     9.6456    26.4343 </r>
       <r>     7.1093    10.1057    27.4222 </r>
       <r>     7.2070    10.2968    28.4289 </r>
       <r>     7.3048     9.0137    29.3100 </r>
       <r>     7.4026     6.6260    29.9578 </r>
       <r>     7.5003     5.2432    30.4704 </r>
       <r>     7.5981     5.2309    30.9818 </r>
       <r>     7.6959     5.1973    31.4899 </r>
       <r>     7.7936     4.8173    31.9608 </r>
       <r>     7.8914     4.9182    32.4416 </r>
       <r>     7.9891     5.8257    33.0111 </r>
       <r>     8.0869     7.1698    33.7121 </r>
       <r>     8.1847     8.1721    34.5110 </r>
       <r>     8.2824     8.0256    35.2956 </r>
       <r>     8.3802     6.7770    35.9581 </r>
       <r>     8.4779     5.4133    36.4873 </r>
       <r>     8.5757     4.6757    36.9444 </r>
       <r>     8.6735     4.4409    37.3786 </r>
       <r>     8.7712     4.7744    37.8453 </r>
       <r>     8.8690     5.7763    38.4100 </r>
       <r>     8.9668     6.5717    39.0525 </r>
       <r>     9.0645     6.4855    39.6865 </r>
       <r>     9.1623     5.8933    40.2627 </r>
       <r>     9.2600     5.1195    40.7632 </r>
       <r>     9.3578     4.2781    41.1814 </r>
       <r>     9.4556     3.4877    41.5223 </r>
       <r>     9.5533     3.0551    41.8210 </r>
       <r>     9.6511     3.4539    42.1587 </r>
       <r>     9.7488     3.7292    42.5233 </r>
       <r>     9.8466     2.5872    42.7762 </r>
       <r>     9.9444     1.1267    42.8863 </r>
       <r>    10.0421     0.8646    42.9709 </r>
       <r>    10.1399     1.2453    43.0926 </r>
       <r>    10.2377     1.1487    43.2049 </r>
       <r>    10.3354     0.7800    43.2812 </r>
       <r>    10.4332     0.8415    43.3634 </r>
       <r>    10.5309     1.0628    43.4673 </r>
       <r>    10.6287     0.9236    43.5576 </r>
       <r>    10.7265     0.7653    43.6324 </r>
       <r>    10.8242     1.0199    43.7321 </r>
       <r>    10.9220     1.4325    43.8722 </r>
       <r>    11.0197     1.6722    44.0357 </r>
       <r>    11.1175     1.5569    44.1879 </r>
       <r>    11.2153     0.9462    44.2804 </r>
       <r>    11.3130     0.4027    44.3197 </r>
       <r>    11.4108     0.5882    44.3772 </r>
       <r>    11.5086     1.0229    44.4772 </r>
       <r>    11.6063     0.9410    44.5692 </r>
       <r>    11.7041     0.6597    44.6337 </r>
       <r>    11.8018     0.7692    44.7089 </r>
       <r>    11.8996     0.9893    44.8056 </r>
       <r>    11.9974     0.8895    44.8926 </r>
       <r>    12.0951     0.6417    44.9553 </r>
       <r>    12.1929     0.4937    45.0036 </r>
       <r>    12.2906     0.3658    45.0393 </r>
       <r>    12.3884     0.3161    45.0702 </r>
       <r>    12.4862     0.5607    45.1251 </r>
       <r>    12.5839     1.0925    45.2319 </r>
       <r>    12.6817     1.6190    45.3901 </r>
       <r>    12.7794     1.7238    45.5587 </r>
       <r>    12.8772     1.5123    45.7065 </r>
       <r>    12.9750     1.3509    45.8386 </r>
       <r>    13.0727     1.1849    45.9544 </r>
       <r>    13.1705     0.9151    46.0439 </r>
       <r>    13.2683     0.6975    46.1121 </r>
       <r>    13.3660     0.7300    46.1834 </r>
       <r>    13.4638     0.9209    46.2734 </r>
       <r>    13.5615     0.9879    46.3700 </r>
       <r>    13.6593     1.1678    46.4842 </r>
       <r>    13.7571     1.8205    46.6622 </r>
       <r>    13.8548     2.2299    46.8802 </r>
       <r>    13.9526     1.8340    47.0594 </r>
       <r>    14.0503     1.1690    47.1737 </r>
       <r>    14.1481     0.5469    47.2272 </r>
       <r>    14.2459     0.0958    47.2366 </r>
       <r>    14.3436     0.0810    47.2445 </r>
       <r>    14.4414     0.4333    47.2868 </r>
       <r>    14.5392     0.6984    47.3551 </r>
       <r>    14.6369     0.5255    47.4065 </r>
       <r>    14.7347     0.1762    47.4237 </r>
       <r>    14.8324     0.1377    47.4372 </r>
       <r>    14.9302     0.4282    47.4790 </r>
       <r>    15.0280     0.8074    47.5580 </r>
       <r>    15.1257     1.2168    47.6769 </r>
       <r>    15.2235     1.4272    47.8165 </r>
       <r>    15.3212     1.2732    47.9409 </r>
       <r>    15.4190     1.3141    48.0694 </r>
       <r>    15.5168     1.8442    48.2497 </r>
       <r>    15.6145     2.1852    48.4633 </r>
       <r>    15.7123     1.9882    48.6577 </r>
       <r>    15.8101     1.6002    48.8141 </r>
       <r>    15.9078     1.1290    48.9245 </r>
       <r>    16.0056     0.8390    49.0065 </r>
       <r>    16.1033     1.1869    49.1226 </r>
       <r>    16.2011     1.8073    49.2992 </r>
       <r>    16.2989     1.7489    49.4702 </r>
       <r>    16.3966     0.9138    49.5596 </r>
       <r>    16.4944     0.1249    49.5718 </r>
       <r>    16.5921    -0.0911    49.5629 </r>
       <r>    16.6899     0.3354    49.5956 </r>
       <r>    16.7877     1.3000    49.7227 </r>
       <r>    16.8854     2.1515    49.9331 </r>
       <r>    16.9832     2.1801    50.1462 </r>
       <r>    17.0810     1.5073    50.2935 </r>
       <r>    17.1787     0.6576    50.3578 </r>
       <r>    17.2765     0.1205    50.3696 </r>
       <r>    17.3742     0.2463    50.3937 </r>
       <r>    17.4720     0.8502    50.4768 </r>
       <r>    17.5698     1.3008    50.6040 </r>
       <r>    17.6675     1.3857    50.7395 </r>
       <r>    17.7653     1.6011    50.8960 </r>
       <r>    17.8630     2.3839    51.1290 </r>
       <r>    17.9608     3.0668    51.4288 </r>
       <r>    18.0586     2.5356    51.6767 </r>
       <r>    18.1563     1.2215    51.7961 </r>
       <r>    18.2541     0.4313    51.8383 </r>
       <r>    18.3519     0.4575    51.8830 </r>
       <r>    18.4496     0.7978    51.9610 </r>
       <r>    18.5474     1.2382    52.0821 </r>
       <r>    18.6451     1.6832    52.2466 </r>
       <r>    18.7429     1.7941    52.4220 </r>
       <r>    18.8407     1.6366    52.5820 </r>
       <r>    18.9384     1.5947    52.7379 </r>
       <r>    19.0362     1.4477    52.8794 </r>
       <r>    19.1339     0.8600    52.9635 </r>
       <r>    19.2317     0.3109    52.9939 </r>
       <r>    19.3295     0.4402    53.0370 </r>
       <r>    19.4272     1.0966    53.1442 </r>
       <r>    19.5250     1.5581    53.2965 </r>
       <r>    19.6227     1.4854    53.4417 </r>
       <r>    19.7205     1.3639    53.5750 </r>
       <r>    19.8183     1.6958    53.7408 </r>
       <r>    19.9160     2.2055    53.9564 </r>
       <r>    20.0138     2.5298    54.2037 </r>
       <r>    20.1116     2.5581    54.4538 </r>
       <r>    20.2093     2.0714    54.6563 </r>
       <r>    20.3071     1.5064    54.8036 </r>
       <r>    20.4048     1.6746    54.9673 </r>
       <r>    20.5026     2.0805    55.1707 </r>
       <r>    20.6004     1.8092    55.3476 </r>
       <r>    20.6981     1.1437    55.4594 </r>
       <r>    20.7959     0.6387    55.5218 </r>
       <r>    20.8936     0.4953    55.5702 </r>
       <r>    20.9914     0.9553    55.6636 </r>
       <r>    21.0892     1.8150    55.8411 </r>
       <r>    21.1869     2.2728    56.0633 </r>
       <r>    21.2847     1.9567    56.2546 </r>
       <r>    21.3825     1.5468    56.4058 </r>
       <r>    21.4802     1.8080    56.5825 </r>
       <r>    21.5780     2.4405    56.8211 </r>
       <r>    21.6757     2.6134    57.0766 </r>
       <r>    21.7735     2.2087    57.2925 </r>
       <r>    21.8713     1.7540    57.4640 </r>
       <r>    21.9690     1.5510    57.6156 </r>
       <r>    22.0668     1.5085    57.7631 </r>
       <r>    22.1645     1.6162    57.9211 </r>
       <r>    22.2623     1.8093    58.0980 </r>
       <r>    22.3601     1.8866    58.2824 </r>
       <r>    22.4578     1.7046    58.4491 </r>
       <r>    22.5556     1.1849    58.5649 </r>
       <r>    22.6534     0.7355    58.6368 </r>
       <r>    22.7511     0.8021    58.7152 </r>
       <r>    22.8489     1.2041    58.8329 </r>
       <r>    22.9466     1.5291    58.9824 </r>
       <r>    23.0444     1.4296    59.1222 </r>
       <r>    23.1422     0.8910    59.2093 </r>
       <r>    23.2399     0.4158    59.2499 </r>
       <r>    23.3377     0.3593    59.2851 </r>
       <r>    23.4354     0.4288    59.3270 </r>
       <r>    23.5332     0.2940    59.3557 </r>
       <r>    23.6310     0.0806    59.3636 </r>
       <r>    23.7287    -0.0147    59.3622 </r>
       <r>    23.8265    -0.0166    59.3605 </r>
       <r>    23.9243    -0.0054    59.3600 </r>
       <r>    24.0220    -0.0049    59.3595 </r>
       <r>    24.1198    -0.0189    59.3577 </r>
       <r>    24.2175    -0.0351    59.3543 </r>
       <r>    24.3153     0.0343    59.3576 </r>
       <r>    24.4131     0.3039    59.3873 </r>
       <r>    24.5108     0.7214    59.4579 </r>
       <r>    24.6086     1.0803    59.5635 </r>
       <r>    24.7063     1.1019    59.6712 </r>
       <r>    24.8041     0.6674    59.7364 </r>
       <r>    24.9019     0.1597    59.7520 </r>
       <r>    24.9996    -0.0614    59.7460 </r>
       <r>    25.0974    -0.0781    59.7384 </r>
       <r>    25.1952     0.0446    59.7428 </r>
       <r>    25.2929     0.4208    59.7839 </r>
       <r>    25.3907     0.8662    59.8686 </r>
       <r>    25.4884     0.8866    59.9553 </r>
       <r>    25.5862     0.4570    60.0000 </r>
       <r>    25.6840     0.0713    60.0069 </r>
       <r>    25.7817    -0.0405    60.0030 </r>
       <r>    25.8795    -0.0240    60.0006 </r>
       <r>    25.9772    -0.0056    60.0001 </r>
       <r>    26.0750    -0.0007    60.0000 </r>
       <r>    26.1728    -0.0000    60.0000 </r>
       <r>    26.2705    -0.0000    60.0000 </r>
       <r>    26.3683    -0.0000    60.0000 </r>
       <r>    26.4660    -0.0000    60.0000 </r>
       <r>    26.5638    -0.0000    60.0000 </r>
       <r>    26.6616    -0.0000    60.0000 </r>
       <r>    26.7593    -0.0000    60.0000 </r>
       <r>    26.8571     0.0000    60.0000 </r>
       <r>    26.9549     0.0000    60.0000 </r>
       <r>    27.0526     0.0000    60.0000 </r>
       <r>    27.1504     0.0000    60.0000 </r>
       <r>    27.2481     0.0000    60.0000 </r>
       <r>    27.3459     0.0000    60.0000 </r>
       <r>    27.4437     0.0000    60.0000 </r>
      </set>
     </set>
    </array>
   </total>
  </dos>
 </calculation>
 <structure name="finalpos" >
  <crystal>
   <varray name="basis" >
    <v>       3.86600000       0.00000000       0.00000000 </v>
    <v>       0.00000000       3.86600000       0.00000000 </v>
    <v>       0.00000000       0.00000000       3.86600000 </v>
   </varray>
   <i name="volume">     57.78106590 </i>
   <varray name="rec_basis" >
    <v>       0.25866529       0.00000000       0.00000000 </v>
    <v>       0.00000000       0.25866529       0.00000000 </v>
    <v>       0.00000000       0.00000000       0.25866529 </v>
   </varray>
  </crystal>
  <varray name="positions" >
   <v>       0.00000000       0.00000000       0.00000000 </v>
   <v>       0.50000000       0.50000000       0.00000000 </v>
   <v>       0.50000000       0.00000000       0.50000000 </v>
   <v>       0.00000000       0.50000000       0.50000000 </v>
  </varray>
 </structure>
</modeling>
