unknown system                          
   1.00000000000000     
     2.399900    0.000000    0.000000
    -1.199950    2.078374    0.000000
     0.000000    0.000000    4.180770
   Fe
     2
Direct
  0.000000  0.000000  0.000000
  0.333333  0.666667  0.500000
 
   20   20   36
  175.18      165.46      139.47      104.93      70.376      42.104      23.079      13.138      9.5982      8.5333    
  8.1803      8.5339      9.5987      13.138      23.079      42.103      70.377      104.93      139.47      165.46    
  165.47      165.46      147.65      117.61      83.558      52.878      30.089      16.498      10.593      8.8578    
  8.1712      8.1703      8.8568      10.594      16.499      30.087      52.876      83.564      117.63      147.67    
  139.48      147.63      139.47      117.61      88.462      59.261      35.483      19.761      11.849      9.1553    
  8.1966      7.8698      8.1942      9.1546      11.851      19.761      35.478      59.256      88.467      117.62    
  104.92      117.54      117.54      104.93      83.558      59.260      37.508      21.772      12.933      9.4414    
  8.2444      7.6597      7.6590      8.2436      9.4421      12.935      21.771      37.502      59.251      83.548    
  70.357      83.447      88.319      83.463      70.376      52.877      35.483      21.773      13.362      9.6396    
  8.2912      7.5387      7.2944      7.5394      8.2915      9.6403      13.366      21.778      35.483      52.866    
  42.102      52.798      59.119      59.124      52.807      42.103      30.089      19.761      12.933      9.6395    
  8.3107      7.4872      7.0925      7.0935      7.4879      8.3090      9.6386      12.939      19.774      30.098    
  23.093      30.084      35.430      37.429      35.425      30.072      23.079      16.499      11.849      9.4410    
  8.2913      7.4873      7.0289      6.8870      7.0304      7.4862      8.2861      9.4360      11.851      16.509    
  13.137      16.538      19.807      21.804      21.798      19.794      16.529      13.138      10.593      9.1548    
  8.2444      7.5390      7.0923      6.8870      6.8880      7.0941      7.5384      8.2384      9.1440      10.583    
  9.5825      10.632      11.935      13.042      13.474      13.037      11.935      10.642      9.5984      8.8577    
  8.1963      7.6601      7.2943      7.0933      7.0307      7.0942      7.2981      7.6652      8.1960      8.8471    
  8.5331      8.9006      9.2446      9.5723      9.7948      9.7966      9.5786      9.2552      8.9098      8.5335    
  8.1710      7.8700      7.6592      7.5392      7.4881      7.4864      7.5379      7.6651      7.8822      8.1807    
  8.1947      8.2357      8.3034      8.3894      8.4671      8.5011      8.4724      8.3946      8.3019      8.2255    
  8.1803      8.1702      8.1946      8.2433      8.2913      8.3091      8.2857      8.2382      8.1966      8.1809    
  8.5325      8.2355      7.9925      7.8262      7.7384      7.7081      7.7096      7.7391      7.8200      7.9805    
  8.2263      8.5336      8.8569      9.1546      9.4417      9.6404      9.6389      9.4359      9.1444      8.8474    
  9.5821      8.9003      8.3040      7.8264      7.5055      7.3336      7.2819      7.3332      7.5019      7.8208    
  8.3036      8.9107      9.5985      10.594      11.851      12.935      13.366      12.939      11.851      10.583    
  13.137      10.632      9.2450      8.3896      7.7379      7.3336      7.1505      7.1497      7.3322      7.7388    
  8.3955      9.2554      10.641      13.138      16.500      19.761      21.772      21.778      19.773      16.509    
  23.094      16.538      11.935      9.5721      8.4668      7.7081      7.2822      7.1496      7.2802      7.7088    
  8.4724      9.5779      11.933      16.528      23.079      30.087      35.477      37.502      35.483      30.098    
  42.102      30.083      19.806      13.042      9.7951      8.5012      7.7098      7.3330      7.3320      7.7090    
  8.5028      9.7958      13.036      19.794      30.074      42.103      52.876      59.256      59.251      52.867    
  70.356      52.797      35.430      21.804      13.474      9.7967      8.4722      7.7389      7.5018      7.7391    
  8.4726      9.7957      13.470      21.799      35.430      52.809      70.376      83.564      88.468      83.548    
  104.92      83.447      59.119      37.430      21.798      13.037      9.5782      8.3947      7.8202      7.8208    
  8.3955      9.5776      13.036      21.799      37.435      59.129      83.457      104.93      117.63      117.62    
  139.48      117.54      88.320      59.125      35.424      19.793      11.935      9.2556      8.3022      7.9802    
  8.3034      9.2554      11.933      19.794      35.430      59.129      88.314      117.52      139.47      147.67    
  165.47      147.63      117.54      83.463      52.807      30.072      16.529      10.643      8.9099      8.2251    
  8.2261      8.9110      10.642      16.527      30.074      52.809      83.457      117.52      147.61      165.46    
  165.99      156.80      132.18      99.420      66.635      39.850      21.926      12.670      9.4252      8.4023    
  8.0593      8.4029      9.4257      12.669      21.925      39.849      66.635      99.421      132.18      156.80    
  156.81      156.80      139.93      111.44      79.131      50.034      28.499      15.768      10.323      8.7115    
  8.0439      8.0430      8.7105      10.324      15.770      28.497      50.032      79.137      111.46      139.95    
  132.19      139.91      132.18      111.44      83.782      56.075      33.573      18.797      11.460      8.9917    
  8.0633      7.7471      8.0611      8.9910      11.462      18.797      33.569      56.071      83.786      111.46    
  99.415      111.39      111.39      99.421      79.131      56.075      35.481      20.671      12.447      9.2477    
  8.1060      7.5410      7.5403      8.1052      9.2483      12.449      20.670      35.476      56.066      79.122    
  66.617      79.047      83.674      79.061      66.635      50.033      33.573      20.672      12.840      9.4232    
  8.1492      7.4224      7.1874      7.4230      8.1495      9.4237      12.842      20.676      33.574      50.023    
  39.848      49.983      55.981      55.986      49.992      39.849      28.499      18.798      12.447      9.4230    
  8.1674      7.3717      6.9926      6.9936      7.3725      8.1658      9.4222      12.453      18.810      28.508    
  21.939      28.519      33.569      35.459      33.564      28.509      21.926      15.769      11.460      9.2473    
  8.1493      7.3718      6.9314      6.7953      6.9328      7.3709      8.1445      9.2427      11.462      15.778    
  12.668      15.829      18.884      20.757      20.751      18.872      15.820      12.670      10.323      8.9913    
  8.1060      7.4226      6.9924      6.7953      6.7962      6.9940      7.4220      8.1005      8.9812      10.314    
  9.4107      10.380      11.580      12.602      13.002      12.598      11.580      10.390      9.4254      8.7113    
  8.0631      7.5413      7.1873      6.9934      6.9331      6.9941      7.1907      7.5460      8.0628      8.7016    
  8.4021      8.7691      9.1095      9.4177      9.6233      9.6249      9.4235      9.1192      8.7776      8.4025    
  8.0436      7.7474      7.5405      7.4228      7.3727      7.3711      7.4216      7.5459      7.7587      8.0527    
  8.0726      8.1203      8.1943      8.2847      8.3645      8.3988      8.3693      8.2894      8.1928      8.1109    
  8.0593      8.0429      8.0614      8.1050      8.1493      8.1659      8.1442      8.1003      8.0633      8.0529    
  8.4015      8.1201      7.8918      7.7369      7.6562      7.6290      7.6304      7.6569      7.7312      7.8806    
  8.1117      8.4025      8.7106      8.9910      9.2479      9.4238      9.4225      9.2427      8.9816      8.7019    
  9.4103      8.7688      8.1948      7.7370      7.4305      7.2667      7.2174      7.2664      7.4273      7.7319    
  8.1945      8.7784      9.4255      10.325      11.462      12.449      12.843      12.453      11.462      10.314    
  12.669      10.380      9.1098      8.2848      7.6558      7.2666      7.0906      7.0899      7.2654      7.6566    
  8.2903      9.1194      10.389      12.670      15.770      18.797      20.671      20.676      18.809      15.778    
  21.939      15.829      11.579      9.4175      8.3642      7.6290      7.2178      7.0898      7.2158      7.6295    
  8.3693      9.4228      11.578      15.819      21.926      28.497      33.568      35.476      33.573      28.508    
  39.848      28.519      18.884      12.602      9.6235      8.3989      7.6306      7.2662      7.2652      7.6297    
  8.4003      9.6243      12.597      18.872      28.510      39.849      50.032      56.071      56.066      50.024    
  66.616      49.983      33.568      20.757      13.003      9.6250      8.3691      7.6568      7.4272      7.6569    
  8.3694      9.6241      12.999      20.752      33.568      49.993      66.635      79.137      83.787      79.122    
  99.415      79.046      55.981      35.460      20.751      12.598      9.4231      8.2895      7.7314      7.7320    
  8.2903      9.4225      12.597      20.752      35.465      55.990      79.056      99.421      111.46      111.46    
  132.19      111.39      83.674      55.986      33.563      18.871      11.579      9.1196      8.1931      7.8803    
  8.1943      9.1194      11.578      18.872      33.569      55.990      83.669      111.37      132.18      139.95    
  156.81      139.91      111.39      79.061      49.991      28.508      15.820      10.390      8.7777      8.1105    
  8.1115      8.7788      10.389      15.819      28.510      49.994      79.056      111.37      139.89      156.80    
  141.28      133.47      112.50      84.536      56.539      33.814      18.890      11.469      8.9703      8.0447    
  7.7314      8.0453      8.9707      11.469      18.890      33.814      56.539      84.536      112.50      133.47    
  133.47      133.47      119.10      94.787      67.174      42.387      24.275      13.873      9.6326      8.3078    
  7.6962      7.6954      8.3068      9.6336      13.874      24.275      42.386      67.178      94.801      119.11    
  112.51      119.10      112.50      94.788      71.136      47.495      28.478      16.273      10.463      8.5469    
  7.6969      7.4113      7.6949      8.5463      10.465      16.273      28.475      47.491      71.139      94.799    
  84.532      94.775      94.777      84.537      67.174      47.494      30.066      17.776      11.197      8.7366    
  7.7232      7.2143      7.2138      7.7225      8.7369      11.198      17.775      30.062      47.487      67.167    
  56.525      67.161      71.124      67.172      56.539      42.386      28.478      17.776      11.492      8.8580    
  7.7546      7.1006      6.8919      7.1012      7.7549      8.8582      11.494      17.779      28.479      42.379    
  33.813      42.415      47.530      47.534      42.422      33.813      24.275      16.273      11.197      8.8579    
  7.7684      7.0516      6.7155      6.7164      7.0525      7.7673      8.8571      11.201      16.283      24.283    
  18.900      24.365      28.604      30.200      28.601      24.357      18.890      13.873      10.463      8.7362    
  7.7547      7.0516      6.6602      6.5402      6.6614      7.0511      7.7511      8.7328      10.465      13.881    
  11.468      13.990      16.473      18.011      18.007      16.464      13.984      11.469      9.6329      8.5466    
  7.7232      7.1008      6.7153      6.5402      6.5408      6.7164      7.1003      7.7190      8.5388      9.6257    
  8.9588      9.7399      10.679      11.484      11.800      11.480      10.679      9.7476      8.9705      8.3076    
  7.6967      7.2146      6.8918      6.7162      6.6617      6.7165      6.8941      7.2182      7.6964      8.2998    
  8.0446      8.4097      8.7500      9.0234      9.1924      9.1935      9.0277      8.7574      8.4164      8.0449    
  7.6960      7.4116      7.2140      7.1010      7.0527      7.0513      7.0999      7.2181      7.4204      7.7030    
  7.7418      7.8100      7.9030      8.0072      8.0942      8.1299      8.0978      8.0107      7.9017      7.8026    
  7.7314      7.6953      7.6952      7.7223      7.7547      7.7674      7.7508      7.7188      7.6969      7.7032    
  8.0441      7.8098      7.6256      7.5062      7.4484      7.4315      7.4326      7.4490      7.5017      7.6169    
  7.8032      8.0449      8.3069      8.5462      8.7365      8.8582      8.8574      8.7328      8.5392      8.3001    
  8.9584      8.4095      7.9035      7.5063      7.2442      7.1060      7.0651      7.1061      7.2420      7.5024    
  7.9032      8.4171      8.9706      9.6338      10.464      11.198      11.494      11.201      10.464      9.6256    
  11.468      9.7400      8.7503      8.0074      7.4480      7.1060      6.9526      6.9521      7.1052      7.4487    
  8.0116      8.7577      9.7466      11.469      13.874      16.273      17.775      17.779      16.282      13.881    
  18.901      13.990      10.679      9.0233      8.0939      7.4315      7.0654      6.9520      7.0636      7.4317    
  8.0978      9.0274      10.677      13.982      18.890      24.275      28.475      30.062      28.478      24.283    
  33.813      24.365      16.473      11.483      9.1926      8.1301      7.4328      7.1060      7.1050      7.4318    
  8.1310      9.1932      11.479      16.464      24.358      33.813      42.385      47.491      47.487      42.379    
  56.525      42.415      28.604      18.011      11.801      9.1936      8.0976      7.4489      7.2419      7.4490    
  8.0979      9.1931      11.798      18.008      28.604      42.423      56.539      67.178      71.139      67.167    
  84.532      67.161      47.530      30.200      18.007      11.480      9.0273      8.0108      7.5019      7.5024    
  8.0116      9.0271      11.479      18.008      30.205      47.537      67.168      84.537      94.801      94.799    
  112.51      94.776      71.124      47.534      28.600      16.463      10.679      8.7578      7.9020      7.6166    
  7.9030      8.7577      10.677      16.464      28.604      47.537      71.120      94.764      112.50      119.11    
  133.47      119.10      94.777      67.172      42.422      24.357      13.984      9.7479      8.4165      7.8022    
  7.8030      8.4174      9.7469      13.982      24.357      42.423      67.168      94.764      119.08      133.47    
  108.04      102.05      85.937      64.425      42.977      25.857      15.040      10.023      8.3566      7.5497    
  7.2825      7.5501      8.3570      10.023      15.039      25.857      42.978      64.425      85.937      102.05    
  102.05      102.05      91.000      72.281      51.055      32.205      18.811      11.536      8.7839      7.7384    
  7.2152      7.2145      7.7376      8.7848      11.537      18.811      32.204      51.058      72.290      91.011    
  85.944      91.022      85.937      72.282      54.074      36.023      21.818      13.105      9.2559      7.9153    
  7.1840      6.9445      7.1824      7.9147      9.2573      13.106      21.816      36.020      54.076      72.289    
  64.422      72.329      72.331      64.425      51.055      36.022      22.965      14.110      9.6780      8.0496    
  7.1813      6.7560      6.7556      7.1807      8.0497      9.6784      14.110      22.962      36.017      51.050    
  42.969      51.138      54.192      51.146      42.977      32.204      21.818      14.111      9.8506      8.1217    
  7.1915      6.6449      6.4737      6.6455      7.1917      8.1215      9.8512      14.112      21.818      32.199    
  25.856      32.340      36.232      36.235      32.344      25.857      18.811      13.105      9.6780      8.1216    
  7.1974      6.5955      6.3199      6.3207      6.5965      7.1968      8.1210      9.6807      13.112      18.816    
  15.046      18.995      22.122      23.310      22.120      18.990      15.039      11.536      9.2560      8.0494    
  7.1915      6.5956      6.2717      6.1735      6.2727      6.5955      7.1895      8.0474      9.2573      11.541    
  10.022      11.734      13.463      14.553      14.550      13.457      11.730      10.023      8.7841      7.9150    
  7.1813      6.6450      6.3197      6.1734      6.1737      6.3203      6.6447      7.1787      7.9101      8.7794    
  8.3490      8.9653      9.6121      10.155      10.369      10.153      9.6120      8.9705      8.3568      7.7382    
  7.1838      6.7563      6.4736      6.3206      6.2729      6.3204      6.4747      6.7584      7.1836      7.7331    
  7.5496      7.9086      8.2490      8.5152      8.6613      8.6618      8.5176      8.2535      7.9129      7.5498    
  7.2150      6.9447      6.7558      6.6453      6.5967      6.5956      6.6443      6.7583      6.9504      7.2196    
  7.2894      7.3890      7.5102      7.6345      7.7317      7.7697      7.7338      7.6364      7.5091      7.3842    
  7.2825      7.2145      7.1826      7.1805      7.1915      7.1969      7.1892      7.1785      7.1840      7.2198    
  7.5492      7.3889      7.2727      7.2077      7.1857      7.1852      7.1861      7.1862      7.2049      7.2671    
  7.3847      7.5498      7.7377      7.9147      8.0493      8.1216      8.1212      8.0474      7.9104      7.7333    
  8.3486      7.9084      7.5106      7.2079      7.0151      6.9176      6.8898      6.9181      7.0142      7.2055    
  7.5103      7.9134      8.3568      8.7849      9.2572      9.6785      9.8517      9.6808      9.2571      8.7794    
  10.022      8.9654      8.2493      7.6346      7.1853      6.9176      6.7999      6.7997      6.9173      7.1859    
  7.6372      8.2538      8.9697      10.023      11.537      13.106      14.110      14.112      13.111      11.541    
  15.046      11.734      9.6119      8.5151      7.7314      7.1853      6.8900      6.7997      6.8886      7.1851    
  7.7338      8.5176      9.6108      11.728      15.039      18.811      21.816      22.962      21.818      18.816    
  25.856      18.995      13.462      10.155      8.6614      7.7698      7.1863      6.9180      6.9172      7.1852    
  7.7702      8.6619      10.152      13.457      18.990      25.857      32.203      36.020      36.018      32.200    
  42.968      32.339      22.122      14.553      10.369      8.6619      7.7336      7.1861      7.0141      7.1862    
  7.7339      8.6618      10.368      14.551      22.122      32.345      42.977      51.058      54.076      51.051    
  64.422      51.138      36.233      23.310      14.550      10.152      8.5173      7.6365      7.2051      7.2055    
  7.6372      8.5174      10.152      14.551      23.313      36.237      51.143      64.425      72.290      72.289    
  85.944      72.330      54.193      36.235      22.119      13.457      9.6119      8.2538      7.5094      7.2668    
  7.5102      8.2538      9.6109      13.457      22.122      36.237      54.190      72.322      85.937      91.010    
  102.05      91.023      72.331      51.145      32.344      18.990      11.730      8.9707      7.9129      7.3838    
  7.3845      7.9137      8.9699      11.728      18.990      32.345      51.143      72.322      91.012      102.05    
  74.109      69.953      58.794      43.965      29.407      18.190      11.574      8.7915      7.6774      7.0208    
  6.8099      7.0212      7.6776      8.7914      11.573      18.190      29.407      43.966      58.794      69.953    
  69.955      69.953      62.284      49.328      34.789      22.205      13.723      9.5168      7.9664      7.1183    
  6.7038      6.7033      7.1178      7.9671      9.5182      13.724      22.204      34.790      49.333      62.290    
  58.798      62.327      58.794      49.329      36.815      24.663      15.502      10.301      8.1934      7.2141    
  6.6309      6.4451      6.6297      7.2136      8.1944      10.302      15.502      24.662      36.815      49.332    
  43.964      49.437      49.437      43.966      34.789      24.663      16.193      10.823      8.3659      7.2881    
  6.5886      6.2597      6.2594      6.5881      7.2879      8.3658      10.822      16.191      24.661      34.786    
  29.402      34.966      37.062      34.970      29.407      22.204      15.502      10.823      8.4354      7.3277    
  6.5692      6.1448      6.0146      6.1453      6.5694      7.3272      8.4351      10.823      15.502      22.202    
  18.190      22.445      25.045      25.046      22.447      18.190      13.723      10.302      8.3659      7.3276    
  6.5641      6.0911      5.8799      5.8805      6.0920      6.5640      7.3272      8.3671      10.305      13.726    
  11.577      14.001      15.982      16.745      15.981      13.999      11.574      9.5171      8.1934      7.2878    
  6.5693      6.0911      5.8373      5.7609      5.8380      6.0914      6.5685      7.2872      8.1944      9.5199    
  8.7907      9.7977      10.819      11.475      11.474      10.817      9.7961      8.7915      7.9666      7.2138    
  6.5886      6.1449      5.8798      5.7609      5.7610      5.8798      6.1447      6.5874      7.2115      7.9641    
  7.6733      8.2278      8.6990      9.0440      9.1748      9.0427      8.6990      8.2305      7.6775      7.1182    
  6.6307      6.2599      6.0145      5.8804      5.8382      5.8799      6.0146      6.2607      6.6305      7.1155    
  7.0208      7.3646      7.6928      7.9517      8.0943      8.0944      7.9525      7.6948      7.3666      7.0209    
  6.7037      6.4453      6.2595      6.1452      6.0921      6.0915      6.1444      6.2606      6.4482      6.7060    
  6.8133      6.9467      7.0942      7.2346      7.3383      7.3772      7.3391      7.2352      7.0934      6.9442    
  6.8099      6.7033      6.6299      6.5879      6.5693      6.5641      6.5684      6.5873      6.6309      6.7061    
  7.0205      6.9466      6.9055      6.8976      6.9113      6.9268      6.9273      6.9117      6.8963      6.9027    
  6.9445      7.0210      7.1178      7.2135      7.2876      7.3272      7.3273      7.2871      7.2118      7.1156    
  7.6730      7.3644      7.0945      6.8977      6.7797      6.7245      6.7101      6.7253      6.7797      6.8966    
  7.0943      7.3670      7.6775      7.9672      8.1943      8.3659      8.4354      8.3672      8.1942      7.9641    
  8.7909      8.2278      7.6930      7.2347      6.9110      6.7245      6.6450      6.6451      6.7246      6.9114    
  7.2358      7.6951      8.2299      8.7915      9.5183      10.302      10.822      10.823      10.305      9.5197    
  11.577      9.7979      8.6989      7.9516      7.3381      6.9268      6.7102      6.6450      6.7092      6.9263    
  7.3391      7.9528      8.6981      9.7948      11.574      13.723      15.501      16.191      15.502      13.726    
  18.190      14.001      10.819      9.0438      8.0944      7.3773      6.9274      6.7251      6.7245      6.9264    
  7.3772      8.0947      9.0427      10.816      13.998      18.190      22.204      24.662      24.661      22.202    
  29.402      22.444      15.981      11.475      9.1751      8.0944      7.3390      6.9117      6.7797      6.9116    
  7.3392      8.0946      9.1748      11.474      15.981      22.447      29.407      34.790      36.816      34.786    
  43.964      34.966      25.045      16.746      11.474      9.0426      7.9523      7.2353      6.8964      6.8967    
  7.2358      7.9526      9.0427      11.474      16.747      25.047      34.969      43.966      49.333      49.332    
  58.798      49.437      37.062      25.046      15.980      10.816      8.6989      7.6950      7.0936      6.9025    
  7.0942      7.6951      8.6982      10.816      15.982      25.047      37.061      49.433      58.794      62.289    
  69.955      62.328      49.437      34.970      22.447      13.999      9.7962      8.2308      7.3667      6.9439    
  6.9444      7.3672      8.2301      9.7947      13.998      22.447      34.969      49.433      62.323      69.953    
  45.452      42.886      36.042      27.097      18.617      12.499      9.2486      7.8867      7.0360      6.5433    
  6.3892      6.5436      7.0362      7.8865      9.2483      12.499      18.617      27.097      36.042      42.886    
  42.887      42.886      38.158      30.263      21.632      14.531      10.150      8.1819      7.1984      6.5486    
  6.2451      6.2448      6.5483      7.1989      8.1830      10.151      14.531      21.632      30.264      38.160    
  36.043      38.217      36.042      30.263      22.784      15.817      10.939      8.4465      7.3209      6.5581    
  6.1277      5.9942      6.1270      6.5577      7.3215      8.4474      10.940      15.817      22.783      30.264    
  27.097      30.415      30.415      27.097      21.632      15.817      11.255      8.6235      7.3914      6.5653    
  6.0418      5.8048      5.8046      6.0415      6.5650      7.3912      8.6231      11.254      15.816      21.631    
  18.616      21.878      23.124      21.879      18.617      14.531      10.939      8.6237      7.4137      6.5685    
  5.9897      5.6797      5.5863      5.6801      5.9898      6.5679      7.4129      8.6234      10.940      14.530    
  12.499      14.848      16.323      16.324      14.848      12.499      10.150      8.4467      7.3914      6.5684    
  5.9723      5.6178      5.4624      5.4628      5.6185      5.9724      6.5682      7.3917      8.4480      10.151    
  9.2494      10.499      11.550      11.962      11.550      10.499      9.2484      8.1821      7.3209      6.5652    
  5.9897      5.6178      5.4225      5.3636      5.4229      5.6182      5.9898      6.5653      7.3215      8.1832    
  7.8861      8.5301      9.0916      9.4400      9.4397      9.0910      8.5300      7.8867      7.1985      6.5579    
  6.0418      5.6797      5.4624      5.3636      5.3635      5.4622      5.6796      6.0416      6.5574      7.1977    
  7.0345      7.5291      7.9542      8.2391      8.3386      8.2386      7.9542      7.5301      7.0361      6.5485    
  6.1276      5.8049      5.5863      5.4628      5.4230      5.4622      5.5858      5.8049      6.1275      6.5475    
  6.5433      6.8633      7.1663      7.4049      7.5364      7.5362      7.4048      7.1666      6.8638      6.5434    
  6.2450      5.9944      5.8047      5.6800      5.6186      5.6183      5.6794      5.8049      5.9952      6.2457    
  6.3903      6.5522      6.7174      6.8646      6.9680      7.0055      6.9680      6.8644      6.7170      6.5514    
  6.3892      6.2448      6.1271      6.0414      5.9897      5.9725      5.9897      6.0415      6.1277      6.2458    
  6.5431      6.5521      6.5782      6.6171      6.6573      6.6835      6.6837      6.6577      6.6168      6.5774    
  6.5516      6.5434      6.5483      6.5577      6.5648      6.5680      6.5683      6.5652      6.5575      6.5477    
  7.0343      6.8631      6.7176      6.6172      6.5625      6.5409      6.5365      6.5417      6.5631      6.6170    
  6.7175      6.8640      7.0361      7.1990      7.3214      7.3912      7.4132      7.3917      7.3214      7.1977    
  7.8862      7.5291      7.1665      6.8647      6.6572      6.5409      6.4928      6.4929      6.5412      6.6574    
  6.8649      7.1669      7.5297      7.8867      8.1831      8.4474      8.6232      8.6234      8.4477      8.1830    
  9.2497      8.5302      7.9541      7.4049      6.9679      6.6835      6.5366      6.4929      6.5360      6.6829    
  6.9680      7.4051      7.9536      8.5290      9.2484      10.151      10.939      11.254      10.939      10.151    
  12.499      10.499      9.0913      8.2390      7.5365      7.0055      6.6838      6.5416      6.5412      6.6830    
  7.0052      7.5367      8.2388      9.0904      10.498      12.499      14.531      15.816      15.816      14.531    
  18.616      14.847      11.550      9.4400      8.3388      7.5362      6.9679      6.6576      6.5630      6.6576    
  6.9680      7.5366      8.3391      9.4401      11.550      14.848      18.617      21.632      22.784      21.631    
  27.097      21.878      16.324      11.963      9.4398      8.2384      7.4046      6.8645      6.6169      6.6170    
  6.8648      7.4050      8.2388      9.4401      11.963      16.324      21.879      27.097      30.264      30.264    
  36.043      30.415      23.124      16.324      11.550      9.0908      7.9541      7.1668      6.7171      6.5772    
  6.7174      7.1669      7.9537      9.0904      11.550      16.324      23.124      30.414      36.042      38.160    
  42.887      38.218      30.415      21.879      14.848      10.499      8.5301      7.5303      6.8638      6.5512    
  6.5515      6.8642      7.5298      8.5289      10.498      14.848      21.879      30.414      38.216      42.886    
  25.210      23.864      20.331      15.875      11.916      9.3297      8.0111      7.1349      6.5130      6.1706    
  6.0656      6.1708      6.5131      7.1348      8.0110      9.3296      11.916      15.876      20.331      23.864    
  23.864      23.864      21.397      17.379      13.203      10.044      8.2735      7.2909      6.5538      6.0938    
  5.8860      5.8858      6.0936      6.5541      7.2916      8.2741      10.044      13.203      17.379      21.397    
  20.331      21.462      20.331      17.380      13.709      10.520      8.4874      7.3890      6.5802      6.0263    