       N       E                     dE             d eps       ncg     rms          rms(c)
DAV:   1     0.617289394676E+02    0.61729E+02   -0.26884E+03  9168   0.319E+02
DAV:   2    -0.146678887848E+02   -0.76397E+02   -0.64828E+02  7944   0.958E+01
DAV:   3    -0.192761471526E+02   -0.46083E+01   -0.43698E+01  9512   0.245E+01
DAV:   4    -0.192987101829E+02   -0.22563E-01   -0.22545E-01  9160   0.179E+00
DAV:   5    -0.192987409412E+02   -0.30758E-04   -0.30758E-04  9184   0.624E-02    0.166E+01
DAV:   6    -0.163995517495E+02    0.28992E+01   -0.19063E+00 11144   0.257E+01    0.280E+00
DAV:   7    -0.161735031647E+02    0.22605E+00   -0.14282E-01 10168   0.595E+00    0.101E+00
DAV:   8    -0.161479345785E+02    0.25569E-01   -0.38887E-03 10096   0.410E-01    0.477E-01
DAV:   9    -0.161368706639E+02    0.11064E-01   -0.89985E-04 11248   0.176E-01    0.603E-02
DAV:  10    -0.161368984743E+02   -0.27810E-04   -0.36032E-05  8984   0.235E-02    0.256E-02
DAV:  11    -0.161368921800E+02    0.62943E-05   -0.38125E-07  8880   0.599E-03    0.172E-03
DAV:  12    -0.161368916985E+02    0.48147E-06   -0.53258E-08  5984   0.128E-03
   1 F= -.16136892E+02 E0= -.16137755E+02  d E =0.258912E-02
