 vasp.6.2.0 18Jan21 (build Mar 17 2021 09:06:54) complex                        
  
 executed on             LinuxIFC date 2021.09.09  12:08:48
 serial version


--------------------------------------------------------------------------------------------------------


 INCAR:
   ENCUT = 280.000000
   SIGMA = 0.200000
   EDIFF = 1.00e-06
   GGA = PE
   PREC = normal
   IBRION = 1
   ICHARG = 1
   ISIF = 2
   ISMEAR = 1
   KPAR = 1
   NBANDS = 40
   NSW = 0
   NCORE = 1
   LCHARG = .TRUE.

 POTCAR:    PAW_PBE Fe 06Sep2000                  
 POTCAR:    PAW_PBE Fe 06Sep2000                  
   SHA256 =  cd5a22d9368cc8b5cc476bea79732366149640da08ac9009b0e1b7fc627eea28 Fe/POTCAR             
   COPYR  = (c) Copyright 06Sep2000 Georg Kresse                                                    
   COPYR  = This file is part of the software VASP. Any use, copying, and all other rights are regul
   COPYR  = If you do not have a valid VASP license, you may not use, copy or distribute this file. 
   VRHFIN =Fe:  d7 s1                                                                               
   LEXCH  = PE                                                                                      
   EATOM  =   594.3153 eV,   43.6809 Ry                                                             
                                                                                                    
   TITEL  = PAW_PBE Fe 06Sep2000                                                                    
   LULTRA =        F    use ultrasoft PP ?                                                          
   IUNSCR =        1    unscreen: 0-lin 1-nonlin 2-no                                               
   RPACOR =    2.000    partial core radius                                                         
   POMASS =   55.847; ZVAL   =    8.000    mass and valenz                                          
   RCORE  =    2.300    outmost cutoff radius                                                       
   RWIGS  =    2.460; RWIGS  =    1.302    wigner-seitz radius (au A)                               
   ENMAX  =  267.882; ENMIN  =  200.911 eV                                                          
   RCLOC  =    1.701    cutoff for local pot                                                        
   LCOR   =        T    correct aug charges                                                         
   LPAW   =        T    paw PP                                                                      
   EAUG   =  511.368                                                                                
   DEXC   =    0.000                                                                                
   RMAX   =    2.356    core radius for proj-oper                                                   
   RAUG   =    1.300    factor for augmentation sphere                                              
   RDEP   =    2.442    radius for radial grids                                                     
   RDEPT  =    1.890    core radius for aug-charge                                                  
                                                                                                    
   Atomic configuration                                                                             
    9 entries                                                                                       
     n  l   j            E        occ.                                                              
     1  0  0.50     -6993.8440   2.0000                                                             
     2  0  0.50      -814.6047   2.0000                                                             
     2  1  1.50      -693.3689   6.0000                                                             
     3  0  0.50       -89.4732   2.0000                                                             
     3  1  1.50       -55.6373   6.0000                                                             
     3  2  2.50        -3.8151   7.0000                                                             
     4  0  0.50        -4.2551   1.0000                                                             
     4  1  1.50        -3.4015   0.0000                                                             
     4  3  2.50        -1.3606   0.0000                                                             
   Description                                                                                      
     l       E           TYP  RCUT    TYP  RCUT                                                     
     2     -3.8151135     23  2.300                                                                 
     2     -5.1756961     23  2.300                                                                 
     0     -4.2550963     23  2.300                                                                 
     0      7.2035603     23  2.300                                                                 
     1     -2.7211652     23  2.300                                                                 
     1     18.4316424     23  2.300                                                                 
  local pseudopotential read in
  partial core-charges read in
  partial kinetic energy density read in
  atomic valenz-charges read in
  non local Contribution for L=           2  read in
    real space projection operators read in
  non local Contribution for L=           2  read in
    real space projection operators read in
  non local Contribution for L=           0  read in
    real space projection operators read in
  non local Contribution for L=           0  read in
    real space projection operators read in
  non local Contribution for L=           1  read in
    real space projection operators read in
  non local Contribution for L=           1  read in
    real space projection operators read in
    PAW grid and wavefunctions read in
 
   number of l-projection  operators is LMAX  =           6
   number of lm-projection operators is LMMAX =          18
 
  PAW_PBE Fe 06Sep2000                  :
 energy of atom  1       EATOM= -594.3153
 kinetic energy error for atom=    0.0278 (will be added to EATOM!!)
 
 
 POSCAR: Fe
  positions in cartesian coordinates
  No initial velocities read in
 exchange correlation table for  LEXCH =        8
   RHO(1)=    0.500       N(1)  =     2000
   RHO(2)=  100.500       N(2)  =     4000
 


--------------------------------------------------------------------------------------------------------


 ion  position               nearest neighbor table
   1  0.000  0.000  0.000-   2 2.51   2 2.51   2 2.51   2 2.51   2 2.51   2 2.51
   2  0.333  0.667  0.500-   1 2.51   1 2.51   1 2.51   1 2.51   1 2.51   1 2.51
 
  LATTYP: Found a hexagonal cell.
 ALAT       =     2.3999000000
 C/A-ratio  =     1.7420600858
  
  Lattice vectors:
  
 A1 = (   2.3999000000,   0.0000000000,   0.0000000000)
 A2 = (  -1.1999500000,   2.0783743665,   0.0000000000)
 A3 = (   0.0000000000,   0.0000000000,   4.1807700000)


Analysis of symmetry for initial positions (statically):
=====================================================================
 Subroutine PRICEL returns:
 Original cell was already a primitive cell.
 

 Routine SETGRP: Setting up the symmetry group for a 
 hexagonal supercell.


 Subroutine GETGRP returns: Found 24 space group operations
 (whereof 12 operations were pure point group operations)
 out of a pool of 24 trial point group operations.


The static configuration has the point symmetry D_3h.
 The point group associated with its full space group is D_6h.


Analysis of symmetry for dynamics (positions and initial velocities):
=====================================================================
 Subroutine PRICEL returns:
 Original cell was already a primitive cell.
 

 Routine SETGRP: Setting up the symmetry group for a 
 hexagonal supercell.


 Subroutine GETGRP returns: Found 24 space group operations
 (whereof 12 operations were pure point group operations)
 out of a pool of 24 trial point group operations.


The dynamic configuration has the point symmetry D_3h.
 The point group associated with its full space group is D_6h.


 Subroutine INISYM returns: Found 24 space group operations
 (whereof 12 operations are pure point group operations),
 and found     1 'primitive' translations


----------------------------------------------------------------------------------------

                                     Primitive cell                                     

  volume of cell :      20.8532

  direct lattice vectors                    reciprocal lattice vectors
     2.399900000  0.000000000  0.000000000     0.416684029  0.240572636  0.000000000
    -1.199950000  2.078374367  0.000000000     0.000000000  0.481145272  0.000000000
     0.000000000  0.000000000  4.180770000     0.000000000  0.000000000  0.239190388

  length of vectors
     2.399900000  2.399900000  4.180770000     0.481145272  0.481145272  0.239190388

  position of ions in fractional coordinates (direct lattice)
     0.000000000  0.000000000  0.000000000
     0.333333333  0.666666667  0.500000000

  ion indices of the primitive-cell ions
   primitive index   ion index
                 1           1
                 2           2

----------------------------------------------------------------------------------------

 
 
 KPOINTS: KPOINTS created by Atomic Simulation Env

Automatic generation of k-mesh.
 Grid dimensions read from file:
 generate k-points for:   11   11   11

 Generating k-lattice:

  Cartesian coordinates                     Fractional coordinates (reciprocal lattice)
     0.037880366  0.021870240  0.000000000     0.090909091 -0.000000000  0.000000000
     0.000000000  0.043740479  0.000000000     0.000000000  0.090909091  0.000000000
     0.000000000  0.000000000  0.021744581     0.000000000  0.000000000  0.090909091

  Length of vectors
     0.043740479  0.043740479  0.021744581

  Shift w.r.t. Gamma in fractional coordinates (k-lattice)
     0.000000000  0.000000000  0.000000000

 
 Subroutine IBZKPT returns following result:
 ===========================================
 
 Found     96 irreducible k-points:
 
 Following reciprocal coordinates:
            Coordinates               Weight
  0.000000  0.000000  0.000000      1.000000
  0.090909  0.000000  0.000000      6.000000
  0.181818  0.000000  0.000000      6.000000
  0.272727  0.000000  0.000000      6.000000
  0.363636  0.000000  0.000000      6.000000
  0.454545  0.000000  0.000000      6.000000
  0.090909  0.090909  0.000000      6.000000
  0.181818  0.090909  0.000000     12.000000
  0.272727  0.090909  0.000000     12.000000
  0.363636  0.090909  0.000000     12.000000
  0.454545  0.090909  0.000000      6.000000
  0.181818  0.181818  0.000000      6.000000
  0.272727  0.181818  0.000000     12.000000
  0.363636  0.181818  0.000000     12.000000
  0.272727  0.272727  0.000000      6.000000
  0.363636  0.272727  0.000000      6.000000
  0.000000  0.000000  0.090909      2.000000
  0.090909  0.000000  0.090909     12.000000
  0.181818  0.000000  0.090909     12.000000
  0.272727  0.000000  0.090909     12.000000
  0.363636  0.000000  0.090909     12.000000
  0.454545  0.000000  0.090909     12.000000
  0.090909  0.090909  0.090909     12.000000
  0.181818  0.090909  0.090909     24.000000
  0.272727  0.090909  0.090909     24.000000
  0.363636  0.090909  0.090909     24.000000
  0.454545  0.090909  0.090909     12.000000
  0.181818  0.181818  0.090909     12.000000
  0.272727  0.181818  0.090909     24.000000
  0.363636  0.181818  0.090909     24.000000
  0.272727  0.272727  0.090909     12.000000
  0.363636  0.272727  0.090909     12.000000
  0.000000  0.000000  0.181818      2.000000
  0.090909  0.000000  0.181818     12.000000
  0.181818  0.000000  0.181818     12.000000
  0.272727  0.000000  0.181818     12.000000
  0.363636  0.000000  0.181818     12.000000
  0.454545  0.000000  0.181818     12.000000
  0.090909  0.090909  0.181818     12.000000
  0.181818  0.090909  0.181818     24.000000
  0.272727  0.090909  0.181818     24.000000
  0.363636  0.090909  0.181818     24.000000
  0.454545  0.090909  0.181818     12.000000
  0.181818  0.181818  0.181818     12.000000
  0.272727  0.181818  0.181818     24.000000
  0.363636  0.181818  0.181818     24.000000
  0.272727  0.272727  0.181818     12.000000
  0.363636  0.272727  0.181818     12.000000
  0.000000  0.000000  0.272727      2.000000
  0.090909  0.000000  0.272727     12.000000
  0.181818  0.000000  0.272727     12.000000
  0.272727  0.000000  0.272727     12.000000
  0.363636  0.000000  0.272727     12.000000
  0.454545  0.000000  0.272727     12.000000
  0.090909  0.090909  0.272727     12.000000
  0.181818  0.090909  0.272727     24.000000
  0.272727  0.090909  0.272727     24.000000
  0.363636  0.090909  0.272727     24.000000
  0.454545  0.090909  0.272727     12.000000
  0.181818  0.181818  0.272727     12.000000
  0.272727  0.181818  0.272727     24.000000
  0.363636  0.181818  0.272727     24.000000
  0.272727  0.272727  0.272727     12.000000
  0.363636  0.272727  0.272727     12.000000
  0.000000  0.000000  0.363636      2.000000
  0.090909  0.000000  0.363636     12.000000
  0.181818  0.000000  0.363636     12.000000
  0.272727  0.000000  0.363636     12.000000
  0.363636  0.000000  0.363636     12.000000
  0.454545  0.000000  0.363636     12.000000
  0.090909  0.090909  0.363636     12.000000
  0.181818  0.090909  0.363636     24.000000
  0.272727  0.090909  0.363636     24.000000
  0.363636  0.090909  0.363636     24.000000
  0.454545  0.090909  0.363636     12.000000
  0.181818  0.181818  0.363636     12.000000
  0.272727  0.181818  0.363636     24.000000
  0.363636  0.181818  0.363636     24.000000
  0.272727  0.272727  0.363636     12.000000
  0.363636  0.272727  0.363636     12.000000
  0.000000  0.000000  0.454545      2.000000
  0.090909  0.000000  0.454545     12.000000
  0.181818  0.000000  0.454545     12.000000
  0.272727  0.000000  0.454545     12.000000
  0.363636  0.000000  0.454545     12.000000
  0.454545  0.000000  0.454545     12.000000
  0.090909  0.090909  0.454545     12.000000
  0.181818  0.090909  0.454545     24.000000
  0.272727  0.090909  0.454545     24.000000
  0.363636  0.090909  0.454545     24.000000
  0.454545  0.090909  0.454545     12.000000
  0.181818  0.181818  0.454545     12.000000
  0.272727  0.181818  0.454545     24.000000
  0.363636  0.181818  0.454545     24.000000
  0.272727  0.272727  0.454545     12.000000
  0.363636  0.272727  0.454545     12.000000
 
 Following cartesian coordinates:
            Coordinates               Weight
  0.000000  0.000000  0.000000      1.000000
  0.037880  0.021870  0.000000      6.000000
  0.075761  0.043740  0.000000      6.000000
  0.113641  0.065611  0.000000      6.000000
  0.151521  0.087481  0.000000      6.000000
  0.189402  0.109351  0.000000      6.000000
  0.037880  0.065611  0.000000      6.000000
  0.075761  0.087481  0.000000     12.000000
  0.113641  0.109351  0.000000     12.000000
  0.151521  0.131221  0.000000     12.000000
  0.189402  0.153092  0.000000      6.000000
  0.075761  0.131221  0.000000      6.000000
  0.113641  0.153092  0.000000     12.000000
  0.151521  0.174962  0.000000     12.000000
  0.113641  0.196832  0.000000      6.000000
  0.151521  0.218702  0.000000      6.000000
  0.000000  0.000000  0.021745      2.000000
  0.037880  0.021870  0.021745     12.000000
  0.075761  0.043740  0.021745     12.000000
  0.113641  0.065611  0.021745     12.000000
  0.151521  0.087481  0.021745     12.000000
  0.189402  0.109351  0.021745     12.000000
  0.037880  0.065611  0.021745     12.000000
  0.075761  0.087481  0.021745     24.000000
  0.113641  0.109351  0.021745     24.000000
  0.151521  0.131221  0.021745     24.000000
  0.189402  0.153092  0.021745     12.000000
  0.075761  0.131221  0.021745     12.000000
  0.113641  0.153092  0.021745     24.000000
  0.151521  0.174962  0.021745     24.000000
  0.113641  0.196832  0.021745     12.000000
  0.151521  0.218702  0.021745     12.000000
  0.000000  0.000000  0.043489      2.000000
  0.037880  0.021870  0.043489     12.000000
  0.075761  0.043740  0.043489     12.000000
  0.113641  0.065611  0.043489     12.000000
  0.151521  0.087481  0.043489     12.000000
  0.189402  0.109351  0.043489     12.000000
  0.037880  0.065611  0.043489     12.000000
  0.075761  0.087481  0.043489     24.000000
  0.113641  0.109351  0.043489     24.000000
  0.151521  0.131221  0.043489     24.000000
  0.189402  0.153092  0.043489     12.000000
  0.075761  0.131221  0.043489     12.000000
  0.113641  0.153092  0.043489     24.000000
  0.151521  0.174962  0.043489     24.000000
  0.113641  0.196832  0.043489     12.000000
  0.151521  0.218702  0.043489     12.000000
  0.000000  0.000000  0.065234      2.000000
  0.037880  0.021870  0.065234     12.000000
  0.075761  0.043740  0.065234     12.000000
  0.113641  0.065611  0.065234     12.000000
  0.151521  0.087481  0.065234     12.000000
  0.189402  0.109351  0.065234     12.000000
  0.037880  0.065611  0.065234     12.000000
  0.075761  0.087481  0.065234     24.000000
  0.113641  0.109351  0.065234     24.000000
  0.151521  0.131221  0.065234     24.000000
  0.189402  0.153092  0.065234     12.000000
  0.075761  0.131221  0.065234     12.000000
  0.113641  0.153092  0.065234     24.000000
  0.151521  0.174962  0.065234     24.000000
  0.113641  0.196832  0.065234     12.000000
  0.151521  0.218702  0.065234     12.000000
  0.000000  0.000000  0.086978      2.000000
  0.037880  0.021870  0.086978     12.000000
  0.075761  0.043740  0.086978     12.000000
  0.113641  0.065611  0.086978     12.000000
  0.151521  0.087481  0.086978     12.000000
  0.189402  0.109351  0.086978     12.000000
  0.037880  0.065611  0.086978     12.000000
  0.075761  0.087481  0.086978     24.000000
  0.113641  0.109351  0.086978     24.000000
  0.151521  0.131221  0.086978     24.000000
  0.189402  0.153092  0.086978     12.000000
  0.075761  0.131221  0.086978     12.000000
  0.113641  0.153092  0.086978     24.000000
  0.151521  0.174962  0.086978     24.000000
  0.113641  0.196832  0.086978     12.000000
  0.151521  0.218702  0.086978     12.000000
  0.000000  0.000000  0.108723      2.000000
  0.037880  0.021870  0.108723     12.000000
  0.075761  0.043740  0.108723     12.000000
  0.113641  0.065611  0.108723     12.000000
  0.151521  0.087481  0.108723     12.000000
  0.189402  0.109351  0.108723     12.000000
  0.037880  0.065611  0.108723     12.000000
  0.075761  0.087481  0.108723     24.000000
  0.113641  0.109351  0.108723     24.000000
  0.151521  0.131221  0.108723     24.000000
  0.189402  0.153092  0.108723     12.000000
  0.075761  0.131221  0.108723     12.000000
  0.113641  0.153092  0.108723     24.000000
  0.151521  0.174962  0.108723     24.000000
  0.113641  0.196832  0.108723     12.000000
  0.151521  0.218702  0.108723     12.000000
 


--------------------------------------------------------------------------------------------------------




 Dimension of arrays:
   k-points           NKPTS =     96   k-points in BZ     NKDIM =     96   number of bands    NBANDS=     40
   number of dos      NEDOS =    301   number of ions     NIONS =      2
   non local maximal  LDIM  =      6   non local SUM 2l+1 LMDIM =     18
   total plane-waves  NPLWV =   1800
   max r-space proj   IRMAX =      1   max aug-charges    IRDMAX=   3274
   dimension x,y,z NGX =    10 NGY =   10 NGZ =   18
   dimension x,y,z NGXF=    20 NGYF=   20 NGZF=   36
   support grid    NGXF=    20 NGYF=   20 NGZF=   36
   ions per type =               2
   NGX,Y,Z   is equivalent  to a cutoff of   6.93,  6.93,  7.16 a.u.
   NGXF,Y,Z  is equivalent  to a cutoff of  13.85, 13.85, 14.32 a.u.

 SYSTEM =  unknown system                          
 POSCAR =  Fe                                      

 Startparameter for this run:
   NWRITE =      2    write-flag & timer
   PREC   = normal    normal or accurate (medium, high low for compatibility)
   ISTART =      0    job   : 0-new  1-cont  2-samecut
   ICHARG =      1    charge: 1-file 2-atom 10-const
   ISPIN  =      1    spin polarized calculation?
   LNONCOLLINEAR =      F non collinear calculations
   LSORBIT =      F    spin-orbit coupling
   INIWAV =      1    electr: 0-lowe 1-rand  2-diag
   LASPH  =      F    aspherical Exc in radial PAW
   METAGGA=      F    non-selfconsistent MetaGGA calc.

 Electronic Relaxation 1
   ENCUT  =  280.0 eV  20.58 Ry    4.54 a.u.   3.27  3.27  5.70*2*pi/ulx,y,z
   ENINI  =  280.0     initial cutoff
   ENAUG  =  511.4 eV  augmentation charge cutoff
   NELM   =     60;   NELMIN=  2; NELMDL= -5     # of ELM steps 
   EDIFF  = 0.1E-05   stopping-criterion for ELM
   LREAL  =      F    real-space projection
   NLSPLINE    = F    spline interpolate recip. space projectors
   LCOMPAT=      F    compatible to vasp.4.4
   GGA_COMPAT  = T    GGA compatible to vasp.4.4-vasp.4.6
   LMAXPAW     = -100 max onsite density
   LMAXMIX     =    2 max onsite mixed and CHGCAR
   VOSKOWN=      0    Vosko Wilk Nusair interpolation
   ROPT   =    0.00000
 Ionic relaxation
   EDIFFG = 0.1E-04   stopping-criterion for IOM
   NSW    =      0    number of steps for IOM
   NBLOCK =      1;   KBLOCK =      1    inner block; outer block 
   IBRION =     -1    ionic relax: 0-MD 1-quasi-New 2-CG
   NFREE  =      0    steps in history (QN), initial steepest desc. (CG)
   ISIF   =      2    stress and relaxation
   IWAVPR =      0    prediction:  0-non 1-charg 2-wave 3-comb
   ISYM   =      2    0-nonsym 1-usesym 2-fastsym
   LCORR  =      T    Harris-Foulkes like correction to forces

   POTIM  = 0.5000    time-step for ionic-motion
   TEIN   =    0.0    initial temperature
   TEBEG  =    0.0;   TEEND  =   0.0 temperature during run
   SMASS  =  -3.00    Nose mass-parameter (am)
   estimated Nose-frequenzy (Omega)   =  0.10E-29 period in steps = 0.13E+47 mass=  -0.132E-27a.u.
   SCALEE = 1.0000    scale energy and forces
   NPACO  =    256;   APACO  = 16.0  distance and # of slots for P.C.
   PSTRESS=    0.0 pullay stress

  Mass of Ions in am
   POMASS =  55.85
  Ionic Valenz
   ZVAL   =   8.00
  Atomic Wigner-Seitz radii
   RWIGS  =  -1.00
  virtual crystal weights 
   VCA    =   1.00
   NELECT =      16.0000    total number of electrons
   NUPDOWN=      -1.0000    fix difference up-down

 DOS related values:
   EMIN   =  10.00;   EMAX   =-10.00  energy-range for DOS
   EFERMI =   0.00
   ISMEAR =     1;   SIGMA  =   0.20  broadening in eV -4-tet -1-fermi 0-gaus

 Electronic relaxation 2 (details)
   IALGO  =     38    algorithm
   LDIAG  =      T    sub-space diagonalisation (order eigenvalues)
   LSUBROT=      F    optimize rotation matrix (better conditioning)
   TURBO    =      0    0=normal 1=particle mesh
   IRESTART =      0    0=no restart 2=restart with 2 vectors
   NREBOOT  =      0    no. of reboots
   NMIN     =      0    reboot dimension
   EREF     =   0.00    reference energy to select bands
   IMIX   =      4    mixing-type and parameters
     AMIX     =   0.40;   BMIX     =  1.00
     AMIX_MAG =   1.60;   BMIX_MAG =  1.00
     AMIN     =   0.10
     WC   =   100.;   INIMIX=   1;  MIXPRE=   1;  MAXMIX= -45

 Intra band minimization:
   WEIMIN = 0.0000     energy-eigenvalue tresh-hold
   EBREAK =  0.62E-08  absolut break condition
   DEPER  =   0.30     relativ break condition  

   TIME   =   0.40     timestep for ELM

  volume/ion in A,a.u.               =      10.43        70.36
  Fermi-wavevector in a.u.,A,eV,Ry     =   1.498731  2.832191 30.561343  2.246195
  Thomas-Fermi vector in A             =   2.610452
 
 Write flags
   LWAVE        =      T    write WAVECAR
   LDOWNSAMPLE  =      F    k-point downsampling of WAVECAR
   LCHARG       =      T    write CHGCAR
   LVTOT        =      F    write LOCPOT, total local potential
   LVHAR        =      F    write LOCPOT, Hartree potential only
   LELF         =      F    write electronic localiz. function (ELF)
   LORBIT       =      0    0 simple, 1 ext, 2 COOP (PROOUT), +10 PAW based schemes


 Dipole corrections
   LMONO  =      F    monopole corrections only (constant potential shift)
   LDIPOL =      F    correct potential (dipole corrections)
   IDIPOL =      0    1-x, 2-y, 3-z, 4-all directions 
   EPSILON=  1.0000000 bulk dielectric constant

 Exchange correlation treatment:
   GGA     =    PE    GGA type
   LEXCH   =     8    internal setting for exchange type
   VOSKOWN=      0    Vosko Wilk Nusair interpolation
   LHFCALC =     F    Hartree Fock is set to
   LHFONE  =     F    Hartree Fock one center treatment
   AEXX    =    0.0000 exact exchange contribution

 Linear response parameters
   LEPSILON=     F    determine dielectric tensor
   LRPA    =     F    only Hartree local field effects (RPA)
   LNABLA  =     F    use nabla operator in PAW spheres
   LVEL    =     F    velocity operator in full k-point grid
   LINTERFAST=   F  fast interpolation
   KINTER  =     0    interpolate to denser k-point grid
   CSHIFT  =0.1000    complex shift for real part using Kramers Kronig
   OMEGAMAX=  -1.0    maximum frequency
   DEG_THRESHOLD= 0.2000000E-02 threshold for treating states as degnerate
   RTIME   =   -0.100 relaxation time in fs
  (WPLASMAI=    0.000 imaginary part of plasma frequency in eV, 0.658/RTIME)
   DFIELD  = 0.0000000 0.0000000 0.0000000 field for delta impulse in time
 
 Orbital magnetization related:
   ORBITALMAG=     F  switch on orbital magnetization
   LCHIMAG   =     F  perturbation theory with respect to B field
   DQ        =  0.001000  dq finite difference perturbation B field
   LLRAUG    =     F  two centre corrections for induced B field



--------------------------------------------------------------------------------------------------------


 Static calculation
 charge density and potential will be updated during run
 non-spin polarized calculation
 Variant of blocked Davidson
 Davidson routine will perform the subspace rotation
 perform sub-space diagonalisation
    after iterative eigenvector-optimisation
 modified Broyden-mixing scheme, WC =      100.0
 initial mixing is a Kerker type mixing with AMIX =  0.4000 and BMIX =      1.0000
 Hartree-type preconditioning will be used
 using additional bands           32
 reciprocal scheme for non local part
 use partial core corrections
 calculate Harris-corrections to forces 
   (improved forces if not selfconsistent)
 use gradient corrections 
 use of overlap-Matrix (Vanderbilt PP)
 Methfessel and Paxton  Order N= 1 SIGMA  =   0.20


--------------------------------------------------------------------------------------------------------


  energy-cutoff  :      280.00
  volume of cell :       20.85
      direct lattice vectors                 reciprocal lattice vectors
     2.399900000  0.000000000  0.000000000     0.416684029  0.240572636  0.000000000
    -1.199950000  2.078374367  0.000000000     0.000000000  0.481145272  0.000000000
     0.000000000  0.000000000  4.180770000     0.000000000  0.000000000  0.239190388

  length of vectors
     2.399900000  2.399900000  4.180770000     0.481145272  0.481145272  0.239190388


 
 k-points in units of 2pi/SCALE and weight: KPOINTS created by Atomic Simulation Env
   0.00000000  0.00000000  0.00000000       0.001
   0.03788037  0.02187024  0.00000000       0.005
   0.07576073  0.04374048  0.00000000       0.005
   0.11364110  0.06561072  0.00000000       0.005
   0.15152146  0.08748096  0.00000000       0.005
   0.18940183  0.10935120  0.00000000       0.005
   0.03788037  0.06561072  0.00000000       0.005
   0.07576073  0.08748096  0.00000000       0.009
   0.11364110  0.10935120  0.00000000       0.009
   0.15152146  0.13122144  0.00000000       0.009
   0.18940183  0.15309168  0.00000000       0.005
   0.07576073  0.13122144  0.00000000       0.005
   0.11364110  0.15309168  0.00000000       0.009
   0.15152146  0.17496192  0.00000000       0.009
   0.11364110  0.19683216  0.00000000       0.005
   0.15152146  0.21870240  0.00000000       0.005
   0.00000000  0.00000000  0.02174458       0.002
   0.03788037  0.02187024  0.02174458       0.009
   0.07576073  0.04374048  0.02174458       0.009
   0.11364110  0.06561072  0.02174458       0.009
   0.15152146  0.08748096  0.02174458       0.009
   0.18940183  0.10935120  0.02174458       0.009
   0.03788037  0.06561072  0.02174458       0.009
   0.07576073  0.08748096  0.02174458       0.018
   0.11364110  0.10935120  0.02174458       0.018
   0.15152146  0.13122144  0.02174458       0.018
   0.18940183  0.15309168  0.02174458       0.009
   0.07576073  0.13122144  0.02174458       0.009
   0.11364110  0.15309168  0.02174458       0.018
   0.15152146  0.17496192  0.02174458       0.018
   0.11364110  0.19683216  0.02174458       0.009
   0.15152146  0.21870240  0.02174458       0.009
   0.00000000  0.00000000  0.04348916       0.002
   0.03788037  0.02187024  0.04348916       0.009
   0.07576073  0.04374048  0.04348916       0.009
   0.11364110  0.06561072  0.04348916       0.009
   0.15152146  0.08748096  0.04348916       0.009
   0.18940183  0.10935120  0.04348916       0.009
   0.03788037  0.06561072  0.04348916       0.009
   0.07576073  0.08748096  0.04348916       0.018
   0.11364110  0.10935120  0.04348916       0.018
   0.15152146  0.13122144  0.04348916       0.018
   0.18940183  0.15309168  0.04348916       0.009
   0.07576073  0.13122144  0.04348916       0.009
   0.11364110  0.15309168  0.04348916       0.018
   0.15152146  0.17496192  0.04348916       0.018
   0.11364110  0.19683216  0.04348916       0.009
   0.15152146  0.21870240  0.04348916       0.009
   0.00000000  0.00000000  0.06523374       0.002
   0.03788037  0.02187024  0.06523374       0.009
   0.07576073  0.04374048  0.06523374       0.009
   0.11364110  0.06561072  0.06523374       0.009
   0.15152146  0.08748096  0.06523374       0.009
   0.18940183  0.10935120  0.06523374       0.009
   0.03788037  0.06561072  0.06523374       0.009
   0.07576073  0.08748096  0.06523374       0.018
   0.11364110  0.10935120  0.06523374       0.018
   0.15152146  0.13122144  0.06523374       0.018
   0.18940183  0.15309168  0.06523374       0.009
   0.07576073  0.13122144  0.06523374       0.009
   0.11364110  0.15309168  0.06523374       0.018
   0.15152146  0.17496192  0.06523374       0.018
   0.11364110  0.19683216  0.06523374       0.009
   0.15152146  0.21870240  0.06523374       0.009
   0.00000000  0.00000000  0.08697832       0.002
   0.03788037  0.02187024  0.08697832       0.009
   0.07576073  0.04374048  0.08697832       0.009
   0.11364110  0.06561072  0.08697832       0.009
   0.15152146  0.08748096  0.08697832       0.009
   0.18940183  0.10935120  0.08697832       0.009
   0.03788037  0.06561072  0.08697832       0.009
   0.07576073  0.08748096  0.08697832       0.018
   0.11364110  0.10935120  0.08697832       0.018
   0.15152146  0.13122144  0.08697832       0.018
   0.18940183  0.15309168  0.08697832       0.009
   0.07576073  0.13122144  0.08697832       0.009
   0.11364110  0.15309168  0.08697832       0.018
   0.15152146  0.17496192  0.08697832       0.018
   0.11364110  0.19683216  0.08697832       0.009
   0.15152146  0.21870240  0.08697832       0.009
   0.00000000  0.00000000  0.10872290       0.002
   0.03788037  0.02187024  0.10872290       0.009
   0.07576073  0.04374048  0.10872290       0.009
   0.11364110  0.06561072  0.10872290       0.009
   0.15152146  0.08748096  0.10872290       0.009
   0.18940183  0.10935120  0.10872290       0.009
   0.03788037  0.06561072  0.10872290       0.009
   0.07576073  0.08748096  0.10872290       0.018
   0.11364110  0.10935120  0.10872290       0.018
   0.15152146  0.13122144  0.10872290       0.018
   0.18940183  0.15309168  0.10872290       0.009
   0.07576073  0.13122144  0.10872290       0.009
   0.11364110  0.15309168  0.10872290       0.018
   0.15152146  0.17496192  0.10872290       0.018
   0.11364110  0.19683216  0.10872290       0.009
   0.15152146  0.21870240  0.10872290       0.009
 
 k-points in reciprocal lattice and weights: KPOINTS created by Atomic Simulation Env
   0.00000000  0.00000000  0.00000000       0.001
   0.09090909  0.00000000  0.00000000       0.005
   0.18181818  0.00000000  0.00000000       0.005
   0.27272727  0.00000000  0.00000000       0.005
   0.36363636  0.00000000  0.00000000       0.005
   0.45454545  0.00000000  0.00000000       0.005
   0.09090909  0.09090909  0.00000000       0.005
   0.18181818  0.09090909  0.00000000       0.009
   0.27272727  0.09090909  0.00000000       0.009
   0.36363636  0.09090909  0.00000000       0.009
   0.45454545  0.09090909  0.00000000       0.005
   0.18181818  0.18181818  0.00000000       0.005
   0.27272727  0.18181818  0.00000000       0.009
   0.36363636  0.18181818  0.00000000       0.009
   0.27272727  0.27272727  0.00000000       0.005
   0.36363636  0.27272727  0.00000000       0.005
   0.00000000  0.00000000  0.09090909       0.002
   0.09090909  0.00000000  0.09090909       0.009
   0.18181818  0.00000000  0.09090909       0.009
   0.27272727  0.00000000  0.09090909       0.009
   0.36363636  0.00000000  0.09090909       0.009
   0.45454545  0.00000000  0.09090909       0.009
   0.09090909  0.09090909  0.09090909       0.009
   0.18181818  0.09090909  0.09090909       0.018
   0.27272727  0.09090909  0.09090909       0.018
   0.36363636  0.09090909  0.09090909       0.018
   0.45454545  0.09090909  0.09090909       0.009
   0.18181818  0.18181818  0.09090909       0.009
   0.27272727  0.18181818  0.09090909       0.018
   0.36363636  0.18181818  0.09090909       0.018
   0.27272727  0.27272727  0.09090909       0.009
   0.36363636  0.27272727  0.09090909       0.009
   0.00000000  0.00000000  0.18181818       0.002
   0.09090909  0.00000000  0.18181818       0.009
   0.18181818  0.00000000  0.18181818       0.009
   0.27272727  0.00000000  0.18181818       0.009
   0.36363636  0.00000000  0.18181818       0.009
   0.45454545  0.00000000  0.18181818       0.009
   0.09090909  0.09090909  0.18181818       0.009
   0.18181818  0.09090909  0.18181818       0.018
   0.27272727  0.09090909  0.18181818       0.018
   0.36363636  0.09090909  0.18181818       0.018
   0.45454545  0.09090909  0.18181818       0.009
   0.18181818  0.18181818  0.18181818       0.009
   0.27272727  0.18181818  0.18181818       0.018
   0.36363636  0.18181818  0.18181818       0.018
   0.27272727  0.27272727  0.18181818       0.009
   0.36363636  0.27272727  0.18181818       0.009
   0.00000000  0.00000000  0.27272727       0.002
   0.09090909  0.00000000  0.27272727       0.009
   0.18181818  0.00000000  0.27272727       0.009
   0.27272727  0.00000000  0.27272727       0.009
   0.36363636  0.00000000  0.27272727       0.009
   0.45454545  0.00000000  0.27272727       0.009
   0.09090909  0.09090909  0.27272727       0.009
   0.18181818  0.09090909  0.27272727       0.018
   0.27272727  0.09090909  0.27272727       0.018
   0.36363636  0.09090909  0.27272727       0.018
   0.45454545  0.09090909  0.27272727       0.009
   0.18181818  0.18181818  0.27272727       0.009
   0.27272727  0.18181818  0.27272727       0.018
   0.36363636  0.18181818  0.27272727       0.018
   0.27272727  0.27272727  0.27272727       0.009
   0.36363636  0.27272727  0.27272727       0.009
   0.00000000  0.00000000  0.36363636       0.002
   0.09090909  0.00000000  0.36363636       0.009
   0.18181818  0.00000000  0.36363636       0.009
   0.27272727  0.00000000  0.36363636       0.009
   0.36363636  0.00000000  0.36363636       0.009
   0.45454545  0.00000000  0.36363636       0.009
   0.09090909  0.09090909  0.36363636       0.009
   0.18181818  0.09090909  0.36363636       0.018
   0.27272727  0.09090909  0.36363636       0.018
   0.36363636  0.09090909  0.36363636       0.018
   0.45454545  0.09090909  0.36363636       0.009
   0.18181818  0.18181818  0.36363636       0.009
   0.27272727  0.18181818  0.36363636       0.018
   0.36363636  0.18181818  0.36363636       0.018
   0.27272727  0.27272727  0.36363636       0.009
   0.36363636  0.27272727  0.36363636       0.009
   0.00000000  0.00000000  0.45454545       0.002
   0.09090909  0.00000000  0.45454545       0.009
   0.18181818  0.00000000  0.45454545       0.009
   0.27272727  0.00000000  0.45454545       0.009
   0.36363636  0.00000000  0.45454545       0.009
   0.45454545  0.00000000  0.45454545       0.009
   0.09090909  0.09090909  0.45454545       0.009
   0.18181818  0.09090909  0.45454545       0.018
   0.27272727  0.09090909  0.45454545       0.018
   0.36363636  0.09090909  0.45454545       0.018
   0.45454545  0.09090909  0.45454545       0.009
   0.18181818  0.18181818  0.45454545       0.009
   0.27272727  0.18181818  0.45454545       0.018
   0.36363636  0.18181818  0.45454545       0.018
   0.27272727  0.27272727  0.45454545       0.009
   0.36363636  0.27272727  0.45454545       0.009
 
 position of ions in fractional coordinates (direct lattice) 
   0.00000000  0.00000000  0.00000000
   0.33333333  0.66666667  0.50000000
 
 position of ions in cartesian coordinates  (Angst):
   0.00000000  0.00000000  0.00000000
   0.00000000  1.38558291  2.09038500
 


--------------------------------------------------------------------------------------------------------


 k-point   1 :   0.0000 0.0000 0.0000  plane waves:     245
 k-point   2 :   0.0909 0.0000 0.0000  plane waves:     227
 k-point   3 :   0.1818 0.0000 0.0000  plane waves:     224
 k-point   4 :   0.2727 0.0000 0.0000  plane waves:     222
 k-point   5 :   0.3636 0.0000 0.0000  plane waves:     224
 k-point   6 :   0.4545 0.0000 0.0000  plane waves:     226
 k-point   7 :   0.0909 0.0909 0.0000  plane waves:     225
 k-point   8 :   0.1818 0.0909 0.0000  plane waves:     224
 k-point   9 :   0.2727 0.0909 0.0000  plane waves:     223
 k-point  10 :   0.3636 0.0909 0.0000  plane waves:     223
 k-point  11 :   0.4545 0.0909 0.0000  plane waves:     218
 k-point  12 :   0.1818 0.1818 0.0000  plane waves:     221
 k-point  13 :   0.2727 0.1818 0.0000  plane waves:     224
 k-point  14 :   0.3636 0.1818 0.0000  plane waves:     220
 k-point  15 :   0.2727 0.2727 0.0000  plane waves:     217
 k-point  16 :   0.3636 0.2727 0.0000  plane waves:     214
 k-point  17 :   0.0000 0.0000 0.0909  plane waves:     227
 k-point  18 :   0.0909 0.0000 0.0909  plane waves:     231
 k-point  19 :   0.1818 0.0000 0.0909  plane waves:     222
 k-point  20 :   0.2727 0.0000 0.0909  plane waves:     220
 k-point  21 :   0.3636 0.0000 0.0909  plane waves:     227
 k-point  22 :   0.4545 0.0000 0.0909  plane waves:     222
 k-point  23 :   0.0909 0.0909 0.0909  plane waves:     223
 k-point  24 :   0.1818 0.0909 0.0909  plane waves:     225
 k-point  25 :   0.2727 0.0909 0.0909  plane waves:     223
 k-point  26 :   0.3636 0.0909 0.0909  plane waves:     222
 k-point  27 :   0.4545 0.0909 0.0909  plane waves:     220
 k-point  28 :   0.1818 0.1818 0.0909  plane waves:     223
 k-point  29 :   0.2727 0.1818 0.0909  plane waves:     220
 k-point  30 :   0.3636 0.1818 0.0909  plane waves:     219
 k-point  31 :   0.2727 0.2727 0.0909  plane waves:     221
 k-point  32 :   0.3636 0.2727 0.0909  plane waves:     216
 k-point  33 :   0.0000 0.0000 0.1818  plane waves:     227
 k-point  34 :   0.0909 0.0000 0.1818  plane waves:     228
 k-point  35 :   0.1818 0.0000 0.1818  plane waves:     226
 k-point  36 :   0.2727 0.0000 0.1818  plane waves:     221
 k-point  37 :   0.3636 0.0000 0.1818  plane waves:     221
 k-point  38 :   0.4545 0.0000 0.1818  plane waves:     226
 k-point  39 :   0.0909 0.0909 0.1818  plane waves:     225
 k-point  40 :   0.1818 0.0909 0.1818  plane waves:     222
 k-point  41 :   0.2727 0.0909 0.1818  plane waves:     221
 k-point  42 :   0.3636 0.0909 0.1818  plane waves:     223
 k-point  43 :   0.4545 0.0909 0.1818  plane waves:     221
 k-point  44 :   0.1818 0.1818 0.1818  plane waves:     225
 k-point  45 :   0.2727 0.1818 0.1818  plane waves:     220
 k-point  46 :   0.3636 0.1818 0.1818  plane waves:     220
 k-point  47 :   0.2727 0.2727 0.1818  plane waves:     218
 k-point  48 :   0.3636 0.2727 0.1818  plane waves:     218
 k-point  49 :   0.0000 0.0000 0.2727  plane waves:     227
 k-point  50 :   0.0909 0.0000 0.2727  plane waves:     226
 k-point  51 :   0.1818 0.0000 0.2727  plane waves:     221
 k-point  52 :   0.2727 0.0000 0.2727  plane waves:     217
 k-point  53 :   0.3636 0.0000 0.2727  plane waves:     219
 k-point  54 :   0.4545 0.0000 0.2727  plane waves:     227
 k-point  55 :   0.0909 0.0909 0.2727  plane waves:     227
 k-point  56 :   0.1818 0.0909 0.2727  plane waves:     220
 k-point  57 :   0.2727 0.0909 0.2727  plane waves:     222
 k-point  58 :   0.3636 0.0909 0.2727  plane waves:     223
 k-point  59 :   0.4545 0.0909 0.2727  plane waves:     219
 k-point  60 :   0.1818 0.1818 0.2727  plane waves:     219
 k-point  61 :   0.2727 0.1818 0.2727  plane waves:     220
 k-point  62 :   0.3636 0.1818 0.2727  plane waves:     222
 k-point  63 :   0.2727 0.2727 0.2727  plane waves:     216
 k-point  64 :   0.3636 0.2727 0.2727  plane waves:     223
 k-point  65 :   0.0000 0.0000 0.3636  plane waves:     222
 k-point  66 :   0.0909 0.0000 0.3636  plane waves:     227
 k-point  67 :   0.1818 0.0000 0.3636  plane waves:     225
 k-point  68 :   0.2727 0.0000 0.3636  plane waves:     220
 k-point  69 :   0.3636 0.0000 0.3636  plane waves:     217
 k-point  70 :   0.4545 0.0000 0.3636  plane waves:     223
 k-point  71 :   0.0909 0.0909 0.3636  plane waves:     224
 k-point  72 :   0.1818 0.0909 0.3636  plane waves:     219
 k-point  73 :   0.2727 0.0909 0.3636  plane waves:     220
 k-point  74 :   0.3636 0.0909 0.3636  plane waves:     221
 k-point  75 :   0.4545 0.0909 0.3636  plane waves:     223
 k-point  76 :   0.1818 0.1818 0.3636  plane waves:     220
 k-point  77 :   0.2727 0.1818 0.3636  plane waves:     221
 k-point  78 :   0.3636 0.1818 0.3636  plane waves:     222
 k-point  79 :   0.2727 0.2727 0.3636  plane waves:     220
 k-point  80 :   0.3636 0.2727 0.3636  plane waves:     225
 k-point  81 :   0.0000 0.0000 0.4545  plane waves:     222
 k-point  82 :   0.0909 0.0000 0.4545  plane waves:     220
 k-point  83 :   0.1818 0.0000 0.4545  plane waves:     225
 k-point  84 :   0.2727 0.0000 0.4545  plane waves:     218
 k-point  85 :   0.3636 0.0000 0.4545  plane waves:     218
 k-point  86 :   0.4545 0.0000 0.4545  plane waves:     219
 k-point  87 :   0.0909 0.0909 0.4545  plane waves:     220
 k-point  88 :   0.1818 0.0909 0.4545  plane waves:     220
 k-point  89 :   0.2727 0.0909 0.4545  plane waves:     221
 k-point  90 :   0.3636 0.0909 0.4545  plane waves:     221
 k-point  91 :   0.4545 0.0909 0.4545  plane waves:     227
 k-point  92 :   0.1818 0.1818 0.4545  plane waves:     216
 k-point  93 :   0.2727 0.1818 0.4545  plane waves:     222
 k-point  94 :   0.3636 0.1818 0.4545  plane waves:     226
 k-point  95 :   0.2727 0.2727 0.4545  plane waves:     226
 k-point  96 :   0.3636 0.2727 0.4545  plane waves:     224

 maximum number of plane-waves:       245
 maximum index in each direction: 
   IXMAX=    3   IYMAX=    3   IZMAX=    5
   IXMIN=   -3   IYMIN=   -3   IZMIN=   -6


 total amount of memory used by VASP MPI-rank0    51501. kBytes
=======================================================================

   base      :      30000. kBytes
   nonl-proj :       3394. kBytes
   grid      :        812. kBytes
   one-center:         31. kBytes
   wavefun   :      17264. kBytes
 
     INWAV:  cpu time    0.0000: real time    0.0000
 Broyden mixing: mesh for mixing (old mesh)
   NGX =  7   NGY =  7   NGZ = 11
  (NGX  = 20   NGY  = 20   NGZ  = 36)
  gives a total of    539 points

 initial charge density was supplied:
 charge density of overlapping atoms calculated
 number of electron      16.0000000 magnetization 
 keeping initial charge density in first step


--------------------------------------------------------------------------------------------------------


 Maximum index for augmentation-charges         2982 (set IRDMAX)


--------------------------------------------------------------------------------------------------------


 First call to EWALD:  gamma=   0.644
 Maximum number of real-space cells 3x 3x 2
 Maximum number of reciprocal cells 2x 2x 4

    FEWALD:  cpu time    0.0008: real time    0.0008


--------------------------------------- Iteration      1(   1)  ---------------------------------------


    POTLOK:  cpu time    0.0035: real time    0.0035
    SETDIJ:  cpu time    0.0021: real time    0.0021
     EDDAV:  cpu time    0.8439: real time    0.8653
       DOS:  cpu time    0.0056: real time    0.0056
    --------------------------------------------
      LOOP:  cpu time    0.8552: real time    0.8765

 eigenvalue-minimisations  :  9168
 total energy-change (2. order) : 0.6172894E+02  (-0.2688382E+03)
 number of electron      16.0000000 magnetization 
 augmentation part       16.0000000 magnetization 

 Free energy of the ion-electron system (eV)
  ---------------------------------------------------
  alpha Z        PSCENC =       132.57187945
  Ewald energy   TEWEN  =     -1217.63055602
  -Hartree energ DENC   =      -210.78543489
  -exchange      EXHF   =         0.00000000
  -V(xc)+E(xc)   XCENC  =         8.34661981
  PAW double counting   =      1109.69170683    -1125.09647265
  entropy T*S    EENTRO =         0.00079801
  eigenvalues    EBANDS =       176.05549083
  atomic energy  EATOM  =      1188.57490811
  Solvation  Ediel_sol  =         0.00000000
  ---------------------------------------------------
  free energy    TOTEN  =        61.72893947 eV

  energy without entropy =       61.72814146  energy(sigma->0) =       61.72867347


--------------------------------------------------------------------------------------------------------




--------------------------------------- Iteration      1(   2)  ---------------------------------------


     EDDAV:  cpu time    0.7029: real time    0.7030
       DOS:  cpu time    0.0063: real time    0.0063
    --------------------------------------------
      LOOP:  cpu time    0.7092: real time    0.7092

 eigenvalue-minimisations  :  7944
 total energy-change (2. order) :-0.7639683E+02  (-0.6482790E+02)
 number of electron      16.0000000 magnetization 
 augmentation part       16.0000000 magnetization 

 Free energy of the ion-electron system (eV)
  ---------------------------------------------------
  alpha Z        PSCENC =       132.57187945
  Ewald energy   TEWEN  =     -1217.63055602
  -Hartree energ DENC   =      -210.78543489
  -exchange      EXHF   =         0.00000000
  -V(xc)+E(xc)   XCENC  =         8.34661981
  PAW double counting   =      1109.69170683    -1125.09647265
  entropy T*S    EENTRO =        -0.00089471
  eigenvalues    EBANDS =        99.66035529
  atomic energy  EATOM  =      1188.57490811
  Solvation  Ediel_sol  =         0.00000000
  ---------------------------------------------------
  free energy    TOTEN  =       -14.66788878 eV

  energy without entropy =      -14.66699408  energy(sigma->0) =      -14.66759055


--------------------------------------------------------------------------------------------------------




--------------------------------------- Iteration      1(   3)  ---------------------------------------


     EDDAV:  cpu time    0.8149: real time    0.8149
       DOS:  cpu time    0.0065: real time    0.0065
    --------------------------------------------
      LOOP:  cpu time    0.8214: real time    0.8214

 eigenvalue-minimisations  :  9512
 total energy-change (2. order) :-0.4608258E+01  (-0.4369842E+01)
 number of electron      16.0000000 magnetization 
 augmentation part       16.0000000 magnetization 

 Free energy of the ion-electron system (eV)
  ---------------------------------------------------
  alpha Z        PSCENC =       132.57187945
  Ewald energy   TEWEN  =     -1217.63055602
  -Hartree energ DENC   =      -210.78543489
  -exchange      EXHF   =         0.00000000
  -V(xc)+E(xc)   XCENC  =         8.34661981
  PAW double counting   =      1109.69170683    -1125.09647265
  entropy T*S    EENTRO =         0.00042425
  eigenvalues    EBANDS =        95.05077796
  atomic energy  EATOM  =      1188.57490811
  Solvation  Ediel_sol  =         0.00000000
  ---------------------------------------------------
  free energy    TOTEN  =       -19.27614715 eV

  energy without entropy =      -19.27657141  energy(sigma->0) =      -19.27628857


--------------------------------------------------------------------------------------------------------




--------------------------------------- Iteration      1(   4)  ---------------------------------------


     EDDAV:  cpu time    0.7917: real time    0.7927
       DOS:  cpu time    0.0064: real time    0.0064
    --------------------------------------------
      LOOP:  cpu time    0.7982: real time    0.7991

 eigenvalue-minimisations  :  9160
 total energy-change (2. order) :-0.2256303E-01  (-0.2254542E-01)
 number of electron      16.0000000 magnetization 
 augmentation part       16.0000000 magnetization 

 Free energy of the ion-electron system (eV)
  ---------------------------------------------------
  alpha Z        PSCENC =       132.57187945
  Ewald energy   TEWEN  =     -1217.63055602
  -Hartree energ DENC   =      -210.78543489
  -exchange      EXHF   =         0.00000000
  -V(xc)+E(xc)   XCENC  =         8.34661981
  PAW double counting   =      1109.69170683    -1125.09647265
  entropy T*S    EENTRO =         0.00041234
  eigenvalues    EBANDS =        95.02822684
  atomic energy  EATOM  =      1188.57490811
  Solvation  Ediel_sol  =         0.00000000
  ---------------------------------------------------
  free energy    TOTEN  =       -19.29871018 eV

  energy without entropy =      -19.29912253  energy(sigma->0) =      -19.29884763


--------------------------------------------------------------------------------------------------------




--------------------------------------- Iteration      1(   5)  ---------------------------------------


     EDDAV:  cpu time    0.8074: real time    0.8074
       DOS:  cpu time    0.0063: real time    0.0063
    CHARGE:  cpu time    0.0203: real time    0.0203
    MIXING:  cpu time    0.0002: real time    0.0002
    --------------------------------------------
      LOOP:  cpu time    0.8341: real time    0.8341

 eigenvalue-minimisations  :  9184
 total energy-change (2. order) :-0.3075837E-04  (-0.3075769E-04)
 number of electron      15.9999847 magnetization 
 augmentation part        7.0563599 magnetization 

 Broyden mixing:
  rms(total) = 0.16623E+01    rms(broyden)= 0.16623E+01
  rms(prec ) = 0.29104E+01
  weight for this iteration     100.00

 Free energy of the ion-electron system (eV)
  ---------------------------------------------------
  alpha Z        PSCENC =       132.57187945
  Ewald energy   TEWEN  =     -1217.63055602
  -Hartree energ DENC   =      -210.78543489
  -exchange      EXHF   =         0.00000000
  -V(xc)+E(xc)   XCENC  =         8.34661981
  PAW double counting   =      1109.69170683    -1125.09647265
  entropy T*S    EENTRO =         0.00041236
  eigenvalues    EBANDS =        95.02819606
  atomic energy  EATOM  =      1188.57490811
  Solvation  Ediel_sol  =         0.00000000
  ---------------------------------------------------
  free energy    TOTEN  =       -19.29874094 eV

  energy without entropy =      -19.29915330  energy(sigma->0) =      -19.29887839


--------------------------------------------------------------------------------------------------------




--------------------------------------- Iteration      1(   6)  ---------------------------------------


    POTLOK:  cpu time    0.0033: real time    0.0033
    SETDIJ:  cpu time    0.0021: real time    0.0021
     EDDAV:  cpu time    0.9306: real time    0.9306
       DOS:  cpu time    0.0063: real time    0.0063
    CHARGE:  cpu time    0.0198: real time    0.0198
    MIXING:  cpu time    0.0002: real time    0.0002
    --------------------------------------------
      LOOP:  cpu time    0.9624: real time    0.9624

 eigenvalue-minimisations  : 11144
 total energy-change (2. order) : 0.2899189E+01  (-0.1906253E+00)
 number of electron      15.9999808 magnetization 
 augmentation part        8.5204081 magnetization 

 Broyden mixing:
  rms(total) = 0.27994E+00    rms(broyden)= 0.27983E+00
  rms(prec ) = 0.49043E+00
  weight for this iteration     100.00

 eigenvalues of (default mixing * dielectric matrix)
  average eigenvalue GAMMA=   0.9027
  0.9027

 Free energy of the ion-electron system (eV)
  ---------------------------------------------------
  alpha Z        PSCENC =       132.57187945
  Ewald energy   TEWEN  =     -1217.63055602
  -Hartree energ DENC   =      -175.55139727
  -exchange      EXHF   =         0.00000000
  -V(xc)+E(xc)   XCENC  =         6.62782648
  PAW double counting   =      1241.79001013    -1252.51470071
  entropy T*S    EENTRO =         0.00254634
  eigenvalues    EBANDS =        59.72993173
  atomic energy  EATOM  =      1188.57490811
  Solvation  Ediel_sol  =         0.00000000
  ---------------------------------------------------
  free energy    TOTEN  =       -16.39955175 eV

  energy without entropy =      -16.40209809  energy(sigma->0) =      -16.40040053


--------------------------------------------------------------------------------------------------------




--------------------------------------- Iteration      1(   7)  ---------------------------------------


    POTLOK:  cpu time    0.0035: real time    0.0035
    SETDIJ:  cpu time    0.0021: real time    0.0021
     EDDAV:  cpu time    0.8535: real time    0.8535
       DOS:  cpu time    0.0065: real time    0.0065
    CHARGE:  cpu time    0.0206: real time    0.0206
    MIXING:  cpu time    0.0002: real time    0.0002
    --------------------------------------------
      LOOP:  cpu time    0.8864: real time    0.8864

 eigenvalue-minimisations  : 10168
 total energy-change (2. order) : 0.2260486E+00  (-0.1428158E-01)
 number of electron      15.9999817 magnetization 
 augmentation part        8.1824817 magnetization 

 Broyden mixing:
  rms(total) = 0.10130E+00    rms(broyden)= 0.10130E+00
  rms(prec ) = 0.20262E+00
  weight for this iteration     100.00

 eigenvalues of (default mixing * dielectric matrix)
  average eigenvalue GAMMA=   0.9483
  1.1677  0.7289

 Free energy of the ion-electron system (eV)
  ---------------------------------------------------
  alpha Z        PSCENC =       132.57187945
  Ewald energy   TEWEN  =     -1217.63055602
  -Hartree energ DENC   =      -180.46523174
  -exchange      EXHF   =         0.00000000
  -V(xc)+E(xc)   XCENC  =         6.89921521
  PAW double counting   =      1315.41083560    -1329.75105650
  entropy T*S    EENTRO =         0.00254454
  eigenvalues    EBANDS =        68.21395817
  atomic energy  EATOM  =      1188.57490811
  Solvation  Ediel_sol  =         0.00000000
  ---------------------------------------------------
  free energy    TOTEN  =       -16.17350316 eV

  energy without entropy =      -16.17604771  energy(sigma->0) =      -16.17435135


--------------------------------------------------------------------------------------------------------




--------------------------------------- Iteration      1(   8)  ---------------------------------------


    POTLOK:  cpu time    0.0034: real time    0.0034
    SETDIJ:  cpu time    0.0021: real time    0.0021
     EDDAV:  cpu time    0.8493: real time    0.8493
       DOS:  cpu time    0.0067: real time    0.0067
    CHARGE:  cpu time    0.0198: real time    0.0198
    MIXING:  cpu time    0.0002: real time    0.0002
    --------------------------------------------
      LOOP:  cpu time    0.8814: real time    0.8814

 eigenvalue-minimisations  : 10096
 total energy-change (2. order) : 0.2556859E-01  (-0.3888746E-03)
 number of electron      15.9999816 magnetization 
 augmentation part        8.2131431 magnetization 

 Broyden mixing:
  rms(total) = 0.47715E-01    rms(broyden)= 0.47715E-01
  rms(prec ) = 0.94243E-01
  weight for this iteration     100.00

 eigenvalues of (default mixing * dielectric matrix)
  average eigenvalue GAMMA=   1.4435
  0.7755  1.0413  2.5136

 Free energy of the ion-electron system (eV)
  ---------------------------------------------------
  alpha Z        PSCENC =       132.57187945
  Ewald energy   TEWEN  =     -1217.63055602
  -Hartree energ DENC   =      -178.44085078
  -exchange      EXHF   =         0.00000000
  -V(xc)+E(xc)   XCENC  =         6.81919556
  PAW double counting   =      1370.44029681    -1386.02998243
  entropy T*S    EENTRO =         0.00260009
  eigenvalues    EBANDS =        67.54457462
  atomic energy  EATOM  =      1188.57490811
  Solvation  Ediel_sol  =         0.00000000
  ---------------------------------------------------
  free energy    TOTEN  =       -16.14793458 eV

  energy without entropy =      -16.15053466  energy(sigma->0) =      -16.14880127


--------------------------------------------------------------------------------------------------------




--------------------------------------- Iteration      1(   9)  ---------------------------------------


    POTLOK:  cpu time    0.0034: real time    0.0034
    SETDIJ:  cpu time    0.0021: real time    0.0021
     EDDAV:  cpu time    0.9360: real time    0.9360
       DOS:  cpu time    0.0067: real time    0.0067
    CHARGE:  cpu time    0.0200: real time    0.0200
    MIXING:  cpu time    0.0002: real time    0.0002
    --------------------------------------------
      LOOP:  cpu time    0.9684: real time    0.9684

 eigenvalue-minimisations  : 11248
 total energy-change (2. order) : 0.1106391E-01  (-0.8998475E-04)
 number of electron      15.9999815 magnetization 
 augmentation part        8.2298695 magnetization 

 Broyden mixing:
  rms(total) = 0.60268E-02    rms(broyden)= 0.60246E-02
  rms(prec ) = 0.64209E-02
  weight for this iteration     100.00

 eigenvalues of (default mixing * dielectric matrix)
  average eigenvalue GAMMA=   1.5194
  2.5644  0.7745  1.0011  1.7374

 Free energy of the ion-electron system (eV)
  ---------------------------------------------------
  alpha Z        PSCENC =       132.57187945
  Ewald energy   TEWEN  =     -1217.63055602
  -Hartree energ DENC   =      -176.31140128
  -exchange      EXHF   =         0.00000000
  -V(xc)+E(xc)   XCENC  =         6.74212084
  PAW double counting   =      1446.87310688    -1464.20316223
  entropy T*S    EENTRO =         0.00259470
  eigenvalues    EBANDS =        67.24363887
  atomic energy  EATOM  =      1188.57490811
  Solvation  Ediel_sol  =         0.00000000
  ---------------------------------------------------
  free energy    TOTEN  =       -16.13687066 eV

  energy without entropy =      -16.13946536  energy(sigma->0) =      -16.13773556


--------------------------------------------------------------------------------------------------------




--------------------------------------- Iteration      1(  10)  ---------------------------------------


    POTLOK:  cpu time    0.0034: real time    0.0034
    SETDIJ:  cpu time    0.0021: real time    0.0021
     EDDAV:  cpu time    0.7719: real time    0.7719
       DOS:  cpu time    0.0066: real time    0.0066
    CHARGE:  cpu time    0.0199: real time    0.0199
    MIXING:  cpu time    0.0003: real time    0.0003
    --------------------------------------------
      LOOP:  cpu time    0.8041: real time    0.8042

 eigenvalue-minimisations  :  8984
 total energy-change (2. order) :-0.2781040E-04  (-0.3603158E-05)
 number of electron      15.9999815 magnetization 
 augmentation part        8.2302650 magnetization 

 Broyden mixing:
  rms(total) = 0.25600E-02    rms(broyden)= 0.25589E-02
  rms(prec ) = 0.31759E-02
  weight for this iteration     100.00

 eigenvalues of (default mixing * dielectric matrix)
  average eigenvalue GAMMA=   1.6156
  2.5471  2.5471  0.7745  1.0099  1.1992

 Free energy of the ion-electron system (eV)
  ---------------------------------------------------
  alpha Z        PSCENC =       132.57187945
  Ewald energy   TEWEN  =     -1217.63055602
  -Hartree energ DENC   =      -176.31941798
  -exchange      EXHF   =         0.00000000
  -V(xc)+E(xc)   XCENC  =         6.74355774
  PAW double counting   =      1449.30890011    -1466.61780699
  entropy T*S    EENTRO =         0.00258881
  eigenvalues    EBANDS =        67.22904828
  atomic energy  EATOM  =      1188.57490811
  Solvation  Ediel_sol  =         0.00000000
  ---------------------------------------------------
  free energy    TOTEN  =       -16.13689847 eV

  energy without entropy =      -16.13948729  energy(sigma->0) =      -16.13776141


--------------------------------------------------------------------------------------------------------




--------------------------------------- Iteration      1(  11)  ---------------------------------------


    POTLOK:  cpu time    0.0033: real time    0.0033
    SETDIJ:  cpu time    0.0021: real time    0.0021
     EDDAV:  cpu time    0.7749: real time    0.7749
       DOS:  cpu time    0.0067: real time    0.0067
    CHARGE:  cpu time    0.0196: real time    0.0196
    MIXING:  cpu time    0.0002: real time    0.0002
    --------------------------------------------
      LOOP:  cpu time    0.8068: real time    0.8068

 eigenvalue-minimisations  :  8880
 total energy-change (2. order) : 0.6294321E-05  (-0.3812473E-07)
 number of electron      15.9999815 magnetization 
 augmentation part        8.2299782 magnetization 

 Broyden mixing:
  rms(total) = 0.17227E-03    rms(broyden)= 0.17192E-03
  rms(prec ) = 0.20438E-03
  weight for this iteration     100.00

 eigenvalues of (default mixing * dielectric matrix)
  average eigenvalue GAMMA=   1.5427
  2.5708  2.5708  0.7743  1.0046  1.0046  1.3310

 Free energy of the ion-electron system (eV)
  ---------------------------------------------------
  alpha Z        PSCENC =       132.57187945
  Ewald energy   TEWEN  =     -1217.63055602
  -Hartree energ DENC   =      -176.37492002
  -exchange      EXHF   =         0.00000000
  -V(xc)+E(xc)   XCENC  =         6.74628404
  PAW double counting   =      1449.21426408    -1466.47191134
  entropy T*S    EENTRO =         0.00258877
  eigenvalues    EBANDS =        67.23057075
  atomic energy  EATOM  =      1188.57490811
  Solvation  Ediel_sol  =         0.00000000
  ---------------------------------------------------
  free energy    TOTEN  =       -16.13689218 eV

  energy without entropy =      -16.13948095  energy(sigma->0) =      -16.13775510


--------------------------------------------------------------------------------------------------------




--------------------------------------- Iteration      1(  12)  ---------------------------------------


    POTLOK:  cpu time    0.0034: real time    0.0034
    SETDIJ:  cpu time    0.0021: real time    0.0021
     EDDAV:  cpu time    0.5892: real time    0.5892
       DOS:  cpu time    0.0067: real time    0.0067
    --------------------------------------------
      LOOP:  cpu time    0.6014: real time    0.6014

 eigenvalue-minimisations  :  5984
 total energy-change (2. order) : 0.4814708E-06  (-0.5325797E-08)
 number of electron      15.9999815 magnetization 
 augmentation part        8.2299782 magnetization 

 Free energy of the ion-electron system (eV)
  ---------------------------------------------------
  alpha Z        PSCENC =       132.57187945
  Ewald energy   TEWEN  =     -1217.63055602
  -Hartree energ DENC   =      -176.37816402
  -exchange      EXHF   =         0.00000000
  -V(xc)+E(xc)   XCENC  =         6.74645600
  PAW double counting   =      1449.30814746    -1466.56200630
  entropy T*S    EENTRO =         0.00258912
  eigenvalues    EBANDS =        67.22985450
  atomic energy  EATOM  =      1188.57490811
  Solvation  Ediel_sol  =         0.00000000
  ---------------------------------------------------
  free energy    TOTEN  =       -16.13689170 eV

  energy without entropy =      -16.13948082  energy(sigma->0) =      -16.13775474


--------------------------------------------------------------------------------------------------------




 average (electrostatic) potential at core
  the test charge radii are     1.0103
  (the norm of the test charge is              1.0000)
       1 -42.8715       2 -42.8714
 
 
 
 E-fermi :   6.6257     XC(G=0): -13.6572     alpha+bet :-14.8663

 Fermi energy:         6.6256918090

 k-point     1 :       0.0000    0.0000    0.0000
  band No.  band energies     occupation 
      1      -2.1293      2.00000
      2       1.7688      2.00000
      3       4.5763      2.00000
      4       5.1116      2.00000
      5       5.1117      2.00000
      6       5.4209      2.00000
      7       5.4210      2.00000
      8       6.0679      2.00058
      9       6.2752      2.03263
     10       6.2752      2.03264
     11       7.3407     -0.00001
     12       7.3408     -0.00001
     13      13.8375      0.00000
     14      29.6963      0.00000
     15      30.1965      0.00000
     16      32.6752      0.00000
     17      34.5085      0.00000
     18      34.5086      0.00000
     19      35.3333      0.00000
     20      35.3335      0.00000
     21      36.6414      0.00000
     22      38.4216      0.00000
     23      38.4217      0.00000
     24      39.4657      0.00000
     25      41.8911      0.00000
     26      41.8911      0.00000
     27      42.5966      0.00000
     28      45.3590      0.00000
     29      45.3594      0.00000
     30      47.1328      0.00000
     31      47.1330      0.00000
     32      49.7100      0.00000
     33      57.6439      0.00000
     34      60.9198      0.00000
     35      60.9212      0.00000
     36      61.4752      0.00000
     37      62.1920      0.00000
     38      62.8989      0.00000
     39      62.8998      0.00000
     40      63.5812      0.00000

 k-point     2 :       0.0909    0.0000    0.0000
  band No.  band energies     occupation 
      1      -1.8077      2.00000
      2       2.0049      2.00000
      3       4.5620      2.00000
      4       5.0785      2.00000
      5       5.2048      2.00000
      6       5.2955      2.00000
      7       5.3168      2.00000
      8       5.5904      2.00000
      9       6.1460      2.00360
     10       6.1689      2.00576
     11       7.3777     -0.00000
     12       8.4681     -0.00000
     13      13.8648      0.00000
     14      28.3233      0.00000
     15      30.5172      0.00000
     16      30.8629      0.00000
     17      31.8135      0.00000
     18      34.3440      0.00000
     19      34.5057      0.00000
     20      36.4599      0.00000
     21      37.8266      0.00000
     22      38.2420      0.00000
     23      38.6465      0.00000
     24      38.9554      0.00000
     25      42.7848      0.00000
     26      43.0585      0.00000
     27      43.0896      0.00000
     28      43.5168      0.00000
     29      46.8726      0.00000
     30      48.5678      0.00000
     31      49.6166      0.00000
     32      51.6988      0.00000
     33      57.1476      0.00000
     34      59.5428      0.00000
     35      59.6375      0.00000
     36      60.1880      0.00000
     37      60.9966      0.00000
     38      63.5522      0.00000
     39      64.0415      0.00000
     40      64.9279      0.00000

 k-point     3 :       0.1818    0.0000    0.0000
  band No.  band energies     occupation 
      1      -0.8945      2.00000
      2       2.5655      2.00000
      3       4.1649      2.00000
      4       4.3458      2.00000
      5       4.9208      2.00000
      6       5.4598      2.00000
      7       5.8063      2.00000
      8       5.8255      2.00000
      9       5.9152      2.00001
     10       6.0599      2.00047
     11       7.4335     -0.00000
     12      10.2625     -0.00000
     13      13.9703      0.00000
     14      24.5210      0.00000
     15      29.0491      0.00000
     16      29.6432      0.00000
     17      30.1656      0.00000
     18      31.4202      0.00000
     19      34.7895      0.00000
     20      35.9719      0.00000
     21      36.3959      0.00000
     22      36.9238      0.00000
     23      39.2748      0.00000
     24      40.2223      0.00000
     25      42.7070      0.00000
     26      44.0493      0.00000
     27      45.6940      0.00000
     28      47.8704      0.00000
     29      49.4964      0.00000
     30      52.2204      0.00000
     31      52.5248      0.00000
     32      55.2166      0.00000
     33      55.7972      0.00000
     34      56.3816      0.00000
     35      57.8903      0.00000
     36      59.6114      0.00000
     37      60.7361      0.00000
     38      63.3080      0.00000
     39      65.3166      0.00000
     40      65.8711      0.00000

 k-point     4 :       0.2727    0.0000    0.0000
  band No.  band energies     occupation 
      1       0.4171      2.00000
      2       2.8642      2.00000
      3       3.3689      2.00000
      4       4.2685      2.00000
      5       4.7510      2.00000
      6       5.4193      2.00000
      7       5.6265      2.00000
      8       6.1624      2.00505
      9       6.5325      1.70172
     10       6.7159      0.31596
     11       7.4684     -0.00000
     12      12.2903      0.00000
     13      14.2054      0.00000
     14      20.5672      0.00000
     15      26.5639      0.00000
     16      26.6928      0.00000
     17      27.9809      0.00000
     18      31.2126      0.00000
     19      32.8247      0.00000
     20      36.2442      0.00000
     21      36.3462      0.00000
     22      36.8119      0.00000
     23      36.9136      0.00000
     24      40.7507      0.00000
     25      46.3061      0.00000
     26      47.9612      0.00000
     27      49.1111      0.00000
     28      50.3900      0.00000
     29      51.5788      0.00000
     30      52.5527      0.00000
     31      54.0707      0.00000
     32      55.1887      0.00000
     33      57.5826      0.00000
     34      57.8625      0.00000
     35      58.4726      0.00000
     36      59.7412      0.00000
     37      62.0348      0.00000
     38      63.0026      0.00000
     39      65.2009      0.00000
     40      66.0408      0.00000

 k-point     5 :       0.3636    0.0000    0.0000
  band No.  band energies     occupation 
      1       1.6400      2.00000
      2       2.6307      2.00000
      3       2.8447      2.00000
      4       4.4316      2.00000
      5       5.0579      2.00000
      6       5.0928      2.00000
      7       5.3863      2.00000
      8       7.2585     -0.00007
      9       7.3106     -0.00001
     10       7.3750     -0.00000
     11       7.4789     -0.00000
     12      14.1106      0.00000
     13      14.4695      0.00000
     14      17.7391      0.00000
     15      23.3312      0.00000
     16      24.8950      0.00000
     17      25.1623      0.00000
     18      30.3157      0.00000
     19      31.7453      0.00000
     20      34.9357      0.00000
     21      35.8092      0.00000
     22      37.6369      0.00000
     23      38.3678      0.00000
     24      41.1390      0.00000
     25      48.3779      0.00000
     26      49.3801      0.00000
     27      49.8864      0.00000
     28      53.1253      0.00000
     29      53.1407      0.00000
     30      53.9765      0.00000
     31      56.2192      0.00000
     32      57.0626      0.00000
     33      57.2428      0.00000
     34      59.0506      0.00000
     35      60.8893      0.00000
     36      62.6256      0.00000
     37      62.6413      0.00000
     38      63.8814      0.00000
     39      65.5423      0.00000
     40      65.8552      0.00000

 k-point     6 :       0.4545    0.0000    0.0000
  band No.  band energies     occupation 
      1       2.1854      2.00000
      2       2.3903      2.00000
      3       2.5869      2.00000
      4       4.8469      2.00000
      5       4.9214      2.00000
      6       5.2520      2.00000
      7       5.3215      2.00000
      8       7.4777     -0.00000
      9       7.7044     -0.00000
     10       7.8208     -0.00000
     11       8.9062     -0.00000
     12      12.2346      0.00000
     13      16.5424      0.00000
     14      17.7892      0.00000
     15      20.7454      0.00000
     16      22.5128      0.00000
     17      23.8946      0.00000
     18      29.7024      0.00000
     19      31.4117      0.00000
     20      33.8482      0.00000
     21      35.5998      0.00000
     22      38.4131      0.00000
     23      40.6438      0.00000
     24      41.1516      0.00000
     25      45.0361      0.00000
     26      49.7521      0.00000
     27      51.5070      0.00000
     28      55.5153      0.00000
     29      55.8579      0.00000
     30      56.2675      0.00000
     31      57.3373      0.00000
     32      59.0700      0.00000
     33      59.3967      0.00000
     34      60.7381      0.00000
     35      61.1503      0.00000
     36      61.6430      0.00000
     37      64.1061      0.00000
     38      64.6460      0.00000
     39      64.6748      0.00000
     40      65.4815      0.00000

 k-point     7 :       0.0909    0.0909    0.0000
  band No.  band energies     occupation 
      1      -1.1880      2.00000
      2       2.4195      2.00000
      3       4.3888      2.00000
      4       4.4364      2.00000
      5       5.1143      2.00000
      6       5.1734      2.00000
      7       5.6687      2.00000
      8       5.7766      2.00000
      9       5.9564      2.00002
     10       6.1427      2.00336
     11       7.3918     -0.00000
     12       9.7623     -0.00000
     13      13.9338      0.00000
     14      26.2695      0.00000
     15      27.4309      0.00000
     16      30.9290      0.00000
     17      31.7971      0.00000
     18      32.9883      0.00000
     19      33.3410      0.00000
     20      34.9059      0.00000
     21      36.0341      0.00000
     22      39.8411      0.00000
     23      40.4286      0.00000
     24      40.9276      0.00000
     25      42.0423      0.00000
     26      42.0598      0.00000
     27      42.2354      0.00000
     28      48.4309      0.00000
     29      50.3876      0.00000
     30      50.4262      0.00000
     31      50.5380      0.00000
     32      54.6357      0.00000
     33      56.3297      0.00000
     34      57.2607      0.00000
     35      58.0043      0.00000
     36      59.5555      0.00000
     37      60.4712      0.00000
     38      63.7933      0.00000
     39      65.2872      0.00000
     40      66.0791      0.00000

 k-point     8 :       0.1818    0.0909    0.0000
  band No.  band energies     occupation 
      1      -0.0540      2.00000
      2       2.9588      2.00000
      3       3.6568      2.00000
      4       4.0781      2.00000
      5       4.8436      2.00000
      6       5.3766      2.00000
      7       5.5840      2.00000
      8       5.9074      2.00000
      9       6.3358      2.05968
     10       6.6309      0.95631
     11       7.3999     -0.00000
     12      11.5758     -0.00000
     13      14.1463      0.00000
     14      22.5835      0.00000
     15      25.1160      0.00000
     16      28.3771      0.00000
     17      30.5691      0.00000
     18      30.7221      0.00000
     19      33.7839      0.00000
     20      34.3767      0.00000
     21      35.0119      0.00000
     22      39.4114      0.00000
     23      39.8108      0.00000
     24      40.5340      0.00000
     25      43.7136      0.00000
     26      44.7744      0.00000
     27      46.5723      0.00000
     28      50.5246      0.00000
     29      52.8176      0.00000
     30      53.3821      0.00000
     31      53.3915      0.00000
     32      55.6080      0.00000
     33      56.5920      0.00000
     34      56.7694      0.00000
     35      57.9309      0.00000
     36      58.1511      0.00000
     37      61.2793      0.00000
     38      64.0522      0.00000
     39      65.4922      0.00000
     40      66.3564      0.00000

 k-point     9 :       0.2727    0.0909    0.0000
  band No.  band energies     occupation 
      1       1.2930      2.00000
      2       2.9380      2.00000
      3       3.0767      2.00000
      4       4.1269      2.00000
      5       4.8975      2.00000
      6       5.0533      2.00000
      7       5.5624      2.00000
      8       6.2999      2.04345
      9       7.0675     -0.00768
     10       7.3976     -0.00000
     11       7.5119     -0.00000
     12      13.6524      0.00000
     13      14.4907      0.00000
     14      18.9525      0.00000
     15      23.4515      0.00000
     16      25.0307      0.00000
     17      27.4232      0.00000
     18      29.3912      0.00000
     19      32.9619      0.00000
     20      34.0771      0.00000
     21      35.8253      0.00000
     22      39.1377      0.00000
     23      39.3515      0.00000
     24      41.9626      0.00000
     25      45.6170      0.00000
     26      48.4576      0.00000
     27      49.8915      0.00000
     28      50.4528      0.00000
     29      51.6213      0.00000
     30      54.1686      0.00000
     31      55.7055      0.00000
     32      56.7017      0.00000
     33      57.6191      0.00000
     34      58.4000      0.00000
     35      60.1573      0.00000
     36      62.0980      0.00000
     37      62.9581      0.00000
     38      63.8535      0.00000
     39      64.4673      0.00000
     40      66.3984      0.00000

 k-point    10 :       0.3636    0.0909    0.0000
  band No.  band energies     occupation 
      1       2.2035      2.00000
      2       2.6436      2.00000
      3       2.7319      2.00000
      4       4.4902      2.00000
      5       4.8644      2.00000
      6       5.2370      2.00000
      7       5.2558      2.00000
      8       7.1539     -0.00120
      9       7.3879     -0.00000
     10       7.5773     -0.00000
     11       8.6530     -0.00000
     12      13.6294      0.00000
     13      15.8506      0.00000
     14      17.5646      0.00000
     15      22.0738      0.00000
     16      22.1579      0.00000
     17      24.2398      0.00000
     18      28.5228      0.00000
     19      32.0064      0.00000
     20      33.5570      0.00000
     21      36.8678      0.00000
     22      39.5968      0.00000
     23      40.4377      0.00000
     24      41.7233      0.00000
     25      46.9843      0.00000
     26      48.3904      0.00000
     27      50.2615      0.00000
     28      52.1266      0.00000
     29      53.3850      0.00000
     30      55.8552      0.00000
     31      56.4827      0.00000
     32      58.2847      0.00000
     33      59.4155      0.00000
     34      61.3622      0.00000
     35      61.5976      0.00000
     36      62.6733      0.00000
     37      63.3174      0.00000
     38      64.2225      0.00000
     39      65.4573      0.00000
     40      65.7865      0.00000

 k-point    11 :       0.4545    0.0909    0.0000
  band No.  band energies     occupation 
      1       2.4165      2.00000
      2       2.5173      2.00000
      3       2.6190      2.00000
      4       4.8120      2.00000
      5       4.8374      2.00000
      6       5.1261      2.00000
      7       5.3496      2.00000
      8       7.3835     -0.00000
      9       7.6388     -0.00000
     10       7.6583     -0.00000
     11       9.8465     -0.00000
     12      11.9180     -0.00000
     13      17.3518      0.00000
     14      18.2392      0.00000
     15      20.3299      0.00000
     16      21.3449      0.00000
     17      22.8105      0.00000
     18      28.2198      0.00000
     19      31.6233      0.00000
[...]
     18      26.4294      0.00000
     19      31.5166      0.00000
     20      32.2920      0.00000
     21      35.3777      0.00000
     22      36.0216      0.00000
     23      40.8801      0.00000
     24      42.0769      0.00000
     25      47.6851      0.00000
     26      49.4459      0.00000
     27      51.3371      0.00000
     28      52.1453      0.00000
     29      54.9738      0.00000
     30      56.8239      0.00000
     31      58.2266      0.00000
     32      58.4603      0.00000
     33      60.7507      0.00000
     34      60.8713      0.00000
     35      61.9095      0.00000
     36      62.1067      0.00000
     37      63.5537      0.00000
     38      63.8933      0.00000
     39      65.2469      0.00000
     40      65.8269      0.00000

 k-point    91 :       0.4545    0.0909    0.4545
  band No.  band energies     occupation 
      1       2.0860      2.00000
      2       2.2260      2.00000
      3       3.4297      2.00000
      4       3.5244      2.00000
      5       5.5997      2.00000
      6       5.9919      2.00007
      7       6.6004      1.21205
      8       6.8873     -0.06901
      9       7.5180     -0.00000
     10       7.5320     -0.00000
     11       9.7829     -0.00000
     12      10.2589     -0.00000
     13      15.9561      0.00000
     14      15.9850      0.00000
     15      24.0878      0.00000
     16      24.8681      0.00000
     17      25.9814      0.00000
     18      26.4786      0.00000
     19      31.1768      0.00000
     20      31.4277      0.00000
     21      34.7835      0.00000
     22      34.9711      0.00000
     23      40.9506      0.00000
     24      42.1700      0.00000
     25      47.7946      0.00000
     26      49.5739      0.00000
     27      54.4678      0.00000
     28      55.4886      0.00000
     29      55.8497      0.00000
     30      56.4580      0.00000
     31      56.6705      0.00000
     32      57.5770      0.00000
     33      61.5385      0.00000
     34      61.7061      0.00000
     35      62.8577      0.00000
     36      62.9727      0.00000
     37      63.6281      0.00000
     38      63.7654      0.00000
     39      66.2698      0.00000
     40      66.4056      0.00000

 k-point    92 :       0.1818    0.1818    0.4545
  band No.  band energies     occupation 
      1       2.0432      2.00000
      2       2.3329      2.00000
      3       3.9347      2.00000
      4       4.0051      2.00000
      5       4.4388      2.00000
      6       4.5006      2.00000
      7       5.9375      2.00001
      8       6.1678      2.00563
      9       7.3218     -0.00001
     10       7.4364     -0.00000
     11       7.9014     -0.00000
     12       8.4196     -0.00000
     13      22.1401      0.00000
     14      22.2190      0.00000
     15      22.7080      0.00000
     16      23.6597      0.00000
     17      24.1417      0.00000
     18      25.3771      0.00000
     19      35.5597      0.00000
     20      36.5935      0.00000
     21      37.2492      0.00000
     22      38.2917      0.00000
     23      39.6941      0.00000
     24      39.8169      0.00000
     25      45.7180      0.00000
     26      46.1283      0.00000
     27      50.3435      0.00000
     28      51.0250      0.00000
     29      52.6461      0.00000
     30      53.8808      0.00000
     31      55.4668      0.00000
     32      55.9961      0.00000
     33      58.1353      0.00000
     34      58.2163      0.00000
     35      60.1168      0.00000
     36      60.4538      0.00000
     37      63.3659      0.00000
     38      64.3388      0.00000
     39      65.2612      0.00000
     40      65.6147      0.00000

 k-point    93 :       0.2727    0.1818    0.4545
  band No.  band energies     occupation 
      1       2.4619      2.00000
      2       2.5738      2.00000
      3       3.7691      2.00000
      4       3.9581      2.00000
      5       4.7147      2.00000
      6       4.8571      2.00000
      7       5.8641      2.00000
      8       6.0916      2.00105
      9       7.4165     -0.00000
     10       7.6523     -0.00000
     11       9.3246     -0.00000
     12       9.8411     -0.00000
     13      18.9565      0.00000
     14      19.5330      0.00000
     15      21.6413      0.00000
     16      22.3589      0.00000
     17      24.7270      0.00000
     18      26.4471      0.00000
     19      33.3567      0.00000
     20      34.9254      0.00000
     21      35.9458      0.00000
     22      37.3964      0.00000
     23      40.4054      0.00000
     24      40.8542      0.00000
     25      47.0747      0.00000
     26      47.5945      0.00000
     27      51.3894      0.00000
     28      53.1921      0.00000
     29      54.8852      0.00000
     30      56.7435      0.00000
     31      57.4802      0.00000
     32      58.3152      0.00000
     33      59.4203      0.00000
     34      59.6079      0.00000
     35      60.9604      0.00000
     36      61.1062      0.00000
     37      62.8306      0.00000
     38      64.1595      0.00000
     39      65.2305      0.00000
     40      65.5575      0.00000

 k-point    94 :       0.3636    0.1818    0.4545
  band No.  band energies     occupation 
      1       2.5222      2.00000
      2       2.6650      2.00000
      3       3.6713      2.00000
      4       3.8558      2.00000
      5       4.8343      2.00000
      6       5.1429      2.00000
      7       6.1706      2.00595
      8       6.2870      2.03769
      9       7.3853     -0.00000
     10       7.5451     -0.00000
     11      10.9859     -0.00000
     12      11.4152     -0.00000
     13      16.3948      0.00000
     14      16.7721      0.00000
     15      21.0343      0.00000
     16      21.7693      0.00000
     17      26.3183      0.00000
     18      27.4187      0.00000
     19      31.7407      0.00000
     20      32.8022      0.00000
     21      35.0017      0.00000
     22      36.4729      0.00000
     23      41.0679      0.00000
     24      41.4036      0.00000
     25      50.4599      0.00000
     26      51.1068      0.00000
     27      51.7045      0.00000
     28      53.3939      0.00000
     29      55.2213      0.00000
     30      55.8175      0.00000
     31      56.6052      0.00000
     32      58.2348      0.00000
     33      60.2847      0.00000
     34      60.7917      0.00000
     35      62.3578      0.00000
     36      62.8113      0.00000
     37      63.9868      0.00000
     38      64.1684      0.00000
     39      64.9709      0.00000
     40      65.3723      0.00000

 k-point    95 :       0.2727    0.2727    0.4545
  band No.  band energies     occupation 
      1       2.9087      2.00000
      2       2.9509      2.00000
      3       3.8527      2.00000
      4       4.0659      2.00000
      5       4.4213      2.00000
      6       4.6226      2.00000
      7       5.7840      2.00000
      8       5.9787      2.00005
      9       7.3982     -0.00000
     10       7.5709     -0.00000
     11      11.3897     -0.00000
     12      11.9094     -0.00000
     13      17.4891      0.00000
     14      17.9021      0.00000
     15      19.2134      0.00000
     16      19.5952      0.00000
     17      26.4584      0.00000
     18      28.0588      0.00000
     19      31.8561      0.00000
     20      33.2234      0.00000
     21      34.7982      0.00000
     22      35.8701      0.00000
     23      43.2589      0.00000
     24      43.6535      0.00000
     25      47.3262      0.00000
     26      47.4436      0.00000
     27      54.1893      0.00000
     28      54.8472      0.00000
     29      55.2595      0.00000
     30      56.3927      0.00000
     31      57.7694      0.00000
     32      58.0253      0.00000
     33      58.9091      0.00000
     34      59.1350      0.00000
     35      61.2038      0.00000
     36      62.1621      0.00000
     37      63.8971      0.00000
     38      63.9588      0.00000
     39      64.9276      0.00000
     40      65.0432      0.00000

 k-point    96 :       0.3636    0.2727    0.4545
  band No.  band energies     occupation 
      1       3.1051      2.00000
      2       3.2266      2.00000
      3       3.7860      2.00000
      4       3.8698      2.00000
      5       4.4357      2.00000
      6       4.5521      2.00000
      7       5.8444      2.00000
      8       5.9927      2.00007
      9       7.3738     -0.00000
     10       7.4373     -0.00000
     11      13.1794      0.00000
     12      13.3035      0.00000
     13      15.8415      0.00000
     14      16.1659      0.00000
     15      18.5704      0.00000
     16      19.0179      0.00000
     17      28.1439      0.00000
     18      28.8293      0.00000
     19      30.9454      0.00000
     20      31.3161      0.00000
     21      34.5236      0.00000
     22      35.3445      0.00000
     23      44.3963      0.00000
     24      45.0320      0.00000
     25      49.0415      0.00000
     26      49.4526      0.00000
     27      51.5591      0.00000
     28      51.9365      0.00000
     29      55.6082      0.00000
     30      56.9217      0.00000
     31      58.0213      0.00000
     32      59.2033      0.00000
     33      59.3092      0.00000
     34      59.9153      0.00000
     35      60.7047      0.00000
     36      61.7602      0.00000
     37      63.2471      0.00000
     38      63.7580      0.00000
     39      66.5661      0.00000
     40      66.5931      0.00000


--------------------------------------------------------------------------------------------------------


 soft charge-density along one line, spin component           1
         0         1         2         3         4         5         6         7         8         9
x     7.7700    0.0000    0.1139   -0.1972   -0.0613   -0.1062    0.0156    0.0000    0.0018   -0.0032
x     0.0000    0.0000
y     7.7700    0.0000    0.1139    0.1972   -0.0613    0.1062    0.0156   -0.0000    0.0018    0.0032
y     0.0000    0.0000
z     7.7700    0.0000    0.0000    0.0000    0.5085    0.0000    0.0000    0.0000   -0.1725   -0.0000
z     0.0000    0.0000    0.0164    0.0000    0.0000   -0.0000    0.0077   -0.0000    0.0000    0.0000
 total charge-density along one line
x    16.0000    0.0000    1.5168   -2.6272    0.3240    0.5612    0.0441    0.0000    0.0003   -0.0005
x     0.0005    0.0008   -0.0009    0.0000    0.0001   -0.0002   -0.0001   -0.0001    0.0002   -0.0000
x    -0.0000    0.0000
y    16.0000    0.0000    1.5168    2.6272    0.3240   -0.5612    0.0441   -0.0000    0.0003    0.0005
y     0.0005   -0.0008   -0.0009   -0.0000    0.0001    0.0002   -0.0001    0.0001    0.0002    0.0000
y    -0.0000   -0.0000
z    16.0000    0.0000   -0.0000    0.0000    6.1474   -0.0000   -0.0000    0.0000    1.3997   -0.0000
z    -0.0000   -0.0000    0.0538   -0.0000   -0.0000   -0.0000    0.0017   -0.0000   -0.0000   -0.0000
z     0.0025   -0.0000    0.0000   -0.0000   -0.0011   -0.0000    0.0000   -0.0000    0.0006   -0.0000
z     0.0000    0.0000   -0.0004    0.0000   -0.0000    0.0000    0.0004   -0.0000
 
 pseudopotential strength for first ion, spin component:           1
 -4.593  -0.000  -0.000   0.000  -0.000  -5.152  -0.000  -0.000
 -0.000  -4.589  -0.000  -0.000  -0.000  -0.000  -5.148  -0.000
 -0.000  -0.000  -4.597   0.000  -0.000  -0.000  -0.000  -5.156
  0.000  -0.000   0.000  -4.589   0.000   0.000  -0.000   0.000
 -0.000  -0.000  -0.000   0.000  -4.593  -0.000  -0.000  -0.000
 -5.152  -0.000  -0.000   0.000  -0.000  -5.669  -0.000  -0.000
 -0.000  -5.148  -0.000  -0.000  -0.000  -0.000  -5.665  -0.000
 -0.000  -0.000  -5.156   0.000  -0.000  -0.000  -0.000  -5.673
  0.000  -0.000   0.000  -5.148   0.000   0.000  -0.000   0.000
 -0.000  -0.000  -0.000   0.000  -5.152  -0.000  -0.000  -0.000
  0.000  -0.000   0.001   0.000  -0.000   0.000  -0.000   0.001
  0.000  -0.000   0.002   0.000  -0.000   0.000  -0.000   0.002
 -0.000   0.000   0.000  -0.000  -0.001  -0.000   0.000   0.000
 -0.000  -0.000   0.000   0.000   0.000  -0.000  -0.000   0.000
 -0.001  -0.000   0.000   0.000  -0.000  -0.001  -0.000   0.000
 -0.000   0.000   0.000  -0.000  -0.001  -0.000   0.000   0.000
 -0.000  -0.000   0.000   0.000   0.000  -0.000  -0.000   0.000
 -0.001  -0.000   0.000   0.000  -0.000  -0.001  -0.000   0.000
 total augmentation occupancy for first ion, spin component:           1
  1.583   0.000   0.000   0.000  -0.000  -0.862   0.000  -0.000   0.000   0.000   0.000  -0.000   0.000   0.000   0.032  -0.000
 -0.000   2.010   0.000  -0.000   0.000   0.000  -1.080   0.000   0.000   0.000  -0.000  -0.000   0.000   0.000   0.000   0.000
  0.000  -0.000   1.304   0.000  -0.000  -0.000   0.000  -0.639  -0.000   0.000   0.026  -0.009  -0.000   0.000   0.000   0.000
  0.000  -0.000  -0.000   2.010  -0.000   0.000   0.000  -0.000  -1.080   0.000   0.000   0.000  -0.000   0.000   0.000   0.000
 -0.000  -0.000  -0.000   0.000   1.583   0.000   0.000   0.000  -0.000  -0.862  -0.000   0.000   0.032   0.000  -0.000  -0.002
 -0.862   0.000  -0.000   0.000   0.000   1.504   0.000   0.000   0.000  -0.000  -0.000   0.000  -0.000   0.000  -0.047   0.000
  0.000  -1.080  -0.000   0.000   0.000   0.000   1.488   0.000  -0.000   0.000  -0.000   0.000  -0.000  -0.000   0.000   0.000
 -0.000   0.000  -0.639  -0.000   0.000   0.000   0.000   1.321   0.000  -0.000  -0.093   0.009   0.000   0.000  -0.000  -0.000
  0.000   0.000   0.000  -1.080   0.000   0.000  -0.000   0.000   1.488   0.000   0.000   0.000   0.000  -0.000   0.000   0.000
  0.000   0.000   0.000   0.000  -0.862  -0.000   0.000  -0.000   0.000   1.504   0.000  -0.000  -0.047   0.000   0.000   0.003
  0.000   0.000   0.026   0.000  -0.000  -0.000   0.000  -0.093   0.000   0.000   2.591  -0.294   0.000   0.000   0.000   0.000
 -0.000  -0.000  -0.009   0.000   0.000   0.000   0.000   0.009   0.000  -0.000  -0.294   0.038   0.000   0.000   0.000  -0.000
  0.000   0.000  -0.000  -0.000   0.032  -0.000  -0.000   0.000   0.000  -0.047   0.000   0.000   0.338   0.000  -0.000  -0.028
  0.000  -0.000   0.000   0.000   0.000   0.000  -0.000   0.000  -0.000  -0.000   0.000   0.000  -0.000   0.318  -0.000  -0.000
  0.032   0.000   0.000   0.000  -0.000  -0.047   0.000  -0.000   0.000   0.000  -0.000   0.000  -0.000   0.000   0.338   0.000
 -0.000   0.000   0.000   0.000  -0.002   0.000   0.000  -0.000   0.000   0.003   0.000   0.000  -0.028   0.000   0.000   0.003
  0.000   0.000   0.000   0.000  -0.000   0.000  -0.000   0.000  -0.000  -0.000   0.000   0.000   0.000  -0.028  -0.000  -0.000
 -0.002  -0.000  -0.000   0.000   0.000   0.003   0.000   0.000  -0.000  -0.000   0.000   0.000   0.000   0.000  -0.028  -0.000


------------------------ aborting loop because EDIFF is reached ----------------------------------------


    CHARGE:  cpu time    0.0195: real time    0.0195
    FORLOC:  cpu time    0.0002: real time    0.0002
    FORNL :  cpu time    0.0996: real time    0.0996
    STRESS:  cpu time    0.1546: real time    0.1546
    FORCOR:  cpu time    0.0035: real time    0.0035
    FORHAR:  cpu time    0.0008: real time    0.0008
    MIXING:  cpu time    0.0002: real time    0.0002

  FORCE on cell =-STRESS in cart. coord.  units (eV):
  Direction    XX          YY          ZZ          XY          YZ          ZX
  --------------------------------------------------------------------------------------
  Alpha Z   132.57188   132.57188   132.57188
  Ewald    -393.80228  -393.80228  -430.02659     0.00000     0.00000     0.00000
  Hartree    63.44359    63.44360    49.49001    -0.00000    -0.00000    -0.00000
  E(xc)     -78.34497   -78.34507   -78.13273     0.00033    -0.00000     0.00000
  Local     104.79829   104.79854   153.30220    -0.00094     0.00000     0.00000
  n-local   -53.36325   -52.57476   -54.83906    -3.60137     1.43204     0.95627
  augment    75.89742    75.89659    76.05205     0.00133     0.00000    -0.00000
  Kinetic   152.38155   146.17097   147.26927     1.25036    -0.99659     0.15861
  Fock        0.00000     0.00000     0.00000     0.00000     0.00000     0.00000
  -------------------------------------------------------------------------------------
  Total       0.87085     0.87085    -4.31297    -0.00000     0.00000     0.00000
  in kB      66.90813    66.90813  -331.37067    -0.00000     0.00000     0.00000
  external pressure =      -65.85 kB  Pullay stress =        0.00 kB


 VOLUME and BASIS-vectors are now :
 -----------------------------------------------------------------------------
  energy-cutoff  :      280.00
  volume of cell :       20.85
      direct lattice vectors                 reciprocal lattice vectors
     2.399900000  0.000000000  0.000000000     0.416684029  0.240572636  0.000000000
    -1.199950000  2.078374367  0.000000000     0.000000000  0.481145272  0.000000000
     0.000000000  0.000000000  4.180770000     0.000000000  0.000000000  0.239190388

  length of vectors
     2.399900000  2.399900000  4.180770000     0.481145272  0.481145272  0.239190388


 FORCES acting on ions
    electron-ion (+dipol)            ewald-force                    non-local-force                 convergence-correction
 -----------------------------------------------------------------------------------------------
   0.452E-06 -.139E-05 0.737E-14   0.605E-12 -.351E-12 -.225E-13   0.951E-17 -.167E-17 -.550E-19   -.513E-08 0.281E-08 -.123E-13
   0.481E-05 0.745E-05 0.254E-12   -.610E-12 0.347E-12 0.225E-13   -.181E-16 0.225E-17 -.866E-19   0.521E-08 -.286E-08 0.968E-14
 -----------------------------------------------------------------------------------------------
   0.526E-05 0.605E-05 0.261E-12   -.506E-14 -.420E-14 -.826E-19   -.855E-17 0.586E-18 -.142E-18   0.814E-10 -.465E-10 -.265E-14
 
 
 POSITION                                       TOTAL-FORCE (eV/Angst)
 -----------------------------------------------------------------------------------
      0.00000      0.00000      0.00000        -0.000000     -0.000000     -0.000000
      0.00000      1.38558      2.09038         0.000000      0.000000      0.000000
 -----------------------------------------------------------------------------------
    total drift:                                0.000005      0.000006      0.000000


--------------------------------------------------------------------------------------------------------



  FREE ENERGIE OF THE ION-ELECTRON SYSTEM (eV)
  ---------------------------------------------------
  free  energy   TOTEN  =       -16.13689170 eV

  energy  without entropy=      -16.13948082  energy(sigma->0) =      -16.13775474
 


--------------------------------------------------------------------------------------------------------


    POTLOK:  cpu time    0.0055: real time    0.0055


--------------------------------------------------------------------------------------------------------


 writing wavefunctions
     LOOP+:  cpu time   10.2539: real time   10.2763
    4ORBIT:  cpu time    0.0000: real time    0.0000

 total amount of memory used by VASP MPI-rank0    51501. kBytes
=======================================================================

   base      :      30000. kBytes
   nonl-proj :       3394. kBytes
   grid      :        812. kBytes
   one-center:         31. kBytes
   wavefun   :      17264. kBytes
 
  
  
 General timing and accounting informations for this job:
 ========================================================
  
                  Total CPU time used (sec):       10.435
                            User time (sec):       10.367
                          System time (sec):        0.068
                         Elapsed time (sec):       10.446
  
                   Maximum memory used (kb):       55740.
                   Average memory used (kb):          N/A
  
                          Minor page faults:         7691
                          Major page faults:            0
                 Voluntary context switches:           26
