unknown system                          
           1
     2.399900    0.000000    0.000000
    -1.199950    2.078374    0.000000
     0.000000    0.000000    4.180770
   Fe
     2
Direct configuration=     1
   0.00000000  0.00000000  0.00000000
   0.33333333  0.66666667  0.50000000
