unknown system                          
   1.00000000000000     
     3.445083    0.000000    0.000000
     0.000000    3.445083    0.000000
     0.000000    0.000000    3.445083
   Fe
     4
Direct
  0.000000  0.000000  0.000000
  0.500000  0.500000  0.000000
  0.500000  0.000000  0.500000
  0.000000  0.500000  0.500000
 
   28   28   28
  343.14      323.16      270.17      200.80      132.52      77.397      40.804      22.172      15.664      13.032    
  11.393      10.334      9.7255      9.5457      9.5466      9.5457      9.7255      10.334      11.393      13.032    
  15.664      22.172      40.804      77.397      132.52      200.80      270.17      323.16      323.16      304.30    
  254.29      188.82      124.44      72.670      38.594      21.496      15.575      13.019      11.417      10.372    
  9.7587      9.5576      9.5457      9.5576      9.7587      10.372      11.417      13.019      15.575      21.496    
  38.594      72.670      124.44      188.82      254.29      304.30      270.17      254.29      212.17      157.07    
  103.14      60.369      32.990      19.874      15.350      13.009      11.538      10.572      9.9845      9.7587    
  9.7255      9.7587      9.9845      10.572      11.538      13.009      15.350      19.874      32.990      60.369    
  103.14      157.07      212.17      254.29      200.80      188.82      157.07      115.72      75.794      45.041    
  26.410      18.175      15.045      13.061      11.837      11.049      10.572      10.372      10.334      10.372    
  10.572      11.049      11.837      13.061      15.045      18.175      26.410      45.041      75.794      115.72    
  157.07      188.82      132.52      124.44      103.14      75.794      50.149      31.469      21.174      16.985    
  14.742      13.242      12.362      11.837      11.538      11.417      11.393      11.417      11.538      11.837    
  12.362      13.242      14.742      16.985      21.174      31.469      50.149      75.794      103.14      124.44    
  77.397      72.670      60.369      45.041      31.469      22.520      18.210      16.114      14.587      13.680    
  13.242      13.061      13.009      13.019      13.032      13.019      13.009      13.061      13.242      13.680    
  14.587      16.114      18.210      22.520      31.469      45.041      60.369      72.670      40.804      38.594    
  32.990      26.410      21.174      18.210      16.639      15.455      14.772      14.587      14.742      15.045    
  15.350      15.575      15.664      15.575      15.350      15.045      14.742      14.587      14.772      15.455    
  16.639      18.210      21.174      26.410      32.990      38.594      22.172      21.496      19.874      18.175    
  16.985      16.114      15.455      15.208      15.455      16.114      16.985      18.175      19.874      21.496    
  22.172      21.496      19.874      18.175      16.985      16.114      15.455      15.208      15.455      16.114    
  16.985      18.175      19.874      21.496      15.664      15.575      15.350      15.045      14.742      14.587    
  14.772      15.455      16.639      18.210      21.174      26.410      32.990      38.594      40.804      38.594    
  32.990      26.410      21.174      18.210      16.639      15.455      14.772      14.587      14.742      15.045    
  15.350      15.575      13.032      13.019      13.009      13.061      13.242      13.680      14.587      16.114    
  18.210      22.520      31.469      45.041      60.369      72.670      77.397      72.670      60.369      45.041    
  31.469      22.520      18.210      16.114      14.587      13.680      13.242      13.061      13.009      13.019    
  11.393      11.417      11.538      11.837      12.362      13.242      14.742      16.985      21.174      31.469    
  50.149      75.794      103.14      124.44      132.52      124.44      103.14      75.794      50.149      31.469    
  21.174      16.985      14.742      13.242      12.362      11.837      11.538      11.417      10.334      10.372    
  10.572      11.049      11.837      13.061      15.045      18.175      26.410      45.041      75.794      115.72    
  157.07      188.82      200.80      188.82      157.07      115.72      75.794      45.041      26.410      18.175    
  15.045      13.061      11.837      11.049      10.572      10.372      9.7255      9.7587      9.9845      10.572    
  11.538      13.009      15.350      19.874      32.990      60.369      103.14      157.07      212.17      254.29    
  270.17      254.29      212.17      157.07      103.14      60.369      32.990      19.874      15.350      13.009    
  11.538      10.572      9.9845      9.7587      9.5457      9.5576      9.7587      10.372      11.417      13.019    
  15.575      21.496      38.594      72.670      124.44      188.82      254.29      304.30      323.16      304.30    
  254.29      188.82      124.44      72.670      38.594      21.496      15.575      13.019      11.417      10.372    
  9.7587      9.5576      9.5466      9.5457      9.7255      10.334      11.393      13.032      15.664      22.172    
  40.804      77.397      132.52      200.80      270.17      323.16      343.14      323.16      270.17      200.80    
  132.52      77.397      40.804      22.172      15.664      13.032      11.393      10.334      9.7255      9.5457    
  9.5457      9.5576      9.7587      10.372      11.417      13.019      15.575      21.496      38.594      72.670    
  124.44      188.82      254.29      304.30      323.16      304.30      254.29      188.82      124.44      72.670    
  38.594      21.496      15.575      13.019      11.417      10.372      9.7587      9.5576      9.7255      9.7587    
  9.9845      10.572      11.538      13.009      15.350      19.874      32.990      60.369      103.14      157.07    
  212.17      254.29      270.17      254.29      212.17      157.07      103.14      60.369      32.990      19.874    
  15.350      13.009      11.538      10.572      9.9845      9.7587      10.334      10.372      10.572      11.049    
  11.837      13.061      15.045      18.175      26.410      45.041      75.794      115.72      157.07      188.82    
  200.80      188.82      157.07      115.72      75.794      45.041      26.410      18.175      15.045      13.061    
  11.837      11.049      10.572      10.372      11.393      11.417      11.538      11.837      12.362      13.242    
  14.742      16.985      21.174      31.469      50.149      75.794      103.14      124.44      132.52      124.44    
  103.14      75.794      50.149      31.469      21.174      16.985      14.742      13.242      12.362      11.837    
  11.538      11.417      13.032      13.019      13.009      13.061      13.242      13.680      14.587      16.114    
  18.210      22.520      31.469      45.041      60.369      72.670      77.397      72.670      60.369      45.041    
  31.469      22.520      18.210      16.114      14.587      13.680      13.242      13.061      13.009      13.019    
  15.664      15.575      15.350      15.045      14.742      14.587      14.772      15.455      16.639      18.210    
  21.174      26.410      32.990      38.594      40.804      38.594      32.990      26.410      21.174      18.210    
  16.639      15.455      14.772      14.587      14.742      15.045      15.350      15.575      22.172      21.496    
  19.874      18.175      16.985      16.114      15.455      15.208      15.455      16.114      16.985      18.175    
  19.874      21.496      22.172      21.496      19.874      18.175      16.985      16.114      15.455      15.208    
  15.455      16.114      16.985      18.175      19.874      21.496      40.804      38.594      32.990      26.410    
  21.174      18.210      16.639      15.455      14.772      14.587      14.742      15.045      15.350      15.575    
  15.664      15.575      15.350      15.045      14.742      14.587      14.772      15.455      16.639      18.210    
  21.174      26.410      32.990      38.594      77.397      72.670      60.369      45.041      31.469      22.520    
  18.210      16.114      14.587      13.680      13.242      13.061      13.009      13.019      13.032      13.019    
  13.009      13.061      13.242      13.680      14.587      16.114      18.210      22.520      31.469      45.041    
  60.369      72.670      132.52      124.44      103.14      75.794      50.149      31.469      21.174      16.985    
  14.742      13.242      12.362      11.837      11.538      11.417      11.393      11.417      11.538      11.837    
  12.362      13.242      14.742      16.985      21.174      31.469      50.149      75.794      103.14      124.44    
  200.80      188.82      157.07      115.72      75.794      45.041      26.410      18.175      15.045      13.061    
  11.837      11.049      10.572      10.372      10.334      10.372      10.572      11.049      11.837      13.061    
  15.045      18.175      26.410      45.041      75.794      115.72      157.07      188.82      270.17      254.29    
  212.17      157.07      103.14      60.369      32.990      19.874      15.350      13.009      11.538      10.572    
  9.9845      9.7587      9.7255      9.7587      9.9845      10.572      11.538      13.009      15.350      19.874    
  32.990      60.369      103.14      157.07      212.17      254.29      323.16      304.30      254.29      188.82    
  124.44      72.670      38.594      21.496      15.575      13.019      11.417      10.372      9.7587      9.5576    
  9.5457      9.5576      9.7587      10.372      11.417      13.019      15.575      21.496      38.594      72.670    
  124.44      188.82      254.29      304.30      323.16      304.30      254.29      188.82      124.44      72.670    
  38.594      21.496      15.575      13.019      11.417      10.372      9.7587      9.5576      9.5457      9.5576    
  9.7587      10.372      11.417      13.019      15.575      21.496      38.594      72.670      124.44      188.82    
  254.29      304.30      304.30      286.51      239.31      177.52      116.85      68.254      36.554      20.887    
  15.490      13.007      11.444      10.416      9.8002      9.5807      9.5576      9.5807      9.8002      10.416    
  11.444      13.007      15.490      20.887      36.554      68.254      116.85      177.52      239.31      286.51    
  254.29      239.31      199.57      147.60      96.843      56.781      31.395      19.427      15.268      12.998    
  11.569      10.623      10.038      9.8002      9.7587      9.8002      10.038      10.623      11.569      12.998    
  15.268      19.427      31.395      56.781      96.843      147.60      199.57      239.31      188.82      177.52    
  147.60      108.68      71.208      42.534      25.371      17.903      14.959      13.046      11.862      11.096    
  10.623      10.416      10.372      10.416      10.623      11.096      11.862      13.046      14.959      17.903    
  25.371      42.534      71.208      108.68      147.60      177.52      124.44      116.85      96.843      71.208    
  47.283      30.006      20.622      16.813      14.655      13.216      12.370      11.862      11.569      11.444    
  11.417      11.444      11.569      11.862      12.370      13.216      14.655      16.813      20.622      30.006    
  47.283      71.208      96.843      116.85      72.670      68.254      56.781      42.534      30.006      21.841    
  17.948      15.956      14.494      13.631      13.216      13.046      12.998      13.007      13.019      13.007    
  12.998      13.046      13.216      13.631      14.494      15.956      17.948      21.841      30.006      42.534    
  56.781      68.254      38.594      36.554      31.395      25.371      20.622      17.948      16.453      15.311    
  14.662      14.494      14.655      14.959      15.268      15.490      15.575      15.490      15.268      14.959    
  14.655      14.494      14.662      15.311      16.453      17.948      20.622      25.371      31.395      36.554    
  21.496      20.887      19.427      17.903      16.813      15.956      15.311      15.071      15.311      15.956    
  16.813      17.903      19.427      20.887      21.496      20.887      19.427      17.903      16.813      15.956    
  15.311      15.071      15.311      15.956      16.813      17.903      19.427      20.887      15.575      15.490    
  15.268      14.959      14.655      14.494      14.662      15.311      16.453      17.948      20.622      25.371    
  31.395      36.554      38.594      36.554      31.395      25.371      20.622      17.948      16.453      15.311    
  14.662      14.494      14.655      14.959      15.268      15.490      13.019      13.007      12.998      13.046    
  13.216      13.631      14.494      15.956      17.948      21.841      30.006      42.534      56.781      68.254    
  72.670      68.254      56.781      42.534      30.006      21.841      17.948      15.956      14.494      13.631    
  13.216      13.046      12.998      13.007      11.417      11.444      11.569      11.862      12.370      13.216    
  14.655      16.813      20.622      30.006      47.283      71.208      96.843      116.85      124.44      116.85    
  96.843      71.208      47.283      30.006      20.622      16.813      14.655      13.216      12.370      11.862    
  11.569      11.444      10.372      10.416      10.623      11.096      11.862      13.046      14.959      17.903    
  25.371      42.534      71.208      108.68      147.60      177.52      188.82      177.52      147.60      108.68    
  71.208      42.534      25.371      17.903      14.959      13.046      11.862      11.096      10.623      10.416    
  9.7587      9.8002      10.038      10.623      11.569      12.998      15.268      19.427      31.395      56.781    
  96.843      147.60      199.57      239.31      254.29      239.31      199.57      147.60      96.843      56.781    
  31.395      19.427      15.268      12.998      11.569      10.623      10.038      9.8002      9.5576      9.5807    
  9.8002      10.416      11.444      13.007      15.490      20.887      36.554      68.254      116.85      177.52    
  239.31      286.51      304.30      286.51      239.31      177.52      116.85      68.254      36.554      20.887    
  15.490      13.007      11.444      10.416      9.8002      9.5807      9.5457      9.5576      9.7587      10.372    
  11.417      13.019      15.575      21.496      38.594      72.670      124.44      188.82      254.29      304.30    
  323.16      304.30      254.29      188.82      124.44      72.670      38.594      21.496      15.575      13.019    
  11.417      10.372      9.7587      9.5576      9.5576      9.5807      9.8002      10.416      11.444      13.007    
  15.490      20.887      36.554      68.254      116.85      177.52      239.31      286.51      304.30      286.51    
  239.31      177.52      116.85      68.254      36.554      20.887      15.490      13.007      11.444      10.416    
  9.8002      9.5807      9.7587      9.8002      10.038      10.623      11.569      12.998      15.268      19.427    
  31.395      56.781      96.843      147.60      199.57      239.31      254.29      239.31      199.57      147.60    
  96.843      56.781      31.395      19.427      15.268      12.998      11.569      10.623      10.038      9.8002    
  10.372      10.416      10.623      11.096      11.862      13.046      14.959      17.903      25.371      42.534    
  71.208      108.68      147.60      177.52      188.82      177.52      147.60      108.68      71.208      42.534    
  25.371      17.903      14.959      13.046      11.862      11.096      10.623      10.416      11.417      11.444    
  11.569      11.862      12.370      13.216      14.655      16.813      20.622      30.006      47.283      71.208    
  96.843      116.85      124.44      116.85      96.843      71.208      47.283      30.006      20.622      16.813    
  14.655      13.216      12.370      11.862      11.569      11.444      13.019      13.007      12.998      13.046    
  13.216      13.631      14.494      15.956      17.948      21.841      30.006      42.534      56.781      68.254    
  72.670      68.254      56.781      42.534      30.006      21.841      17.948      15.956      14.494      13.631    
  13.216      13.046      12.998      13.007      15.575      15.490      15.268      14.959      14.655      14.494    
  14.662      15.311      16.453      17.948      20.622      25.371      31.395      36.554      38.594      36.554    
  31.395      25.371      20.622      17.948      16.453      15.311      14.662      14.494      14.655      14.959    
  15.268      15.490      21.496      20.887      19.427      17.903      16.813      15.956      15.311      15.071    
  15.311      15.956      16.813      17.903      19.427      20.887      21.496      20.887      19.427      17.903    
  16.813      15.956      15.311      15.071      15.311      15.956      16.813      17.903      19.427      20.887    
  38.594      36.554      31.395      25.371      20.622      17.948      16.453      15.311      14.662      14.494    
  14.655      14.959      15.268      15.490      15.575      15.490      15.268      14.959      14.655      14.494    
  14.662      15.311      16.453      17.948      20.622      25.371      31.395      36.554      72.670      68.254    
  56.781      42.534      30.006      21.841      17.948      15.956      14.494      13.631      13.216      13.046    
  12.998      13.007      13.019      13.007      12.998      13.046      13.216      13.631      14.494      15.956    
  17.948      21.841      30.006      42.534      56.781      68.254      124.44      116.85      96.843      71.208    
  47.283      30.006      20.622      16.813      14.655      13.216      12.370      11.862      11.569      11.444    
  11.417      11.444      11.569      11.862      12.370      13.216      14.655      16.813      20.622      30.006    
  47.283      71.208      96.843      116.85      188.82      177.52      147.60      108.68      71.208      42.534    
  25.371      17.903      14.959      13.046      11.862      11.096      10.623      10.416      10.372      10.416    
  10.623      11.096      11.862      13.046      14.959      17.903      25.371      42.534      71.208      108.68    
  147.60      177.52      254.29      239.31      199.57      147.60      96.843      56.781      31.395      19.427    
  15.268      12.998      11.569      10.623      10.038      9.8002      9.7587      9.8002      10.038      10.623    
  11.569      12.998      15.268      19.427      31.395      56.781      96.843      147.60      199.57      239.31    
  304.30      286.51      239.31      177.52      116.85      68.254      36.554      20.887      15.490      13.007    
  11.444      10.416      9.8002      9.5807      9.5576      9.5807      9.8002      10.416      11.444      13.007    
  15.490      20.887      36.554      68.254      116.85      177.52      239.31      286.51      270.17      254.29    
  212.17      157.07      103.14      60.369      32.990      19.874      15.350      13.009      11.538      10.572    
  9.9845      9.7587      9.7255      9.7587      9.9845      10.572      11.538      13.009      15.350      19.874    
  32.990      60.369      103.14      157.07      212.17      254.29      254.29      239.31      199.57      147.60    
  96.843      56.781      31.395      19.427      15.268      12.998      11.569      10.623      10.038      9.8002    
  9.7587      9.8002      10.038      10.623      11.569      12.998      15.268      19.427      31.395      56.781    
  96.843      147.60      199.57      239.31      212.17      199.57      166.15      122.55      80.295      47.504    
  27.393      18.364      15.041      12.987      11.692      10.830      10.283      10.038      9.9845      10.038    
  10.283      10.830      11.692      12.987      15.041      18.364      27.393      47.504      80.295      122.55    
  166.15      199.57      157.07      147.60      122.55      90.131      59.250      36.122      22.802      17.247    
  14.728      13.019      11.959      11.268      10.830      10.623      10.572      10.623      10.830      11.268    
  11.959      13.019      14.728      17.247      22.802      36.122      59.250      90.131      122.55      147.60    
  103.14      96.843      80.295      59.250      39.907      26.333      19.280      16.347      14.421      13.155    
  12.410      11.959      11.692      11.569      11.538      11.569      11.692      11.959      12.410      13.155    
  14.421      16.347      19.280      26.333      39.907      59.250      80.295      96.843      60.369      56.781    
  47.504      36.122      26.333      20.181      17.286      15.531      14.249      13.506      13.155      13.019    
  12.987      12.998      13.009      12.998      12.987      13.019      13.155      13.506      14.249      15.531    
  17.286      20.181      26.333      36.122      47.504      56.781      32.990      31.395      27.393      22.802    
  19.280      17.286      15.950      14.932      14.374      14.249      14.421      14.728      15.041      15.268    
  15.350      15.268      15.041      14.728      14.421      14.249      14.374      14.932      15.950      17.286    
  19.280      22.802      27.393      31.395      19.874      19.427      18.364      17.247      16.347      15.531    
  14.932      14.712      14.932      15.531      16.347      17.247      18.364      19.427      19.874      19.427    
  18.364      17.247      16.347      15.531      14.932      14.712      14.932      15.531      16.347      17.247    
  18.364      19.427      15.350      15.268      15.041      14.728      14.421      14.249      14.374      14.932    
  15.950      17.286      19.280      22.802      27.393      31.395      32.990      31.395      27.393      22.802    
  19.280      17.286      15.950      14.932      14.374      14.249      14.421      14.728      15.041      15.268    
  13.009      12.998      12.987      13.019      13.155      13.506      14.249      15.531      17.286      20.181    
  26.333      36.122      47.504      56.781      60.369      56.781      47.504      36.122      26.333      20.181    
  17.286      15.531      14.249      13.506      13.155      13.019      12.987      12.998      11.538      11.569    
  11.692      11.959      12.410      13.155      14.421      16.347      19.280      26.333      39.907      59.250    
  80.295      96.843      103.14      96.843      80.295      59.250      39.907      26.333      19.280      16.347    
  14.421      13.155      12.410      11.959      11.692      11.569      10.572      10.623      10.830      11.268    
  11.959      13.019      14.728      17.247      22.802      36.122      59.250      90.131      122.55      147.60    
  157.07      147.60      122.55      90.131      59.250      36.122      22.802      17.247      14.728      13.019    
  11.959      11.268      10.830      10.623      9.9845      10.038      10.283      10.830      11.692      12.987    
  15.041      18.364      27.393      47.504      80.295      122.55      166.15      199.57      212.17      199.57    
  166.15      122.55      80.295      47.504      27.393      18.364      15.041      12.987      11.692      10.830    
  10.283      10.038      9.7587      9.8002      10.038      10.623      11.569      12.998      15.268      19.427    
  31.395      56.781      96.843      147.60      199.57      239.31      254.29      239.31      199.57      147.60    
  96.843      56.781      31.395      19.427      15.268      12.998      11.569      10.623      10.038      9.8002    
  9.7255      9.7587      9.9845      10.572      11.538      13.009      15.350      19.874      32.990      60.369    
  103.14      157.07      212.17      254.29      270.17      254.29      212.17      157.07      103.14      60.369    
  32.990      19.874      15.350      13.009      11.538      10.572      9.9845      9.7587      9.7587      9.8002    
  10.038      10.623      11.569      12.998      15.268      19.427      31.395      56.781      96.843      147.60    
  199.57      239.31      254.29      239.31      199.57      147.60      96.843      56.781      31.395      19.427    
  15.268      12.998      11.569      10.623      10.038      9.8002      9.9845      10.038      10.283      10.830    
  11.692      12.987      15.041      18.364      27.393      47.504      80.295      122.55      166.15      199.57    
  212.17      199.57      166.15      122.55      80.295      47.504      27.393      18.364      15.041      12.987    
  11.692      10.830      10.283      10.038      10.572      10.623      10.830      11.268      11.959      13.019    
  14.728      17.247      22.802      36.122      59.250      90.131      122.55      147.60      157.07      147.60    
  122.55      90.131      59.250      36.122      22.802      17.247      14.728      13.019      11.959      11.268    
  10.830      10.623      11.538      11.569      11.692      11.959      12.410      13.155      14.421      16.347    
  19.280      26.333      39.907      59.250      80.295      96.843      103.14      96.843      80.295      59.250    
  39.907      26.333      19.280      16.347      14.421      13.155      12.410      11.959      11.692      11.569    
  13.009      12.998      12.987      13.019      13.155      13.506      14.249      15.531      17.286      20.181    
  26.333      36.122      47.504      56.781      60.369      56.781      47.504      36.122      26.333      20.181    
  17.286      15.531      14.249      13.506      13.155      13.019      12.987      12.998      15.350      15.268    
  15.041      14.728      14.421      14.249      14.374      14.932      15.950      17.286      19.280      22.802    
  27.393      31.395      32.990      31.395      27.393      22.802      19.280      17.286      15.950      14.932    
  14.374      14.249      14.421      14.728      15.041      15.268      19.874      19.427      18.364      17.247    
  16.347      15.531      14.932      14.712      14.932      15.531      16.347      17.247      18.364      19.427    
  19.874      19.427      18.364      17.247      16.347      15.531      14.932      14.712      14.932      15.531    
  16.347      17.247      18.364      19.427      32.990      31.395      27.393      22.802      19.280      17.286    
  15.950      14.932      14.374      14.249      14.421      14.728      15.041      15.268      15.350      15.268    
  15.041      14.728      14.421      14.249      14.374      14.932      15.950      17.286      19.280      22.802    
  27.393      31.395      60.369      56.781      47.504      36.122      26.333      20.181      17.286      15.531    
  14.249      13.506      13.155      13.019      12.987      12.998      13.009      12.998      12.987      13.019    
  13.155      13.506      14.249      15.531      17.286      20.181      26.333      36.122      47.504      56.781    
  103.14      96.843      80.295      59.250      39.907      26.333      19.280      16.347      14.421      13.155    
  12.410      11.959      11.692      11.569      11.538      11.569      11.692      11.959      12.410      13.155    
  14.421      16.347      19.280      26.333      39.907      59.250      80.295      96.843      157.07      147.60    
  122.55      90.131      59.250      36.122      22.802      17.247      14.728      13.019      11.959      11.268    
  10.830      10.623      10.572      10.623      10.830      11.268      11.959      13.019      14.728      17.247    
  22.802      36.122      59.250      90.131      122.55      147.60      212.17      199.57      166.15      122.55    
  80.295      47.504      27.393      18.364      15.041      12.987      11.692      10.830      10.283      10.038    
  9.9845      10.038      10.283      10.830      11.692      12.987      15.041      18.364      27.393      47.504    
  80.295      122.55      166.15      199.57      254.29      239.31      199.57      147.60      96.843      56.781    
  31.395      19.427      15.268      12.998      11.569      10.623      10.038      9.8002      9.7587      9.8002    
  10.038      10.623      11.569      12.998      15.268      19.427      31.395      56.781      96.843      147.60    
  199.57      239.31      200.80      188.82      157.07      115.72      75.794      45.041      26.410      18.175    
  15.045      13.061      11.837      11.049      10.572      10.372      10.334      10.372      10.572      11.049    
  11.837      13.061      15.045      18.175      26.410      45.041      75.794      115.72      157.07      188.82    
  188.82      177.52      147.60      108.68      71.208      42.534      25.371      17.903      14.959      13.046    
  11.862      11.096      10.623      10.416      10.372      10.416      10.623      11.096      11.862      13.046    
  14.959      17.903      25.371      42.534      71.208      108.68      147.60      177.52      157.07      147.60    
  122.55      90.131      59.250      36.122      22.802      17.247      14.728      13.019      11.959      11.268    
  10.830      10.623      10.572      10.623      10.830      11.268      11.959      13.019      14.728      17.247    
  22.802      36.122      59.250      90.131      122.55      147.60      115.72      108.68      90.131      66.387    
  44.286      28.438      19.943      16.488      14.416      13.019      12.164      11.615      11.268      11.096    