unknown system                          
   1.00000000000000     
     3.445083    0.000000    0.000000
     0.000000    3.445083    0.000000
     0.000000    0.000000    3.445083
   Fe
     4
Direct
  0.000000  0.000000  0.000000
  0.500000  0.500000  0.000000
  0.500000  0.000000  0.500000
  0.000000  0.500000  0.500000
 
   28   28   28
 0.34314282068E+03 0.32315738781E+03 0.27016864011E+03 0.20080223185E+03 0.13252203604E+03
 0.77396868284E+02 0.40804387477E+02 0.22171742476E+02 0.15664381680E+02 0.13031642322E+02
 0.11393188683E+02 0.10333518266E+02 0.97254586391E+01 0.95457448837E+01 0.95466397514E+01
 0.95457448837E+01 0.97254586391E+01 0.10333518266E+02 0.11393188683E+02 0.13031642322E+02
 0.15664381680E+02 0.22171742476E+02 0.40804387477E+02 0.77396868284E+02 0.13252203604E+03
 0.20080223185E+03 0.27016864011E+03 0.32315738781E+03 0.32315738781E+03 0.30430129105E+03
 0.25429236907E+03 0.18881944788E+03 0.12444250701E+03 0.72669953215E+02 0.38594050461E+02
 0.21496205173E+02 0.15574884447E+02 0.13018854464E+02 0.11417011624E+02 0.10372107991E+02
 0.97586860509E+01 0.95575817335E+01 0.95457448837E+01 0.95575817335E+01 0.97586860509E+01
 0.10372107991E+02 0.11417011624E+02 0.13018854464E+02 0.15574884447E+02 0.21496205173E+02
 0.38594050461E+02 0.72669953215E+02 0.12444250701E+03 0.18881944788E+03 0.25429236907E+03
 0.30430129105E+03 0.27016864011E+03 0.25429236907E+03 0.21217155476E+03 0.15706549573E+03
 0.10314465557E+03 0.60368579633E+02 0.32990425251E+02 0.19874198563E+02 0.15350360847E+02
 0.13009221304E+02 0.11538358492E+02 0.10571675741E+02 0.99844928966E+01 0.97586860509E+01
 0.97254586391E+01 0.97586860509E+01 0.99844928966E+01 0.10571675741E+02 0.11538358492E+02
 0.13009221304E+02 0.15350360847E+02 0.19874198563E+02 0.32990425251E+02 0.60368579633E+02
 0.10314465557E+03 0.15706549573E+03 0.21217155476E+03 0.25429236907E+03 0.20080223185E+03
 0.18881944788E+03 0.15706549573E+03 0.11571788861E+03 0.75793727095E+02 0.45040509496E+02
 0.26410485974E+02 0.18175222952E+02 0.15044537607E+02 0.13061092008E+02 0.11836575651E+02
 0.11049294252E+02 0.10571675741E+02 0.10372107991E+02 0.10333518266E+02 0.10372107991E+02
 0.10571675741E+02 0.11049294252E+02 0.11836575651E+02 0.13061092008E+02 0.15044537607E+02
 0.18175222952E+02 0.26410485974E+02 0.45040509496E+02 0.75793727095E+02 0.11571788861E+03
 0.15706549573E+03 0.18881944788E+03 0.13252203604E+03 0.12444250701E+03 0.10314465557E+03
 0.75793727095E+02 0.50149438779E+02 0.31469078386E+02 0.21174240371E+02 0.16985496927E+02
 0.14741987927E+02 0.13242281976E+02 0.12361941733E+02 0.11836575651E+02 0.11538358492E+02
 0.11417011624E+02 0.11393188683E+02 0.11417011624E+02 0.11538358492E+02 0.11836575651E+02
 0.12361941733E+02 0.13242281976E+02 0.14741987927E+02 0.16985496927E+02 0.21174240371E+02
 0.31469078386E+02 0.50149438779E+02 0.75793727095E+02 0.10314465557E+03 0.12444250701E+03
 0.77396868284E+02 0.72669953215E+02 0.60368579633E+02 0.45040509496E+02 0.31469078386E+02
 0.22519556058E+02 0.18209792648E+02 0.16113554105E+02 0.14587078478E+02 0.13680422466E+02
 0.13242281976E+02 0.13061092008E+02 0.13009221304E+02 0.13018854464E+02 0.13031642322E+02
 0.13018854464E+02 0.13009221304E+02 0.13061092008E+02 0.13242281976E+02 0.13680422466E+02
 0.14587078478E+02 0.16113554105E+02 0.18209792648E+02 0.22519556058E+02 0.31469078386E+02
 0.45040509496E+02 0.60368579633E+02 0.72669953215E+02 0.40804387477E+02 0.38594050461E+02
 0.32990425251E+02 0.26410485974E+02 0.21174240371E+02 0.18209792648E+02 0.16639479815E+02
 0.15454832043E+02 0.14771506974E+02 0.14587078478E+02 0.14741987927E+02 0.15044537607E+02
 0.15350360847E+02 0.15574884447E+02 0.15664381680E+02 0.15574884447E+02 0.15350360847E+02
 0.15044537607E+02 0.14741987927E+02 0.14587078478E+02 0.14771506974E+02 0.15454832043E+02
 0.16639479815E+02 0.18209792648E+02 0.21174240371E+02 0.26410485974E+02 0.32990425251E+02
 0.38594050461E+02 0.22171742476E+02 0.21496205173E+02 0.19874198563E+02 0.18175222952E+02
 0.16985496927E+02 0.16113554105E+02 0.15454832043E+02 0.15207926065E+02 0.15454832043E+02
 0.16113554105E+02 0.16985496927E+02 0.18175222952E+02 0.19874198563E+02 0.21496205173E+02
 0.22171742476E+02 0.21496205173E+02 0.19874198563E+02 0.18175222952E+02 0.16985496927E+02
 0.16113554105E+02 0.15454832043E+02 0.15207926065E+02 0.15454832043E+02 0.16113554105E+02
 0.16985496927E+02 0.18175222952E+02 0.19874198563E+02 0.21496205173E+02 0.15664381680E+02
 0.15574884447E+02 0.15350360847E+02 0.15044537607E+02 0.14741987927E+02 0.14587078478E+02
 0.14771506974E+02 0.15454832043E+02 0.16639479815E+02 0.18209792648E+02 0.21174240371E+02
 0.26410485974E+02 0.32990425251E+02 0.38594050461E+02 0.40804387477E+02 0.38594050461E+02
 0.32990425251E+02 0.26410485974E+02 0.21174240371E+02 0.18209792648E+02 0.16639479815E+02
 0.15454832043E+02 0.14771506974E+02 0.14587078478E+02 0.14741987927E+02 0.15044537607E+02
 0.15350360847E+02 0.15574884447E+02 0.13031642322E+02 0.13018854464E+02 0.13009221304E+02
 0.13061092008E+02 0.13242281976E+02 0.13680422466E+02 0.14587078478E+02 0.16113554105E+02
 0.18209792648E+02 0.22519556058E+02 0.31469078386E+02 0.45040509496E+02 0.60368579633E+02
 0.72669953215E+02 0.77396868284E+02 0.72669953215E+02 0.60368579633E+02 0.45040509496E+02
 0.31469078386E+02 0.22519556058E+02 0.18209792648E+02 0.16113554105E+02 0.14587078478E+02
 0.13680422466E+02 0.13242281976E+02 0.13061092008E+02 0.13009221304E+02 0.13018854464E+02
 0.11393188683E+02 0.11417011624E+02 0.11538358492E+02 0.11836575651E+02 0.12361941733E+02
 0.13242281976E+02 0.14741987927E+02 0.16985496927E+02 0.21174240371E+02 0.31469078386E+02
 0.50149438779E+02 0.75793727095E+02 0.10314465557E+03 0.12444250701E+03 0.13252203604E+03
 0.12444250701E+03 0.10314465557E+03 0.75793727095E+02 0.50149438779E+02 0.31469078386E+02
 0.21174240371E+02 0.16985496927E+02 0.14741987927E+02 0.13242281976E+02 0.12361941733E+02
 0.11836575651E+02 0.11538358492E+02 0.11417011624E+02 0.10333518266E+02 0.10372107991E+02
 0.10571675741E+02 0.11049294252E+02 0.11836575651E+02 0.13061092008E+02 0.15044537607E+02
 0.18175222952E+02 0.26410485974E+02 0.45040509496E+02 0.75793727095E+02 0.11571788861E+03
 0.15706549573E+03 0.18881944788E+03 0.20080223185E+03 0.18881944788E+03 0.15706549573E+03
 0.11571788861E+03 0.75793727095E+02 0.45040509496E+02 0.26410485974E+02 0.18175222952E+02
 0.15044537607E+02 0.13061092008E+02 0.11836575651E+02 0.11049294252E+02 0.10571675741E+02
 0.10372107991E+02 0.97254586391E+01 0.97586860509E+01 0.99844928966E+01 0.10571675741E+02
 0.11538358492E+02 0.13009221304E+02 0.15350360847E+02 0.19874198563E+02 0.32990425251E+02
 0.60368579633E+02 0.10314465557E+03 0.15706549573E+03 0.21217155476E+03 0.25429236907E+03
 0.27016864011E+03 0.25429236907E+03 0.21217155476E+03 0.15706549573E+03 0.10314465557E+03
 0.60368579633E+02 0.32990425251E+02 0.19874198563E+02 0.15350360847E+02 0.13009221304E+02
 0.11538358492E+02 0.10571675741E+02 0.99844928966E+01 0.97586860509E+01 0.95457448837E+01
 0.95575817335E+01 0.97586860509E+01 0.10372107991E+02 0.11417011624E+02 0.13018854464E+02
 0.15574884447E+02 0.21496205173E+02 0.38594050461E+02 0.72669953215E+02 0.12444250701E+03
 0.18881944788E+03 0.25429236907E+03 0.30430129105E+03 0.32315738781E+03 0.30430129105E+03
 0.25429236907E+03 0.18881944788E+03 0.12444250701E+03 0.72669953215E+02 0.38594050461E+02
 0.21496205173E+02 0.15574884447E+02 0.13018854464E+02 0.11417011624E+02 0.10372107991E+02
 0.97586860509E+01 0.95575817335E+01 0.95466397514E+01 0.95457448837E+01 0.97254586391E+01
 0.10333518266E+02 0.11393188683E+02 0.13031642322E+02 0.15664381680E+02 0.22171742476E+02
 0.40804387477E+02 0.77396868284E+02 0.13252203604E+03 0.20080223185E+03 0.27016864011E+03
 0.32315738781E+03 0.34314282068E+03 0.32315738781E+03 0.27016864011E+03 0.20080223185E+03
 0.13252203604E+03 0.77396868284E+02 0.40804387477E+02 0.22171742476E+02 0.15664381680E+02
 0.13031642322E+02 0.11393188683E+02 0.10333518266E+02 0.97254586391E+01 0.95457448837E+01
 0.95457448837E+01 0.95575817335E+01 0.97586860509E+01 0.10372107991E+02 0.11417011624E+02
 0.13018854464E+02 0.15574884447E+02 0.21496205173E+02 0.38594050461E+02 0.72669953215E+02
 0.12444250701E+03 0.18881944788E+03 0.25429236907E+03 0.30430129105E+03 0.32315738781E+03
 0.30430129105E+03 0.25429236907E+03 0.18881944788E+03 0.12444250701E+03 0.72669953215E+02
 0.38594050461E+02 0.21496205173E+02 0.15574884447E+02 0.13018854464E+02 0.11417011624E+02
 0.10372107991E+02 0.97586860509E+01 0.95575817335E+01 0.97254586391E+01 0.97586860509E+01
 0.99844928966E+01 0.10571675741E+02 0.11538358492E+02 0.13009221304E+02 0.15350360847E+02
 0.19874198563E+02 0.32990425251E+02 0.60368579633E+02 0.10314465557E+03 0.15706549573E+03
 0.21217155476E+03 0.25429236907E+03 0.27016864011E+03 0.25429236907E+03 0.21217155476E+03
 0.15706549573E+03 0.10314465557E+03 0.60368579633E+02 0.32990425251E+02 0.19874198563E+02
 0.15350360847E+02 0.13009221304E+02 0.11538358492E+02 0.10571675741E+02 0.99844928966E+01
 0.97586860509E+01 0.10333518266E+02 0.10372107991E+02 0.10571675741E+02 0.11049294252E+02
 0.11836575651E+02 0.13061092008E+02 0.15044537607E+02 0.18175222952E+02 0.26410485974E+02
 0.45040509496E+02 0.75793727095E+02 0.11571788861E+03 0.15706549573E+03 0.18881944788E+03
 0.20080223185E+03 0.18881944788E+03 0.15706549573E+03 0.11571788861E+03 0.75793727095E+02
 0.45040509496E+02 0.26410485974E+02 0.18175222952E+02 0.15044537607E+02 0.13061092008E+02
 0.11836575651E+02 0.11049294252E+02 0.10571675741E+02 0.10372107991E+02 0.11393188683E+02
 0.11417011624E+02 0.11538358492E+02 0.11836575651E+02 0.12361941733E+02 0.13242281976E+02
 0.14741987927E+02 0.16985496927E+02 0.21174240371E+02 0.31469078386E+02 0.50149438779E+02
 0.75793727095E+02 0.10314465557E+03 0.12444250701E+03 0.13252203604E+03 0.12444250701E+03
 0.10314465557E+03 0.75793727095E+02 0.50149438779E+02 0.31469078386E+02 0.21174240371E+02
 0.16985496927E+02 0.14741987927E+02 0.13242281976E+02 0.12361941733E+02 0.11836575651E+02
 0.11538358492E+02 0.11417011624E+02 0.13031642322E+02 0.13018854464E+02 0.13009221304E+02
 0.13061092008E+02 0.13242281976E+02 0.13680422466E+02 0.14587078478E+02 0.16113554105E+02
 0.18209792648E+02 0.22519556058E+02 0.31469078386E+02 0.45040509496E+02 0.60368579633E+02
 0.72669953215E+02 0.77396868284E+02 0.72669953215E+02 0.60368579633E+02 0.45040509496E+02
 0.31469078386E+02 0.22519556058E+02 0.18209792648E+02 0.16113554105E+02 0.14587078478E+02
 0.13680422466E+02 0.13242281976E+02 0.13061092008E+02 0.13009221304E+02 0.13018854464E+02
 0.15664381680E+02 0.15574884447E+02 0.15350360847E+02 0.15044537607E+02 0.14741987927E+02
 0.14587078478E+02 0.14771506974E+02 0.15454832043E+02 0.16639479815E+02 0.18209792648E+02
 0.21174240371E+02 0.26410485974E+02 0.32990425251E+02 0.38594050461E+02 0.40804387477E+02
 0.38594050461E+02 0.32990425251E+02 0.26410485974E+02 0.21174240371E+02 0.18209792648E+02
 0.16639479815E+02 0.15454832043E+02 0.14771506974E+02 0.14587078478E+02 0.14741987927E+02
 0.15044537607E+02 0.15350360847E+02 0.15574884447E+02 0.22171742476E+02 0.21496205173E+02
 0.19874198563E+02 0.18175222952E+02 0.16985496927E+02 0.16113554105E+02 0.15454832043E+02
 0.15207926065E+02 0.15454832043E+02 0.16113554105E+02 0.16985496927E+02 0.18175222952E+02
 0.19874198563E+02 0.21496205173E+02 0.22171742476E+02 0.21496205173E+02 0.19874198563E+02
 0.18175222952E+02 0.16985496927E+02 0.16113554105E+02 0.15454832043E+02 0.15207926065E+02
 0.15454832043E+02 0.16113554105E+02 0.16985496927E+02 0.18175222952E+02 0.19874198563E+02
 0.21496205173E+02 0.40804387477E+02 0.38594050461E+02 0.32990425251E+02 0.26410485974E+02
 0.21174240371E+02 0.18209792648E+02 0.16639479815E+02 0.15454832043E+02 0.14771506974E+02
 0.14587078478E+02 0.14741987927E+02 0.15044537607E+02 0.15350360847E+02 0.15574884447E+02
 0.15664381680E+02 0.15574884447E+02 0.15350360847E+02 0.15044537607E+02 0.14741987927E+02
 0.14587078478E+02 0.14771506974E+02 0.15454832043E+02 0.16639479815E+02 0.18209792648E+02
 0.21174240371E+02 0.26410485974E+02 0.32990425251E+02 0.38594050461E+02 0.77396868284E+02
 0.72669953215E+02 0.60368579633E+02 0.45040509496E+02 0.31469078386E+02 0.22519556058E+02
 0.18209792648E+02 0.16113554105E+02 0.14587078478E+02 0.13680422466E+02 0.13242281976E+02
 0.13061092008E+02 0.13009221304E+02 0.13018854464E+02 0.13031642322E+02 0.13018854464E+02
 0.13009221304E+02 0.13061092008E+02 0.13242281976E+02 0.13680422466E+02 0.14587078478E+02
 0.16113554105E+02 0.18209792648E+02 0.22519556058E+02 0.31469078386E+02 0.45040509496E+02
 0.60368579633E+02 0.72669953215E+02 0.13252203604E+03 0.12444250701E+03 0.10314465557E+03
 0.75793727095E+02 0.50149438779E+02 0.31469078386E+02 0.21174240371E+02 0.16985496927E+02
 0.14741987927E+02 0.13242281976E+02 0.12361941733E+02 0.11836575651E+02 0.11538358492E+02
 0.11417011624E+02 0.11393188683E+02 0.11417011624E+02 0.11538358492E+02 0.11836575651E+02
 0.12361941733E+02 0.13242281976E+02 0.14741987927E+02 0.16985496927E+02 0.21174240371E+02
 0.31469078386E+02 0.50149438779E+02 0.75793727095E+02 0.10314465557E+03 0.12444250701E+03
 0.20080223185E+03 0.18881944788E+03 0.15706549573E+03 0.11571788861E+03 0.75793727095E+02
 0.45040509496E+02 0.26410485974E+02 0.18175222952E+02 0.15044537607E+02 0.13061092008E+02
 0.11836575651E+02 0.11049294252E+02 0.10571675741E+02 0.10372107991E+02 0.10333518266E+02
 0.10372107991E+02 0.10571675741E+02 0.11049294252E+02 0.11836575651E+02 0.13061092008E+02
 0.15044537607E+02 0.18175222952E+02 0.26410485974E+02 0.45040509496E+02 0.75793727095E+02
 0.11571788861E+03 0.15706549573E+03 0.18881944788E+03 0.27016864011E+03 0.25429236907E+03
 0.21217155476E+03 0.15706549573E+03 0.10314465557E+03 0.60368579633E+02 0.32990425251E+02
 0.19874198563E+02 0.15350360847E+02 0.13009221304E+02 0.11538358492E+02 0.10571675741E+02
 0.99844928966E+01 0.97586860509E+01 0.97254586391E+01 0.97586860509E+01 0.99844928966E+01
 0.10571675741E+02 0.11538358492E+02 0.13009221304E+02 0.15350360847E+02 0.19874198563E+02
 0.32990425251E+02 0.60368579633E+02 0.10314465557E+03 0.15706549573E+03 0.21217155476E+03
 0.25429236907E+03 0.32315738781E+03 0.30430129105E+03 0.25429236907E+03 0.18881944788E+03
 0.12444250701E+03 0.72669953215E+02 0.38594050461E+02 0.21496205173E+02 0.15574884447E+02
 0.13018854464E+02 0.11417011624E+02 0.10372107991E+02 0.97586860509E+01 0.95575817335E+01
 0.95457448837E+01 0.95575817335E+01 0.97586860509E+01 0.10372107991E+02 0.11417011624E+02
 0.13018854464E+02 0.15574884447E+02 0.21496205173E+02 0.38594050461E+02 0.72669953215E+02
 0.12444250701E+03 0.18881944788E+03 0.25429236907E+03 0.30430129105E+03 0.32315738781E+03
 0.30430129105E+03 0.25429236907E+03 0.18881944788E+03 0.12444250701E+03 0.72669953215E+02
 0.38594050461E+02 0.21496205173E+02 0.15574884447E+02 0.13018854464E+02 0.11417011624E+02
 0.10372107991E+02 0.97586860509E+01 0.95575817335E+01 0.95457448837E+01 0.95575817335E+01
 0.97586860509E+01 0.10372107991E+02 0.11417011624E+02 0.13018854464E+02 0.15574884447E+02
 0.21496205173E+02 0.38594050461E+02 0.72669953215E+02 0.12444250701E+03 0.18881944788E+03
 0.25429236907E+03 0.30430129105E+03 0.30430129105E+03 0.28650930207E+03 0.23931222096E+03
 0.17752265326E+03 0.11684728227E+03 0.68254425586E+02 0.36554040411E+02 0.20886587951E+02
 0.15490310177E+02 0.13007192684E+02 0.11443925494E+02 0.10416103007E+02 0.98001764265E+01
 0.95807311957E+01 0.95575817335E+01 0.95807311957E+01 0.98001764265E+01 0.10416103007E+02
 0.11443925494E+02 0.13007192684E+02 0.15490310177E+02 0.20886587951E+02 0.36554040411E+02
 0.68254425586E+02 0.11684728227E+03 0.17752265326E+03 0.23931222096E+03 0.28650930207E+03
 0.25429236907E+03 0.23931222096E+03 0.19956868809E+03 0.14759702296E+03 0.96842832961E+02
 0.56780578106E+02 0.31395083069E+02 0.19427271679E+02 0.15267834042E+02 0.12998360937E+02
 0.11568909742E+02 0.10622823791E+02 0.10038151616E+02 0.98001764265E+01 0.97586860509E+01
 0.98001764265E+01 0.10038151616E+02 0.10622823791E+02 0.11568909742E+02 0.12998360937E+02
 0.15267834042E+02 0.19427271679E+02 0.31395083069E+02 0.56780578106E+02 0.96842832961E+02
 0.14759702296E+03 0.19956868809E+03 0.23931222096E+03 0.18881944788E+03 0.17752265326E+03
 0.14759702296E+03 0.10867598405E+03 0.71208460409E+02 0.42534255578E+02 0.25371123980E+02
 0.17903227618E+02 0.14959483790E+02 0.13046371557E+02 0.11862262173E+02 0.11095579302E+02
 0.10622823791E+02 0.10416103007E+02 0.10372107991E+02 0.10416103007E+02 0.10622823791E+02
 0.11095579302E+02 0.11862262173E+02 0.13046371557E+02 0.14959483790E+02 0.17903227618E+02
 0.25371123980E+02 0.42534255578E+02 0.71208460409E+02 0.10867598405E+03 0.14759702296E+03
 0.17752265326E+03 0.12444250701E+03 0.11684728227E+03 0.96842832961E+02 0.71208460409E+02
 0.47283095557E+02 0.30006396019E+02 0.20621958729E+02 0.16812625134E+02 0.14654599315E+02
 0.13216340279E+02 0.12370439431E+02 0.11862262173E+02 0.11568909742E+02 0.11443925494E+02
 0.11417011624E+02 0.11443925494E+02 0.11568909742E+02 0.11862262173E+02 0.12370439431E+02
 0.13216340279E+02 0.14654599315E+02 0.16812625134E+02 0.20621958729E+02 0.30006396019E+02
 0.47283095557E+02 0.71208460409E+02 0.96842832961E+02 0.11684728227E+03 0.72669953215E+02
 0.68254425586E+02 0.56780578106E+02 0.42534255578E+02 0.30006396019E+02 0.21841082962E+02
 0.17948038096E+02 0.15955610311E+02 0.14494036041E+02 0.13631215981E+02 0.13216340279E+02
 0.13046371557E+02 0.12998360937E+02 0.13007192684E+02 0.13018854464E+02 0.13007192684E+02
 0.12998360937E+02 0.13046371557E+02 0.13216340279E+02 0.13631215981E+02 0.14494036041E+02
 0.15955610311E+02 0.17948038096E+02 0.21841082962E+02 0.30006396019E+02 0.42534255578E+02
 0.56780578106E+02 0.68254425586E+02 0.38594050461E+02 0.36554040411E+02 0.31395083069E+02
 0.25371123980E+02 0.20621958729E+02 0.17948038096E+02 0.16452510725E+02 0.15311375274E+02
 0.14661596388E+02 0.14494036041E+02 0.14654599315E+02 0.14959483790E+02 0.15267834042E+02
 0.15490310177E+02 0.15574884447E+02 0.15490310177E+02 0.15267834042E+02 0.14959483790E+02
 0.14654599315E+02 0.14494036041E+02 0.14661596388E+02 0.15311375274E+02 0.16452510725E+02
 0.17948038096E+02 0.20621958729E+02 0.25371123980E+02 0.31395083069E+02 0.36554040411E+02
 0.21496205173E+02 0.20886587951E+02 0.19427271679E+02 0.17903227618E+02 0.16812625134E+02
 0.15955610311E+02 0.15311375274E+02 0.15071066798E+02 0.15311375274E+02 0.15955610311E+02
 0.16812625134E+02 0.17903227618E+02 0.19427271679E+02 0.20886587951E+02 0.21496205173E+02
 0.20886587951E+02 0.19427271679E+02 0.17903227618E+02 0.16812625134E+02 0.15955610311E+02
 0.15311375274E+02 0.15071066798E+02 0.15311375274E+02 0.15955610311E+02 0.16812625134E+02
 0.17903227618E+02 0.19427271679E+02 0.20886587951E+02 0.15574884447E+02 0.15490310177E+02
 0.15267834042E+02 0.14959483790E+02 0.14654599315E+02 0.14494036041E+02 0.14661596388E+02
 0.15311375274E+02 0.16452510725E+02 0.17948038096E+02 0.20621958729E+02 0.25371123980E+02
 0.31395083069E+02 0.36554040411E+02 0.38594050461E+02 0.36554040411E+02 0.31395083069E+02
 0.25371123980E+02 0.20621958729E+02 0.17948038096E+02 0.16452510725E+02 0.15311375274E+02
 0.14661596388E+02 0.14494036041E+02 0.14654599315E+02 0.14959483790E+02 0.15267834042E+02
 0.15490310177E+02 0.13018854464E+02 0.13007192684E+02 0.12998360937E+02 0.13046371557E+02
 0.13216340279E+02 0.13631215981E+02 0.14494036041E+02 0.15955610311E+02 0.17948038096E+02
 0.21841082962E+02 0.30006396019E+02 0.42534255578E+02 0.56780578106E+02 0.68254425586E+02
 0.72669953215E+02 0.68254425586E+02 0.56780578106E+02 0.42534255578E+02 0.30006396019E+02
 0.21841082962E+02 0.17948038096E+02 0.15955610311E+02 0.14494036041E+02 0.13631215981E+02
 0.13216340279E+02 0.13046371557E+02 0.12998360937E+02 0.13007192684E+02 0.11417011624E+02
 0.11443925494E+02 0.11568909742E+02 0.11862262173E+02 0.12370439431E+02 0.13216340279E+02
 0.14654599315E+02 0.16812625134E+02 0.20621958729E+02 0.30006396019E+02 0.47283095557E+02
 0.71208460409E+02 0.96842832961E+02 0.11684728227E+03 0.12444250701E+03 0.11684728227E+03
 0.96842832961E+02 0.71208460409E+02 0.47283095557E+02 0.30006396019E+02 0.20621958729E+02
 0.16812625134E+02 0.14654599315E+02 0.13216340279E+02 0.12370439431E+02 0.11862262173E+02
 0.11568909742E+02 0.11443925494E+02 0.10372107991E+02 0.10416103007E+02 0.10622823791E+02
 0.11095579302E+02 0.11862262173E+02 0.13046371557E+02 0.14959483790E+02 0.17903227618E+02
 0.25371123980E+02 0.42534255578E+02 0.71208460409E+02 0.10867598405E+03 0.14759702296E+03
 0.17752265326E+03 0.18881944788E+03 0.17752265326E+03 0.14759702296E+03 0.10867598405E+03
 0.71208460409E+02 0.42534255578E+02 0.25371123980E+02 0.17903227618E+02 0.14959483790E+02
 0.13046371557E+02 0.11862262173E+02 0.11095579302E+02 0.10622823791E+02 0.10416103007E+02
 0.97586860509E+01 0.98001764265E+01 0.10038151616E+02 0.10622823791E+02 0.11568909742E+02
 0.12998360937E+02 0.15267834042E+02 0.19427271679E+02 0.31395083069E+02 0.56780578106E+02
 0.96842832961E+02 0.14759702296E+03 0.19956868809E+03 0.23931222096E+03 0.25429236907E+03
 0.23931222096E+03 0.19956868809E+03 0.14759702296E+03 0.96842832961E+02 0.56780578106E+02
 0.31395083069E+02 0.19427271679E+02 0.15267834042E+02 0.12998360937E+02 0.11568909742E+02
 0.10622823791E+02 0.10038151616E+02 0.98001764265E+01 0.95575817335E+01 0.95807311957E+01
 0.98001764265E+01 0.10416103007E+02 0.11443925494E+02 0.13007192684E+02 0.15490310177E+02
 0.20886587951E+02 0.36554040411E+02 0.68254425586E+02 0.11684728227E+03 0.17752265326E+03
 0.23931222096E+03 0.28650930207E+03 0.30430129105E+03 0.28650930207E+03 0.23931222096E+03
 0.17752265326E+03 0.11684728227E+03 0.68254425586E+02 0.36554040411E+02 0.20886587951E+02
 0.15490310177E+02 0.13007192684E+02 0.11443925494E+02 0.10416103007E+02 0.98001764265E+01
 0.95807311957E+01 0.95457448837E+01 0.95575817335E+01 0.97586860509E+01 0.10372107991E+02
 0.11417011624E+02 0.13018854464E+02 0.15574884447E+02 0.21496205173E+02 0.38594050461E+02
 0.72669953215E+02 0.12444250701E+03 0.18881944788E+03 0.25429236907E+03 0.30430129105E+03
 0.32315738781E+03 0.30430129105E+03 0.25429236907E+03 0.18881944788E+03 0.12444250701E+03
 0.72669953215E+02 0.38594050461E+02 0.21496205173E+02 0.15574884447E+02 0.13018854464E+02
 0.11417011624E+02 0.10372107991E+02 0.97586860509E+01 0.95575817335E+01 0.95575817335E+01
 0.95807311957E+01 0.98001764265E+01 0.10416103007E+02 0.11443925494E+02 0.13007192684E+02
 0.15490310177E+02 0.20886587951E+02 0.36554040411E+02 0.68254425586E+02 0.11684728227E+03
 0.17752265326E+03 0.23931222096E+03 0.28650930207E+03 0.30430129105E+03 0.28650930207E+03
 0.23931222096E+03 0.17752265326E+03 0.11684728227E+03 0.68254425586E+02 0.36554040411E+02
 0.20886587951E+02 0.15490310177E+02 0.13007192684E+02 0.11443925494E+02 0.10416103007E+02
 0.98001764265E+01 0.95807311957E+01 0.97586860509E+01 0.98001764265E+01 0.10038151616E+02
 0.10622823791E+02 0.11568909742E+02 0.12998360937E+02 0.15267834042E+02 0.19427271679E+02
 0.31395083069E+02 0.56780578106E+02 0.96842832961E+02 0.14759702296E+03 0.19956868809E+03
 0.23931222096E+03 0.25429236907E+03 0.23931222096E+03 0.19956868809E+03 0.14759702296E+03
 0.96842832961E+02 0.56780578106E+02 0.31395083069E+02 0.19427271679E+02 0.15267834042E+02
 0.12998360937E+02 0.11568909742E+02 0.10622823791E+02 0.10038151616E+02 0.98001764265E+01
 0.10372107991E+02 0.10416103007E+02 0.10622823791E+02 0.11095579302E+02 0.11862262173E+02
 0.13046371557E+02 0.14959483790E+02 0.17903227618E+02 0.25371123980E+02 0.42534255578E+02
 0.71208460409E+02 0.10867598405E+03 0.14759702296E+03 0.17752265326E+03 0.18881944788E+03
 0.17752265326E+03 0.14759702296E+03 0.10867598405E+03 0.71208460409E+02 0.42534255578E+02
 0.25371123980E+02 0.17903227618E+02 0.14959483790E+02 0.13046371557E+02 0.11862262173E+02
 0.11095579302E+02 0.10622823791E+02 0.10416103007E+02 0.11417011624E+02 0.11443925494E+02
 0.11568909742E+02 0.11862262173E+02 0.12370439431E+02 0.13216340279E+02 0.14654599315E+02
 0.16812625134E+02 0.20621958729E+02 0.30006396019E+02 0.47283095557E+02 0.71208460409E+02
 0.96842832961E+02 0.11684728227E+03 0.12444250701E+03 0.11684728227E+03 0.96842832961E+02
 0.71208460409E+02 0.47283095557E+02 0.30006396019E+02 0.20621958729E+02 0.16812625134E+02
 0.14654599315E+02 0.13216340279E+02 0.12370439431E+02 0.11862262173E+02 0.11568909742E+02
 0.11443925494E+02 0.13018854464E+02 0.13007192684E+02 0.12998360937E+02 0.13046371557E+02
 0.13216340279E+02 0.13631215981E+02 0.14494036041E+02 0.15955610311E+02 0.17948038096E+02
 0.21841082962E+02 0.30006396019E+02 0.42534255578E+02 0.56780578106E+02 0.68254425586E+02
 0.72669953215E+02 0.68254425586E+02 0.56780578106E+02 0.42534255578E+02 0.30006396019E+02
 0.21841082962E+02 0.17948038096E+02 0.15955610311E+02 0.14494036041E+02 0.13631215981E+02
 0.13216340279E+02 0.13046371557E+02 0.12998360937E+02 0.13007192684E+02 0.15574884447E+02
 0.15490310177E+02 0.15267834042E+02 0.14959483790E+02 0.14654599315E+02 0.14494036041E+02
 0.14661596388E+02 0.15311375274E+02 0.16452510725E+02 0.17948038096E+02 0.20621958729E+02
 0.25371123980E+02 0.31395083069E+02 0.36554040411E+02 0.38594050461E+02 0.36554040411E+02
 0.31395083069E+02 0.25371123980E+02 0.20621958729E+02 0.17948038096E+02 0.16452510725E+02
 0.15311375274E+02 0.14661596388E+02 0.14494036041E+02 0.14654599315E+02 0.14959483790E+02
 0.15267834042E+02 0.15490310177E+02 0.21496205173E+02 0.20886587951E+02 0.19427271679E+02
 0.17903227618E+02 0.16812625134E+02 0.15955610311E+02 0.15311375274E+02 0.15071066798E+02
 0.15311375274E+02 0.15955610311E+02 0.16812625134E+02 0.17903227618E+02 0.19427271679E+02
 0.20886587951E+02 0.21496205173E+02 0.20886587951E+02 0.19427271679E+02 0.17903227618E+02
 0.16812625134E+02 0.15955610311E+02 0.15311375274E+02 0.15071066798E+02 0.15311375274E+02
 0.15955610311E+02 0.16812625134E+02 0.17903227618E+02 0.19427271679E+02 0.20886587951E+02
 0.38594050461E+02 0.36554040411E+02 0.31395083069E+02 0.25371123980E+02 0.20621958729E+02
 0.17948038096E+02 0.16452510725E+02 0.15311375274E+02 0.14661596388E+02 0.14494036041E+02
 0.14654599315E+02 0.14959483790E+02 0.15267834042E+02 0.15490310177E+02 0.15574884447E+02
 0.15490310177E+02 0.15267834042E+02 0.14959483790E+02 0.14654599315E+02 0.14494036041E+02
 0.14661596388E+02 0.15311375274E+02 0.16452510725E+02 0.17948038096E+02 0.20621958729E+02
 0.25371123980E+02 0.31395083069E+02 0.36554040411E+02 0.72669953215E+02 0.68254425586E+02
 0.56780578106E+02 0.42534255578E+02 0.30006396019E+02 0.21841082962E+02 0.17948038096E+02
 0.15955610311E+02 0.14494036041E+02 0.13631215981E+02 0.13216340279E+02 0.13046371557E+02
 0.12998360937E+02 0.13007192684E+02 0.13018854464E+02 0.13007192684E+02 0.12998360937E+02
 0.13046371557E+02 0.13216340279E+02 0.13631215981E+02 0.14494036041E+02 0.15955610311E+02
 0.17948038096E+02 0.21841082962E+02 0.30006396019E+02 0.42534255578E+02 0.56780578106E+02
 0.68254425586E+02 0.12444250701E+03 0.11684728227E+03 0.96842832961E+02 0.71208460409E+02
 0.47283095557E+02 0.30006396019E+02 0.20621958729E+02 0.16812625134E+02 0.14654599315E+02
 0.13216340279E+02 0.12370439431E+02 0.11862262173E+02 0.11568909742E+02 0.11443925494E+02
 0.11417011624E+02 0.11443925494E+02 0.11568909742E+02 0.11862262173E+02 0.12370439431E+02
 0.13216340279E+02 0.14654599315E+02 0.16812625134E+02 0.20621958729E+02 0.30006396019E+02
 0.47283095557E+02 0.71208460409E+02 0.96842832961E+02 0.11684728227E+03 0.18881944788E+03
 0.17752265326E+03 0.14759702296E+03 0.10867598405E+03 0.71208460409E+02 0.42534255578E+02
 0.25371123980E+02 0.17903227618E+02 0.14959483790E+02 0.13046371557E+02 0.11862262173E+02
 0.11095579302E+02 0.10622823791E+02 0.10416103007E+02 0.10372107991E+02 0.10416103007E+02
 0.10622823791E+02 0.11095579302E+02 0.11862262173E+02 0.13046371557E+02 0.14959483790E+02
 0.17903227618E+02 0.25371123980E+02 0.42534255578E+02 0.71208460409E+02 0.10867598405E+03
 0.14759702296E+03 0.17752265326E+03 0.25429236907E+03 0.23931222096E+03 0.19956868809E+03
 0.14759702296E+03 0.96842832961E+02 0.56780578106E+02 0.31395083069E+02 0.19427271679E+02
 0.15267834042E+02 0.12998360937E+02 0.11568909742E+02 0.10622823791E+02 0.10038151616E+02
 0.98001764265E+01 0.97586860509E+01 0.98001764265E+01 0.10038151616E+02 0.10622823791E+02
 0.11568909742E+02 0.12998360937E+02 0.15267834042E+02 0.19427271679E+02 0.31395083069E+02
 0.56780578106E+02 0.96842832961E+02 0.14759702296E+03 0.19956868809E+03 0.23931222096E+03
 0.30430129105E+03 0.28650930207E+03 0.23931222096E+03 0.17752265326E+03 0.11684728227E+03
 0.68254425586E+02 0.36554040411E+02 0.20886587951E+02 0.15490310177E+02 0.13007192684E+02
 0.11443925494E+02 0.10416103007E+02 0.98001764265E+01 0.95807311957E+01 0.95575817335E+01
 0.95807311957E+01 0.98001764265E+01 0.10416103007E+02 0.11443925494E+02 0.13007192684E+02
 0.15490310177E+02 0.20886587951E+02 0.36554040411E+02 0.68254425586E+02 0.11684728227E+03
 0.17752265326E+03 0.23931222096E+03 0.28650930207E+03 0.27016864011E+03 0.25429236907E+03
 0.21217155476E+03 0.15706549573E+03 0.10314465557E+03 0.60368579633E+02 0.32990425251E+02
 0.19874198563E+02 0.15350360847E+02 0.13009221304E+02 0.11538358492E+02 0.10571675741E+02
 0.99844928966E+01 0.97586860509E+01 0.97254586391E+01 0.97586860509E+01 0.99844928966E+01
 0.10571675741E+02 0.11538358492E+02 0.13009221304E+02 0.15350360847E+02 0.19874198563E+02
 0.32990425251E+02 0.60368579633E+02 0.10314465557E+03 0.15706549573E+03 0.21217155476E+03
 0.25429236907E+03 0.25429236907E+03 0.23931222096E+03 0.19956868809E+03 0.14759702296E+03
 0.96842832961E+02 0.56780578106E+02 0.31395083069E+02 0.19427271679E+02 0.15267834042E+02
 0.12998360937E+02 0.11568909742E+02 0.10622823791E+02 0.10038151616E+02 0.98001764265E+01
 0.97586860509E+01 0.98001764265E+01 0.10038151616E+02 0.10622823791E+02 0.11568909742E+02
 0.12998360937E+02 0.15267834042E+02 0.19427271679E+02 0.31395083069E+02 0.56780578106E+02
 0.96842832961E+02 0.14759702296E+03 0.19956868809E+03 0.23931222096E+03 0.21217155476E+03