   4   4   0   0
  0.1022208E+02  0.3445083E-09  0.3445083E-09  0.3445083E-09  0.5000000E-15
  1.000000000000000E-004
  CAR 
 unknown system                          
     38.09097072     -4.02734512  301      6.80851883      1.00000000
     -4.027  0.0000E+00  0.0000E+00
     -3.887  0.0000E+00  0.0000E+00
     -3.747 -0.2241E-32 -0.3147E-33
     -3.606 -0.2191E-27 -0.3077E-28
     -3.466 -0.7934E-23 -0.1114E-23
     -3.325 -0.1062E-18 -0.1491E-19
     -3.185 -0.5115E-15 -0.7183E-16
     -3.045 -0.9153E-12 -0.1286E-12
     -2.904 -0.5998E-09 -0.8434E-10
     -2.764 -0.1415E-06 -0.1995E-07
     -2.623 -0.1174E-04 -0.1668E-05
     -2.483 -0.3234E-03 -0.4708E-04
     -2.343 -0.2418E-02 -0.3866E-03
     -2.202  0.1989E-02 -0.1074E-03
     -2.062  0.4132E-01  0.5694E-02
     -1.921  0.5839E-01  0.1389E-01
     -1.781  0.2514E-02  0.1424E-01
     -1.641  0.9152E-02  0.1553E-01
     -1.500  0.2474E+00  0.5026E-01
     -1.360  0.3555E+00  0.1002E+00
     -1.219  0.6751E-01  0.1096E+00
     -1.079  0.5919E-01  0.1179E+00
     -0.939  0.5937E+00  0.2013E+00
     -0.798  0.6441E+00  0.2917E+00
     -0.658  0.1029E+00  0.3062E+00
     -0.517  0.1673E+00  0.3297E+00
     -0.377  0.4929E+00  0.3988E+00
     -0.237  0.2383E+00  0.4323E+00
     -0.096  0.3855E-01  0.4377E+00
      0.044  0.2895E+00  0.4784E+00
      0.184  0.2635E+00  0.5153E+00
      0.325  0.7106E-01  0.5253E+00
      0.465  0.8792E+00  0.6488E+00
      0.606  0.1402E+01  0.8456E+00
      0.746  0.8014E+00  0.9581E+00
      0.886  0.1329E+01  0.1145E+01
      1.027  0.1063E+01  0.1294E+01
      1.167  0.8569E-01  0.1306E+01
      1.308 -0.1069E+00  0.1291E+01
      1.448 -0.1315E+00  0.1272E+01
      1.588  0.6278E+00  0.1361E+01
      1.729  0.2538E+01  0.1717E+01
      1.869  0.2521E+01  0.2071E+01
      2.010  0.1811E+01  0.2325E+01
      2.150  0.3217E+01  0.2777E+01
      2.290  0.4892E+01  0.3463E+01
      2.431  0.3813E+01  0.3999E+01
      2.571  0.4295E+01  0.4602E+01
      2.712  0.4558E+01  0.5242E+01
      2.852  0.3439E+01  0.5725E+01
      2.992  0.5676E+01  0.6522E+01
      3.133  0.8296E+01  0.7686E+01
      3.273  0.7652E+01  0.8761E+01
      3.414  0.3235E+01  0.9215E+01
      3.554  0.4176E+01  0.9801E+01
      3.694  0.8011E+01  0.1093E+02
      3.835  0.6299E+01  0.1181E+02
      3.975  0.2998E+01  0.1223E+02
      4.116  0.2652E+01  0.1260E+02
      4.256  0.5209E+01  0.1333E+02
      4.396  0.7724E+01  0.1442E+02
      4.537  0.6129E+01  0.1528E+02
      4.677  0.4465E+01  0.1591E+02
      4.818  0.9244E+01  0.1720E+02
      4.958  0.1065E+02  0.1870E+02
      5.098  0.7521E+01  0.1976E+02
      5.239  0.7239E+01  0.2077E+02
      5.379  0.8126E+01  0.2191E+02
      5.519  0.8177E+01  0.2306E+02
      5.660  0.5984E+01  0.2390E+02
      5.800  0.6390E+01  0.2480E+02
      5.941  0.7991E+01  0.2592E+02
      6.081  0.7954E+01  0.2704E+02
      6.221  0.6699E+01  0.2798E+02
      6.362  0.7504E+01  0.2903E+02
      6.502  0.5419E+01  0.2979E+02
      6.643  0.4175E+01  0.3038E+02
      6.783  0.9329E+01  0.3169E+02
      6.923  0.1179E+02  0.3334E+02
      7.064  0.6156E+01  0.3421E+02
      7.204  0.2829E+01  0.3460E+02
      7.345  0.4966E+01  0.3530E+02
      7.485  0.7557E+01  0.3636E+02
      7.625  0.1002E+02  0.3777E+02
      7.766  0.1284E+02  0.3957E+02
      7.906  0.9135E+01  0.4085E+02
      8.047  0.4938E+01  0.4155E+02
      8.187  0.4819E+01  0.4222E+02
      8.327  0.4010E+01  0.4279E+02
      8.468  0.1423E+01  0.4299E+02
      8.608 -0.8159E-01  0.4297E+02
      8.749 -0.1401E+00  0.4296E+02
      8.889 -0.4688E-01  0.4295E+02
      9.029  0.6907E+00  0.4305E+02
      9.170  0.1443E+01  0.4325E+02
      9.310  0.5620E+00  0.4333E+02
      9.451  0.1151E+01  0.4349E+02
      9.591  0.3394E+01  0.4397E+02
      9.731  0.2901E+01  0.4437E+02
      9.872  0.8922E+00  0.4450E+02
     10.012  0.6432E+00  0.4459E+02
     10.152  0.1634E+01  0.4482E+02
     10.293  0.8645E+00  0.4494E+02
     10.433 -0.2536E-01  0.4494E+02
     10.574 -0.9494E-01  0.4492E+02
     10.714 -0.4138E-01  0.4492E+02
     10.854  0.6778E+00  0.4501E+02
     10.995  0.1593E+01  0.4524E+02
     11.135  0.1699E+01  0.4547E+02
     11.276  0.1355E+01  0.4566E+02
     11.416  0.2798E+00  0.4570E+02
     11.556  0.1219E+00  0.4572E+02
     11.697  0.6775E+00  0.4582E+02
     11.837  0.7499E+00  0.4592E+02
     11.978  0.6698E+00  0.4601E+02
     12.118  0.3511E+00  0.4606E+02
     12.258  0.1665E+01  0.4630E+02
     12.399  0.4030E+01  0.4686E+02
     12.539  0.2618E+01  0.4723E+02
     12.680  0.1832E+00  0.4726E+02
     12.820 -0.1791E+00  0.4723E+02
     12.960 -0.2153E-01  0.4723E+02
     13.101  0.4332E+00  0.4729E+02
     13.241  0.7471E+00  0.4739E+02
     13.382  0.2594E+00  0.4743E+02
     13.522 -0.3073E-01  0.4743E+02
     13.662 -0.1554E-01  0.4742E+02
     13.803 -0.1169E-02  0.4742E+02
     13.943 -0.7208E-04  0.4742E+02
     14.084 -0.2059E-02  0.4742E+02
     14.224 -0.2909E-01  0.4742E+02
     14.364 -0.7223E-01  0.4741E+02
     14.505  0.4409E+00  0.4747E+02
     14.645  0.1566E+01  0.4769E+02
     14.786  0.1532E+01  0.4791E+02
     14.926  0.6612E+00  0.4800E+02
     15.066  0.2177E-01  0.4800E+02
     15.207 -0.1172E+00  0.4799E+02
     15.347  0.4187E+00  0.4804E+02
     15.487  0.1580E+01  0.4827E+02
     15.628  0.2673E+01  0.4864E+02
     15.768  0.3052E+01  0.4907E+02
     15.909  0.2964E+01  0.4949E+02
     16.049  0.2665E+01  0.4986E+02
     16.189  0.6201E+00  0.4995E+02
     16.330 -0.1492E+00  0.4993E+02
     16.470 -0.4340E-01  0.4992E+02
     16.611 -0.7600E-02  0.4992E+02
     16.751 -0.2401E-01  0.4992E+02
     16.891  0.6527E-01  0.4993E+02
     17.032  0.3868E+00  0.4998E+02
     17.172  0.2993E+00  0.5002E+02
     17.313  0.5231E+00  0.5009E+02
     17.453  0.2600E+01  0.5046E+02
     17.593  0.3168E+01  0.5090E+02
     17.734  0.1139E+01  0.5106E+02
     17.874  0.9983E+00  0.5120E+02
     18.015  0.1110E+01  0.5136E+02
     18.155  0.2049E+00  0.5139E+02
     18.295 -0.5773E-01  0.5138E+02
     18.436  0.1219E+01  0.5155E+02
     18.576  0.3138E+01  0.5199E+02
     18.717  0.3154E+01  0.5244E+02
     18.857  0.1200E+01  0.5260E+02
     18.997 -0.3948E-01  0.5260E+02
     19.138  0.2476E+00  0.5263E+02
     19.278  0.7642E+00  0.5274E+02
     19.419  0.1183E+01  0.5291E+02
     19.559  0.1433E+01  0.5311E+02
     19.699  0.1224E+01  0.5328E+02
     19.840  0.1435E+01  0.5348E+02
     19.980  0.4732E+00  0.5355E+02
     20.120 -0.7943E-01  0.5354E+02
     20.261  0.1750E+01  0.5378E+02
     20.401  0.3601E+01  0.5429E+02
     20.542  0.2441E+01  0.5463E+02
     20.682  0.1888E+01  0.5490E+02
     20.822  0.1151E+01  0.5506E+02
     20.963  0.3078E+00  0.5510E+02
     21.103  0.1698E+01  0.5534E+02
     21.244  0.2463E+01  0.5568E+02
     21.384  0.6739E+00  0.5578E+02
     21.524 -0.2885E+00  0.5574E+02
     21.665  0.1411E+00  0.5576E+02
     21.805  0.2933E+01  0.5617E+02
     21.946  0.4589E+01  0.5681E+02
     22.086  0.2038E+01  0.5710E+02
     22.226  0.9463E-01  0.5711E+02
     22.367 -0.2979E+00  0.5707E+02
     22.507  0.6934E+00  0.5717E+02
     22.648  0.3701E+01  0.5769E+02
     22.788  0.4602E+01  0.5834E+02
     22.928  0.3122E+01  0.5877E+02
     23.069  0.2250E+01  0.5909E+02
     23.209  0.1366E+01  0.5928E+02
     23.350  0.2850E+00  0.5932E+02
     23.490 -0.2197E+00  0.5929E+02
     23.630  0.2073E+00  0.5932E+02
     23.771  0.2571E+01  0.5968E+02
     23.911  0.3978E+01  0.6024E+02
     24.052  0.3035E+01  0.6066E+02
     24.192  0.2147E+01  0.6097E+02
     24.332  0.1521E+01  0.6118E+02
     24.473  0.4365E+00  0.6124E+02
     24.613 -0.2439E+00  0.6121E+02
     24.754  0.4765E+00  0.6127E+02
     24.894  0.3150E+01  0.6172E+02
     25.034  0.3116E+01  0.6215E+02
     25.175  0.4112E+00  0.6221E+02
     25.315 -0.3798E+00  0.6216E+02
     25.455  0.1041E+01  0.6230E+02
     25.596  0.4343E+01  0.6291E+02
     25.736  0.3977E+01  0.6347E+02
     25.877  0.8744E+00  0.6359E+02
     26.017  0.6741E+00  0.6369E+02
     26.157  0.1335E+01  0.6388E+02
     26.298  0.4980E+00  0.6395E+02
     26.438  0.1556E+01  0.6417E+02
     26.579  0.3407E+01  0.6464E+02
     26.719  0.1855E+01  0.6490E+02
     26.859  0.4162E+00  0.6496E+02
     27.000  0.1280E+01  0.6514E+02
     27.140  0.1068E+01  0.6529E+02
     27.281  0.2459E-01  0.6530E+02
     27.421 -0.3416E-01  0.6529E+02
     27.561  0.9606E+00  0.6543E+02
     27.702  0.2237E+01  0.6574E+02
     27.842  0.3019E+01  0.6616E+02
     27.983  0.2446E+01  0.6651E+02
     28.123  0.1597E+01  0.6673E+02
     28.263  0.8175E+00  0.6685E+02
     28.404  0.1401E+01  0.6704E+02
     28.544  0.3515E+01  0.6754E+02
     28.685  0.2783E+01  0.6793E+02
     28.825  0.6235E+00  0.6801E+02
     28.965  0.1597E+00  0.6804E+02
     29.106  0.5747E+00  0.6812E+02
     29.246  0.1195E+01  0.6829E+02
     29.387  0.1071E+01  0.6844E+02
     29.527  0.1442E+01  0.6864E+02
     29.667  0.2681E+01  0.6901E+02
     29.808  0.3432E+01  0.6950E+02
     29.948  0.2172E+01  0.6980E+02
     30.088  0.1137E+01  0.6996E+02
     30.229  0.1791E+01  0.7021E+02
     30.369  0.1180E+01  0.7038E+02
     30.510 -0.9486E-02  0.7038E+02
     30.650  0.2974E+00  0.7042E+02
     30.790  0.1807E+01  0.7067E+02
     30.931  0.2465E+01  0.7102E+02
     31.071  0.3735E+01  0.7154E+02
     31.212  0.4033E+01  0.7211E+02
     31.352  0.3163E+01  0.7255E+02
     31.492  0.1787E+01  0.7280E+02
     31.633  0.1283E+00  0.7282E+02
     31.773  0.4159E+00  0.7288E+02
     31.914  0.1485E+01  0.7309E+02
     32.054  0.1683E+01  0.7332E+02
     32.194  0.2048E+01  0.7361E+02
     32.335  0.2438E+01  0.7395E+02
     32.475  0.2141E+01  0.7425E+02
     32.616  0.7940E+00  0.7437E+02
     32.756 -0.5063E-01  0.7436E+02
     32.896 -0.1293E+00  0.7434E+02
     33.037 -0.1925E+00  0.7431E+02
     33.177  0.9757E+00  0.7445E+02
     33.318  0.4818E+01  0.7513E+02
     33.458  0.6161E+01  0.7599E+02
     33.598  0.3901E+01  0.7654E+02
     33.739  0.3196E+01  0.7699E+02
     33.879  0.1897E+01  0.7726E+02
     34.020  0.9289E+00  0.7739E+02
     34.160  0.4493E+00  0.7745E+02
     34.300  0.4634E+00  0.7751E+02
     34.441  0.5555E+00  0.7759E+02
     34.581  0.1035E+01  0.7774E+02
     34.722  0.2691E+01  0.7811E+02
     34.862  0.2185E+01  0.7842E+02
     35.002  0.8056E+00  0.7853E+02
     35.143  0.1018E+01  0.7868E+02
     35.283  0.1471E+01  0.7888E+02
     35.423  0.4865E+00  0.7895E+02
     35.564 -0.1018E+00  0.7894E+02
     35.704  0.4341E+00  0.7900E+02
     35.845  0.1536E+01  0.7921E+02
     35.985  0.2115E+01  0.7951E+02
     36.125  0.2392E+01  0.7985E+02
     36.266  0.1183E+01  0.8001E+02
     36.406 -0.1245E-01  0.8001E+02
     36.547 -0.7423E-01  0.8000E+02
     36.687 -0.8349E-02  0.8000E+02
     36.827 -0.2704E-03  0.8000E+02
     36.968 -0.2968E-05  0.8000E+02
     37.108 -0.1160E-07  0.8000E+02
     37.249 -0.1650E-10  0.8000E+02
     37.389 -0.8503E-14  0.8000E+02
     37.529  0.0000E+00  0.8000E+02
     37.670  0.0000E+00  0.8000E+02
     37.810  0.0000E+00  0.8000E+02
     37.951  0.0000E+00  0.8000E+02
     38.091  0.0000E+00  0.8000E+02
