    4    4    1    1
  0.1022208E+02  0.3445083E-09  0.3445083E-09  0.3445083E-09  0.5000000E-15
  1.000000000000000E-004
  CAR 
 unknown system                          
     32     10     40
 
  0.0000000E+00  0.0000000E+00  0.0000000E+00  0.8000000E-02
    1       -2.027345   1.000000
    2        1.864337   1.000000
    3        1.864337   1.000000
    4        1.864337   1.000000
    5        2.604229   1.000000
    6        2.604229   1.000000
    7        2.604229   1.000000
    8        5.172617   1.000000
    9        5.172617   1.000000
   10        5.172617   1.000000
   11        6.733765   0.793144
   12        6.733765   0.793144
   13        7.770783  -0.000000
   14        7.770783  -0.000000
   15        7.770783  -0.000000
   16        8.069472  -0.000000
   17        8.069472  -0.000000
   18        8.069472  -0.000000
   19        8.069472  -0.000000
   20        8.069472  -0.000000
   21        8.069472  -0.000000
   22       10.077951  -0.000000
   23       10.077951  -0.000000
   24       10.077951  -0.000000
   25       18.573463   0.000000
   26       18.573463   0.000000
   27       18.573463   0.000000
   28       23.086038   0.000000
   29       23.086038   0.000000
   30       23.086038   0.000000
   31       23.086038   0.000000
   32       23.086038   0.000000
   33       23.086038   0.000000
   34       28.509521   0.000000
   35       28.509521   0.000000
   36       28.509521   0.000000
   37       30.150422   0.000000
   38       33.429968   0.000000
   39       33.429968   0.000000
   40       33.429968   0.000000
 
  0.2000000E+00  0.0000000E+00  0.0000000E+00  0.4800000E-01
    1       -1.465933   1.000000
    2        1.964758   1.000000
    3        2.198923   1.000000
    4        2.198923   1.000000
    5        2.821443   1.000000
    6        2.862412   1.000000
    7        2.862412   1.000000
    8        4.894118   1.000000
    9        5.380551   1.000000
   10        5.380551   1.000000
   11        6.477764   1.020602
   12        6.617160   1.020043
   13        6.617160   1.020043
   14        6.829039   0.413675
   15        7.435378  -0.000043
   16        7.435378  -0.000043
   17        7.667791  -0.000000
   18        7.691146  -0.000000
   19        7.691146  -0.000000
   20        8.070708  -0.000000
   21        8.070708  -0.000000
   22        8.245542  -0.000000
   23       11.923586  -0.000000
   24       11.923586  -0.000000
   25       18.572572   0.000000
   26       18.572572   0.000000
   27       21.105303   0.000000
   28       21.105303   0.000000
   29       21.129693   0.000000
   30       22.012542   0.000000
   31       22.012542   0.000000
   32       24.014380   0.000000
   33       24.014380   0.000000
   34       28.592130   0.000000
   35       29.800908   0.000000
   36       31.012726   0.000000
   37       31.012726   0.000000
   38       33.168117   0.000000
   39       33.372490   0.000000
   40       33.372499   0.000000
 
  0.4000000E+00  0.0000000E+00  0.0000000E+00  0.4800000E-01
    1        0.046365   1.000000
    2        1.640350   1.000000
    3        2.879490   1.000000
    4        2.879490   1.000000
    5        3.413670   1.000000
    6        3.634294   1.000000
    7        3.634294   1.000000
    8        4.202931   1.000000
    9        4.907056   1.000000
   10        4.907056   1.000000
   11        5.930712   1.000000
   12        5.973324   1.000000
   13        5.973324   1.000000
   14        6.085152   1.000002
   15        6.737424   0.780791
   16        6.737424   0.780791
   17        6.838376   0.375209
   18        6.838376   0.375209
   19        7.082476  -0.032818
   20        7.403039  -0.000109
   21        8.071704  -0.000000
   22        8.071704  -0.000000
   23       14.789627   0.000000
   24       14.789627   0.000000
   25       17.931279   0.000000
   26       17.931279   0.000000
   27       18.583908   0.000000
   28       18.583908   0.000000
   29       20.728805   0.000000
   30       20.728805   0.000000
   31       25.683570   0.000000
   32       26.466956   0.000000
   33       26.466956   0.000000
   34       28.799433   0.000000
   35       29.223998   0.000000
   36       29.737980   0.000000
   37       29.796342   0.000000
   38       29.796342   0.000000
   39       34.965772   0.000000
   40       35.714622   0.000000
 
  0.2000000E+00  0.2000000E+00  0.0000000E+00  0.9600000E-01
    1       -0.930512   1.000000
    2        2.326238   1.000000
    3        2.326238   1.000000
    4        2.495645   1.000000
    5        3.053933   1.000000
    6        3.053933   1.000000
    7        3.071733   1.000000
    8        4.771139   1.000000
    9        5.447515   1.000000
   10        5.469958   1.000000
   11        6.039859   1.000000
   12        6.044780   1.000000
   13        6.044780   1.000000
   14        6.432395   1.011531
   15        6.859391   0.292270
   16        7.178618  -0.012567
   17        7.395580  -0.000133
   18        7.395580  -0.000133
   19        7.688323  -0.000000
   20        7.688323  -0.000000
   21        7.822333  -0.000000
   22       10.094270  -0.000000
   23       10.094270  -0.000000
   24       13.149954   0.000000
   25       17.368876   0.000000
   26       19.199159   0.000000
   27       21.151340   0.000000
   28       21.151340   0.000000
   29       21.872678   0.000000
   30       21.872678   0.000000
   31       22.960018   0.000000
   32       22.960018   0.000000
   33       24.868114   0.000000
   34       28.349778   0.000000
   35       29.629277   0.000000
   36       30.058810   0.000000
   37       31.277594   0.000000
   38       31.277594   0.000000
   39       34.323221   0.000000
   40       36.090971   0.000000
 
  0.4000000E+00  0.2000000E+00  0.0000000E+00  0.1920000E+00
    1        0.508649   1.000000
    2        2.044684   1.000000
    3        3.106690   1.000000
    4        3.170057   1.000000
    5        3.570343   1.000000
    6        3.594755   1.000000
    7        3.738877   1.000000
    8        4.240255   1.000000
    9        4.540937   1.000000
   10        4.818530   1.000000
   11        5.233662   1.000000
   12        5.419214   1.000000
   13        5.992965   1.000000
   14        6.294635   1.000844
   15        6.629112   1.010880
   16        6.732442   0.797542
   17        6.837912   0.377102
   18        6.900061   0.154007
   19        7.324372  -0.000807
   20        7.683073  -0.000000
   21        7.698180  -0.000000
   22        8.171242  -0.000000
   23       12.275658   0.000000
   24       14.601512   0.000000
   25       15.679757   0.000000
   26       18.690931   0.000000
   27       19.461636   0.000000
   28       20.366152   0.000000
   29       22.813417   0.000000
   30       23.762609   0.000000
   31       24.018841   0.000000
   32       24.246993   0.000000
   33       26.067086   0.000000
   34       26.578145   0.000000
   35       26.977708   0.000000
   36       32.091727   0.000000
   37       32.267808   0.000000
   38       33.285955   0.000000
   39       33.499659   0.000000
   40       36.063608   0.000000
 
  0.4000000E+00  0.4000000E+00  0.0000000E+00  0.9600000E-01
    1        1.702524   1.000000
    2        2.959505   1.000000
    3        2.959505   1.000000
    4        3.470370   1.000000
    5        3.856844   1.000000
    6        3.992033   1.000000
    7        3.992033   1.000000
    8        4.215276   1.000000
    9        4.426109   1.000000
   10        4.426109   1.000000
   11        4.496747   1.000000
   12        5.059528   1.000000
   13        6.037466   1.000000
   14        6.235157   1.000193
   15        6.278321   1.000575
   16        6.365040   1.003723
   17        6.365040   1.003723
   18        6.885013   0.201079
   19        6.885013   0.201079
   20        7.142583  -0.019858
   21        8.243655  -0.000000
   22        9.697468  -0.000000
   23        9.697468  -0.000000
   24       11.659694  -0.000000
   25       17.822280   0.000000
   26       20.292928   0.000000
   27       20.601971   0.000000
   28       20.601971   0.000000
   29       21.804604   0.000000
   30       21.804604   0.000000
   31       23.136540   0.000000
   32       23.827670   0.000000
   33       28.068231   0.000000
   34       28.068231   0.000000
   35       29.261505   0.000000
   36       30.801177   0.000000
   37       33.268369   0.000000
   38       34.816005   0.000000
   39       35.840084   0.000000
   40       35.840084   0.000000
 
  0.2000000E+00  0.2000000E+00  0.2000000E+00  0.6400000E-01
    1       -0.437890   1.000000
    2        2.598230   1.000000
    3        2.598230   1.000000
    4        2.598230   1.000000
    5        3.253976   1.000000
    6        3.253976   1.000000
    7        3.253976   1.000000
    8        4.719917   1.000000
    9        5.461095   1.000000
   10        5.461095   1.000000
   11        5.621389   1.000000
   12        5.621389   1.000000
   13        5.621389   1.000000
   14        6.708588   0.869908
   15        6.708588   0.869908
   16        6.764856   0.679959
   17        6.764856   0.679959
   18        6.764856   0.679959
   19        7.905270  -0.000000
   20        7.905270  -0.000000
   21        7.905270  -0.000000
   22       10.918705  -0.000000
   23       10.918705  -0.000000
   24       10.918705  -0.000000
   25       18.457049   0.000000
   26       18.457049   0.000000
   27       18.457049   0.000000
   28       21.841803   0.000000
   29       21.841803   0.000000
   30       21.841803   0.000000
   31       25.571144   0.000000
   32       25.656608   0.000000
   33       25.656608   0.000000
   34       25.656608   0.000000
   35       30.216374   0.000000
   36       30.216374   0.000000
   37       30.216374   0.000000
   38       31.054562   0.000000
   39       34.667646   0.000000
   40       34.667646   0.000000
 
  0.4000000E+00  0.2000000E+00  0.2000000E+00  0.1920000E+00
    1        0.863936   1.000000
    2        2.246216   1.000000
    3        3.189350   1.000000
    4        3.189350   1.000000
    5        3.645913   1.000000
    6        3.645913   1.000000
    7        3.802369   1.000000
    8        4.382426   1.000000
    9        4.820689   1.000000
   10        4.820689   1.000000
   11        5.072441   1.000000
   12        5.344440   1.000000
   13        5.633004   1.000000
   14        6.108679   1.000004
   15        6.333447   1.001984
   16        6.333447   1.001984
   17        6.869229   0.255764
   18        7.255169  -0.003505
   19        7.729822  -0.000000
   20        7.729822  -0.000000
   21        7.730205  -0.000000
   22        8.297639  -0.000000
   23       12.385511   0.000000
   24       12.385511   0.000000
   25       15.932573   0.000000
   26       15.932573   0.000000
   27       20.304786   0.000000
   28       22.614186   0.000000
   29       22.614186   0.000000
   30       22.704817   0.000000
   31       24.899058   0.000000
   32       24.899058   0.000000
   33       26.483671   0.000000
   34       27.848053   0.000000
   35       29.532645   0.000000
   36       31.045271   0.000000
   37       31.104008   0.000000
   38       33.355900   0.000000
   39       33.355900   0.000000
   40       34.669434   0.000000
 
  0.4000000E+00  0.4000000E+00  0.2000000E+00  0.1920000E+00
    1        1.712566   1.000000
    2        2.593767   1.000000
    3        2.593767   1.000000
    4        2.902960   1.000000
    5        4.154406   1.000000
    6        4.355540   1.000000
    7        4.355540   1.000000
    8        4.704586   1.000000
    9        4.887904   1.000000
   10        4.887904   1.000000
   11        5.073404   1.000000
   12        5.145077   1.000000
   13        5.472925   1.000000
   14        5.782621   1.000000
   15        5.782621   1.000000
   16        5.813567   1.000000
   17        6.943524   0.049149
   18        7.482413  -0.000010
   19        7.482413  -0.000010
   20        7.532621  -0.000002
   21        8.008423  -0.000000
   22        9.527860  -0.000000
   23        9.527860  -0.000000
   24       11.161694  -0.000000
   25       15.648097   0.000000
   26       17.493307   0.000000
   27       17.493307   0.000000
   28       19.759983   0.000000
   29       23.808100   0.000000
   30       25.549191   0.000000
   31       25.549191   0.000000
   32       27.585676   0.000000
   33       28.523611   0.000000
   34       28.523611   0.000000
   35       29.779749   0.000000
   36       30.763874   0.000000
   37       32.424179   0.000000
   38       33.684190   0.000000
   39       33.684190   0.000000
   40       35.194200   0.000000
 
  0.4000000E+00  0.4000000E+00  0.4000000E+00  0.6400000E-01
    1        1.828900   1.000000
    2        2.218224   1.000000
    3        2.218224   1.000000
    4        2.218224   1.000000
    5        4.797668   1.000000
    6        4.797668   1.000000
    7        4.797668   1.000000
    8        5.169556   1.000000
    9        5.169556   1.000000
   10        5.304940   1.000000
   11        5.304940   1.000000
   12        5.304940   1.000000
   13        5.858905   1.000000
   14        5.858905   1.000000
   15        5.858905   1.000000
   16        5.941406   1.000000
   17        7.586755  -0.000000
   18        7.586755  -0.000000
   19        7.812731  -0.000000
   20        7.812731  -0.000000
   21        7.812731  -0.000000
   22        9.098576  -0.000000
   23        9.098576  -0.000000
   24        9.098576  -0.000000
   25       15.435407   0.000000
   26       15.435407   0.000000
   27       15.435407   0.000000
   28       17.029859   0.000000
   29       27.770403   0.000000
   30       27.770403   0.000000
   31       27.770403   0.000000
   32       29.087941   0.000000
   33       31.365750   0.000000
   34       31.365750   0.000000
   35       31.365750   0.000000
   36       31.855483   0.000000
   37       31.855483   0.000000
   38       31.855483   0.000000
   39       33.957784   0.000000
   40       33.957784   0.000000
