       N       E                     dE             d eps       ncg     rms          rms(c)
DAV:   1     0.150812477102E+03    0.15081E+03   -0.81134E+03   880   0.638E+02
DAV:   2    -0.267268031563E+02   -0.17754E+03   -0.15542E+03   832   0.177E+02
DAV:   3    -0.383603131146E+02   -0.11634E+02   -0.10622E+02   928   0.543E+01
DAV:   4    -0.385004421984E+02   -0.14013E+00   -0.13989E+00   888   0.705E+00
DAV:   5    -0.385016165292E+02   -0.11743E-02   -0.11743E-02   864   0.493E-01    0.239E+01
DAV:   6    -0.326784066156E+02    0.58232E+01   -0.12677E+01   888   0.504E+01    0.356E+00
DAV:   7    -0.323359641572E+02    0.34244E+00   -0.10870E+00   960   0.124E+01    0.139E+00
DAV:   8    -0.322825625658E+02    0.53402E-01   -0.11875E-02  1048   0.810E-01    0.622E-01
DAV:   9    -0.322625088382E+02    0.20054E-01   -0.41346E-03   992   0.376E-01    0.831E-02
DAV:  10    -0.322625421726E+02   -0.33334E-04   -0.41312E-04   872   0.110E-01    0.420E-02
DAV:  11    -0.322625395580E+02    0.26145E-05   -0.32889E-06   944   0.122E-02    0.222E-02
DAV:  12    -0.322625351623E+02    0.43958E-05   -0.37114E-06   904   0.128E-02    0.188E-03
DAV:  13    -0.322625361631E+02   -0.10009E-05   -0.88805E-08   504   0.150E-03    0.775E-04
DAV:  14    -0.322625365663E+02   -0.40313E-06   -0.99341E-09   448   0.559E-04
   1 F= -.32262537E+02 E0= -.32244951E+02  d E =-.527567E-01
