 vasp.6.2.0 18Jan21 (build Mar 17 2021 09:06:54) complex                        
  
 executed on             LinuxIFC date 2021.09.09  09:02:31
 serial version


--------------------------------------------------------------------------------------------------------


 INCAR:
   ENCUT = 280.000000
   SIGMA = 0.200000
   EDIFF = 1.00e-06
   GGA = PE
   PREC = normal
   IBRION = -1
   ICHARG = 1
   ISMEAR = 1
   KPAR = 1
   NBANDS = 40
   NSW = 0
   NCORE = 1
   LCHARG = .TRUE.

 POTCAR:    PAW_PBE Fe 06Sep2000                  
 POTCAR:    PAW_PBE Fe 06Sep2000                  
   SHA256 =  cd5a22d9368cc8b5cc476bea79732366149640da08ac9009b0e1b7fc627eea28 Fe/POTCAR             
   COPYR  = (c) Copyright 06Sep2000 Georg Kresse                                                    
   COPYR  = This file is part of the software VASP. Any use, copying, and all other rights are regul
   COPYR  = If you do not have a valid VASP license, you may not use, copy or distribute this file. 
   VRHFIN =Fe:  d7 s1                                                                               
   LEXCH  = PE                                                                                      
   EATOM  =   594.3153 eV,   43.6809 Ry                                                             
                                                                                                    
   TITEL  = PAW_PBE Fe 06Sep2000                                                                    
   LULTRA =        F    use ultrasoft PP ?                                                          
   IUNSCR =        1    unscreen: 0-lin 1-nonlin 2-no                                               
   RPACOR =    2.000    partial core radius                                                         
   POMASS =   55.847; ZVAL   =    8.000    mass and valenz                                          
   RCORE  =    2.300    outmost cutoff radius                                                       
   RWIGS  =    2.460; RWIGS  =    1.302    wigner-seitz radius (au A)                               
   ENMAX  =  267.882; ENMIN  =  200.911 eV                                                          
   RCLOC  =    1.701    cutoff for local pot                                                        
   LCOR   =        T    correct aug charges                                                         
   LPAW   =        T    paw PP                                                                      
   EAUG   =  511.368                                                                                
   DEXC   =    0.000                                                                                
   RMAX   =    2.356    core radius for proj-oper                                                   
   RAUG   =    1.300    factor for augmentation sphere                                              
   RDEP   =    2.442    radius for radial grids                                                     
   RDEPT  =    1.890    core radius for aug-charge                                                  
                                                                                                    
   Atomic configuration                                                                             
    9 entries                                                                                       
     n  l   j            E        occ.                                                              
     1  0  0.50     -6993.8440   2.0000                                                             
     2  0  0.50      -814.6047   2.0000                                                             
     2  1  1.50      -693.3689   6.0000                                                             
     3  0  0.50       -89.4732   2.0000                                                             
     3  1  1.50       -55.6373   6.0000                                                             
     3  2  2.50        -3.8151   7.0000                                                             
     4  0  0.50        -4.2551   1.0000                                                             
     4  1  1.50        -3.4015   0.0000                                                             
     4  3  2.50        -1.3606   0.0000                                                             
   Description                                                                                      
     l       E           TYP  RCUT    TYP  RCUT                                                     
     2     -3.8151135     23  2.300                                                                 
     2     -5.1756961     23  2.300                                                                 
     0     -4.2550963     23  2.300                                                                 
     0      7.2035603     23  2.300                                                                 
     1     -2.7211652     23  2.300                                                                 
     1     18.4316424     23  2.300                                                                 
  local pseudopotential read in
  partial core-charges read in
  partial kinetic energy density read in
  atomic valenz-charges read in
  non local Contribution for L=           2  read in
    real space projection operators read in
  non local Contribution for L=           2  read in
    real space projection operators read in
  non local Contribution for L=           0  read in
    real space projection operators read in
  non local Contribution for L=           0  read in
    real space projection operators read in
  non local Contribution for L=           1  read in
    real space projection operators read in
  non local Contribution for L=           1  read in
    real space projection operators read in
    PAW grid and wavefunctions read in
 
   number of l-projection  operators is LMAX  =           6
   number of lm-projection operators is LMMAX =          18
 
  PAW_PBE Fe 06Sep2000                  :
 energy of atom  1       EATOM= -594.3153
 kinetic energy error for atom=    0.0278 (will be added to EATOM!!)
 
 
 POSCAR: Fe
  positions in cartesian coordinates
  No initial velocities read in
 exchange correlation table for  LEXCH =        8
   RHO(1)=    0.500       N(1)  =     2000
   RHO(2)=  100.500       N(2)  =     4000
 


--------------------------------------------------------------------------------------------------------


 ion  position               nearest neighbor table
   1  0.000  0.000  0.000-   2 2.44   3 2.44   4 2.44   3 2.44   4 2.44   2 2.44   4 2.44   4 2.44
                             2 2.44   3 2.44   3 2.44   2 2.44
   2  0.500  0.500  0.000-   1 2.44   3 2.44   4 2.44   3 2.44   4 2.44   1 2.44   3 2.44   3 2.44
                             1 2.44   4 2.44   4 2.44   1 2.44
   3  0.500  0.000  0.500-   1 2.44   2 2.44   4 2.44   1 2.44   2 2.44   2 2.44   4 2.44   2 2.44
                             1 2.44   4 2.44   1 2.44   4 2.44
   4  0.000  0.500  0.500-   1 2.44   2 2.44   3 2.44   1 2.44   2 2.44   1 2.44   3 2.44   1 2.44
                             2 2.44   3 2.44   2 2.44   3 2.44
 
  LATTYP: Found a simple cubic cell.
 ALAT       =     3.4450830000
  
  Lattice vectors:
  
 A1 = (   3.4450830000,   0.0000000000,   0.0000000000)
 A2 = (   0.0000000000,   3.4450830000,   0.0000000000)
 A3 = (   0.0000000000,   0.0000000000,   3.4450830000)


Analysis of symmetry for initial positions (statically):
=====================================================================
 Subroutine PRICEL returns following result:
 
  LATTYP: Found a face centered cubic cell.
 ALAT       =     3.4450830000
  
  Lattice vectors:
  
 A1 = (   1.7225415000,  -1.7225415000,   0.0000000000)
 A2 = (   1.7225415000,   0.0000000000,   1.7225415000)
 A3 = (   0.0000000000,  -1.7225415000,   1.7225415000)
 
   4 primitive cells build up your supercell.
 

 Routine SETGRP: Setting up the symmetry group for a 
 simple cubic supercell.


 Subroutine GETGRP returns: Found 48 space group operations
 (whereof 48 operations were pure point group operations)
 out of a pool of 48 trial point group operations.


The static configuration has the point symmetry O_h .


Analysis of symmetry for dynamics (positions and initial velocities):
=====================================================================
 Subroutine PRICEL returns following result:
 
  LATTYP: Found a face centered cubic cell.
 ALAT       =     3.4450830000
  
  Lattice vectors:
  
 A1 = (   1.7225415000,  -1.7225415000,   0.0000000000)
 A2 = (   1.7225415000,   0.0000000000,   1.7225415000)
 A3 = (   0.0000000000,  -1.7225415000,   1.7225415000)
 
   4 primitive cells build up your supercell.
 

 Routine SETGRP: Setting up the symmetry group for a 
 simple cubic supercell.


 Subroutine GETGRP returns: Found 48 space group operations
 (whereof 48 operations were pure point group operations)
 out of a pool of 48 trial point group operations.


The dynamic configuration has the point symmetry O_h .


 Subroutine INISYM returns: Found 48 space group operations
 (whereof 48 operations are pure point group operations),
 and found     4 'primitive' translations


----------------------------------------------------------------------------------------

                                     Primitive cell                                     

  volume of cell :      10.2221

  direct lattice vectors                    reciprocal lattice vectors
     1.722541500 -1.722541500  0.000000000     0.290268769 -0.290268769 -0.290268769
     1.722541500  0.000000000  1.722541500     0.290268769  0.290268769  0.290268769
     0.000000000 -1.722541500  1.722541500    -0.290268769 -0.290268769  0.290268769

  length of vectors
     2.436041551  2.436041551  2.436041551     0.502760255  0.502760255  0.502760255

  position of ions in fractional coordinates (direct lattice)
     0.000000000  0.000000000  0.000000000

  ion indices of the primitive-cell ions
   primitive index   ion index
                 1           1

----------------------------------------------------------------------------------------

 
 
 KPOINTS: KPOINTS created by Atomic Simulation Env

Automatic generation of k-mesh.
 Grid dimensions read from file:
 generate k-points for:    5    5    5

 Generating k-lattice:

  Cartesian coordinates                     Fractional coordinates (reciprocal lattice)
     0.058053754  0.000000000  0.000000000     0.200000000  0.000000000  0.000000000
     0.000000000  0.058053754  0.000000000     0.000000000  0.200000000  0.000000000
     0.000000000  0.000000000  0.058053754     0.000000000  0.000000000  0.200000000

  Length of vectors
     0.058053754  0.058053754  0.058053754

  Shift w.r.t. Gamma in fractional coordinates (k-lattice)
     0.000000000  0.000000000  0.000000000

 
 Subroutine IBZKPT returns following result:
 ===========================================
 
 Found     10 irreducible k-points:
 
 Following reciprocal coordinates:
            Coordinates               Weight
  0.000000  0.000000  0.000000      1.000000
  0.200000  0.000000  0.000000      6.000000
  0.400000  0.000000  0.000000      6.000000
  0.200000  0.200000  0.000000     12.000000
  0.400000  0.200000  0.000000     24.000000
  0.400000  0.400000  0.000000     12.000000
  0.200000  0.200000  0.200000      8.000000
  0.400000  0.200000  0.200000     24.000000
  0.400000  0.400000  0.200000     24.000000
  0.400000  0.400000  0.400000      8.000000
 
 Following cartesian coordinates:
            Coordinates               Weight
  0.000000  0.000000  0.000000      1.000000
  0.058054  0.000000  0.000000      6.000000
  0.116108  0.000000  0.000000      6.000000
  0.058054  0.058054  0.000000     12.000000
  0.116108  0.058054  0.000000     24.000000
  0.116108  0.116108  0.000000     12.000000
  0.058054  0.058054  0.058054      8.000000
  0.116108  0.058054  0.058054     24.000000
  0.116108  0.116108  0.058054     24.000000
  0.116108  0.116108  0.116108      8.000000
 


--------------------------------------------------------------------------------------------------------




 Dimension of arrays:
   k-points           NKPTS =     10   k-points in BZ     NKDIM =     10   number of bands    NBANDS=     40
   number of dos      NEDOS =    301   number of ions     NIONS =      4
   non local maximal  LDIM  =      6   non local SUM 2l+1 LMDIM =     18
   total plane-waves  NPLWV =   2744
   max r-space proj   IRMAX =      1   max aug-charges    IRDMAX=   2590
   dimension x,y,z NGX =    14 NGY =   14 NGZ =   14
   dimension x,y,z NGXF=    28 NGYF=   28 NGZF=   28
   support grid    NGXF=    28 NGYF=   28 NGZF=   28
   ions per type =               4
   NGX,Y,Z   is equivalent  to a cutoff of   6.76,  6.76,  6.76 a.u.
   NGXF,Y,Z  is equivalent  to a cutoff of  13.51, 13.51, 13.51 a.u.

 SYSTEM =  unknown system                          
 POSCAR =  Fe                                      

 Startparameter for this run:
   NWRITE =      2    write-flag & timer
   PREC   = normal    normal or accurate (medium, high low for compatibility)
   ISTART =      0    job   : 0-new  1-cont  2-samecut
   ICHARG =      1    charge: 1-file 2-atom 10-const
   ISPIN  =      1    spin polarized calculation?
   LNONCOLLINEAR =      F non collinear calculations
   LSORBIT =      F    spin-orbit coupling
   INIWAV =      1    electr: 0-lowe 1-rand  2-diag
   LASPH  =      F    aspherical Exc in radial PAW
   METAGGA=      F    non-selfconsistent MetaGGA calc.

 Electronic Relaxation 1
   ENCUT  =  280.0 eV  20.58 Ry    4.54 a.u.   4.70  4.70  4.70*2*pi/ulx,y,z
   ENINI  =  280.0     initial cutoff
   ENAUG  =  511.4 eV  augmentation charge cutoff
   NELM   =     60;   NELMIN=  2; NELMDL= -5     # of ELM steps 
   EDIFF  = 0.1E-05   stopping-criterion for ELM
   LREAL  =      F    real-space projection
   NLSPLINE    = F    spline interpolate recip. space projectors
   LCOMPAT=      F    compatible to vasp.4.4
   GGA_COMPAT  = T    GGA compatible to vasp.4.4-vasp.4.6
   LMAXPAW     = -100 max onsite density
   LMAXMIX     =    2 max onsite mixed and CHGCAR
   VOSKOWN=      0    Vosko Wilk Nusair interpolation
   ROPT   =    0.00000
 Ionic relaxation
   EDIFFG = 0.1E-04   stopping-criterion for IOM
   NSW    =      0    number of steps for IOM
   NBLOCK =      1;   KBLOCK =      1    inner block; outer block 
   IBRION =     -1    ionic relax: 0-MD 1-quasi-New 2-CG
   NFREE  =      0    steps in history (QN), initial steepest desc. (CG)
   ISIF   =      2    stress and relaxation
   IWAVPR =      0    prediction:  0-non 1-charg 2-wave 3-comb
   ISYM   =      2    0-nonsym 1-usesym 2-fastsym
   LCORR  =      T    Harris-Foulkes like correction to forces

   POTIM  = 0.5000    time-step for ionic-motion
   TEIN   =    0.0    initial temperature
   TEBEG  =    0.0;   TEEND  =   0.0 temperature during run
   SMASS  =  -3.00    Nose mass-parameter (am)
   estimated Nose-frequenzy (Omega)   =  0.10E-29 period in steps = 0.13E+47 mass=  -0.271E-27a.u.
   SCALEE = 1.0000    scale energy and forces
   NPACO  =    256;   APACO  = 16.0  distance and # of slots for P.C.
   PSTRESS=    0.0 pullay stress

  Mass of Ions in am
   POMASS =  55.85
  Ionic Valenz
   ZVAL   =   8.00
  Atomic Wigner-Seitz radii
   RWIGS  =  -1.00
  virtual crystal weights 
   VCA    =   1.00
   NELECT =      32.0000    total number of electrons
   NUPDOWN=      -1.0000    fix difference up-down

 DOS related values:
   EMIN   =  10.00;   EMAX   =-10.00  energy-range for DOS
   EFERMI =   0.00
   ISMEAR =     1;   SIGMA  =   0.20  broadening in eV -4-tet -1-fermi 0-gaus

 Electronic relaxation 2 (details)
   IALGO  =     38    algorithm
   LDIAG  =      T    sub-space diagonalisation (order eigenvalues)
   LSUBROT=      F    optimize rotation matrix (better conditioning)
   TURBO    =      0    0=normal 1=particle mesh
   IRESTART =      0    0=no restart 2=restart with 2 vectors
   NREBOOT  =      0    no. of reboots
   NMIN     =      0    reboot dimension
   EREF     =   0.00    reference energy to select bands
   IMIX   =      4    mixing-type and parameters
     AMIX     =   0.40;   BMIX     =  1.00
     AMIX_MAG =   1.60;   BMIX_MAG =  1.00
     AMIN     =   0.10
     WC   =   100.;   INIMIX=   1;  MIXPRE=   1;  MAXMIX= -45

 Intra band minimization:
   WEIMIN = 0.0000     energy-eigenvalue tresh-hold
   EBREAK =  0.62E-08  absolut break condition
   DEPER  =   0.30     relativ break condition  

   TIME   =   0.40     timestep for ELM

  volume/ion in A,a.u.               =      10.22        68.98
  Fermi-wavevector in a.u.,A,eV,Ry     =   1.508661  2.850957 30.967669  2.276059
  Thomas-Fermi vector in A             =   2.619086
 
 Write flags
   LWAVE        =      T    write WAVECAR
   LDOWNSAMPLE  =      F    k-point downsampling of WAVECAR
   LCHARG       =      T    write CHGCAR
   LVTOT        =      F    write LOCPOT, total local potential
   LVHAR        =      F    write LOCPOT, Hartree potential only
   LELF         =      F    write electronic localiz. function (ELF)
   LORBIT       =      0    0 simple, 1 ext, 2 COOP (PROOUT), +10 PAW based schemes


 Dipole corrections
   LMONO  =      F    monopole corrections only (constant potential shift)
   LDIPOL =      F    correct potential (dipole corrections)
   IDIPOL =      0    1-x, 2-y, 3-z, 4-all directions 
   EPSILON=  1.0000000 bulk dielectric constant

 Exchange correlation treatment:
   GGA     =    PE    GGA type
   LEXCH   =     8    internal setting for exchange type
   VOSKOWN=      0    Vosko Wilk Nusair interpolation
   LHFCALC =     F    Hartree Fock is set to
   LHFONE  =     F    Hartree Fock one center treatment
   AEXX    =    0.0000 exact exchange contribution

 Linear response parameters
   LEPSILON=     F    determine dielectric tensor
   LRPA    =     F    only Hartree local field effects (RPA)
   LNABLA  =     F    use nabla operator in PAW spheres
   LVEL    =     F    velocity operator in full k-point grid
   LINTERFAST=   F  fast interpolation
   KINTER  =     0    interpolate to denser k-point grid
   CSHIFT  =0.1000    complex shift for real part using Kramers Kronig
   OMEGAMAX=  -1.0    maximum frequency
   DEG_THRESHOLD= 0.2000000E-02 threshold for treating states as degnerate
   RTIME   =   -0.100 relaxation time in fs
  (WPLASMAI=    0.000 imaginary part of plasma frequency in eV, 0.658/RTIME)
   DFIELD  = 0.0000000 0.0000000 0.0000000 field for delta impulse in time
 
 Orbital magnetization related:
   ORBITALMAG=     F  switch on orbital magnetization
   LCHIMAG   =     F  perturbation theory with respect to B field
   DQ        =  0.001000  dq finite difference perturbation B field
   LLRAUG    =     F  two centre corrections for induced B field



--------------------------------------------------------------------------------------------------------


 Static calculation
 charge density and potential will be updated during run
 non-spin polarized calculation
 Variant of blocked Davidson
 Davidson routine will perform the subspace rotation
 perform sub-space diagonalisation
    after iterative eigenvector-optimisation
 modified Broyden-mixing scheme, WC =      100.0
 initial mixing is a Kerker type mixing with AMIX =  0.4000 and BMIX =      1.0000
 Hartree-type preconditioning will be used
 using additional bands           24
 reciprocal scheme for non local part
 use partial core corrections
 calculate Harris-corrections to forces 
   (improved forces if not selfconsistent)
 use gradient corrections 
 use of overlap-Matrix (Vanderbilt PP)
 Methfessel and Paxton  Order N= 1 SIGMA  =   0.20


--------------------------------------------------------------------------------------------------------


  energy-cutoff  :      280.00
  volume of cell :       40.89
      direct lattice vectors                 reciprocal lattice vectors
     3.445083000  0.000000000  0.000000000     0.290268769  0.000000000  0.000000000
     0.000000000  3.445083000  0.000000000     0.000000000  0.290268769  0.000000000
     0.000000000  0.000000000  3.445083000     0.000000000  0.000000000  0.290268769

  length of vectors
     3.445083000  3.445083000  3.445083000     0.290268769  0.290268769  0.290268769


 
 k-points in units of 2pi/SCALE and weight: KPOINTS created by Atomic Simulation Env
   0.00000000  0.00000000  0.00000000       0.008
   0.05805375  0.00000000  0.00000000       0.048
   0.11610751  0.00000000  0.00000000       0.048
   0.05805375  0.05805375  0.00000000       0.096
   0.11610751  0.05805375  0.00000000       0.192
   0.11610751  0.11610751  0.00000000       0.096
   0.05805375  0.05805375  0.05805375       0.064
   0.11610751  0.05805375  0.05805375       0.192
   0.11610751  0.11610751  0.05805375       0.192
   0.11610751  0.11610751  0.11610751       0.064
 
 k-points in reciprocal lattice and weights: KPOINTS created by Atomic Simulation Env
   0.00000000  0.00000000  0.00000000       0.008
   0.20000000  0.00000000  0.00000000       0.048
   0.40000000  0.00000000  0.00000000       0.048
   0.20000000  0.20000000  0.00000000       0.096
   0.40000000  0.20000000  0.00000000       0.192
   0.40000000  0.40000000  0.00000000       0.096
   0.20000000  0.20000000  0.20000000       0.064
   0.40000000  0.20000000  0.20000000       0.192
   0.40000000  0.40000000  0.20000000       0.192
   0.40000000  0.40000000  0.40000000       0.064
 
 position of ions in fractional coordinates (direct lattice) 
   0.00000000  0.00000000  0.00000000
   0.50000000  0.50000000  0.00000000
   0.50000000  0.00000000  0.50000000
   0.00000000  0.50000000  0.50000000
 
 position of ions in cartesian coordinates  (Angst):
   0.00000000  0.00000000  0.00000000
   1.72254150  1.72254150  0.00000000
   1.72254150  0.00000000  1.72254150
   0.00000000  1.72254150  1.72254150
 


--------------------------------------------------------------------------------------------------------


 k-point   1 :   0.0000 0.0000 0.0000  plane waves:     461
 k-point   2 :   0.2000 0.0000 0.0000  plane waves:     441
 k-point   3 :   0.4000 0.0000 0.0000  plane waves:     438
 k-point   4 :   0.2000 0.2000 0.0000  plane waves:     437
 k-point   5 :   0.4000 0.2000 0.0000  plane waves:     440
 k-point   6 :   0.4000 0.4000 0.0000  plane waves:     422
 k-point   7 :   0.2000 0.2000 0.2000  plane waves:     428
 k-point   8 :   0.4000 0.2000 0.2000  plane waves:     435
 k-point   9 :   0.4000 0.4000 0.2000  plane waves:     434
 k-point  10 :   0.4000 0.4000 0.4000  plane waves:     444

 maximum number of plane-waves:       461
 maximum index in each direction: 
   IXMAX=    4   IYMAX=    4   IZMAX=    4
   IXMIN=   -5   IYMIN=   -5   IZMIN=   -5


 total amount of memory used by VASP MPI-rank0    35382. kBytes
=======================================================================

   base      :      30000. kBytes
   nonl-proj :        693. kBytes
   grid      :       1216. kBytes
   one-center:         62. kBytes
   wavefun   :       3411. kBytes
 
     INWAV:  cpu time    0.0000: real time    0.0000
 Broyden mixing: mesh for mixing (old mesh)
   NGX =  9   NGY =  9   NGZ =  9
  (NGX  = 28   NGY  = 28   NGZ  = 28)
  gives a total of    729 points

 initial charge density was supplied:
 charge density of overlapping atoms calculated
 number of electron      32.0000000 magnetization 
 keeping initial charge density in first step


--------------------------------------------------------------------------------------------------------


 Maximum index for augmentation-charges         2325 (set IRDMAX)


--------------------------------------------------------------------------------------------------------


 First call to EWALD:  gamma=   0.514
 Maximum number of real-space cells 3x 3x 3
 Maximum number of reciprocal cells 3x 3x 3

    FEWALD:  cpu time    0.0008: real time    0.0008


--------------------------------------- Iteration      1(   1)  ---------------------------------------


    POTLOK:  cpu time    0.0051: real time    0.0051
    SETDIJ:  cpu time    0.0040: real time    0.0040
     EDDAV:  cpu time    0.1743: real time    0.1937
       DOS:  cpu time    0.0009: real time    0.0009
    --------------------------------------------
      LOOP:  cpu time    0.1843: real time    0.2037

 eigenvalue-minimisations  :   880
 total energy-change (2. order) : 0.1508125E+03  (-0.8113413E+03)
 number of electron      32.0000000 magnetization 
 augmentation part       32.0000000 magnetization 

 Free energy of the ion-electron system (eV)
  ---------------------------------------------------
  alpha Z        PSCENC =       270.44909666
  Ewald energy   TEWEN  =     -2452.97223925
  -Hartree energ DENC   =      -414.53988404
  -exchange      EXHF   =         0.00000000
  -V(xc)+E(xc)   XCENC  =        16.92970068
  PAW double counting   =      2219.38341365    -2250.19294531
  entropy T*S    EENTRO =        -0.01595051
  eigenvalues    EBANDS =       384.62146898
  atomic energy  EATOM  =      2377.14981623
  Solvation  Ediel_sol  =         0.00000000
  ---------------------------------------------------
  free energy    TOTEN  =       150.81247710 eV

  energy without entropy =      150.82842761  energy(sigma->0) =      150.81779394


--------------------------------------------------------------------------------------------------------




--------------------------------------- Iteration      1(   2)  ---------------------------------------


     EDDAV:  cpu time    0.1147: real time    0.1147
       DOS:  cpu time    0.0010: real time    0.0010
    --------------------------------------------
      LOOP:  cpu time    0.1157: real time    0.1157

 eigenvalue-minimisations  :   832
 total energy-change (2. order) :-0.1775393E+03  (-0.1554190E+03)
 number of electron      32.0000000 magnetization 
 augmentation part       32.0000000 magnetization 

 Free energy of the ion-electron system (eV)
  ---------------------------------------------------
  alpha Z        PSCENC =       270.44909666
  Ewald energy   TEWEN  =     -2452.97223925
  -Hartree energ DENC   =      -414.53988404
  -exchange      EXHF   =         0.00000000
  -V(xc)+E(xc)   XCENC  =        16.92970068
  PAW double counting   =      2219.38341365    -2250.19294531
  entropy T*S    EENTRO =        -0.01673745
  eigenvalues    EBANDS =       207.08297567
  atomic energy  EATOM  =      2377.14981623
  Solvation  Ediel_sol  =         0.00000000
  ---------------------------------------------------
  free energy    TOTEN  =       -26.72680316 eV

  energy without entropy =      -26.71006570  energy(sigma->0) =      -26.72122400


--------------------------------------------------------------------------------------------------------




--------------------------------------- Iteration      1(   3)  ---------------------------------------


     EDDAV:  cpu time    0.1262: real time    0.1262
       DOS:  cpu time    0.0010: real time    0.0010
    --------------------------------------------
      LOOP:  cpu time    0.1272: real time    0.1272

 eigenvalue-minimisations  :   928
 total energy-change (2. order) :-0.1163351E+02  (-0.1062158E+02)
 number of electron      32.0000000 magnetization 
 augmentation part       32.0000000 magnetization 

 Free energy of the ion-electron system (eV)
  ---------------------------------------------------
  alpha Z        PSCENC =       270.44909666
  Ewald energy   TEWEN  =     -2452.97223925
  -Hartree energ DENC   =      -414.53988404
  -exchange      EXHF   =         0.00000000
  -V(xc)+E(xc)   XCENC  =        16.92970068
  PAW double counting   =      2219.38341365    -2250.19294531
  entropy T*S    EENTRO =        -0.03193286
  eigenvalues    EBANDS =       195.46466111
  atomic energy  EATOM  =      2377.14981623
  Solvation  Ediel_sol  =         0.00000000
  ---------------------------------------------------
  free energy    TOTEN  =       -38.36031311 eV

  energy without entropy =      -38.32838026  energy(sigma->0) =      -38.34966883


--------------------------------------------------------------------------------------------------------




--------------------------------------- Iteration      1(   4)  ---------------------------------------


     EDDAV:  cpu time    0.1220: real time    0.1220
       DOS:  cpu time    0.0010: real time    0.0010
    --------------------------------------------
      LOOP:  cpu time    0.1231: real time    0.1231

 eigenvalue-minimisations  :   888
 total energy-change (2. order) :-0.1401291E+00  (-0.1398850E+00)
 number of electron      32.0000000 magnetization 
 augmentation part       32.0000000 magnetization 

 Free energy of the ion-electron system (eV)
  ---------------------------------------------------
  alpha Z        PSCENC =       270.44909666
  Ewald energy   TEWEN  =     -2452.97223925
  -Hartree energ DENC   =      -414.53988404
  -exchange      EXHF   =         0.00000000
  -V(xc)+E(xc)   XCENC  =        16.92970068
  PAW double counting   =      2219.38341365    -2250.19294531
  entropy T*S    EENTRO =        -0.03200081
  eigenvalues    EBANDS =       195.32459997
  atomic energy  EATOM  =      2377.14981623
  Solvation  Ediel_sol  =         0.00000000
  ---------------------------------------------------
  free energy    TOTEN  =       -38.50044220 eV

  energy without entropy =      -38.46844139  energy(sigma->0) =      -38.48977526


--------------------------------------------------------------------------------------------------------




--------------------------------------- Iteration      1(   5)  ---------------------------------------


     EDDAV:  cpu time    0.1185: real time    0.1185
       DOS:  cpu time    0.0010: real time    0.0010
    CHARGE:  cpu time    0.0074: real time    0.0074
    MIXING:  cpu time    0.0002: real time    0.0002
    --------------------------------------------
      LOOP:  cpu time    0.1271: real time    0.1271

 eigenvalue-minimisations  :   864
 total energy-change (2. order) :-0.1174331E-02  (-0.1174316E-02)
 number of electron      32.0000963 magnetization 
 augmentation part       14.1395133 magnetization 

 Broyden mixing:
  rms(total) = 0.23947E+01    rms(broyden)= 0.23940E+01
  rms(prec ) = 0.47117E+01
  weight for this iteration     100.00

 Free energy of the ion-electron system (eV)
  ---------------------------------------------------
  alpha Z        PSCENC =       270.44909666
  Ewald energy   TEWEN  =     -2452.97223925
  -Hartree energ DENC   =      -414.53988404
  -exchange      EXHF   =         0.00000000
  -V(xc)+E(xc)   XCENC  =        16.92970068
  PAW double counting   =      2219.38341365    -2250.19294531
  entropy T*S    EENTRO =        -0.03199876
  eigenvalues    EBANDS =       195.32342360
  atomic energy  EATOM  =      2377.14981623
  Solvation  Ediel_sol  =         0.00000000
  ---------------------------------------------------
  free energy    TOTEN  =       -38.50161653 eV

  energy without entropy =      -38.46961777  energy(sigma->0) =      -38.49095028


--------------------------------------------------------------------------------------------------------




--------------------------------------- Iteration      1(   6)  ---------------------------------------


    POTLOK:  cpu time    0.0048: real time    0.0048
    SETDIJ:  cpu time    0.0039: real time    0.0039
     EDDAV:  cpu time    0.1197: real time    0.1197
       DOS:  cpu time    0.0011: real time    0.0010
    CHARGE:  cpu time    0.0075: real time    0.0075
    MIXING:  cpu time    0.0002: real time    0.0002
    --------------------------------------------
      LOOP:  cpu time    0.1372: real time    0.1372

 eigenvalue-minimisations  :   888
 total energy-change (2. order) : 0.5823210E+01  (-0.1267714E+01)
 number of electron      32.0001025 magnetization 
 augmentation part       16.9659020 magnetization 

 Broyden mixing:
  rms(total) = 0.35645E+00    rms(broyden)= 0.35440E+00
  rms(prec ) = 0.67223E+00
  weight for this iteration     100.00

 eigenvalues of (default mixing * dielectric matrix)
  average eigenvalue GAMMA=   0.9213
  0.9213

 Free energy of the ion-electron system (eV)
  ---------------------------------------------------
  alpha Z        PSCENC =       270.44909666
  Ewald energy   TEWEN  =     -2452.97223925
  -Hartree energ DENC   =      -345.21362579
  -exchange      EXHF   =         0.00000000
  -V(xc)+E(xc)   XCENC  =        13.53244847
  PAW double counting   =      2505.54772824    -2527.36007430
  entropy T*S    EENTRO =        -0.05726589
  eigenvalues    EBANDS =       126.24570901
  atomic energy  EATOM  =      2377.14981623
  Solvation  Ediel_sol  =         0.00000000
  ---------------------------------------------------
  free energy    TOTEN  =       -32.67840662 eV

  energy without entropy =      -32.62114072  energy(sigma->0) =      -32.65931799


--------------------------------------------------------------------------------------------------------




--------------------------------------- Iteration      1(   7)  ---------------------------------------


    POTLOK:  cpu time    0.0048: real time    0.0048
    SETDIJ:  cpu time    0.0039: real time    0.0039
     EDDAV:  cpu time    0.1300: real time    0.1300
       DOS:  cpu time    0.0011: real time    0.0011
    CHARGE:  cpu time    0.0074: real time    0.0074
    MIXING:  cpu time    0.0002: real time    0.0002
    --------------------------------------------
      LOOP:  cpu time    0.1475: real time    0.1475

 eigenvalue-minimisations  :   960
 total energy-change (2. order) : 0.3424425E+00  (-0.1086951E+00)
 number of electron      32.0001026 magnetization 
 augmentation part       16.3667929 magnetization 

 Broyden mixing:
  rms(total) = 0.13901E+00    rms(broyden)= 0.13869E+00
  rms(prec ) = 0.30592E+00
  weight for this iteration     100.00

 eigenvalues of (default mixing * dielectric matrix)
  average eigenvalue GAMMA=   0.9837
  1.2137  0.7538

 Free energy of the ion-electron system (eV)
  ---------------------------------------------------
  alpha Z        PSCENC =       270.44909666
  Ewald energy   TEWEN  =     -2452.97223925
  -Hartree energ DENC   =      -353.30326294
  -exchange      EXHF   =         0.00000000
  -V(xc)+E(xc)   XCENC  =        14.01194671
  PAW double counting   =      2671.04925233    -2699.94112866
  entropy T*S    EENTRO =        -0.05183536
  eigenvalues    EBANDS =       141.27239011
  atomic energy  EATOM  =      2377.14981623
  Solvation  Ediel_sol  =         0.00000000
  ---------------------------------------------------
  free energy    TOTEN  =       -32.33596416 eV

  energy without entropy =      -32.28412879  energy(sigma->0) =      -32.31868570


--------------------------------------------------------------------------------------------------------




--------------------------------------- Iteration      1(   8)  ---------------------------------------


    POTLOK:  cpu time    0.0048: real time    0.0048
    SETDIJ:  cpu time    0.0039: real time    0.0039
     EDDAV:  cpu time    0.1383: real time    0.1383
       DOS:  cpu time    0.0010: real time    0.0010
    CHARGE:  cpu time    0.0074: real time    0.0074
    MIXING:  cpu time    0.0002: real time    0.0002
    --------------------------------------------
      LOOP:  cpu time    0.1557: real time    0.1557

 eigenvalue-minimisations  :  1048
 total energy-change (2. order) : 0.5340159E-01  (-0.1187527E-02)
 number of electron      32.0001020 magnetization 
 augmentation part       16.4165746 magnetization 

 Broyden mixing:
  rms(total) = 0.62223E-01    rms(broyden)= 0.62201E-01
  rms(prec ) = 0.13967E+00
  weight for this iteration     100.00

 eigenvalues of (default mixing * dielectric matrix)
  average eigenvalue GAMMA=   1.4613
  0.7998  1.0642  2.5200

 Free energy of the ion-electron system (eV)
  ---------------------------------------------------
  alpha Z        PSCENC =       270.44909666
  Ewald energy   TEWEN  =     -2452.97223925
  -Hartree energ DENC   =      -349.25057292
  -exchange      EXHF   =         0.00000000
  -V(xc)+E(xc)   XCENC  =        13.84850810
  PAW double counting   =      2791.86584207    -2823.60545429
  entropy T*S    EENTRO =        -0.05331694
  eigenvalues    EBANDS =       140.28575777
  atomic energy  EATOM  =      2377.14981623
  Solvation  Ediel_sol  =         0.00000000
  ---------------------------------------------------
  free energy    TOTEN  =       -32.28256257 eV

  energy without entropy =      -32.22924563  energy(sigma->0) =      -32.26479025


--------------------------------------------------------------------------------------------------------




--------------------------------------- Iteration      1(   9)  ---------------------------------------


    POTLOK:  cpu time    0.0048: real time    0.0048
    SETDIJ:  cpu time    0.0039: real time    0.0039
     EDDAV:  cpu time    0.1303: real time    0.1303
       DOS:  cpu time    0.0010: real time    0.0010
    CHARGE:  cpu time    0.0072: real time    0.0072
    MIXING:  cpu time    0.0003: real time    0.0003
    --------------------------------------------
      LOOP:  cpu time    0.1474: real time    0.1474

 eigenvalue-minimisations  :   992
 total energy-change (2. order) : 0.2005373E-01  (-0.4134643E-03)
 number of electron      32.0001023 magnetization 
 augmentation part       16.4429004 magnetization 

 Broyden mixing:
  rms(total) = 0.83150E-02    rms(broyden)= 0.82990E-02
  rms(prec ) = 0.94358E-02
  weight for this iteration     100.00

 eigenvalues of (default mixing * dielectric matrix)
  average eigenvalue GAMMA=   1.3540
  2.5622  1.1648  0.7920  0.8971

 Free energy of the ion-electron system (eV)
  ---------------------------------------------------
  alpha Z        PSCENC =       270.44909666
  Ewald energy   TEWEN  =     -2452.97223925
  -Hartree energ DENC   =      -345.14026319
  -exchange      EXHF   =         0.00000000
  -V(xc)+E(xc)   XCENC  =        13.69653804
  PAW double counting   =      2940.82252197    -2976.06846202
  entropy T*S    EENTRO =        -0.05273773
  eigenvalues    EBANDS =       139.85322044
  atomic energy  EATOM  =      2377.14981623
  Solvation  Ediel_sol  =         0.00000000
  ---------------------------------------------------
  free energy    TOTEN  =       -32.26250884 eV

  energy without entropy =      -32.20977111  energy(sigma->0) =      -32.24492960


--------------------------------------------------------------------------------------------------------




--------------------------------------- Iteration      1(  10)  ---------------------------------------


    POTLOK:  cpu time    0.0048: real time    0.0048
    SETDIJ:  cpu time    0.0040: real time    0.0040
     EDDAV:  cpu time    0.1185: real time    0.1185
       DOS:  cpu time    0.0010: real time    0.0010
    CHARGE:  cpu time    0.0072: real time    0.0072
    MIXING:  cpu time    0.0003: real time    0.0003
    --------------------------------------------
      LOOP:  cpu time    0.1358: real time    0.1358

 eigenvalue-minimisations  :   872
 total energy-change (2. order) :-0.3333434E-04  (-0.4131225E-04)
 number of electron      32.0001023 magnetization 
 augmentation part       16.4443526 magnetization 

 Broyden mixing:
  rms(total) = 0.41959E-02    rms(broyden)= 0.41955E-02
  rms(prec ) = 0.57992E-02
  weight for this iteration     100.00

 eigenvalues of (default mixing * dielectric matrix)
  average eigenvalue GAMMA=   1.7048
  2.8342  2.8342  1.1265  0.9321  0.7970

 Free energy of the ion-electron system (eV)
  ---------------------------------------------------
  alpha Z        PSCENC =       270.44909666
  Ewald energy   TEWEN  =     -2452.97223925
  -Hartree energ DENC   =      -345.22371124
  -exchange      EXHF   =         0.00000000
  -V(xc)+E(xc)   XCENC  =        13.70013560
  PAW double counting   =      2939.31427871    -2974.41920918
  entropy T*S    EENTRO =        -0.05280424
  eigenvalues    EBANDS =       139.79209453
  atomic energy  EATOM  =      2377.14981623
  Solvation  Ediel_sol  =         0.00000000
  ---------------------------------------------------
  free energy    TOTEN  =       -32.26254217 eV

  energy without entropy =      -32.20973793  energy(sigma->0) =      -32.24494076


--------------------------------------------------------------------------------------------------------




--------------------------------------- Iteration      1(  11)  ---------------------------------------


    POTLOK:  cpu time    0.0048: real time    0.0048
    SETDIJ:  cpu time    0.0040: real time    0.0040
     EDDAV:  cpu time    0.1268: real time    0.1268
       DOS:  cpu time    0.0010: real time    0.0010
    CHARGE:  cpu time    0.0073: real time    0.0073
    MIXING:  cpu time    0.0003: real time    0.0003
    --------------------------------------------
      LOOP:  cpu time    0.1442: real time    0.1442

 eigenvalue-minimisations  :   944
 total energy-change (2. order) : 0.2614540E-05  (-0.3288890E-06)
 number of electron      32.0001023 magnetization 
 augmentation part       16.4439513 magnetization 

 Broyden mixing:
  rms(total) = 0.22224E-02    rms(broyden)= 0.22205E-02
  rms(prec ) = 0.43018E-02
  weight for this iteration     100.00

 eigenvalues of (default mixing * dielectric matrix)
  average eigenvalue GAMMA=   1.5036
  2.5592  2.5592  1.2012  0.7969  1.0124  0.8931

 Free energy of the ion-electron system (eV)
  ---------------------------------------------------
  alpha Z        PSCENC =       270.44909666
  Ewald energy   TEWEN  =     -2452.97223925
  -Hartree energ DENC   =      -345.51880490
  -exchange      EXHF   =         0.00000000
  -V(xc)+E(xc)   XCENC  =        13.71260815
  PAW double counting   =      2934.63419839    -2969.43960527
  entropy T*S    EENTRO =        -0.05275427
  eigenvalues    EBANDS =       139.77514470
  atomic energy  EATOM  =      2377.14981623
  Solvation  Ediel_sol  =         0.00000000
  ---------------------------------------------------
  free energy    TOTEN  =       -32.26253956 eV

  energy without entropy =      -32.20978529  energy(sigma->0) =      -32.24495480


--------------------------------------------------------------------------------------------------------




--------------------------------------- Iteration      1(  12)  ---------------------------------------


    POTLOK:  cpu time    0.0048: real time    0.0048
    SETDIJ:  cpu time    0.0039: real time    0.0039
     EDDAV:  cpu time    0.1228: real time    0.1228
       DOS:  cpu time    0.0010: real time    0.0010
    CHARGE:  cpu time    0.0072: real time    0.0072
    MIXING:  cpu time    0.0003: real time    0.0003
    --------------------------------------------
      LOOP:  cpu time    0.1400: real time    0.1400

 eigenvalue-minimisations  :   904
 total energy-change (2. order) : 0.4395783E-05  (-0.3711431E-06)
 number of electron      32.0001023 magnetization 
 augmentation part       16.4441216 magnetization 

 Broyden mixing:
  rms(total) = 0.18809E-03    rms(broyden)= 0.18804E-03
  rms(prec ) = 0.29729E-03
  weight for this iteration     100.00

 eigenvalues of (default mixing * dielectric matrix)
  average eigenvalue GAMMA=   1.4838
  2.5621  2.5621  1.3965  0.7969  0.9555  1.0568  1.0568

 Free energy of the ion-electron system (eV)
  ---------------------------------------------------
  alpha Z        PSCENC =       270.44909666
  Ewald energy   TEWEN  =     -2452.97223925
  -Hartree energ DENC   =      -345.38433790
  -exchange      EXHF   =         0.00000000
  -V(xc)+E(xc)   XCENC  =        13.70755447
  PAW double counting   =      2939.32574847    -2974.26753285
  entropy T*S    EENTRO =        -0.05276126
  eigenvalues    EBANDS =       139.78212026
  atomic energy  EATOM  =      2377.14981623
  Solvation  Ediel_sol  =         0.00000000
  ---------------------------------------------------
  free energy    TOTEN  =       -32.26253516 eV

  energy without entropy =      -32.20977391  energy(sigma->0) =      -32.24494808


--------------------------------------------------------------------------------------------------------




--------------------------------------- Iteration      1(  13)  ---------------------------------------


    POTLOK:  cpu time    0.0048: real time    0.0048
    SETDIJ:  cpu time    0.0039: real time    0.0039
     EDDAV:  cpu time    0.0820: real time    0.0820
       DOS:  cpu time    0.0010: real time    0.0010
    CHARGE:  cpu time    0.0072: real time    0.0072
    MIXING:  cpu time    0.0003: real time    0.0003
    --------------------------------------------
      LOOP:  cpu time    0.0992: real time    0.0992

 eigenvalue-minimisations  :   504
 total energy-change (2. order) :-0.1000878E-05  (-0.8880481E-08)
 number of electron      32.0001023 magnetization 
 augmentation part       16.4441514 magnetization 

 Broyden mixing:
  rms(total) = 0.77465E-04    rms(broyden)= 0.77080E-04
  rms(prec ) = 0.10383E-03
  weight for this iteration     100.00

 eigenvalues of (default mixing * dielectric matrix)
  average eigenvalue GAMMA=   1.5793
  2.7887  2.5362  2.5362  1.1437  0.9878  0.9878  0.7972  0.8565

 Free energy of the ion-electron system (eV)
  ---------------------------------------------------
  alpha Z        PSCENC =       270.44909666
  Ewald energy   TEWEN  =     -2452.97223925
  -Hartree energ DENC   =      -345.37818220
  -exchange      EXHF   =         0.00000000
  -V(xc)+E(xc)   XCENC  =        13.70732062
  PAW double counting   =      2939.56985156    -2974.51711800
  entropy T*S    EENTRO =        -0.05275750
  eigenvalues    EBANDS =       139.78167573
  atomic energy  EATOM  =      2377.14981623
  Solvation  Ediel_sol  =         0.00000000
  ---------------------------------------------------
  free energy    TOTEN  =       -32.26253616 eV

  energy without entropy =      -32.20977866  energy(sigma->0) =      -32.24495033


--------------------------------------------------------------------------------------------------------




--------------------------------------- Iteration      1(  14)  ---------------------------------------


    POTLOK:  cpu time    0.0048: real time    0.0048
    SETDIJ:  cpu time    0.0039: real time    0.0039
     EDDAV:  cpu time    0.0780: real time    0.0780
       DOS:  cpu time    0.0010: real time    0.0010
    --------------------------------------------
      LOOP:  cpu time    0.0876: real time    0.0876

 eigenvalue-minimisations  :   448
 total energy-change (2. order) :-0.4031344E-06  (-0.9934125E-09)
 number of electron      32.0001023 magnetization 
 augmentation part       16.4441514 magnetization 

 Free energy of the ion-electron system (eV)
  ---------------------------------------------------
  alpha Z        PSCENC =       270.44909666
  Ewald energy   TEWEN  =     -2452.97223925
  -Hartree energ DENC   =      -345.37652601
  -exchange      EXHF   =         0.00000000
  -V(xc)+E(xc)   XCENC  =        13.70726687
  PAW double counting   =      2939.70170854    -2974.65045922
  entropy T*S    EENTRO =        -0.05275675
  eigenvalues    EBANDS =       139.78155636
  atomic energy  EATOM  =      2377.14981623
  Solvation  Ediel_sol  =         0.00000000
  ---------------------------------------------------
  free energy    TOTEN  =       -32.26253657 eV

  energy without entropy =      -32.20977982  energy(sigma->0) =      -32.24495098


--------------------------------------------------------------------------------------------------------




 average (electrostatic) potential at core
  the test charge radii are     1.0103
  (the norm of the test charge is              1.0000)
       1 -42.6769       2 -42.6769       3 -42.6769       4 -42.6769
 
 
 
 E-fermi :   6.8085     XC(G=0): -13.7775     alpha+bet :-15.1637

 Fermi energy:         6.8085188335

 k-point     1 :       0.0000    0.0000    0.0000
  band No.  band energies     occupation 
      1      -2.0273      2.00000
      2       1.8643      2.00000
      3       1.8643      2.00000
      4       1.8643      2.00000
      5       2.6042      2.00000
      6       2.6042      2.00000
      7       2.6042      2.00000
      8       5.1726      2.00000
      9       5.1726      2.00000
     10       5.1726      2.00000
     11       6.7338      1.58629
     12       6.7338      1.58629
     13       7.7708     -0.00000
     14       7.7708     -0.00000
     15       7.7708     -0.00000
     16       8.0695     -0.00000
     17       8.0695     -0.00000
     18       8.0695     -0.00000
     19       8.0695     -0.00000
     20       8.0695     -0.00000
     21       8.0695     -0.00000
     22      10.0780     -0.00000
     23      10.0780     -0.00000
     24      10.0780     -0.00000
     25      18.5735      0.00000
     26      18.5735      0.00000
     27      18.5735      0.00000
     28      23.0860      0.00000
     29      23.0860      0.00000
     30      23.0860      0.00000
     31      23.0860      0.00000
     32      23.0860      0.00000
     33      23.0860      0.00000
     34      28.5095      0.00000
     35      28.5095      0.00000
     36      28.5095      0.00000
     37      30.1504      0.00000
     38      33.4300      0.00000
     39      33.4300      0.00000
     40      33.4300      0.00000

 k-point     2 :       0.2000    0.0000    0.0000
  band No.  band energies     occupation 
      1      -1.4659      2.00000
      2       1.9648      2.00000
      3       2.1989      2.00000
      4       2.1989      2.00000
      5       2.8214      2.00000
      6       2.8624      2.00000
      7       2.8624      2.00000
      8       4.8941      2.00000
      9       5.3806      2.00000
     10       5.3806      2.00000
     11       6.4778      2.04120
     12       6.6172      2.04009
     13       6.6172      2.04009
     14       6.8290      0.82735
     15       7.4354     -0.00009
     16       7.4354     -0.00009
     17       7.6678     -0.00000
     18       7.6911     -0.00000
     19       7.6911     -0.00000
     20       8.0707     -0.00000
     21       8.0707     -0.00000
     22       8.2455     -0.00000
     23      11.9236     -0.00000
     24      11.9236     -0.00000
     25      18.5726      0.00000
     26      18.5726      0.00000
     27      21.1053      0.00000
     28      21.1053      0.00000
     29      21.1297      0.00000
     30      22.0125      0.00000
     31      22.0125      0.00000
     32      24.0144      0.00000
     33      24.0144      0.00000
     34      28.5921      0.00000
     35      29.8009      0.00000
     36      31.0127      0.00000
     37      31.0127      0.00000
     38      33.1681      0.00000
     39      33.3725      0.00000
     40      33.3725      0.00000

 k-point     3 :       0.4000    0.0000    0.0000
  band No.  band energies     occupation 
      1       0.0464      2.00000
      2       1.6403      2.00000
      3       2.8795      2.00000
      4       2.8795      2.00000
      5       3.4137      2.00000
      6       3.6343      2.00000
      7       3.6343      2.00000
      8       4.2029      2.00000
      9       4.9071      2.00000
     10       4.9071      2.00000
     11       5.9307      2.00000
     12       5.9733      2.00000
     13       5.9733      2.00000
     14       6.0852      2.00000
     15       6.7374      1.56158
     16       6.7374      1.56158
     17       6.8384      0.75042
     18       6.8384      0.75042
     19       7.0825     -0.06564
     20       7.4030     -0.00022
     21       8.0717     -0.00000
     22       8.0717     -0.00000
     23      14.7896      0.00000
     24      14.7896      0.00000
     25      17.9313      0.00000
     26      17.9313      0.00000
     27      18.5839      0.00000
     28      18.5839      0.00000
     29      20.7288      0.00000
     30      20.7288      0.00000
     31      25.6836      0.00000
     32      26.4670      0.00000
     33      26.4670      0.00000
     34      28.7994      0.00000
     35      29.2240      0.00000
     36      29.7380      0.00000
     37      29.7963      0.00000
     38      29.7963      0.00000
     39      34.9658      0.00000
     40      35.7146      0.00000

 k-point     4 :       0.2000    0.2000    0.0000
  band No.  band energies     occupation 
      1      -0.9305      2.00000
      2       2.3262      2.00000
      3       2.3262      2.00000
      4       2.4956      2.00000
      5       3.0539      2.00000
      6       3.0539      2.00000
      7       3.0717      2.00000
      8       4.7711      2.00000
      9       5.4475      2.00000
     10       5.4700      2.00000
     11       6.0399      2.00000
     12       6.0448      2.00000
     13       6.0448      2.00000
     14       6.4324      2.02306
     15       6.8594      0.58454
     16       7.1786     -0.02513
     17       7.3956     -0.00027
     18       7.3956     -0.00027
     19       7.6883     -0.00000
     20       7.6883     -0.00000
     21       7.8223     -0.00000
     22      10.0943     -0.00000
     23      10.0943     -0.00000
     24      13.1500      0.00000
     25      17.3689      0.00000
     26      19.1992      0.00000
     27      21.1513      0.00000
     28      21.1513      0.00000
     29      21.8727      0.00000
     30      21.8727      0.00000
     31      22.9600      0.00000
     32      22.9600      0.00000
     33      24.8681      0.00000
     34      28.3498      0.00000
     35      29.6293      0.00000
     36      30.0588      0.00000
     37      31.2776      0.00000
     38      31.2776      0.00000
     39      34.3232      0.00000
     40      36.0910      0.00000

 k-point     5 :       0.4000    0.2000    0.0000
  band No.  band energies     occupation 
      1       0.5086      2.00000
      2       2.0447      2.00000
      3       3.1067      2.00000
      4       3.1701      2.00000
      5       3.5703      2.00000
      6       3.5948      2.00000
      7       3.7389      2.00000
      8       4.2403      2.00000
      9       4.5409      2.00000
     10       4.8185      2.00000
     11       5.2337      2.00000
     12       5.4192      2.00000
     13       5.9930      2.00000
     14       6.2946      2.00169
     15       6.6291      2.02176
     16       6.7324      1.59508
     17       6.8379      0.75420
     18       6.9001      0.30801
     19       7.3244     -0.00161
     20       7.6831     -0.00000
     21       7.6982     -0.00000
     22       8.1712     -0.00000
     23      12.2757      0.00000
     24      14.6015      0.00000
     25      15.6798      0.00000
     26      18.6909      0.00000
     27      19.4616      0.00000
     28      20.3662      0.00000
     29      22.8134      0.00000
     30      23.7626      0.00000
     31      24.0188      0.00000
     32      24.2470      0.00000
     33      26.0671      0.00000
     34      26.5781      0.00000
     35      26.9777      0.00000
     36      32.0917      0.00000
     37      32.2678      0.00000
     38      33.2860      0.00000
     39      33.4997      0.00000
     40      36.0636      0.00000

 k-point     6 :       0.4000    0.4000    0.0000
  band No.  band energies     occupation 
      1       1.7025      2.00000
      2       2.9595      2.00000
      3       2.9595      2.00000
      4       3.4704      2.00000
      5       3.8568      2.00000
      6       3.9920      2.00000
      7       3.9920      2.00000
      8       4.2153      2.00000
      9       4.4261      2.00000
     10       4.4261      2.00000
     11       4.4967      2.00000
     12       5.0595      2.00000
     13       6.0375      2.00000
     14       6.2352      2.00039
     15       6.2783      2.00115
     16       6.3650      2.00745
     17       6.3650      2.00745
     18       6.8850      0.40216
     19       6.8850      0.40216
     20       7.1426     -0.03972
     21       8.2437     -0.00000
     22       9.6975     -0.00000
     23       9.6975     -0.00000
     24      11.6597     -0.00000
     25      17.8223      0.00000
     26      20.2929      0.00000
     27      20.6020      0.00000
     28      20.6020      0.00000
     29      21.8046      0.00000
     30      21.8046      0.00000
     31      23.1365      0.00000
     32      23.8277      0.00000
     33      28.0682      0.00000
     34      28.0682      0.00000
     35      29.2615      0.00000
     36      30.8012      0.00000
     37      33.2684      0.00000
     38      34.8160      0.00000
     39      35.8401      0.00000
     40      35.8401      0.00000

 k-point     7 :       0.2000    0.2000    0.2000
  band No.  band energies     occupation 
      1      -0.4379      2.00000
      2       2.5982      2.00000
      3       2.5982      2.00000
      4       2.5982      2.00000
      5       3.2540      2.00000
      6       3.2540      2.00000
      7       3.2540      2.00000
      8       4.7199      2.00000
      9       5.4611      2.00000
     10       5.4611      2.00000
     11       5.6214      2.00000
     12       5.6214      2.00000
     13       5.6214      2.00000
     14       6.7086      1.73982
     15       6.7086      1.73982
     16       6.7649      1.35992
     17       6.7649      1.35992
     18       6.7649      1.35992
     19       7.9053     -0.00000
     20       7.9053     -0.00000
     21       7.9053     -0.00000
     22      10.9187     -0.00000
     23      10.9187     -0.00000
     24      10.9187     -0.00000
     25      18.4570      0.00000
     26      18.4570      0.00000
     27      18.4570      0.00000
     28      21.8418      0.00000
     29      21.8418      0.00000
     30      21.8418      0.00000
     31      25.5711      0.00000
     32      25.6566      0.00000
     33      25.6566      0.00000
     34      25.6566      0.00000
     35      30.2164      0.00000
     36      30.2164      0.00000
     37      30.2164      0.00000
     38      31.0546      0.00000
     39      34.6676      0.00000
     40      34.6676      0.00000

 k-point     8 :       0.4000    0.2000    0.2000
  band No.  band energies     occupation 
      1       0.8639      2.00000
      2       2.2462      2.00000
      3       3.1894      2.00000
      4       3.1894      2.00000
      5       3.6459      2.00000
      6       3.6459      2.00000
      7       3.8024      2.00000
      8       4.3824      2.00000
      9       4.8207      2.00000
     10       4.8207      2.00000
     11       5.0724      2.00000
     12       5.3444      2.00000
     13       5.6330      2.00000
     14       6.1087      2.00001
     15       6.3334      2.00397
     16       6.3334      2.00397
     17       6.8692      0.51153
     18       7.2552     -0.00701
     19       7.7298     -0.00000
     20       7.7298     -0.00000
     21       7.7302     -0.00000
     22       8.2976     -0.00000
     23      12.3855      0.00000
     24      12.3855      0.00000
     25      15.9326      0.00000
     26      15.9326      0.00000
     27      20.3048      0.00000
     28      22.6142      0.00000
     29      22.6142      0.00000
     30      22.7048      0.00000
     31      24.8991      0.00000
     32      24.8991      0.00000
     33      26.4837      0.00000
     34      27.8481      0.00000
     35      29.5326      0.00000
     36      31.0453      0.00000
     37      31.1040      0.00000
     38      33.3559      0.00000
     39      33.3559      0.00000
     40      34.6694      0.00000

 k-point     9 :       0.4000    0.4000    0.2000
  band No.  band energies     occupation 
      1       1.7126      2.00000
      2       2.5938      2.00000
      3       2.5938      2.00000
      4       2.9030      2.00000
      5       4.1544      2.00000
      6       4.3555      2.00000
      7       4.3555      2.00000
      8       4.7046      2.00000
      9       4.8879      2.00000
     10       4.8879      2.00000
     11       5.0734      2.00000
     12       5.1451      2.00000
     13       5.4729      2.00000
     14       5.7826      2.00000
     15       5.7826      2.00000
     16       5.8136      2.00000
     17       6.9435      0.09830
     18       7.4824     -0.00002
     19       7.4824     -0.00002
     20       7.5326     -0.00000
     21       8.0084     -0.00000
     22       9.5279     -0.00000
     23       9.5279     -0.00000
     24      11.1617     -0.00000
     25      15.6481      0.00000
     26      17.4933      0.00000
     27      17.4933      0.00000
     28      19.7600      0.00000
     29      23.8081      0.00000
     30      25.5492      0.00000
     31      25.5492      0.00000
     32      27.5857      0.00000
     33      28.5236      0.00000
     34      28.5236      0.00000
     35      29.7797      0.00000
     36      30.7639      0.00000
     37      32.4242      0.00000
     38      33.6842      0.00000
     39      33.6842      0.00000
     40      35.1942      0.00000

 k-point    10 :       0.4000    0.4000    0.4000
  band No.  band energies     occupation 
      1       1.8289      2.00000
      2       2.2182      2.00000
      3       2.2182      2.00000
      4       2.2182      2.00000
      5       4.7977      2.00000
      6       4.7977      2.00000
      7       4.7977      2.00000
      8       5.1696      2.00000
      9       5.1696      2.00000
     10       5.3049      2.00000
     11       5.3049      2.00000
     12       5.3049      2.00000
     13       5.8589      2.00000
     14       5.8589      2.00000
     15       5.8589      2.00000
     16       5.9414      2.00000
     17       7.5868     -0.00000
     18       7.5868     -0.00000
     19       7.8127     -0.00000
     20       7.8127     -0.00000
     21       7.8127     -0.00000
     22       9.0986     -0.00000
     23       9.0986     -0.00000
     24       9.0986     -0.00000
     25      15.4354      0.00000
     26      15.4354      0.00000
     27      15.4354      0.00000
     28      17.0299      0.00000
     29      27.7704      0.00000
     30      27.7704      0.00000
     31      27.7704      0.00000
     32      29.0879      0.00000
     33      31.3657      0.00000
     34      31.3657      0.00000
     35      31.3657      0.00000
     36      31.8555      0.00000
     37      31.8555      0.00000
     38      31.8555      0.00000
     39      33.9578      0.00000
     40      33.9578      0.00000


--------------------------------------------------------------------------------------------------------


 soft charge-density along one line, spin component           1
         0         1         2         3         4         5         6         7         8         9
x    15.5560    0.0000    0.0000    0.0000   -0.2555   -0.0000    0.0000    0.0000   -0.1424   -0.0000
x     0.0000   -0.0000    0.0369    0.0000    0.0000    0.0000
y    15.5560    0.0000    0.0000    0.0000   -0.2555   -0.0000    0.0000    0.0000   -0.1424   -0.0000
y     0.0000   -0.0000    0.0369    0.0000    0.0000    0.0000
z    15.5560    0.0000    0.0000    0.0000   -0.2555   -0.0000    0.0000    0.0000   -0.1424   -0.0000
z     0.0000   -0.0000    0.0369    0.0000    0.0000    0.0000
 total charge-density along one line
x    32.0001    0.0000    0.0000    0.0000    9.1063    0.0000   -0.0000    0.0000    1.0549   -0.0000
x     0.0000    0.0000   -0.0026    0.0000   -0.0000    0.0000    0.0102    0.0000   -0.0000   -0.0000
x    -0.0013    0.0000   -0.0000    0.0000   -0.0005    0.0000   -0.0000    0.0000    0.0009    0.0000
y    32.0001    0.0000   -0.0000    0.0000    9.1063    0.0000   -0.0000    0.0000    1.0549   -0.0000
y    -0.0000    0.0000   -0.0026   -0.0000   -0.0000    0.0000    0.0102    0.0000   -0.0000   -0.0000
y    -0.0013    0.0000    0.0000   -0.0000   -0.0005   -0.0000    0.0000   -0.0000    0.0009    0.0000
z    32.0001    0.0000    0.0000    0.0000    9.1063   -0.0000    0.0000    0.0000    1.0549   -0.0000
z     0.0000    0.0000   -0.0026    0.0000   -0.0000   -0.0000    0.0102   -0.0000    0.0000   -0.0000
z    -0.0013    0.0000    0.0000   -0.0000   -0.0005   -0.0000    0.0000   -0.0000    0.0009   -0.0000
 
 pseudopotential strength for first ion, spin component:           1
 -4.475  -0.000  -0.000   0.000   0.000  -5.037  -0.000  -0.000
 -0.000  -4.475   0.000   0.000  -0.000  -0.000  -5.037   0.000
 -0.000   0.000  -4.456   0.000   0.000  -0.000   0.000  -5.019
  0.000   0.000   0.000  -4.475   0.000   0.000   0.000   0.000
  0.000  -0.000   0.000   0.000  -4.456   0.000  -0.000   0.000
 -5.037  -0.000  -0.000   0.000   0.000  -5.557  -0.000  -0.000
 -0.000  -5.037   0.000   0.000  -0.000  -0.000  -5.557   0.000
 -0.000   0.000  -5.019   0.000   0.000  -0.000   0.000  -5.539
  0.000   0.000   0.000  -5.037   0.000   0.000   0.000   0.000
  0.000  -0.000   0.000   0.000  -5.019   0.000  -0.000   0.000
 -0.000  -0.000  -0.000  -0.000   0.000  -0.000  -0.000  -0.000
 -0.000  -0.000  -0.000  -0.000   0.000  -0.000  -0.000  -0.000
  0.000   0.000  -0.000  -0.000  -0.000   0.000   0.000  -0.000
 -0.000   0.000   0.000   0.000  -0.000  -0.000   0.000   0.000
  0.000  -0.000  -0.000   0.000   0.000   0.000  -0.000  -0.000
  0.000   0.000  -0.000  -0.000  -0.000   0.000   0.000  -0.000
 -0.000   0.000   0.000   0.000  -0.000  -0.000   0.000   0.000
  0.000  -0.000  -0.000   0.000   0.000   0.000  -0.000  -0.000
 total augmentation occupancy for first ion, spin component:           1
  1.302   0.000   0.000   0.000  -0.000  -0.718   0.000  -0.000   0.000  -0.000   0.000  -0.000   0.000   0.000   0.000  -0.000
 -0.000   1.302   0.000   0.000  -0.000  -0.000  -0.718  -0.000  -0.000   0.000   0.000   0.000   0.000  -0.000   0.000  -0.000
  0.000   0.000   2.391   0.000   0.000  -0.000   0.000  -1.343  -0.000  -0.000  -0.000   0.000   0.000  -0.000  -0.000   0.000
  0.000  -0.000   0.000   1.302   0.000  -0.000  -0.000  -0.000  -0.718   0.000  -0.000   0.000  -0.000  -0.000  -0.000   0.000
 -0.000  -0.000   0.000   0.000   2.391   0.000  -0.000  -0.000   0.000  -1.343   0.000  -0.000   0.000   0.000  -0.000   0.000
 -0.718  -0.000   0.000  -0.000   0.000   1.460   0.000   0.000  -0.000   0.000   0.000  -0.000  -0.000   0.000  -0.000   0.000
  0.000  -0.718   0.000  -0.000  -0.000   0.000   1.460  -0.000  -0.000   0.000  -0.000  -0.000   0.000  -0.000  -0.000  -0.000
  0.000  -0.000  -1.343  -0.000  -0.000   0.000  -0.000   1.683   0.000   0.000  -0.000  -0.000  -0.000   0.000   0.000  -0.000
  0.000  -0.000  -0.000  -0.718   0.000  -0.000   0.000   0.000   1.460   0.000  -0.000   0.000   0.000   0.000   0.000  -0.000
 -0.000   0.000  -0.000   0.000  -1.343   0.000   0.000  -0.000   0.000   1.683   0.000   0.000   0.000   0.000  -0.000   0.000
  0.000   0.000  -0.000  -0.000  -0.000  -0.000  -0.000   0.000   0.000  -0.000   2.654  -0.304   0.000   0.000   0.000  -0.000
 -0.000   0.000   0.000  -0.000   0.000  -0.000  -0.000  -0.000   0.000   0.000  -0.304   0.039   0.000  -0.000  -0.000   0.000
  0.000   0.000   0.000  -0.000  -0.000   0.000   0.000  -0.000  -0.000   0.000   0.000  -0.000   0.343   0.000  -0.000  -0.029
  0.000  -0.000   0.000   0.000  -0.000   0.000  -0.000   0.000  -0.000  -0.000   0.000  -0.000  -0.000   0.343  -0.000  -0.000
 -0.000   0.000  -0.000  -0.000   0.000  -0.000  -0.000   0.000  -0.000   0.000   0.000   0.000   0.000  -0.000   0.343   0.000
 -0.000   0.000   0.000   0.000   0.000  -0.000   0.000   0.000  -0.000   0.000   0.000   0.000  -0.029  -0.000   0.000   0.003
 -0.000   0.000  -0.000   0.000   0.000   0.000   0.000  -0.000   0.000  -0.000   0.000  -0.000   0.000  -0.029   0.000   0.000
 -0.000   0.000   0.000  -0.000  -0.000  -0.000   0.000  -0.000  -0.000   0.000  -0.000   0.000  -0.000  -0.000  -0.029   0.000


------------------------ aborting loop because EDIFF is reached ----------------------------------------


    CHARGE:  cpu time    0.0072: real time    0.0072
    FORLOC:  cpu time    0.0004: real time    0.0004
    FORNL :  cpu time    0.0412: real time    0.0412
    STRESS:  cpu time    0.0511: real time    0.0511
    FORCOR:  cpu time    0.0051: real time    0.0051
    FORHAR:  cpu time    0.0012: real time    0.0012
    MIXING:  cpu time    0.0003: real time    0.0003

  FORCE on cell =-STRESS in cart. coord.  units (eV):
  Direction    XX          YY          ZZ          XY          YZ          ZX
  --------------------------------------------------------------------------------------
  Alpha Z   270.44910   270.44910   270.44910
  Ewald    -817.65777  -817.65777  -817.65777    -0.00000    -0.00000    -0.00000
  Hartree   115.12567   115.12567   115.12567    -0.00000    -0.00000    -0.00000
  E(xc)    -156.87324  -156.87324  -156.87324     0.00000     0.00000     0.00000
  Local     244.62174   244.62174   244.62174     0.00000     0.00000     0.00000
  n-local  -108.51116  -106.95162  -102.12910     3.62956     0.99563     1.34876
  augment   151.82963   151.82963   151.82963    -0.00000     0.00000     0.00000
  Kinetic   312.99820   294.40132   286.79522     2.60028     5.13079     4.01453
  Fock        0.00000     0.00000     0.00000     0.00000     0.00000     0.00000
  -------------------------------------------------------------------------------------
  Total      -0.30392    -0.30392    -0.30392     0.00000    -0.00000    -0.00000
  in kB     -11.90886   -11.90886   -11.90886     0.00000    -0.00000    -0.00000
  external pressure =      -11.91 kB  Pullay stress =        0.00 kB


 VOLUME and BASIS-vectors are now :
 -----------------------------------------------------------------------------
  energy-cutoff  :      280.00
  volume of cell :       40.89
      direct lattice vectors                 reciprocal lattice vectors
     3.445083000  0.000000000  0.000000000     0.290268769  0.000000000  0.000000000
     0.000000000  3.445083000  0.000000000     0.000000000  0.290268769  0.000000000
     0.000000000  0.000000000  3.445083000     0.000000000  0.000000000  0.290268769

  length of vectors
     3.445083000  3.445083000  3.445083000     0.290268769  0.290268769  0.290268769


 FORCES acting on ions
    electron-ion (+dipol)            ewald-force                    non-local-force                 convergence-correction
 -----------------------------------------------------------------------------------------------
   -.604E-13 -.774E-14 -.898E-14   0.950E-15 -.636E-14 -.192E-14   -.316E-24 0.511E-24 -.106E-23   -.201E-13 0.562E-14 -.368E-14
   0.142E-12 0.183E-12 -.900E-14   -.151E-14 0.210E-14 -.192E-14   0.188E-24 0.237E-24 -.363E-24   -.260E-13 -.212E-13 0.372E-15
   0.136E-12 -.152E-13 0.192E-12   0.725E-14 -.267E-14 0.266E-14   -.884E-24 0.431E-24 -.149E-23   -.319E-13 0.116E-13 0.503E-14
   -.631E-13 0.177E-12 0.195E-12   -.832E-14 0.579E-14 0.266E-14   0.458E-25 -.557E-25 -.668E-24   -.303E-13 0.619E-14 -.646E-14
 -----------------------------------------------------------------------------------------------
   0.155E-12 0.337E-12 0.370E-12   -.163E-14 -.114E-14 0.147E-14   -.966E-24 0.112E-23 -.358E-23   -.108E-12 0.226E-14 -.474E-14
 
 
 POSITION                                       TOTAL-FORCE (eV/Angst)
 -----------------------------------------------------------------------------------
      0.00000      0.00000      0.00000         0.000000      0.000000     -0.000000
      1.72254      1.72254      0.00000         0.000000     -0.000000      0.000000
      1.72254      0.00000      1.72254        -0.000000      0.000000     -0.000000
      0.00000      1.72254      1.72254         0.000000     -0.000000      0.000000
 -----------------------------------------------------------------------------------
    total drift:                                0.000000      0.000000      0.000000


--------------------------------------------------------------------------------------------------------



  FREE ENERGIE OF THE ION-ELECTRON SYSTEM (eV)
  ---------------------------------------------------
  free  energy   TOTEN  =       -32.26253657 eV

  energy  without entropy=      -32.20977982  energy(sigma->0) =      -32.24495098
 


--------------------------------------------------------------------------------------------------------


    POTLOK:  cpu time    0.0087: real time    0.0087


--------------------------------------------------------------------------------------------------------


 writing wavefunctions
     LOOP+:  cpu time    2.0094: real time    2.0288
    4ORBIT:  cpu time    0.0000: real time    0.0000

 total amount of memory used by VASP MPI-rank0    35382. kBytes
=======================================================================

   base      :      30000. kBytes
   nonl-proj :        693. kBytes
   grid      :       1216. kBytes
   one-center:         62. kBytes
   wavefun   :       3411. kBytes
 
  
  
 General timing and accounting informations for this job:
 ========================================================
  
                  Total CPU time used (sec):        2.125
                            User time (sec):        2.089
                          System time (sec):        0.036
                         Elapsed time (sec):        2.133
  
                   Maximum memory used (kb):       39516.
                   Average memory used (kb):          N/A
  
                          Minor page faults:         3657
                          Major page faults:            0
                 Voluntary context switches:           26
