<?xml version="1.0" encoding="ISO-8859-1"?>
<modeling>
 <generator>
  <i name="program" type="string">vasp </i>
  <i name="version" type="string">6.2.0  </i>
  <i name="subversion" type="string">18Jan21 (build Mar 17 2021 09:06:54) complex                          serial </i>
  <i name="platform" type="string">LinuxIFC </i>
  <i name="date" type="string">2021 09 09 </i>
  <i name="time" type="string">09:02:31 </i>
 </generator>
 <incar>
  <i type="string" name="PREC">normal</i>
  <i type="int" name="ICHARG">     1</i>
  <i type="int" name="IBRION">    -1</i>
  <i name="EDIFF">      0.00000100</i>
  <i type="int" name="NSW">     0</i>
  <i name="ENCUT">    280.00000000</i>
  <i type="int" name="NBANDS">    40</i>
  <i type="int" name="ISMEAR">     1</i>
  <i name="SIGMA">      0.20000000</i>
  <i type="logical" name="LCHARG"> T  </i>
  <i type="int" name="KPAR">     1</i>
  <i type="int" name="NCORE">     1</i>
  <i type="string" name="GGA">PE</i>
 </incar>
 <primitive_cell>
  <structure name="primitive_cell" >
   <crystal>
    <varray name="basis" >
     <v>       1.72254150      -1.72254150       0.00000000 </v>
     <v>       1.72254150       0.00000000       1.72254150 </v>
     <v>       0.00000000      -1.72254150       1.72254150 </v>
    </varray>
    <i name="volume">     10.22207533 </i>
    <varray name="rec_basis" >
     <v>       0.29026877      -0.29026877      -0.29026877 </v>
     <v>       0.29026877       0.29026877       0.29026877 </v>
     <v>      -0.29026877      -0.29026877       0.29026877 </v>
    </varray>
   </crystal>
   <varray name="positions" >
    <v>       0.00000000       0.00000000       0.00000000 </v>
   </varray>
  </structure>
  <varray name="primitive_index" >
   <v type="int" >        1 </v>
  </varray>
 </primitive_cell>
 <kpoints>
  <generation param="Monkhorst-Pack">
   <v type="int" name="divisions">       5        5        5 </v>
   <v name="usershift">      0.00000000       0.00000000       0.00000000 </v>
   <v name="genvec1">      0.20000000       0.00000000       0.00000000 </v>
   <v name="genvec2">      0.00000000       0.20000000       0.00000000 </v>
   <v name="genvec3">      0.00000000       0.00000000       0.20000000 </v>
   <v name="shift">      0.00000000       0.00000000       0.00000000 </v>
  </generation>
  <varray name="kpointlist" >
   <v>       0.00000000       0.00000000       0.00000000 </v>
   <v>       0.20000000       0.00000000       0.00000000 </v>
   <v>       0.40000000       0.00000000       0.00000000 </v>
   <v>       0.20000000       0.20000000       0.00000000 </v>
   <v>       0.40000000       0.20000000       0.00000000 </v>
   <v>       0.40000000       0.40000000       0.00000000 </v>
   <v>       0.20000000       0.20000000       0.20000000 </v>
   <v>       0.40000000       0.20000000       0.20000000 </v>
   <v>       0.40000000       0.40000000       0.20000000 </v>
   <v>       0.40000000       0.40000000       0.40000000 </v>
  </varray>
  <varray name="weights" >
   <v>       0.00800000 </v>
   <v>       0.04800000 </v>
   <v>       0.04800000 </v>
   <v>       0.09600000 </v>
   <v>       0.19200000 </v>
   <v>       0.09600000 </v>
   <v>       0.06400000 </v>
   <v>       0.19200000 </v>
   <v>       0.19200000 </v>
   <v>       0.06400000 </v>
  </varray>
 </kpoints>
 <parameters>
  <separator name="general" >
   <i type="string" name="SYSTEM">unknown system</i>
   <i type="logical" name="LCOMPAT"> F  </i>
  </separator>
  <separator name="electronic" >
   <i type="string" name="PREC">normal</i>
   <i name="ENMAX">    280.00000000</i>
   <i name="ENAUG">    511.36800000</i>
   <i name="EDIFF">      0.00000100</i>
   <i type="int" name="IALGO">    38</i>
   <i type="int" name="IWAVPR">     0</i>
   <i type="int" name="NBANDS">    40</i>
   <i type="int" name="NBANDSLOW">    -1</i>
   <i type="int" name="NBANDSHIGH">    -1</i>
   <i name="NELECT">     32.00000000</i>
   <i type="int" name="TURBO">     0</i>
   <i type="int" name="IRESTART">     0</i>
   <i type="int" name="NREBOOT">     0</i>
   <i type="int" name="NMIN">     0</i>
   <i name="EREF">      0.00000000</i>
   <separator name="electronic smearing" >
    <i type="int" name="ISMEAR">     1</i>
    <i name="SIGMA">      0.20000000</i>
    <i name="KSPACING">      0.50000000</i>
    <i type="logical" name="KGAMMA"> T  </i>
    <i type="logical" name="KBLOWUP"> T  </i>
   </separator>
   <separator name="electronic projectors" >
    <i type="logical" name="LREAL"> F  </i>
    <v name="ROPT">      0.00000000</v>
    <i type="int" name="LMAXPAW">  -100</i>
    <i type="int" name="LMAXMIX">     2</i>
    <i type="logical" name="NLSPLINE"> F  </i>
   </separator>
   <separator name="electronic startup" >
    <i type="int" name="ISTART">     0</i>
    <i type="int" name="ICHARG">     1</i>
    <i type="int" name="INIWAV">     1</i>
   </separator>
   <separator name="electronic spin" >
    <i type="int" name="ISPIN">     1</i>
    <i type="logical" name="LNONCOLLINEAR"> F  </i>
    <v name="MAGMOM">      1.00000000      1.00000000      1.00000000      1.00000000</v>
    <i name="NUPDOWN">     -1.00000000</i>
    <i type="logical" name="LSORBIT"> F  </i>
    <v name="SAXIS">      0.00000000      0.00000000      1.00000000</v>
    <i type="logical" name="LSPIRAL"> F  </i>
    <v name="QSPIRAL">      0.00000000      0.00000000      0.00000000</v>
    <i type="logical" name="LZEROZ"> F  </i>
   </separator>
   <separator name="electronic exchange-correlation" >
    <i type="logical" name="LASPH"> F  </i>
    <i type="logical" name="LMETAGGA"> F  </i>
   </separator>
   <separator name="electronic convergence" >
    <i type="int" name="NELM">    60</i>
    <i type="int" name="NELMDL">    -5</i>
    <i type="int" name="NELMIN">     2</i>
    <i name="ENINI">    280.00000000</i>
    <separator name="electronic convergence detail" >
     <i type="logical" name="LDIAG"> T  </i>
     <i type="logical" name="LSUBROT"> F  </i>
     <i name="WEIMIN">      0.00000000</i>
     <i name="EBREAK">      0.00000001</i>
     <i name="DEPER">      0.30000000</i>
     <i type="int" name="NRMM">     4</i>
     <i name="TIME">      0.40000000</i>
    </separator>
   </separator>
   <separator name="electronic mixer" >
    <i name="AMIX">      0.40000000</i>
    <i name="BMIX">      1.00000000</i>
    <i name="AMIN">      0.10000000</i>
    <i name="AMIX_MAG">      1.60000000</i>
    <i name="BMIX_MAG">      1.00000000</i>
    <separator name="electronic mixer details" >
     <i type="int" name="IMIX">     4</i>
     <i type="logical" name="MIXFIRST"> F  </i>
     <i type="int" name="MAXMIX">   -45</i>
     <i name="WC">    100.00000000</i>
     <i type="int" name="INIMIX">     1</i>
     <i type="int" name="MIXPRE">     1</i>
     <i type="int" name="MREMOVE">     5</i>
    </separator>
   </separator>
   <separator name="electronic dipolcorrection" >
    <i type="logical" name="LDIPOL"> F  </i>
    <i type="logical" name="LMONO"> F  </i>
    <i type="int" name="IDIPOL">     0</i>
    <i name="EPSILON">      1.00000000</i>
    <v name="DIPOL">   -100.00000000   -100.00000000   -100.00000000</v>
    <i name="EFIELD">      0.00000000</i>
   </separator>
  </separator>
  <separator name="grids" >
   <i type="int" name="NGX">    14</i>
   <i type="int" name="NGY">    14</i>
   <i type="int" name="NGZ">    14</i>
   <i type="int" name="NGXF">    28</i>
   <i type="int" name="NGYF">    28</i>
   <i type="int" name="NGZF">    28</i>
   <i type="logical" name="ADDGRID"> F  </i>
  </separator>
  <separator name="ionic" >
   <i type="int" name="NSW">     0</i>
   <i type="int" name="IBRION">    -1</i>
   <i type="int" name="MDALGO">     0</i>
   <i type="int" name="ISIF">     2</i>
   <i name="PSTRESS">      0.00000000</i>
   <i name="EDIFFG">      0.00001000</i>
   <i type="int" name="NFREE">     0</i>
   <i name="POTIM">      0.50000000</i>
   <i name="SMASS">     -3.00000000</i>
   <i name="SCALEE">      1.00000000</i>
  </separator>
  <separator name="ionic md" >
   <i name="TEBEG">      0.00010000</i>
   <i name="TEEND">      0.00010000</i>
   <i type="int" name="NBLOCK">     1</i>
   <i type="int" name="KBLOCK">     1</i>
   <i type="int" name="NPACO">   256</i>
   <i name="APACO">     16.00000000</i>
  </separator>
  <separator name="symmetry" >
   <i type="int" name="ISYM">     2</i>
   <i name="SYMPREC">      0.00001000</i>
  </separator>
  <separator name="dos" >
   <i type="int" name="LORBIT">     0</i>
   <v name="RWIGS">     -1.00000000</v>
   <i type="int" name="NEDOS">   301</i>
   <i name="EMIN">     10.00000000</i>
   <i name="EMAX">    -10.00000000</i>
   <i name="EFERMI">      0.00000000</i>
  </separator>
  <separator name="writing" >
   <i type="int" name="NWRITE">     2</i>
   <i type="logical" name="LWAVE"> T  </i>
   <i type="logical" name="LDOWNSAMPLE"> F  </i>
   <i type="logical" name="LCHARG"> T  </i>
   <i type="logical" name="LPARD"> F  </i>
   <i type="logical" name="LVTOT"> F  </i>
   <i type="logical" name="LVHAR"> F  </i>
   <i type="logical" name="LELF"> F  </i>
   <i type="logical" name="LOPTICS"> F  </i>
   <v name="STM">      0.00000000      0.00000000      0.00000000      0.00000000      0.00000000      0.00000000      0.00000000</v>
  </separator>
  <separator name="performance" >
   <i type="int" name="NPAR">     1</i>
   <i type="int" name="NSIM">     4</i>
   <i type="int" name="NBLK">    -1</i>
   <i type="logical" name="LPLANE"> T  </i>
   <i type="logical" name="LSCALAPACK"> F  </i>
   <i type="logical" name="LSCAAWARE"> F  </i>
   <i type="logical" name="LSCALU"> F  </i>
   <i type="logical" name="LASYNC"> F  </i>
   <i type="logical" name="LORBITALREAL"> F  </i>
  </separator>
  <separator name="miscellaneous" >
   <i type="int" name="IDIOT">     3</i>
   <i type="int" name="PHON_NSTRUCT">    -1</i>
   <i type="logical" name="LMUSIC"> F  </i>
   <v name="POMASS">     55.84700000</v>
   <v name="DARWINR">      0.00000000</v>
   <v name="DARWINV">      1.00000000</v>
   <i type="logical" name="LCORR"> T  </i>
  </separator>
  <i type="logical" name="GGA_COMPAT"> T  </i>
  <i type="logical" name="LBERRY"> F  </i>
  <i type="int" name="ICORELEVEL">     0</i>
  <i type="logical" name="LDAU"> F  </i>
  <i type="int" name="I_CONSTRAINED_M">     0</i>
  <separator name="electronic exchange-correlation" >
   <i type="string" name="GGA">PE</i>
   <i type="int" name="VOSKOWN">     0</i>
   <i type="logical" name="LHFCALC"> F  </i>
   <i type="string" name="PRECFOCK"></i>
   <i type="logical" name="LSYMGRAD"> F  </i>
   <i type="logical" name="LHFONE"> F  </i>
   <i type="logical" name="LRHFCALC"> F  </i>
   <i type="logical" name="LTHOMAS"> F  </i>
   <i type="logical" name="LMODELHF"> F  </i>
   <i type="logical" name="LFOCKACE"> F  </i>
   <i name="ENCUT4O">     -1.00000000</i>
   <i type="int" name="EXXOEP">     0</i>
   <i type="int" name="FOURORBIT">     0</i>
   <i name="AEXX">      0.00000000</i>
   <i name="HFALPHA">      0.00000000</i>
   <i name="MCALPHA">      0.00000000</i>
   <i name="ALDAX">      1.00000000</i>
   <i name="AGGAX">      1.00000000</i>
   <i name="ALDAC">      1.00000000</i>
   <i name="AGGAC">      1.00000000</i>
   <i type="int" name="NKREDX">     1</i>
   <i type="int" name="NKREDY">     1</i>
   <i type="int" name="NKREDZ">     1</i>
   <i type="logical" name="SHIFTRED"> F  </i>
   <i type="logical" name="ODDONLY"> F  </i>
   <i type="logical" name="EVENONLY"> F  </i>
   <i type="int" name="LMAXFOCK">     0</i>
   <i type="int" name="NMAXFOCKAE">     0</i>
   <i type="logical" name="LFOCKAEDFT"> F  </i>
   <i name="HFSCREEN">      0.00000000</i>
   <i name="HFSCREENC">      0.00000000</i>
   <i type="int" name="NBANDSGWLOW">     0</i>
  </separator>
  <separator name="vdW DFT" >
   <i type="logical" name="LUSE_VDW"> F  </i>
   <i name="Zab_VDW">     -0.84910000</i>
   <i name="PARAM1">      0.12340000</i>
   <i name="PARAM2">      1.00000000</i>
   <i name="PARAM3">      0.00000000</i>
  </separator>
  <separator name="model GW" >
   <i type="int" name="MODEL_GW">     0</i>
   <i name="MODEL_EPS0">      6.13324520</i>
   <i name="MODEL_ALPHA">      1.00000000</i>
  </separator>
  <separator name="linear response parameters" >
   <i type="logical" name="LEPSILON"> F  </i>
   <i type="logical" name="LRPA"> F  </i>
   <i type="logical" name="LNABLA"> F  </i>
   <i type="logical" name="LVEL"> F  </i>
   <i type="int" name="KINTER">     0</i>
   <i name="CSHIFT">      0.10000000</i>
   <i name="OMEGAMAX">     -1.00000000</i>
   <i name="DEG_THRESHOLD">      0.00200000</i>
   <i name="RTIME">     -0.10000000</i>
   <i name="WPLASMAI">      0.00000000</i>
   <v name="DFIELD">      0.00000000      0.00000000      0.00000000</v>
   <v name="WPLASMA">      0.00000000      0.00000000      0.00000000      0.00000000      0.00000000      0.00000000      0.00000000      0.00000000      0.00000000</v>
  </separator>
  <separator name="orbital magnetization" >
   <i type="logical" name="NUCIND"> F  </i>
   <v name="MAGPOS">      0.00000000      0.00000000      0.00000000</v>
   <i type="logical" name="LNICSALL"> T  </i>
   <i type="logical" name="ORBITALMAG"> F  </i>
   <i type="logical" name="LMAGBLOCH"> F  </i>
   <i type="logical" name="LCHIMAG"> F  </i>
   <i type="logical" name="LGAUGE"> T  </i>
   <i type="int" name="MAGATOM">     0</i>
   <v name="MAGDIPOL">      0.00000000      0.00000000      0.00000000</v>
   <v name="AVECCONST">      0.00000000      0.00000000      0.00000000</v>
  </separator>
  <separator name="response functions" >
   <i type="logical" name="LFINITE_TEMPERATURE"> F  </i>
   <i type="logical" name="LADDER"> F  </i>
   <i type="logical" name="LRPAFORCE"> F  </i>
   <i type="logical" name="LFXC"> F  </i>
   <i type="logical" name="LHARTREE"> T  </i>
   <i type="int" name="IBSE">     0</i>
   <v type="int" name="KPOINT">    -1     0     0     0</v>
   <i type="logical" name="LTCTC"> F  </i>
   <i type="logical" name="LTCTE"> F  </i>
   <i type="logical" name="LTETE"> F  </i>
   <i type="logical" name="LTRIPLET"> F  </i>
   <i type="logical" name="LFXCEPS"> F  </i>
   <i type="logical" name="LFXHEG"> F  </i>
   <i type="int" name="NATURALO">     2</i>
   <i type="logical" name="LHOLEGF"> F  </i>
   <i type="logical" name="L2ORDER"> F  </i>
   <i type="logical" name="LDMP1"> F  </i>
   <i type="logical" name="LMP2LT"> F  </i>
   <i type="logical" name="LSMP2LT"> F  </i>
   <i type="logical" name="LGWLF"> F  </i>
   <i name="ENCUTGW">     -2.00000000</i>
   <i name="ENCUTGWSOFT">     -2.00000000</i>
   <i name="ENCUTLF">     -1.00000000</i>
   <i type="logical" name="LESF_SPLINES"> F  </i>
   <i type="int" name="LMAXMP2">    -1</i>
   <i name="SCISSOR">      0.00000000</i>
   <i type="int" name="NOMEGA">     0</i>
   <i type="int" name="NOMEGAR">     0</i>
   <i type="int" name="NBANDSGW">    -1</i>
   <i type="int" name="NBANDSO">    -1</i>
   <i type="int" name="NBANDSV">    -1</i>
   <i type="int" name="NELM">     1</i>
   <i type="int" name="NELMHF">     1</i>
   <i type="int" name="DIM">     3</i>
   <i type="int" name="IESPILON">     4</i>
   <i type="int" name="ANTIRES">     0</i>
   <i name="OMEGAMAX">    -30.00000000</i>
   <i name="OMEGAMIN">    -30.00000000</i>
   <i name="OMEGATL">   -200.00000000</i>
   <i type="int" name="OMEGAGRID">     0</i>
   <i name="CSHIFT">     -0.10000000</i>
   <i type="logical" name="LSELFENERGY"> F  </i>
   <i type="logical" name="LSPECTRAL"> F  </i>
   <i type="logical" name="LSPECTRALGW"> F  </i>
   <i type="logical" name="LSINGLES"> F  </i>
   <i type="logical" name="LFERMIGW"> F  </i>
   <i type="logical" name="ODDONLYGW"> F  </i>
   <i type="logical" name="EVENONLYGW"> F  </i>
   <i type="int" name="NKREDLFX">     1</i>
   <i type="int" name="NKREDLFY">     1</i>
   <i type="int" name="NKREDLFZ">     1</i>
   <i type="int" name="MAXMEM">  2800</i>
   <i type="int" name="TELESCOPE">     0</i>
   <i type="int" name="NTAUPAR">    -1</i>
   <i type="int" name="NOMEGAPAR">    -1</i>
   <i name="DAMP_NEWTON">      0.80000001</i>
   <i name="LAMBDA">      1.00000000</i>
  </separator>
  <separator name="External order field" >
   <i name="OFIELD_KAPPA">      0.00000000</i>
   <v name="OFIELD_K">      0.00000000      0.00000000      0.00000000</v>
   <i name="OFIELD_Q6_NEAR">      0.00000000</i>
   <i name="OFIELD_Q6_FAR">      0.00000000</i>
   <i name="OFIELD_A">      0.00000000</i>
  </separator>
 </parameters>
 <atominfo>
  <atoms>       4 </atoms>
  <types>       1 </types>
  <array name="atoms" >
   <dimension dim="1">ion</dimension>
   <field type="string">element</field>
   <field type="int">atomtype</field>
   <set>
    <rc><c>Fe</c><c>   1</c></rc>
    <rc><c>Fe</c><c>   1</c></rc>
    <rc><c>Fe</c><c>   1</c></rc>
    <rc><c>Fe</c><c>   1</c></rc>
   </set>
  </array>
  <array name="atomtypes" >
   <dimension dim="1">type</dimension>
   <field type="int">atomspertype</field>
   <field type="string">element</field>
   <field>mass</field>
   <field>valence</field>
   <field type="string">pseudopotential</field>
   <set>
    <rc><c>   4</c><c>Fe</c><c>     55.84700000</c><c>      8.00000000</c><c>  PAW_PBE Fe 06Sep2000                  </c></rc>
   </set>
  </array>
 </atominfo>
 <structure name="initialpos" >
  <crystal>
   <varray name="basis" >
    <v>       3.44508300       0.00000000       0.00000000 </v>
    <v>       0.00000000       3.44508300       0.00000000 </v>
    <v>       0.00000000       0.00000000       3.44508300 </v>
   </varray>
   <i name="volume">     40.88830133 </i>
   <varray name="rec_basis" >
    <v>       0.29026877       0.00000000       0.00000000 </v>
    <v>       0.00000000       0.29026877       0.00000000 </v>
    <v>       0.00000000       0.00000000       0.29026877 </v>
   </varray>
  </crystal>
  <varray name="positions" >
   <v>       0.00000000       0.00000000       0.00000000 </v>
   <v>       0.50000000       0.50000000       0.00000000 </v>
   <v>       0.50000000       0.00000000       0.50000000 </v>
   <v>       0.00000000       0.50000000       0.50000000 </v>
  </varray>
 </structure>
 <calculation>
  <scstep>
   <time name="dav">    0.17    0.19</time>
   <time name="total">    0.18    0.20</time>
   <energy>
    <i name="alphaZ">    270.44909666 </i>
    <i name="ewald">  -2452.97223925 </i>
    <i name="hartreedc">   -414.53988404 </i>
    <i name="XCdc">     16.92970068 </i>
    <i name="pawpsdc">   2219.38341365 </i>
    <i name="pawaedc">  -2250.19294531 </i>
    <i name="eentropy">     -0.01595051 </i>
    <i name="bandstr">    384.62146898 </i>
    <i name="atom">   2377.14981623 </i>
    <i name="e_fr_energy">    150.81247710 </i>
    <i name="e_wo_entrp">    150.82842761 </i>
    <i name="e_0_energy">    150.81779394 </i>
   </energy>
  </scstep>
  <scstep>
   <time name="dav">    0.11    0.11</time>
   <time name="total">    0.12    0.12</time>
   <energy>
    <i name="e_fr_energy">    -26.72680316 </i>
    <i name="e_wo_entrp">    -26.71006570 </i>
    <i name="e_0_energy">    -26.72122400 </i>
   </energy>
  </scstep>
  <scstep>
   <time name="dav">    0.13    0.13</time>
   <time name="total">    0.13    0.13</time>
   <energy>
    <i name="e_fr_energy">    -38.36031311 </i>
    <i name="e_wo_entrp">    -38.32838026 </i>
    <i name="e_0_energy">    -38.34966883 </i>
   </energy>
  </scstep>
  <scstep>
   <time name="dav">    0.12    0.12</time>
   <time name="total">    0.12    0.12</time>
   <energy>
    <i name="e_fr_energy">    -38.50044220 </i>
    <i name="e_wo_entrp">    -38.46844139 </i>
    <i name="e_0_energy">    -38.48977526 </i>
   </energy>
  </scstep>
  <scstep>
   <time name="dav">    0.12    0.12</time>
   <time name="total">    0.13    0.13</time>
   <energy>
    <i name="e_fr_energy">    -38.50161653 </i>
    <i name="e_wo_entrp">    -38.46961777 </i>
    <i name="e_0_energy">    -38.49095028 </i>
   </energy>
  </scstep>
  <scstep>
   <time name="dav">    0.12    0.12</time>
   <time name="total">    0.14    0.14</time>
   <energy>
    <i name="e_fr_energy">    -32.67840662 </i>
    <i name="e_wo_entrp">    -32.62114072 </i>
    <i name="e_0_energy">    -32.65931799 </i>
   </energy>
  </scstep>
  <scstep>
   <time name="dav">    0.13    0.13</time>
   <time name="total">    0.15    0.15</time>
   <energy>
    <i name="e_fr_energy">    -32.33596416 </i>
    <i name="e_wo_entrp">    -32.28412879 </i>
    <i name="e_0_energy">    -32.31868570 </i>
   </energy>
  </scstep>
  <scstep>
   <time name="dav">    0.14    0.14</time>
   <time name="total">    0.16    0.16</time>
   <energy>
    <i name="e_fr_energy">    -32.28256257 </i>
    <i name="e_wo_entrp">    -32.22924563 </i>
    <i name="e_0_energy">    -32.26479025 </i>
   </energy>
  </scstep>
  <scstep>
   <time name="dav">    0.13    0.13</time>
   <time name="total">    0.15    0.15</time>
   <energy>
    <i name="e_fr_energy">    -32.26250884 </i>
    <i name="e_wo_entrp">    -32.20977111 </i>
    <i name="e_0_energy">    -32.24492960 </i>
   </energy>
  </scstep>
  <scstep>
   <time name="dav">    0.12    0.12</time>
   <time name="total">    0.14    0.14</time>
   <energy>
    <i name="e_fr_energy">    -32.26254217 </i>
    <i name="e_wo_entrp">    -32.20973793 </i>
    <i name="e_0_energy">    -32.24494076 </i>
   </energy>
  </scstep>
  <scstep>
   <time name="dav">    0.13    0.13</time>
   <time name="total">    0.14    0.14</time>
   <energy>
    <i name="e_fr_energy">    -32.26253956 </i>
    <i name="e_wo_entrp">    -32.20978529 </i>
    <i name="e_0_energy">    -32.24495480 </i>
   </energy>
  </scstep>
  <scstep>
   <time name="dav">    0.12    0.12</time>
   <time name="total">    0.14    0.14</time>
   <energy>
    <i name="e_fr_energy">    -32.26253516 </i>
    <i name="e_wo_entrp">    -32.20977391 </i>
    <i name="e_0_energy">    -32.24494808 </i>
   </energy>
  </scstep>
  <scstep>
   <time name="dav">    0.08    0.08</time>
   <time name="total">    0.10    0.10</time>
   <energy>
    <i name="e_fr_energy">    -32.26253616 </i>
    <i name="e_wo_entrp">    -32.20977866 </i>
    <i name="e_0_energy">    -32.24495033 </i>
   </energy>
  </scstep>
  <scstep>
   <time name="dav">    0.08    0.08</time>
   <time name="total">    0.09    0.09</time>
   <energy>
    <i name="alphaZ">    270.44909666 </i>
    <i name="ewald">  -2452.97223925 </i>
    <i name="hartreedc">   -345.37652601 </i>
    <i name="XCdc">     13.70726687 </i>
    <i name="pawpsdc">   2939.70170854 </i>
    <i name="pawaedc">  -2974.65045922 </i>
    <i name="eentropy">     -0.05275675 </i>
    <i name="bandstr">    139.78155636 </i>
    <i name="atom">   2377.14981623 </i>
    <i name="e_fr_energy">    -32.26253657 </i>
    <i name="e_wo_entrp">    -32.20977982 </i>
    <i name="e_0_energy">    -32.24495098 </i>
   </energy>
  </scstep>
  <structure>
   <crystal>
    <varray name="basis" >
     <v>       3.44508300       0.00000000       0.00000000 </v>
     <v>       0.00000000       3.44508300       0.00000000 </v>
     <v>       0.00000000       0.00000000       3.44508300 </v>
    </varray>
    <i name="volume">     40.88830133 </i>
    <varray name="rec_basis" >
     <v>       0.29026877       0.00000000       0.00000000 </v>
     <v>       0.00000000       0.29026877       0.00000000 </v>
     <v>       0.00000000       0.00000000       0.29026877 </v>
    </varray>
   </crystal>
   <varray name="positions" >
    <v>       0.00000000       0.00000000       0.00000000 </v>
    <v>       0.50000000       0.50000000       0.00000000 </v>
    <v>       0.50000000       0.00000000       0.50000000 </v>
    <v>       0.00000000       0.50000000       0.50000000 </v>
   </varray>
  </structure>
  <varray name="forces" >
   <v>       0.00000000       0.00000000      -0.00000000 </v>
   <v>       0.00000000      -0.00000000       0.00000000 </v>
   <v>      -0.00000000       0.00000000      -0.00000000 </v>
   <v>       0.00000000      -0.00000000       0.00000000 </v>
  </varray>
  <varray name="stress" >
   <v>     -11.90885585       0.00000000      -0.00000000 </v>
   <v>       0.00000000     -11.90885585       0.00000000 </v>
   <v>      -0.00000000      -0.00000000     -11.90885585 </v>
  </varray>
  <energy>
   <i name="e_fr_energy">    -32.26253657 </i>
   <i name="e_wo_entrp">    -32.20977982 </i>
   <i name="e_0_energy">    -32.24495098 </i>
  </energy>
  <time name="totalsc">    2.01    2.03</time>
  <eigenvalues>
   <array>
    <dimension dim="1">band</dimension>
    <dimension dim="2">kpoint</dimension>
    <dimension dim="3">spin</dimension>
    <field>eigene</field>
    <field>occ</field>
    <set>
     <set comment="spin 1">
      <set comment="kpoint 1">
       <r>   -2.0273    1.0000 </r>
       <r>    1.8643    1.0000 </r>
       <r>    1.8643    1.0000 </r>
       <r>    1.8643    1.0000 </r>
       <r>    2.6042    1.0000 </r>
       <r>    2.6042    1.0000 </r>
       <r>    2.6042    1.0000 </r>
       <r>    5.1726    1.0000 </r>
       <r>    5.1726    1.0000 </r>
       <r>    5.1726    1.0000 </r>
       <r>    6.7338    0.7931 </r>
       <r>    6.7338    0.7931 </r>
       <r>    7.7708   -0.0000 </r>
       <r>    7.7708   -0.0000 </r>
       <r>    7.7708   -0.0000 </r>
       <r>    8.0695   -0.0000 </r>
       <r>    8.0695   -0.0000 </r>
       <r>    8.0695   -0.0000 </r>
       <r>    8.0695   -0.0000 </r>
       <r>    8.0695   -0.0000 </r>
       <r>    8.0695   -0.0000 </r>
       <r>   10.0780   -0.0000 </r>
       <r>   10.0780   -0.0000 </r>
       <r>   10.0780   -0.0000 </r>
       <r>   18.5735    0.0000 </r>
       <r>   18.5735    0.0000 </r>
       <r>   18.5735    0.0000 </r>
       <r>   23.0860    0.0000 </r>
       <r>   23.0860    0.0000 </r>
       <r>   23.0860    0.0000 </r>
       <r>   23.0860    0.0000 </r>
       <r>   23.0860    0.0000 </r>
       <r>   23.0860    0.0000 </r>
       <r>   28.5095    0.0000 </r>
       <r>   28.5095    0.0000 </r>
       <r>   28.5095    0.0000 </r>
       <r>   30.1504    0.0000 </r>
       <r>   33.4300    0.0000 </r>
       <r>   33.4300    0.0000 </r>
       <r>   33.4300    0.0000 </r>
      </set>
      <set comment="kpoint 2">
       <r>   -1.4659    1.0000 </r>
       <r>    1.9648    1.0000 </r>
       <r>    2.1989    1.0000 </r>
       <r>    2.1989    1.0000 </r>
       <r>    2.8214    1.0000 </r>
       <r>    2.8624    1.0000 </r>
       <r>    2.8624    1.0000 </r>
       <r>    4.8941    1.0000 </r>
       <r>    5.3806    1.0000 </r>
       <r>    5.3806    1.0000 </r>
       <r>    6.4778    1.0206 </r>
       <r>    6.6172    1.0200 </r>
       <r>    6.6172    1.0200 </r>
       <r>    6.8290    0.4137 </r>
       <r>    7.4354   -0.0000 </r>
       <r>    7.4354   -0.0000 </r>
       <r>    7.6678   -0.0000 </r>
       <r>    7.6911   -0.0000 </r>
       <r>    7.6911   -0.0000 </r>
       <r>    8.0707   -0.0000 </r>
       <r>    8.0707   -0.0000 </r>
       <r>    8.2455   -0.0000 </r>
       <r>   11.9236   -0.0000 </r>
       <r>   11.9236   -0.0000 </r>
       <r>   18.5726    0.0000 </r>
       <r>   18.5726    0.0000 </r>
       <r>   21.1053    0.0000 </r>
       <r>   21.1053    0.0000 </r>
       <r>   21.1297    0.0000 </r>
       <r>   22.0125    0.0000 </r>
       <r>   22.0125    0.0000 </r>
       <r>   24.0144    0.0000 </r>
       <r>   24.0144    0.0000 </r>
       <r>   28.5921    0.0000 </r>
       <r>   29.8009    0.0000 </r>
       <r>   31.0127    0.0000 </r>
       <r>   31.0127    0.0000 </r>
       <r>   33.1681    0.0000 </r>
       <r>   33.3725    0.0000 </r>
       <r>   33.3725    0.0000 </r>
      </set>
      <set comment="kpoint 3">
       <r>    0.0464    1.0000 </r>
       <r>    1.6403    1.0000 </r>
       <r>    2.8795    1.0000 </r>
       <r>    2.8795    1.0000 </r>
       <r>    3.4137    1.0000 </r>
       <r>    3.6343    1.0000 </r>
       <r>    3.6343    1.0000 </r>
       <r>    4.2029    1.0000 </r>
       <r>    4.9071    1.0000 </r>
       <r>    4.9071    1.0000 </r>
       <r>    5.9307    1.0000 </r>
       <r>    5.9733    1.0000 </r>
       <r>    5.9733    1.0000 </r>
       <r>    6.0852    1.0000 </r>
       <r>    6.7374    0.7808 </r>
       <r>    6.7374    0.7808 </r>
       <r>    6.8384    0.3752 </r>
       <r>    6.8384    0.3752 </r>
       <r>    7.0825   -0.0328 </r>
       <r>    7.4030   -0.0001 </r>
       <r>    8.0717   -0.0000 </r>
       <r>    8.0717   -0.0000 </r>
       <r>   14.7896    0.0000 </r>
       <r>   14.7896    0.0000 </r>
       <r>   17.9313    0.0000 </r>
       <r>   17.9313    0.0000 </r>
       <r>   18.5839    0.0000 </r>
       <r>   18.5839    0.0000 </r>
       <r>   20.7288    0.0000 </r>
       <r>   20.7288    0.0000 </r>
       <r>   25.6836    0.0000 </r>
       <r>   26.4670    0.0000 </r>
       <r>   26.4670    0.0000 </r>
       <r>   28.7994    0.0000 </r>
       <r>   29.2240    0.0000 </r>
       <r>   29.7380    0.0000 </r>
       <r>   29.7963    0.0000 </r>
       <r>   29.7963    0.0000 </r>
       <r>   34.9658    0.0000 </r>
       <r>   35.7146    0.0000 </r>
      </set>
      <set comment="kpoint 4">
       <r>   -0.9305    1.0000 </r>
       <r>    2.3262    1.0000 </r>
       <r>    2.3262    1.0000 </r>
       <r>    2.4956    1.0000 </r>
       <r>    3.0539    1.0000 </r>
       <r>    3.0539    1.0000 </r>
       <r>    3.0717    1.0000 </r>
       <r>    4.7711    1.0000 </r>
       <r>    5.4475    1.0000 </r>
       <r>    5.4700    1.0000 </r>
       <r>    6.0399    1.0000 </r>
       <r>    6.0448    1.0000 </r>
       <r>    6.0448    1.0000 </r>
       <r>    6.4324    1.0115 </r>
       <r>    6.8594    0.2923 </r>
       <r>    7.1786   -0.0126 </r>
       <r>    7.3956   -0.0001 </r>
       <r>    7.3956   -0.0001 </r>
       <r>    7.6883   -0.0000 </r>
       <r>    7.6883   -0.0000 </r>
       <r>    7.8223   -0.0000 </r>
       <r>   10.0943   -0.0000 </r>
       <r>   10.0943   -0.0000 </r>
       <r>   13.1500    0.0000 </r>
       <r>   17.3689    0.0000 </r>
       <r>   19.1992    0.0000 </r>
       <r>   21.1513    0.0000 </r>
       <r>   21.1513    0.0000 </r>
       <r>   21.8727    0.0000 </r>
       <r>   21.8727    0.0000 </r>
       <r>   22.9600    0.0000 </r>
       <r>   22.9600    0.0000 </r>
       <r>   24.8681    0.0000 </r>
       <r>   28.3498    0.0000 </r>
       <r>   29.6293    0.0000 </r>
       <r>   30.0588    0.0000 </r>
       <r>   31.2776    0.0000 </r>
       <r>   31.2776    0.0000 </r>
       <r>   34.3232    0.0000 </r>
       <r>   36.0910    0.0000 </r>
      </set>
      <set comment="kpoint 5">
       <r>    0.5086    1.0000 </r>
       <r>    2.0447    1.0000 </r>
       <r>    3.1067    1.0000 </r>
       <r>    3.1701    1.0000 </r>
       <r>    3.5703    1.0000 </r>
       <r>    3.5948    1.0000 </r>
       <r>    3.7389    1.0000 </r>
       <r>    4.2403    1.0000 </r>
       <r>    4.5409    1.0000 </r>
       <r>    4.8185    1.0000 </r>
       <r>    5.2337    1.0000 </r>
       <r>    5.4192    1.0000 </r>
       <r>    5.9930    1.0000 </r>
       <r>    6.2946    1.0008 </r>
       <r>    6.6291    1.0109 </r>
       <r>    6.7324    0.7975 </r>
       <r>    6.8379    0.3771 </r>
       <r>    6.9001    0.1540 </r>
       <r>    7.3244   -0.0008 </r>
       <r>    7.6831   -0.0000 </r>
       <r>    7.6982   -0.0000 </r>
       <r>    8.1712   -0.0000 </r>
       <r>   12.2757    0.0000 </r>
       <r>   14.6015    0.0000 </r>
       <r>   15.6798    0.0000 </r>
       <r>   18.6909    0.0000 </r>
       <r>   19.4616    0.0000 </r>
       <r>   20.3662    0.0000 </r>
       <r>   22.8134    0.0000 </r>
       <r>   23.7626    0.0000 </r>
       <r>   24.0188    0.0000 </r>
       <r>   24.2470    0.0000 </r>
       <r>   26.0671    0.0000 </r>
       <r>   26.5781    0.0000 </r>
       <r>   26.9777    0.0000 </r>
       <r>   32.0917    0.0000 </r>
       <r>   32.2678    0.0000 </r>
       <r>   33.2860    0.0000 </r>
       <r>   33.4997    0.0000 </r>
       <r>   36.0636    0.0000 </r>
      </set>
      <set comment="kpoint 6">
       <r>    1.7025    1.0000 </r>
       <r>    2.9595    1.0000 </r>
       <r>    2.9595    1.0000 </r>
       <r>    3.4704    1.0000 </r>
       <r>    3.8568    1.0000 </r>
       <r>    3.9920    1.0000 </r>
       <r>    3.9920    1.0000 </r>
       <r>    4.2153    1.0000 </r>
       <r>    4.4261    1.0000 </r>
       <r>    4.4261    1.0000 </r>
       <r>    4.4967    1.0000 </r>
       <r>    5.0595    1.0000 </r>
       <r>    6.0375    1.0000 </r>
       <r>    6.2352    1.0002 </r>
       <r>    6.2783    1.0006 </r>
       <r>    6.3650    1.0037 </r>
       <r>    6.3650    1.0037 </r>
       <r>    6.8850    0.2011 </r>
       <r>    6.8850    0.2011 </r>
       <r>    7.1426   -0.0199 </r>
       <r>    8.2437   -0.0000 </r>
       <r>    9.6975   -0.0000 </r>
       <r>    9.6975   -0.0000 </r>
       <r>   11.6597   -0.0000 </r>
       <r>   17.8223    0.0000 </r>
       <r>   20.2929    0.0000 </r>
       <r>   20.6020    0.0000 </r>
       <r>   20.6020    0.0000 </r>
       <r>   21.8046    0.0000 </r>
       <r>   21.8046    0.0000 </r>
       <r>   23.1365    0.0000 </r>
       <r>   23.8277    0.0000 </r>
       <r>   28.0682    0.0000 </r>
       <r>   28.0682    0.0000 </r>
       <r>   29.2615    0.0000 </r>
       <r>   30.8012    0.0000 </r>
       <r>   33.2684    0.0000 </r>
       <r>   34.8160    0.0000 </r>
       <r>   35.8401    0.0000 </r>
       <r>   35.8401    0.0000 </r>
      </set>
      <set comment="kpoint 7">
       <r>   -0.4379    1.0000 </r>
       <r>    2.5982    1.0000 </r>
       <r>    2.5982    1.0000 </r>
       <r>    2.5982    1.0000 </r>
       <r>    3.2540    1.0000 </r>
       <r>    3.2540    1.0000 </r>
       <r>    3.2540    1.0000 </r>
       <r>    4.7199    1.0000 </r>
       <r>    5.4611    1.0000 </r>
       <r>    5.4611    1.0000 </r>
       <r>    5.6214    1.0000 </r>
       <r>    5.6214    1.0000 </r>
       <r>    5.6214    1.0000 </r>
       <r>    6.7086    0.8699 </r>
       <r>    6.7086    0.8699 </r>
       <r>    6.7649    0.6800 </r>
       <r>    6.7649    0.6800 </r>
       <r>    6.7649    0.6800 </r>
       <r>    7.9053   -0.0000 </r>
       <r>    7.9053   -0.0000 </r>
       <r>    7.9053   -0.0000 </r>
       <r>   10.9187   -0.0000 </r>
       <r>   10.9187   -0.0000 </r>
       <r>   10.9187   -0.0000 </r>
       <r>   18.4570    0.0000 </r>
       <r>   18.4570    0.0000 </r>
       <r>   18.4570    0.0000 </r>
       <r>   21.8418    0.0000 </r>
       <r>   21.8418    0.0000 </r>
       <r>   21.8418    0.0000 </r>
       <r>   25.5711    0.0000 </r>
       <r>   25.6566    0.0000 </r>
       <r>   25.6566    0.0000 </r>
       <r>   25.6566    0.0000 </r>
       <r>   30.2164    0.0000 </r>
       <r>   30.2164    0.0000 </r>
       <r>   30.2164    0.0000 </r>
       <r>   31.0546    0.0000 </r>
       <r>   34.6676    0.0000 </r>
       <r>   34.6676    0.0000 </r>
      </set>
      <set comment="kpoint 8">
       <r>    0.8639    1.0000 </r>
       <r>    2.2462    1.0000 </r>
       <r>    3.1894    1.0000 </r>
       <r>    3.1894    1.0000 </r>
       <r>    3.6459    1.0000 </r>
       <r>    3.6459    1.0000 </r>
       <r>    3.8024    1.0000 </r>
       <r>    4.3824    1.0000 </r>
       <r>    4.8207    1.0000 </r>
       <r>    4.8207    1.0000 </r>
       <r>    5.0724    1.0000 </r>
       <r>    5.3444    1.0000 </r>
       <r>    5.6330    1.0000 </r>
       <r>    6.1087    1.0000 </r>
       <r>    6.3334    1.0020 </r>
       <r>    6.3334    1.0020 </r>
       <r>    6.8692    0.2558 </r>
       <r>    7.2552   -0.0035 </r>
       <r>    7.7298   -0.0000 </r>
       <r>    7.7298   -0.0000 </r>
       <r>    7.7302   -0.0000 </r>
       <r>    8.2976   -0.0000 </r>
       <r>   12.3855    0.0000 </r>
       <r>   12.3855    0.0000 </r>
       <r>   15.9326    0.0000 </r>
       <r>   15.9326    0.0000 </r>
       <r>   20.3048    0.0000 </r>
       <r>   22.6142    0.0000 </r>
       <r>   22.6142    0.0000 </r>
       <r>   22.7048    0.0000 </r>
       <r>   24.8991    0.0000 </r>
       <r>   24.8991    0.0000 </r>
       <r>   26.4837    0.0000 </r>
       <r>   27.8481    0.0000 </r>
       <r>   29.5326    0.0000 </r>
       <r>   31.0453    0.0000 </r>
       <r>   31.1040    0.0000 </r>
       <r>   33.3559    0.0000 </r>
       <r>   33.3559    0.0000 </r>
       <r>   34.6694    0.0000 </r>
      </set>
      <set comment="kpoint 9">
       <r>    1.7126    1.0000 </r>
       <r>    2.5938    1.0000 </r>
       <r>    2.5938    1.0000 </r>
       <r>    2.9030    1.0000 </r>
       <r>    4.1544    1.0000 </r>
       <r>    4.3555    1.0000 </r>
       <r>    4.3555    1.0000 </r>
       <r>    4.7046    1.0000 </r>
       <r>    4.8879    1.0000 </r>
       <r>    4.8879    1.0000 </r>
       <r>    5.0734    1.0000 </r>
       <r>    5.1451    1.0000 </r>
       <r>    5.4729    1.0000 </r>
       <r>    5.7826    1.0000 </r>
       <r>    5.7826    1.0000 </r>
       <r>    5.8136    1.0000 </r>
       <r>    6.9435    0.0491 </r>
       <r>    7.4824   -0.0000 </r>
       <r>    7.4824   -0.0000 </r>
       <r>    7.5326   -0.0000 </r>
       <r>    8.0084   -0.0000 </r>
       <r>    9.5279   -0.0000 </r>
       <r>    9.5279   -0.0000 </r>
       <r>   11.1617   -0.0000 </r>
       <r>   15.6481    0.0000 </r>
       <r>   17.4933    0.0000 </r>
       <r>   17.4933    0.0000 </r>
       <r>   19.7600    0.0000 </r>
       <r>   23.8081    0.0000 </r>
       <r>   25.5492    0.0000 </r>
       <r>   25.5492    0.0000 </r>
       <r>   27.5857    0.0000 </r>
       <r>   28.5236    0.0000 </r>
       <r>   28.5236    0.0000 </r>
       <r>   29.7797    0.0000 </r>
       <r>   30.7639    0.0000 </r>
       <r>   32.4242    0.0000 </r>
       <r>   33.6842    0.0000 </r>
       <r>   33.6842    0.0000 </r>
       <r>   35.1942    0.0000 </r>
      </set>
      <set comment="kpoint 10">
       <r>    1.8289    1.0000 </r>
       <r>    2.2182    1.0000 </r>
       <r>    2.2182    1.0000 </r>
       <r>    2.2182    1.0000 </r>
       <r>    4.7977    1.0000 </r>
       <r>    4.7977    1.0000 </r>
       <r>    4.7977    1.0000 </r>
       <r>    5.1696    1.0000 </r>
       <r>    5.1696    1.0000 </r>
       <r>    5.3049    1.0000 </r>
       <r>    5.3049    1.0000 </r>
       <r>    5.3049    1.0000 </r>
       <r>    5.8589    1.0000 </r>
       <r>    5.8589    1.0000 </r>
       <r>    5.8589    1.0000 </r>
       <r>    5.9414    1.0000 </r>
       <r>    7.5868   -0.0000 </r>
       <r>    7.5868   -0.0000 </r>
       <r>    7.8127   -0.0000 </r>
       <r>    7.8127   -0.0000 </r>
       <r>    7.8127   -0.0000 </r>
       <r>    9.0986   -0.0000 </r>
       <r>    9.0986   -0.0000 </r>
       <r>    9.0986   -0.0000 </r>
       <r>   15.4354    0.0000 </r>
       <r>   15.4354    0.0000 </r>
       <r>   15.4354    0.0000 </r>
       <r>   17.0299    0.0000 </r>
       <r>   27.7704    0.0000 </r>
       <r>   27.7704    0.0000 </r>
       <r>   27.7704    0.0000 </r>
       <r>   29.0879    0.0000 </r>
       <r>   31.3657    0.0000 </r>
       <r>   31.3657    0.0000 </r>
       <r>   31.3657    0.0000 </r>
       <r>   31.8555    0.0000 </r>
       <r>   31.8555    0.0000 </r>
       <r>   31.8555    0.0000 </r>
       <r>   33.9578    0.0000 </r>
       <r>   33.9578    0.0000 </r>
      </set>
     </set>
    </set>
   </array>
  </eigenvalues>
  <separator name="orbital magnetization" >
   <v name="MAGDIPOLOUT">      0.00000000      0.00000000      0.00000000</v>
  </separator>
  <dos>
   <i name="efermi">      6.80851883 </i>
   <total>
    <array>
     <dimension dim="1">gridpoints</dimension>
     <dimension dim="2">spin</dimension>
     <field>energy</field>
     <field>total</field>
     <field>integrated</field>
     <set>
      <set comment="spin 1">
       <r>    -4.0273     0.0000     0.0000 </r>
       <r>    -3.8870     0.0000     0.0000 </r>
       <r>    -3.7466    -0.0000    -0.0000 </r>
       <r>    -3.6062    -0.0000    -0.0000 </r>
       <r>    -3.4658    -0.0000    -0.0000 </r>
       <r>    -3.3254    -0.0000    -0.0000 </r>
       <r>    -3.1850    -0.0000    -0.0000 </r>
       <r>    -3.0446    -0.0000    -0.0000 </r>
       <r>    -2.9042    -0.0000    -0.0000 </r>
       <r>    -2.7638    -0.0000    -0.0000 </r>
       <r>    -2.6234    -0.0000    -0.0000 </r>
       <r>    -2.4830    -0.0003    -0.0000 </r>
       <r>    -2.3426    -0.0024    -0.0004 </r>
       <r>    -2.2022     0.0020    -0.0001 </r>
       <r>    -2.0618     0.0413     0.0057 </r>
       <r>    -1.9214     0.0584     0.0139 </r>
       <r>    -1.7810     0.0025     0.0142 </r>
       <r>    -1.6406     0.0092     0.0155 </r>
       <r>    -1.5002     0.2474     0.0503 </r>
       <r>    -1.3599     0.3555     0.1002 </r>
       <r>    -1.2195     0.0675     0.1096 </r>
       <r>    -1.0791     0.0592     0.1179 </r>
       <r>    -0.9387     0.5937     0.2013 </r>
       <r>    -0.7983     0.6441     0.2917 </r>
       <r>    -0.6579     0.1029     0.3062 </r>
       <r>    -0.5175     0.1673     0.3297 </r>
       <r>    -0.3771     0.4929     0.3988 </r>
       <r>    -0.2367     0.2383     0.4323 </r>
       <r>    -0.0963     0.0386     0.4377 </r>
       <r>     0.0441     0.2895     0.4784 </r>
       <r>     0.1845     0.2635     0.5153 </r>
       <r>     0.3249     0.0711     0.5253 </r>
       <r>     0.4653     0.8792     0.6488 </r>
       <r>     0.6057     1.4020     0.8456 </r>
       <r>     0.7461     0.8014     0.9581 </r>
       <r>     0.8865     1.3288     1.1447 </r>
       <r>     1.0269     1.0627     1.2939 </r>
       <r>     1.1672     0.0857     1.3059 </r>
       <r>     1.3076    -0.1069     1.2909 </r>
       <r>     1.4480    -0.1315     1.2724 </r>
       <r>     1.5884     0.6278     1.3606 </r>
       <r>     1.7288     2.5376     1.7168 </r>
       <r>     1.8692     2.5212     2.0708 </r>
       <r>     2.0096     1.8105     2.3250 </r>
       <r>     2.1500     3.2171     2.7766 </r>
       <r>     2.2904     4.8923     3.4635 </r>
       <r>     2.4308     3.8130     3.9988 </r>
       <r>     2.5712     4.2954     4.6019 </r>
       <r>     2.7116     4.5581     5.2418 </r>
       <r>     2.8520     3.4392     5.7246 </r>
       <r>     2.9924     5.6762     6.5215 </r>
       <r>     3.1328     8.2962     7.6863 </r>
       <r>     3.2732     7.6523     8.7606 </r>
       <r>     3.4136     3.2347     9.2147 </r>
       <r>     3.5540     4.1756     9.8010 </r>
       <r>     3.6943     8.0110    10.9257 </r>
       <r>     3.8347     6.2988    11.8100 </r>
       <r>     3.9751     2.9978    12.2309 </r>
       <r>     4.1155     2.6522    12.6032 </r>
       <r>     4.2559     5.2094    13.3346 </r>
       <r>     4.3963     7.7239    14.4190 </r>
       <r>     4.5367     6.1294    15.2795 </r>
       <r>     4.6771     4.4654    15.9064 </r>
       <r>     4.8175     9.2442    17.2043 </r>
       <r>     4.9579    10.6536    18.7000 </r>
       <r>     5.0983     7.5209    19.7559 </r>
       <r>     5.2387     7.2388    20.7721 </r>
       <r>     5.3791     8.1264    21.9130 </r>
       <r>     5.5195     8.1770    23.0610 </r>
       <r>     5.6599     5.9845    23.9012 </r>
       <r>     5.8003     6.3901    24.7984 </r>
       <r>     5.9407     7.9909    25.9202 </r>
       <r>     6.0811     7.9539    27.0369 </r>
       <r>     6.2214     6.6987    27.9774 </r>
       <r>     6.3618     7.5042    29.0309 </r>
       <r>     6.5022     5.4188    29.7917 </r>
       <r>     6.6426     4.1745    30.3778 </r>
       <r>     6.7830     9.3290    31.6875 </r>
       <r>     6.9234    11.7860    33.3422 </r>
       <r>     7.0638     6.1558    34.2064 </r>
       <r>     7.2042     2.8292    34.6036 </r>
       <r>     7.3446     4.9663    35.3009 </r>
       <r>     7.4850     7.5565    36.3618 </r>
       <r>     7.6254    10.0234    37.7690 </r>
       <r>     7.7658    12.8381    39.5714 </r>
       <r>     7.9062     9.1352    40.8539 </r>
       <r>     8.0466     4.9378    41.5472 </r>
       <r>     8.1870     4.8187    42.2237 </r>
       <r>     8.3274     4.0100    42.7867 </r>
       <r>     8.4678     1.4229    42.9864 </r>
       <r>     8.6081    -0.0816    42.9750 </r>
       <r>     8.7485    -0.1401    42.9553 </r>
       <r>     8.8889    -0.0469    42.9487 </r>
       <r>     9.0293     0.6907    43.0457 </r>
       <r>     9.1697     1.4431    43.2483 </r>
       <r>     9.3101     0.5620    43.3272 </r>
       <r>     9.4505     1.1511    43.4888 </r>
       <r>     9.5909     3.3936    43.9653 </r>
       <r>     9.7313     2.9013    44.3726 </r>
       <r>     9.8717     0.8922    44.4978 </r>
       <r>    10.0121     0.6432    44.5881 </r>
       <r>    10.1525     1.6338    44.8175 </r>
       <r>    10.2929     0.8645    44.9389 </r>
       <r>    10.4333    -0.0254    44.9353 </r>
       <r>    10.5737    -0.0949    44.9220 </r>
       <r>    10.7141    -0.0414    44.9162 </r>
       <r>    10.8545     0.6778    45.0114 </r>
       <r>    10.9949     1.5930    45.2350 </r>
       <r>    11.1352     1.6987    45.4735 </r>
       <r>    11.2756     1.3547    45.6637 </r>
       <r>    11.4160     0.2798    45.7030 </r>
       <r>    11.5564     0.1219    45.7201 </r>
       <r>    11.6968     0.6775    45.8152 </r>
       <r>    11.8372     0.7499    45.9205 </r>
       <r>    11.9776     0.6698    46.0145 </r>
       <r>    12.1180     0.3511    46.0638 </r>
       <r>    12.2584     1.6649    46.2976 </r>
       <r>    12.3988     4.0304    46.8634 </r>
       <r>    12.5392     2.6182    47.2310 </r>
       <r>    12.6796     0.1832    47.2567 </r>
       <r>    12.8200    -0.1791    47.2316 </r>
       <r>    12.9604    -0.0215    47.2285 </r>
       <r>    13.1008     0.4332    47.2894 </r>
       <r>    13.2412     0.7471    47.3942 </r>
       <r>    13.3816     0.2594    47.4307 </r>
       <r>    13.5220    -0.0307    47.4263 </r>
       <r>    13.6623    -0.0155    47.4242 </r>
       <r>    13.8027    -0.0012    47.4240 </r>
       <r>    13.9431    -0.0001    47.4240 </r>
       <r>    14.0835    -0.0021    47.4237 </r>
       <r>    14.2239    -0.0291    47.4196 </r>
       <r>    14.3643    -0.0722    47.4095 </r>
       <r>    14.5047     0.4409    47.4714 </r>
       <r>    14.6451     1.5660    47.6912 </r>
       <r>    14.7855     1.5317    47.9063 </r>
       <r>    14.9259     0.6612    47.9991 </r>
       <r>    15.0663     0.0218    48.0022 </r>
       <r>    15.2067    -0.1172    47.9857 </r>
       <r>    15.3471     0.4187    48.0445 </r>
       <r>    15.4875     1.5800    48.2663 </r>
       <r>    15.6279     2.6732    48.6416 </r>
       <r>    15.7683     3.0520    49.0701 </r>
       <r>    15.9087     2.9636    49.4862 </r>
       <r>    16.0491     2.6649    49.8603 </r>
       <r>    16.1894     0.6201    49.9474 </r>
       <r>    16.3298    -0.1492    49.9264 </r>
       <r>    16.4702    -0.0434    49.9203 </r>
       <r>    16.6106    -0.0076    49.9193 </r>
       <r>    16.7510    -0.0240    49.9159 </r>
       <r>    16.8914     0.0653    49.9251 </r>
       <r>    17.0318     0.3868    49.9794 </r>
       <r>    17.1722     0.2993    50.0214 </r>
       <r>    17.3126     0.5231    50.0948 </r>
       <r>    17.4530     2.6004    50.4599 </r>
       <r>    17.5934     3.1679    50.9047 </r>
       <r>    17.7338     1.1387    51.0645 </r>
       <r>    17.8742     0.9983    51.2047 </r>
       <r>    18.0146     1.1103    51.3605 </r>
       <r>    18.1550     0.2049    51.3893 </r>
       <r>    18.2954    -0.0577    51.3812 </r>
       <r>    18.4358     1.2194    51.5524 </r>
       <r>    18.5762     3.1383    51.9930 </r>
       <r>    18.7165     3.1544    52.4359 </r>
       <r>    18.8569     1.1998    52.6043 </r>
       <r>    18.9973    -0.0395    52.5988 </r>
       <r>    19.1377     0.2476    52.6335 </r>
       <r>    19.2781     0.7642    52.7408 </r>
       <r>    19.4185     1.1832    52.9069 </r>
       <r>    19.5589     1.4330    53.1081 </r>
       <r>    19.6993     1.2239    53.2800 </r>
       <r>    19.8397     1.4346    53.4814 </r>
       <r>    19.9801     0.4732    53.5478 </r>
       <r>    20.1205    -0.0794    53.5367 </r>
       <r>    20.2609     1.7496    53.7823 </r>
       <r>    20.4013     3.6013    54.2879 </r>
       <r>    20.5417     2.4406    54.6305 </r>
       <r>    20.6821     1.8881    54.8956 </r>
       <r>    20.8225     1.1506    55.0571 </r>
       <r>    20.9629     0.3078    55.1004 </r>
       <r>    21.1033     1.6977    55.3387 </r>
       <r>    21.2436     2.4626    55.6844 </r>
       <r>    21.3840     0.6739    55.7791 </r>
       <r>    21.5244    -0.2885    55.7386 </r>
       <r>    21.6648     0.1411    55.7584 </r>
       <r>    21.8052     2.9333    56.1702 </r>
       <r>    21.9456     4.5887    56.8144 </r>
       <r>    22.0860     2.0377    57.1005 </r>
       <r>    22.2264     0.0946    57.1138 </r>
       <r>    22.3668    -0.2979    57.0719 </r>
       <r>    22.5072     0.6934    57.1693 </r>
       <r>    22.6476     3.7009    57.6889 </r>
       <r>    22.7880     4.6023    58.3350 </r>
       <r>    22.9284     3.1224    58.7734 </r>
       <r>    23.0688     2.2502    59.0893 </r>
       <r>    23.2092     1.3659    59.2811 </r>
       <r>    23.3496     0.2850    59.3211 </r>
       <r>    23.4900    -0.2197    59.2902 </r>
       <r>    23.6303     0.2073    59.3193 </r>
       <r>    23.7707     2.5709    59.6803 </r>
       <r>    23.9111     3.9781    60.2388 </r>
       <r>    24.0515     3.0348    60.6648 </r>
       <r>    24.1919     2.1469    60.9663 </r>
       <r>    24.3323     1.5214    61.1799 </r>
       <r>    24.4727     0.4365    61.2411 </r>
       <r>    24.6131    -0.2439    61.2069 </r>
       <r>    24.7535     0.4765    61.2738 </r>
       <r>    24.8939     3.1497    61.7160 </r>
       <r>    25.0343     3.1155    62.1534 </r>
       <r>    25.1747     0.4112    62.2111 </r>
       <r>    25.3151    -0.3798    62.1578 </r>
       <r>    25.4555     1.0412    62.3040 </r>
       <r>    25.5959     4.3432    62.9137 </r>
       <r>    25.7363     3.9769    63.4721 </r>
       <r>    25.8767     0.8744    63.5948 </r>
       <r>    26.0171     0.6741    63.6895 </r>
       <r>    26.1574     1.3347    63.8769 </r>
       <r>    26.2978     0.4980    63.9468 </r>
       <r>    26.4382     1.5560    64.1652 </r>
       <r>    26.5786     3.4073    64.6436 </r>
       <r>    26.7190     1.8553    64.9041 </r>
       <r>    26.8594     0.4162    64.9625 </r>
       <r>    26.9998     1.2798    65.1422 </r>
       <r>    27.1402     1.0679    65.2921 </r>
       <r>    27.2806     0.0246    65.2955 </r>
       <r>    27.4210    -0.0342    65.2908 </r>
       <r>    27.5614     0.9606    65.4256 </r>
       <r>    27.7018     2.2366    65.7396 </r>
       <r>    27.8422     3.0185    66.1634 </r>
       <r>    27.9826     2.4455    66.5067 </r>
       <r>    28.1230     1.5966    66.7309 </r>
       <r>    28.2634     0.8175    66.8457 </r>
       <r>    28.4038     1.4012    67.0424 </r>
       <r>    28.5442     3.5155    67.5359 </r>
       <r>    28.6845     2.7828    67.9266 </r>
       <r>    28.8249     0.6235    68.0142 </r>
       <r>    28.9653     0.1597    68.0366 </r>
       <r>    29.1057     0.5747    68.1173 </r>
       <r>    29.2461     1.1953    68.2851 </r>
       <r>    29.3865     1.0712    68.4355 </r>
       <r>    29.5269     1.4422    68.6380 </r>
       <r>    29.6673     2.6810    69.0143 </r>
       <r>    29.8077     3.4323    69.4962 </r>
       <r>    29.9481     2.1717    69.8011 </r>
       <r>    30.0885     1.1366    69.9607 </r>
       <r>    30.2289     1.7907    70.2121 </r>
       <r>    30.3693     1.1798    70.3777 </r>
       <r>    30.5097    -0.0095    70.3764 </r>
       <r>    30.6501     0.2974    70.4181 </r>
       <r>    30.7905     1.8071    70.6718 </r>
       <r>    30.9309     2.4653    71.0180 </r>
       <r>    31.0713     3.7345    71.5423 </r>
       <r>    31.2116     4.0330    72.1085 </r>
       <r>    31.3520     3.1626    72.5525 </r>
       <r>    31.4924     1.7868    72.8034 </r>
       <r>    31.6328     0.1283    72.8214 </r>
       <r>    31.7732     0.4159    72.8798 </r>
       <r>    31.9136     1.4852    73.0883 </r>
       <r>    32.0540     1.6832    73.3246 </r>
       <r>    32.1944     2.0476    73.6121 </r>
       <r>    32.3348     2.4377    73.9543 </r>
       <r>    32.4752     2.1414    74.2549 </r>
       <r>    32.6156     0.7940    74.3664 </r>
       <r>    32.7560    -0.0506    74.3593 </r>
       <r>    32.8964    -0.1293    74.3411 </r>
       <r>    33.0368    -0.1925    74.3141 </r>
       <r>    33.1772     0.9757    74.4511 </r>
       <r>    33.3176     4.8180    75.1275 </r>
       <r>    33.4580     6.1610    75.9925 </r>
       <r>    33.5984     3.9012    76.5402 </r>
       <r>    33.7387     3.1957    76.9889 </r>
       <r>    33.8791     1.8974    77.2552 </r>
       <r>    34.0195     0.9289    77.3857 </r>
       <r>    34.1599     0.4493    77.4487 </r>
       <r>    34.3003     0.4634    77.5138 </r>
       <r>    34.4407     0.5555    77.5918 </r>
       <r>    34.5811     1.0351    77.7371 </r>
       <r>    34.7215     2.6907    78.1149 </r>
       <r>    34.8619     2.1847    78.4216 </r>
       <r>    35.0023     0.8056    78.5347 </r>
       <r>    35.1427     1.0176    78.6775 </r>
       <r>    35.2831     1.4707    78.8840 </r>
       <r>    35.4235     0.4865    78.9523 </r>
       <r>    35.5639    -0.1018    78.9380 </r>
       <r>    35.7043     0.4341    78.9990 </r>
       <r>    35.8447     1.5357    79.2146 </r>
       <r>    35.9851     2.1153    79.5115 </r>
       <r>    36.1254     2.3920    79.8474 </r>
       <r>    36.2658     1.1825    80.0134 </r>
       <r>    36.4062    -0.0124    80.0116 </r>
       <r>    36.5466    -0.0742    80.0012 </r>
       <r>    36.6870    -0.0083    80.0000 </r>
       <r>    36.8274    -0.0003    80.0000 </r>
       <r>    36.9678    -0.0000    80.0000 </r>
       <r>    37.1082    -0.0000    80.0000 </r>
       <r>    37.2486    -0.0000    80.0000 </r>
       <r>    37.3890    -0.0000    80.0000 </r>
       <r>    37.5294     0.0000    80.0000 </r>
       <r>    37.6698     0.0000    80.0000 </r>
       <r>    37.8102     0.0000    80.0000 </r>
       <r>    37.9506     0.0000    80.0000 </r>
       <r>    38.0910     0.0000    80.0000 </r>
      </set>
     </set>
    </array>
   </total>
  </dos>
 </calculation>
 <structure name="finalpos" >
  <crystal>
   <varray name="basis" >
    <v>       3.44508300       0.00000000       0.00000000 </v>
    <v>       0.00000000       3.44508300       0.00000000 </v>
    <v>       0.00000000       0.00000000       3.44508300 </v>
   </varray>
   <i name="volume">     40.88830133 </i>
   <varray name="rec_basis" >
    <v>       0.29026877       0.00000000       0.00000000 </v>
    <v>       0.00000000       0.29026877       0.00000000 </v>
    <v>       0.00000000       0.00000000       0.29026877 </v>
   </varray>
  </crystal>
  <varray name="positions" >
   <v>       0.00000000       0.00000000       0.00000000 </v>
   <v>       0.50000000       0.50000000       0.00000000 </v>
   <v>       0.50000000       0.00000000       0.50000000 </v>
   <v>       0.00000000       0.50000000       0.50000000 </v>
  </varray>
 </structure>
</modeling>
