unknown system                          
   1.00000000000000     
     3.635000    0.000000    0.000000
     0.000000    3.635000    0.000000
     0.000000    0.000000    3.635000
   Cu
     4
Direct
  0.000000  0.000000  0.000000
  0.500000  0.500000  0.000000
  0.500000  0.000000  0.500000
  0.000000  0.500000  0.500000
 
   32   32   32
  844.76      796.16      665.76      491.75      317.43      175.81      82.652      36.206      20.753      15.189    
  11.551      9.2803      7.9562      7.2855      6.8678      6.4807      6.2953      6.4807      6.8678      7.2855    
  7.9562      9.2803      11.551      15.189      20.753      36.206      82.652      175.81      317.43      491.75    
  665.76      796.16      796.16      750.16      626.75      462.10      297.41      164.10      77.106      34.363    
  20.362      14.993      11.479      9.2997      8.0357      7.3999      7.0100      6.6519      6.4807      6.6519    
  7.0100      7.3999      8.0357      9.2997      11.479      14.993      20.362      34.363      77.106      164.10    
  297.41      462.10      626.75      750.16      665.76      626.75      522.09      382.71      244.06      133.28    
  62.848      29.825      19.348      14.456      11.289      9.3487      8.2280      7.6585      7.3132      7.0100    
  6.8678      7.0100      7.3132      7.6585      8.2280      9.3487      11.289      14.456      19.348      29.825    
  62.848      133.28      244.06      382.71      522.09      626.75      491.75      462.10      382.71      277.57    
  174.35      94.109      45.662      24.819      17.917      13.710      11.052      9.4384      8.4913      7.9791    
  7.6585      7.3999      7.2855      7.3999      7.6585      7.9791      8.4913      9.4384      11.052      13.710    
  17.917      24.819      45.662      94.109      174.35      277.57      382.71      462.10      317.43      297.41    
  244.06      174.35      107.75      58.595      31.497      21.058      16.264      12.931      10.878      9.6436    
  8.9092      8.4913      8.2280      8.0357      7.9562      8.0357      8.2280      8.4913      8.9092      9.6436    
  10.878      12.931      16.264      21.058      31.497      58.595      107.75      174.35      244.06      297.41    
  175.81      164.10      133.28      94.109      58.595      34.686      23.204      18.256      14.672      12.294    
  10.883      10.079      9.6436      9.4384      9.3487      9.2997      9.2803      9.2997      9.3487      9.4384    
  9.6436      10.079      10.883      12.294      14.672      18.256      23.204      34.686      58.595      94.109    
  133.28      164.10      82.652      77.106      62.848      45.662      31.497      23.204      18.999      15.745    
  13.389      11.940      11.183      10.883      10.878      11.052      11.289      11.479      11.551      11.479    
  11.289      11.052      10.878      10.883      11.183      11.940      13.389      15.745      18.999      23.204    
  31.497      45.662      62.848      77.106      36.206      34.363      29.825      24.819      21.058      18.256    
  15.745      13.809      12.574      11.992      11.940      12.294      12.931      13.710      14.456      14.993    
  15.189      14.993      14.456      13.710      12.931      12.294      11.940      11.992      12.574      13.809    
  15.745      18.256      21.058      24.819      29.825      34.363      20.753      20.362      19.348      17.917    
  16.264      14.672      13.389      12.574      12.296      12.574      13.389      14.672      16.264      17.917    
  19.348      20.362      20.753      20.362      19.348      17.917      16.264      14.672      13.389      12.574    
  12.296      12.574      13.389      14.672      16.264      17.917      19.348      20.362      15.189      14.993    
  14.456      13.710      12.931      12.294      11.940      11.992      12.574      13.809      15.745      18.256    
  21.058      24.819      29.825      34.363      36.206      34.363      29.825      24.819      21.058      18.256    
  15.745      13.809      12.574      11.992      11.940      12.294      12.931      13.710      14.456      14.993    
  11.551      11.479      11.289      11.052      10.878      10.883      11.183      11.940      13.389      15.745    
  18.999      23.204      31.497      45.662      62.848      77.106      82.652      77.106      62.848      45.662    
  31.497      23.204      18.999      15.745      13.389      11.940      11.183      10.883      10.878      11.052    
  11.289      11.479      9.2803      9.2997      9.3487      9.4384      9.6436      10.079      10.883      12.294    
  14.672      18.256      23.204      34.686      58.595      94.109      133.28      164.10      175.81      164.10    
  133.28      94.109      58.595      34.686      23.204      18.256      14.672      12.294      10.883      10.079    
  9.6436      9.4384      9.3487      9.2997      7.9562      8.0357      8.2280      8.4913      8.9092      9.6436    
  10.878      12.931      16.264      21.058      31.497      58.595      107.75      174.35      244.06      297.41    
  317.43      297.41      244.06      174.35      107.75      58.595      31.497      21.058      16.264      12.931    
  10.878      9.6436      8.9092      8.4913      8.2280      8.0357      7.2855      7.3999      7.6585      7.9791    
  8.4913      9.4384      11.052      13.710      17.917      24.819      45.662      94.109      174.35      277.57    
  382.71      462.10      491.75      462.10      382.71      277.57      174.35      94.109      45.662      24.819    
  17.917      13.710      11.052      9.4384      8.4913      7.9791      7.6585      7.3999      6.8678      7.0100    
  7.3132      7.6585      8.2280      9.3487      11.289      14.456      19.348      29.825      62.848      133.28    
  244.06      382.71      522.09      626.75      665.76      626.75      522.09      382.71      244.06      133.28    
  62.848      29.825      19.348      14.456      11.289      9.3487      8.2280      7.6585      7.3132      7.0100    
  6.4807      6.6519      7.0100      7.3999      8.0357      9.2997      11.479      14.993      20.362      34.363    
  77.106      164.10      297.41      462.10      626.75      750.16      796.16      750.16      626.75      462.10    
  297.41      164.10      77.106      34.363      20.362      14.993      11.479      9.2997      8.0357      7.3999    
  7.0100      6.6519      6.2953      6.4807      6.8678      7.2855      7.9562      9.2803      11.551      15.189    
  20.753      36.206      82.652      175.81      317.43      491.75      665.76      796.16      844.76      796.16    
  665.76      491.75      317.43      175.81      82.652      36.206      20.753      15.189      11.551      9.2803    
  7.9562      7.2855      6.8678      6.4807      6.4807      6.6519      7.0100      7.3999      8.0357      9.2997    
  11.479      14.993      20.362      34.363      77.106      164.10      297.41      462.10      626.75      750.16    
  796.16      750.16      626.75      462.10      297.41      164.10      77.106      34.363      20.362      14.993    
  11.479      9.2997      8.0357      7.3999      7.0100      6.6519      6.8678      7.0100      7.3132      7.6585    
  8.2280      9.3487      11.289      14.456      19.348      29.825      62.848      133.28      244.06      382.71    
  522.09      626.75      665.76      626.75      522.09      382.71      244.06      133.28      62.848      29.825    
  19.348      14.456      11.289      9.3487      8.2280      7.6585      7.3132      7.0100      7.2855      7.3999    
  7.6585      7.9791      8.4913      9.4384      11.052      13.710      17.917      24.819      45.662      94.109    
  174.35      277.57      382.71      462.10      491.75      462.10      382.71      277.57      174.35      94.109    
  45.662      24.819      17.917      13.710      11.052      9.4384      8.4913      7.9791      7.6585      7.3999    
  7.9562      8.0357      8.2280      8.4913      8.9092      9.6436      10.878      12.931      16.264      21.058    
  31.497      58.595      107.75      174.35      244.06      297.41      317.43      297.41      244.06      174.35    
  107.75      58.595      31.497      21.058      16.264      12.931      10.878      9.6436      8.9092      8.4913    
  8.2280      8.0357      9.2803      9.2997      9.3487      9.4384      9.6436      10.079      10.883      12.294    
  14.672      18.256      23.204      34.686      58.595      94.109      133.28      164.10      175.81      164.10    
  133.28      94.109      58.595      34.686      23.204      18.256      14.672      12.294      10.883      10.079    
  9.6436      9.4384      9.3487      9.2997      11.551      11.479      11.289      11.052      10.878      10.883    
  11.183      11.940      13.389      15.745      18.999      23.204      31.497      45.662      62.848      77.106    
  82.652      77.106      62.848      45.662      31.497      23.204      18.999      15.745      13.389      11.940    
  11.183      10.883      10.878      11.052      11.289      11.479      15.189      14.993      14.456      13.710    
  12.931      12.294      11.940      11.992      12.574      13.809      15.745      18.256      21.058      24.819    
  29.825      34.363      36.206      34.363      29.825      24.819      21.058      18.256      15.745      13.809    
  12.574      11.992      11.940      12.294      12.931      13.710      14.456      14.993      20.753      20.362    
  19.348      17.917      16.264      14.672      13.389      12.574      12.296      12.574      13.389      14.672    
  16.264      17.917      19.348      20.362      20.753      20.362      19.348      17.917      16.264      14.672    
  13.389      12.574      12.296      12.574      13.389      14.672      16.264      17.917      19.348      20.362    
  36.206      34.363      29.825      24.819      21.058      18.256      15.745      13.809      12.574      11.992    
  11.940      12.294      12.931      13.710      14.456      14.993      15.189      14.993      14.456      13.710    
  12.931      12.294      11.940      11.992      12.574      13.809      15.745      18.256      21.058      24.819    
  29.825      34.363      82.652      77.106      62.848      45.662      31.497      23.204      18.999      15.745    
  13.389      11.940      11.183      10.883      10.878      11.052      11.289      11.479      11.551      11.479    
  11.289      11.052      10.878      10.883      11.183      11.940      13.389      15.745      18.999      23.204    
  31.497      45.662      62.848      77.106      175.81      164.10      133.28      94.109      58.595      34.686    
  23.204      18.256      14.672      12.294      10.883      10.079      9.6436      9.4384      9.3487      9.2997    
  9.2803      9.2997      9.3487      9.4384      9.6436      10.079      10.883      12.294      14.672      18.256    
  23.204      34.686      58.595      94.109      133.28      164.10      317.43      297.41      244.06      174.35    
  107.75      58.595      31.497      21.058      16.264      12.931      10.878      9.6436      8.9092      8.4913    
  8.2280      8.0357      7.9562      8.0357      8.2280      8.4913      8.9092      9.6436      10.878      12.931    
  16.264      21.058      31.497      58.595      107.75      174.35      244.06      297.41      491.75      462.10    
  382.71      277.57      174.35      94.109      45.662      24.819      17.917      13.710      11.052      9.4384    
  8.4913      7.9791      7.6585      7.3999      7.2855      7.3999      7.6585      7.9791      8.4913      9.4384    
  11.052      13.710      17.917      24.819      45.662      94.109      174.35      277.57      382.71      462.10    
  665.76      626.75      522.09      382.71      244.06      133.28      62.848      29.825      19.348      14.456    
  11.289      9.3487      8.2280      7.6585      7.3132      7.0100      6.8678      7.0100      7.3132      7.6585    
  8.2280      9.3487      11.289      14.456      19.348      29.825      62.848      133.28      244.06      382.71    
  522.09      626.75      796.16      750.16      626.75      462.10      297.41      164.10      77.106      34.363    
  20.362      14.993      11.479      9.2997      8.0357      7.3999      7.0100      6.6519      6.4807      6.6519    
  7.0100      7.3999      8.0357      9.2997      11.479      14.993      20.362      34.363      77.106      164.10    
  297.41      462.10      626.75      750.16      796.16      750.16      626.75      462.10      297.41      164.10    
  77.106      34.363      20.362      14.993      11.479      9.2997      8.0357      7.3999      7.0100      6.6519    
  6.4807      6.6519      7.0100      7.3999      8.0357      9.2997      11.479      14.993      20.362      34.363    
  77.106      164.10      297.41      462.10      626.75      750.16      750.16      706.63      589.83      434.08    
  278.52      153.13      71.970      32.691      19.998      14.802      11.409      9.3160      8.1089      7.5055    
  7.1411      6.8101      6.6519      6.8101      7.1411      7.5055      8.1089      9.3160      11.409      14.802    
  19.998      32.691      71.970      153.13      278.52      434.08      589.83      706.63      626.75      589.83    
  490.82      359.07      228.28      124.30      58.798      28.588      19.031      14.279      11.222      9.3584    
  8.2868      7.7452      7.4217      7.1411      7.0100      7.1411      7.4217      7.7452      8.2868      9.3584    
  11.222      14.279      19.031      28.588      58.798      124.30      228.28      359.07      490.82      589.83    
  462.10      434.08      359.07      259.87      162.78      87.782      43.012      24.081      17.631      13.554    
  10.991      9.4408      8.5345      8.0466      7.7452      7.5055      7.3999      7.5055      7.7452      8.0466    
  8.5345      9.4408      10.991      13.554      17.631      24.081      43.012      87.782      162.78      259.87    
  359.07      434.08      297.41      278.52      228.28      162.78      100.50      54.901      30.123      20.659    
  16.021      12.800      10.822      9.6362      8.9329      8.5345      8.2868      8.1089      8.0357      8.1089    
  8.2868      8.5345      8.9329      9.6362      10.822      12.800      16.021      20.659      30.123      54.901    
  100.50      162.78      228.28      278.52      164.10      153.13      124.30      87.782      54.901      33.018    
  22.641      17.949      14.478      12.185      10.827      10.054      9.6362      9.4408      9.3584      9.3160    
  9.2997      9.3160      9.3584      9.4408      9.6362      10.054      10.827      12.185      14.478      17.949    
  22.641      33.018      54.901      87.782      124.30      153.13      77.106      71.970      58.798      43.012    
  30.123      22.641      18.669      15.513      13.240      11.845      11.116      10.827      10.822      10.991    
  11.222      11.409      11.479      11.409      11.222      10.991      10.822      10.827      11.116      11.845    
  13.240      15.513      18.669      22.641      30.123      43.012      58.798      71.970      34.363      32.691    
  28.588      24.081      20.659      17.949      15.513      13.644      12.455      11.895      11.845      12.185    
  12.800      13.554      14.279      14.802      14.993      14.802      14.279      13.554      12.800      12.185    
  11.845      11.895      12.455      13.644      15.513      17.949      20.659      24.081      28.588      32.691    
  20.362      19.998      19.031      17.631      16.021      14.478      13.240      12.455      12.189      12.455    
  13.240      14.478      16.021      17.631      19.031      19.998      20.362      19.998      19.031      17.631    
  16.021      14.478      13.240      12.455      12.189      12.455      13.240      14.478      16.021      17.631    
  19.031      19.998      14.993      14.802      14.279      13.554      12.800      12.185      11.845      11.895    
  12.455      13.644      15.513      17.949      20.659      24.081      28.588      32.691      34.363      32.691    
  28.588      24.081      20.659      17.949      15.513      13.644      12.455      11.895      11.845      12.185    
  12.800      13.554      14.279      14.802      11.479      11.409      11.222      10.991      10.822      10.827    
  11.116      11.845      13.240      15.513      18.669      22.641      30.123      43.012      58.798      71.970    
  77.106      71.970      58.798      43.012      30.123      22.641      18.669      15.513      13.240      11.845    
  11.116      10.827      10.822      10.991      11.222      11.409      9.2997      9.3160      9.3584      9.4408    
  9.6362      10.054      10.827      12.185      14.478      17.949      22.641      33.018      54.901      87.782    
  124.30      153.13      164.10      153.13      124.30      87.782      54.901      33.018      22.641      17.949    
  14.478      12.185      10.827      10.054      9.6362      9.4408      9.3584      9.3160      8.0357      8.1089    
  8.2868      8.5345      8.9329      9.6362      10.822      12.800      16.021      20.659      30.123      54.901    
  100.50      162.78      228.28      278.52      297.41      278.52      228.28      162.78      100.50      54.901    
  30.123      20.659      16.021      12.800      10.822      9.6362      8.9329      8.5345      8.2868      8.1089    
  7.3999      7.5055      7.7452      8.0466      8.5345      9.4408      10.991      13.554      17.631      24.081    
  43.012      87.782      162.78      259.87      359.07      434.08      462.10      434.08      359.07      259.87    
  162.78      87.782      43.012      24.081      17.631      13.554      10.991      9.4408      8.5345      8.0466    
  7.7452      7.5055      7.0100      7.1411      7.4217      7.7452      8.2868      9.3584      11.222      14.279    
  19.031      28.588      58.798      124.30      228.28      359.07      490.82      589.83      626.75      589.83    
  490.82      359.07      228.28      124.30      58.798      28.588      19.031      14.279      11.222      9.3584    
  8.2868      7.7452      7.4217      7.1411      6.6519      6.8101      7.1411      7.5055      8.1089      9.3160    
  11.409      14.802      19.998      32.691      71.970      153.13      278.52      434.08      589.83      706.63    
  750.16      706.63      589.83      434.08      278.52      153.13      71.970      32.691      19.998      14.802    
  11.409      9.3160      8.1089      7.5055      7.1411      6.8101      6.4807      6.6519      7.0100      7.3999    
  8.0357      9.2997      11.479      14.993      20.362      34.363      77.106      164.10      297.41      462.10    
  626.75      750.16      796.16      750.16      626.75      462.10      297.41      164.10      77.106      34.363    
  20.362      14.993      11.479      9.2997      8.0357      7.3999      7.0100      6.6519      6.6519      6.8101    
  7.1411      7.5055      8.1089      9.3160      11.409      14.802      19.998      32.691      71.970      153.13    
  278.52      434.08      589.83      706.63      750.16      706.63      589.83      434.08      278.52      153.13    
  71.970      32.691      19.998      14.802      11.409      9.3160      8.1089      7.5055      7.1411      6.8101    
  7.0100      7.1411      7.4217      7.7452      8.2868      9.3584      11.222      14.279      19.031      28.588    
  58.798      124.30      228.28      359.07      490.82      589.83      626.75      589.83      490.82      359.07    
  228.28      124.30      58.798      28.588      19.031      14.279      11.222      9.3584      8.2868      7.7452    
  7.4217      7.1411      7.3999      7.5055      7.7452      8.0466      8.5345      9.4408      10.991      13.554    
  17.631      24.081      43.012      87.782      162.78      259.87      359.07      434.08      462.10      434.08    
  359.07      259.87      162.78      87.782      43.012      24.081      17.631      13.554      10.991      9.4408    
  8.5345      8.0466      7.7452      7.5055      8.0357      8.1089      8.2868      8.5345      8.9329      9.6362    
  10.822      12.800      16.021      20.659      30.123      54.901      100.50      162.78      228.28      278.52    
  297.41      278.52      228.28      162.78      100.50      54.901      30.123      20.659      16.021      12.800    
  10.822      9.6362      8.9329      8.5345      8.2868      8.1089      9.2997      9.3160      9.3584      9.4408    
  9.6362      10.054      10.827      12.185      14.478      17.949      22.641      33.018      54.901      87.782    
  124.30      153.13      164.10      153.13      124.30      87.782      54.901      33.018      22.641      17.949    
  14.478      12.185      10.827      10.054      9.6362      9.4408      9.3584      9.3160      11.479      11.409    
  11.222      10.991      10.822      10.827      11.116      11.845      13.240      15.513      18.669      22.641    
  30.123      43.012      58.798      71.970      77.106      71.970      58.798      43.012      30.123      22.641    
  18.669      15.513      13.240      11.845      11.116      10.827      10.822      10.991      11.222      11.409    
  14.993      14.802      14.279      13.554      12.800      12.185      11.845      11.895      12.455      13.644    
  15.513      17.949      20.659      24.081      28.588      32.691      34.363      32.691      28.588      24.081    
  20.659      17.949      15.513      13.644      12.455      11.895      11.845      12.185      12.800      13.554    
  14.279      14.802      20.362      19.998      19.031      17.631      16.021      14.478      13.240      12.455    
  12.189      12.455      13.240      14.478      16.021      17.631      19.031      19.998      20.362      19.998    
  19.031      17.631      16.021      14.478      13.240      12.455      12.189      12.455      13.240      14.478    
  16.021      17.631      19.031      19.998      34.363      32.691      28.588      24.081      20.659      17.949    
  15.513      13.644      12.455      11.895      11.845      12.185      12.800      13.554      14.279      14.802    
  14.993      14.802      14.279      13.554      12.800      12.185      11.845      11.895      12.455      13.644    
  15.513      17.949      20.659      24.081      28.588      32.691      77.106      71.970      58.798      43.012    
  30.123      22.641      18.669      15.513      13.240      11.845      11.116      10.827      10.822      10.991    
  11.222      11.409      11.479      11.409      11.222      10.991      10.822      10.827      11.116      11.845    
  13.240      15.513      18.669      22.641      30.123      43.012      58.798      71.970      164.10      153.13    
  124.30      87.782      54.901      33.018      22.641      17.949      14.478      12.185      10.827      10.054    
  9.6362      9.4408      9.3584      9.3160      9.2997      9.3160      9.3584      9.4408      9.6362      10.054    
  10.827      12.185      14.478      17.949      22.641      33.018      54.901      87.782      124.30      153.13    
  297.41      278.52      228.28      162.78      100.50      54.901      30.123      20.659      16.021      12.800    
  10.822      9.6362      8.9329      8.5345      8.2868      8.1089      8.0357      8.1089      8.2868      8.5345    
  8.9329      9.6362      10.822      12.800      16.021      20.659      30.123      54.901      100.50      162.78    
  228.28      278.52      462.10      434.08      359.07      259.87      162.78      87.782      43.012      24.081    
  17.631      13.554      10.991      9.4408      8.5345      8.0466      7.7452      7.5055      7.3999      7.5055    
  7.7452      8.0466      8.5345      9.4408      10.991      13.554      17.631      24.081      43.012      87.782    
  162.78      259.87      359.07      434.08      626.75      589.83      490.82      359.07      228.28      124.30    
  58.798      28.588      19.031      14.279      11.222      9.3584      8.2868      7.7452      7.4217      7.1411    
  7.0100      7.1411      7.4217      7.7452      8.2868      9.3584      11.222      14.279      19.031      28.588    
  58.798      124.30      228.28      359.07      490.82      589.83      750.16      706.63      589.83      434.08    
  278.52      153.13      71.970      32.691      19.998      14.802      11.409      9.3160      8.1089      7.5055    
  7.1411      6.8101      6.6519      6.8101      7.1411      7.5055      8.1089      9.3160      11.409      14.802    
  19.998      32.691      71.970      153.13      278.52      434.08      589.83      706.63      665.76      626.75    
  522.09      382.71      244.06      133.28      62.848      29.825      19.348      14.456      11.289      9.3487    
  8.2280      7.6585      7.3132      7.0100      6.8678      7.0100      7.3132      7.6585      8.2280      9.3487    
  11.289      14.456      19.348      29.825      62.848      133.28      244.06      382.71      522.09      626.75    
  626.75      589.83      490.82      359.07      228.28      124.30      58.798      28.588      19.031      14.279    
  11.222      9.3584      8.2868      7.7452      7.4217      7.1411      7.0100      7.1411      7.4217      7.7452    
  8.2868      9.3584      11.222      14.279      19.031      28.588      58.798      124.30      228.28      359.07    
  490.82      589.83      522.09      490.82      407.04      295.91      186.45      100.81      48.498      25.576    
  18.139      13.795      11.046      9.3865      8.4338      7.9467      7.6592      7.4217      7.3132      7.4217    
  7.6592      7.9467      8.4338      9.3865      11.046      13.795      18.139      25.576      48.498      100.81    
  186.45      295.91      407.04      490.82      382.71      359.07      295.91      212.80      132.32      71.414    
  36.372      22.279      16.831      13.130      10.832      9.4533      8.6483      8.2120      7.9467      7.7452    
  7.6585      7.7452      7.9467      8.2120      8.6483      9.4533      10.832      13.130      16.831      22.279    
  36.372      71.414      132.32      212.80      295.91      359.07      244.06      228.28      186.45      132.32    
  81.630      45.520      26.751      19.586      15.347      12.445      10.678      9.6244      9.0012      8.6483    
  8.4338      8.2868      8.2280      8.2868      8.4338      8.6483      9.0012      9.6244      10.678      12.445    
  15.347      19.586      26.751      45.520      81.630      132.32      186.45      228.28      133.28      124.30    
  100.81      71.414      45.520      28.900      21.222      17.086      13.942      11.890      10.680      9.9938    
  9.6244      9.4533      9.3865      9.3584      9.3487      9.3584      9.3865      9.4533      9.6244      9.9938    
  10.680      11.890      13.942      17.086      21.222      28.900      45.520      71.414      100.81      124.30    
  62.848      58.798      48.498      36.372      26.751      21.222      17.738      14.865      12.828      11.586    
  10.938      10.680      10.678      10.832      11.046      11.222      11.289      11.222      11.046      10.832    
  10.678      10.680      10.938      11.586      12.828      14.865      17.738      21.222      26.751      36.372    
  48.498      58.798      29.825      28.588      25.576      22.279      19.586      17.086      14.865      13.187    
  12.128      11.631      11.586      11.890      12.445      13.130      13.795      14.279      14.456      14.279    
  13.795      13.130      12.445      11.890      11.586      11.631      12.128      13.187      14.865      17.086    
  19.586      22.279      25.576      28.588      19.348      19.031      18.139      16.831      15.347      13.942    
  12.828      12.128      11.892      12.128      12.828      13.942      15.347      16.831      18.139      19.031    
  19.348      19.031      18.139      16.831      15.347      13.942      12.828      12.128      11.892      12.128    
  12.828      13.942      15.347      16.831      18.139      19.031      14.456      14.279      13.795      13.130    
  12.445      11.890      11.586      11.631      12.128      13.187      14.865      17.086      19.586      22.279    
  25.576      28.588      29.825      28.588      25.576      22.279      19.586      17.086      14.865      13.187    
  12.128      11.631      11.586      11.890      12.445      13.130      13.795      14.279      11.289      11.222    
  11.046      10.832      10.678      10.680      10.938      11.586      12.828      14.865      17.738      21.222    
  26.751      36.372      48.498      58.798      62.848      58.798      48.498      36.372      26.751      21.222    
  17.738      14.865      12.828      11.586      10.938      10.680      10.678      10.832      11.046      11.222    
  9.3487      9.3584      9.3865      9.4533      9.6244      9.9938      10.680      11.890      13.942      17.086    
  21.222      28.900      45.520      71.414      100.81      124.30      133.28      124.30      100.81      71.414    
  45.520      28.900      21.222      17.086      13.942      11.890      10.680      9.9938      9.6244      9.4533    
  9.3865      9.3584      8.2280      8.2868      8.4338      8.6483      9.0012      9.6244      10.678      12.445    
  15.347      19.586      26.751      45.520      81.630      132.32      186.45      228.28      244.06      228.28    