unknown system                          
   1.00000000000000     
     3.635000    0.000000    0.000000
     0.000000    3.635000    0.000000
     0.000000    0.000000    3.635000
   Cu
     4
Direct
  0.000000  0.000000  0.000000
  0.500000  0.500000  0.000000
  0.500000  0.000000  0.500000
  0.000000  0.500000  0.500000
 
   32   32   32
 0.84475692877E+03 0.79615932027E+03 0.66575895678E+03 0.49174948301E+03 0.31743475897E+03
 0.17581483325E+03 0.82651917609E+02 0.36205691670E+02 0.20752512813E+02 0.15188842334E+02
 0.11551015811E+02 0.92803093644E+01 0.79561517967E+01 0.72854574756E+01 0.68678008253E+01
 0.64806938865E+01 0.62952930905E+01 0.64806938865E+01 0.68678008254E+01 0.72854574756E+01
 0.79561517967E+01 0.92803093644E+01 0.11551015811E+02 0.15188842334E+02 0.20752512813E+02
 0.36205691670E+02 0.82651917609E+02 0.17581483325E+03 0.31743475897E+03 0.49174948301E+03
 0.66575895678E+03 0.79615932027E+03 0.79615932027E+03 0.75016478263E+03 0.62674520015E+03
 0.46210179410E+03 0.29740544086E+03 0.16410498549E+03 0.77105946305E+02 0.34362507845E+02
 0.20361566995E+02 0.14993241850E+02 0.11479333153E+02 0.92996631205E+01 0.80357344056E+01
 0.73999389356E+01 0.70099739609E+01 0.66519485890E+01 0.64806938865E+01 0.66519485890E+01
 0.70099739609E+01 0.73999389356E+01 0.80357344056E+01 0.92996631205E+01 0.11479333153E+02
 0.14993241850E+02 0.20361566995E+02 0.34362507845E+02 0.77105946305E+02 0.16410498549E+03
 0.29740544086E+03 0.46210179410E+03 0.62674520015E+03 0.75016478263E+03 0.66575895678E+03
 0.62674520015E+03 0.52208811437E+03 0.38271315323E+03 0.24405744937E+03 0.13328397140E+03
 0.62847906504E+02 0.29824972602E+02 0.19348056411E+02 0.14455826819E+02 0.11288666192E+02
 0.93486918178E+01 0.82280184737E+01 0.76584838066E+01 0.73132092431E+01 0.70099739609E+01
 0.68678008254E+01 0.70099739609E+01 0.73132092431E+01 0.76584838066E+01 0.82280184737E+01
 0.93486918178E+01 0.11288666192E+02 0.14455826819E+02 0.19348056411E+02 0.29824972602E+02
 0.62847906504E+02 0.13328397140E+03 0.24405744937E+03 0.38271315323E+03 0.52208811437E+03
 0.62674520015E+03 0.49174948301E+03 0.46210179410E+03 0.38271315323E+03 0.27757061050E+03
 0.17434503941E+03 0.94108570009E+02 0.45662346623E+02 0.24818870467E+02 0.17917239302E+02
 0.13709605640E+02 0.11052012353E+02 0.94384123132E+01 0.84913126825E+01 0.79791335077E+01
 0.76584838066E+01 0.73999389356E+01 0.72854574756E+01 0.73999389356E+01 0.76584838066E+01
 0.79791335077E+01 0.84913126825E+01 0.94384123132E+01 0.11052012353E+02 0.13709605640E+02
 0.17917239302E+02 0.24818870467E+02 0.45662346623E+02 0.94108570009E+02 0.17434503941E+03
 0.27757061050E+03 0.38271315323E+03 0.46210179410E+03 0.31743475897E+03 0.29740544086E+03
 0.24405744937E+03 0.17434503941E+03 0.10775460784E+03 0.58595334760E+02 0.31497252492E+02
 0.21057936241E+02 0.16264086866E+02 0.12931178760E+02 0.10878116103E+02 0.96436265868E+01
 0.89092251882E+01 0.84913126825E+01 0.82280184737E+01 0.80357344056E+01 0.79561517967E+01
 0.80357344056E+01 0.82280184737E+01 0.84913126825E+01 0.89092251882E+01 0.96436265868E+01
 0.10878116103E+02 0.12931178760E+02 0.16264086866E+02 0.21057936241E+02 0.31497252492E+02
 0.58595334760E+02 0.10775460784E+03 0.17434503941E+03 0.24405744937E+03 0.29740544086E+03
 0.17581483325E+03 0.16410498549E+03 0.13328397140E+03 0.94108570009E+02 0.58595334760E+02
 0.34685697915E+02 0.23203589522E+02 0.18255595692E+02 0.14671832909E+02 0.12293753388E+02
 0.10882762629E+02 0.10078723673E+02 0.96436265868E+01 0.94384123132E+01 0.93486918178E+01
 0.92996631205E+01 0.92803093644E+01 0.92996631205E+01 0.93486918178E+01 0.94384123132E+01
 0.96436265868E+01 0.10078723673E+02 0.10882762629E+02 0.12293753388E+02 0.14671832909E+02
 0.18255595692E+02 0.23203589522E+02 0.34685697915E+02 0.58595334760E+02 0.94108570009E+02
 0.13328397140E+03 0.16410498549E+03 0.82651917609E+02 0.77105946305E+02 0.62847906504E+02
 0.45662346623E+02 0.31497252492E+02 0.23203589522E+02 0.18998587734E+02 0.15745334103E+02
 0.13388666871E+02 0.11940100946E+02 0.11182996197E+02 0.10882762629E+02 0.10878116103E+02
 0.11052012353E+02 0.11288666192E+02 0.11479333153E+02 0.11551015811E+02 0.11479333153E+02
 0.11288666192E+02 0.11052012353E+02 0.10878116103E+02 0.10882762629E+02 0.11182996197E+02
 0.11940100946E+02 0.13388666871E+02 0.15745334103E+02 0.18998587734E+02 0.23203589522E+02
 0.31497252492E+02 0.45662346623E+02 0.62847906504E+02 0.77105946305E+02 0.36205691670E+02
 0.34362507845E+02 0.29824972602E+02 0.24818870467E+02 0.21057936241E+02 0.18255595692E+02
 0.15745334103E+02 0.13809046772E+02 0.12573614416E+02 0.11991519462E+02 0.11940100946E+02
 0.12293753388E+02 0.12931178760E+02 0.13709605640E+02 0.14455826819E+02 0.14993241850E+02
 0.15188842334E+02 0.14993241850E+02 0.14455826819E+02 0.13709605640E+02 0.12931178760E+02
 0.12293753388E+02 0.11940100946E+02 0.11991519462E+02 0.12573614416E+02 0.13809046772E+02
 0.15745334103E+02 0.18255595692E+02 0.21057936241E+02 0.24818870467E+02 0.29824972602E+02
 0.34362507845E+02 0.20752512813E+02 0.20361566995E+02 0.19348056411E+02 0.17917239302E+02
 0.16264086866E+02 0.14671832909E+02 0.13388666871E+02 0.12573614416E+02 0.12296496010E+02
 0.12573614416E+02 0.13388666871E+02 0.14671832909E+02 0.16264086866E+02 0.17917239302E+02
 0.19348056411E+02 0.20361566995E+02 0.20752512813E+02 0.20361566995E+02 0.19348056411E+02
 0.17917239302E+02 0.16264086866E+02 0.14671832909E+02 0.13388666871E+02 0.12573614416E+02
 0.12296496010E+02 0.12573614416E+02 0.13388666871E+02 0.14671832909E+02 0.16264086866E+02
 0.17917239302E+02 0.19348056411E+02 0.20361566995E+02 0.15188842334E+02 0.14993241850E+02
 0.14455826819E+02 0.13709605640E+02 0.12931178760E+02 0.12293753388E+02 0.11940100946E+02
 0.11991519462E+02 0.12573614416E+02 0.13809046772E+02 0.15745334103E+02 0.18255595692E+02
 0.21057936241E+02 0.24818870467E+02 0.29824972602E+02 0.34362507845E+02 0.36205691670E+02
 0.34362507845E+02 0.29824972602E+02 0.24818870467E+02 0.21057936241E+02 0.18255595692E+02
 0.15745334103E+02 0.13809046772E+02 0.12573614416E+02 0.11991519462E+02 0.11940100946E+02
 0.12293753388E+02 0.12931178760E+02 0.13709605640E+02 0.14455826819E+02 0.14993241850E+02
 0.11551015811E+02 0.11479333153E+02 0.11288666192E+02 0.11052012353E+02 0.10878116103E+02
 0.10882762629E+02 0.11182996197E+02 0.11940100946E+02 0.13388666871E+02 0.15745334103E+02
 0.18998587734E+02 0.23203589522E+02 0.31497252492E+02 0.45662346623E+02 0.62847906504E+02
 0.77105946305E+02 0.82651917609E+02 0.77105946305E+02 0.62847906504E+02 0.45662346623E+02
 0.31497252492E+02 0.23203589522E+02 0.18998587734E+02 0.15745334103E+02 0.13388666871E+02
 0.11940100946E+02 0.11182996197E+02 0.10882762629E+02 0.10878116103E+02 0.11052012353E+02
 0.11288666192E+02 0.11479333153E+02 0.92803093644E+01 0.92996631205E+01 0.93486918178E+01
 0.94384123132E+01 0.96436265868E+01 0.10078723673E+02 0.10882762629E+02 0.12293753388E+02
 0.14671832909E+02 0.18255595692E+02 0.23203589522E+02 0.34685697915E+02 0.58595334760E+02
 0.94108570009E+02 0.13328397140E+03 0.16410498549E+03 0.17581483325E+03 0.16410498549E+03
 0.13328397140E+03 0.94108570009E+02 0.58595334760E+02 0.34685697915E+02 0.23203589522E+02
 0.18255595692E+02 0.14671832909E+02 0.12293753388E+02 0.10882762629E+02 0.10078723673E+02
 0.96436265868E+01 0.94384123132E+01 0.93486918178E+01 0.92996631205E+01 0.79561517967E+01
 0.80357344056E+01 0.82280184737E+01 0.84913126825E+01 0.89092251882E+01 0.96436265868E+01
 0.10878116103E+02 0.12931178760E+02 0.16264086866E+02 0.21057936241E+02 0.31497252492E+02
 0.58595334760E+02 0.10775460784E+03 0.17434503941E+03 0.24405744937E+03 0.29740544086E+03
 0.31743475897E+03 0.29740544086E+03 0.24405744937E+03 0.17434503941E+03 0.10775460784E+03
 0.58595334760E+02 0.31497252492E+02 0.21057936241E+02 0.16264086866E+02 0.12931178760E+02
 0.10878116103E+02 0.96436265868E+01 0.89092251882E+01 0.84913126825E+01 0.82280184737E+01
 0.80357344056E+01 0.72854574756E+01 0.73999389356E+01 0.76584838066E+01 0.79791335077E+01
 0.84913126825E+01 0.94384123132E+01 0.11052012353E+02 0.13709605640E+02 0.17917239302E+02
 0.24818870467E+02 0.45662346623E+02 0.94108570009E+02 0.17434503941E+03 0.27757061050E+03
 0.38271315323E+03 0.46210179410E+03 0.49174948301E+03 0.46210179410E+03 0.38271315323E+03
 0.27757061050E+03 0.17434503941E+03 0.94108570009E+02 0.45662346623E+02 0.24818870467E+02
 0.17917239302E+02 0.13709605640E+02 0.11052012353E+02 0.94384123132E+01 0.84913126825E+01
 0.79791335077E+01 0.76584838066E+01 0.73999389356E+01 0.68678008254E+01 0.70099739609E+01
 0.73132092431E+01 0.76584838066E+01 0.82280184737E+01 0.93486918178E+01 0.11288666192E+02
 0.14455826819E+02 0.19348056411E+02 0.29824972602E+02 0.62847906504E+02 0.13328397140E+03
 0.24405744937E+03 0.38271315323E+03 0.52208811437E+03 0.62674520015E+03 0.66575895678E+03
 0.62674520015E+03 0.52208811437E+03 0.38271315323E+03 0.24405744937E+03 0.13328397140E+03
 0.62847906504E+02 0.29824972602E+02 0.19348056411E+02 0.14455826819E+02 0.11288666192E+02
 0.93486918178E+01 0.82280184737E+01 0.76584838066E+01 0.73132092431E+01 0.70099739609E+01
 0.64806938865E+01 0.66519485890E+01 0.70099739609E+01 0.73999389356E+01 0.80357344056E+01
 0.92996631205E+01 0.11479333153E+02 0.14993241850E+02 0.20361566995E+02 0.34362507845E+02
 0.77105946305E+02 0.16410498549E+03 0.29740544086E+03 0.46210179410E+03 0.62674520015E+03
 0.75016478263E+03 0.79615932027E+03 0.75016478263E+03 0.62674520015E+03 0.46210179410E+03
 0.29740544086E+03 0.16410498549E+03 0.77105946305E+02 0.34362507845E+02 0.20361566995E+02
 0.14993241850E+02 0.11479333153E+02 0.92996631205E+01 0.80357344056E+01 0.73999389356E+01
 0.70099739609E+01 0.66519485890E+01 0.62952930905E+01 0.64806938865E+01 0.68678008254E+01
 0.72854574756E+01 0.79561517967E+01 0.92803093644E+01 0.11551015811E+02 0.15188842334E+02
 0.20752512813E+02 0.36205691670E+02 0.82651917609E+02 0.17581483325E+03 0.31743475897E+03
 0.49174948301E+03 0.66575895678E+03 0.79615932027E+03 0.84475692877E+03 0.79615932027E+03
 0.66575895678E+03 0.49174948301E+03 0.31743475897E+03 0.17581483325E+03 0.82651917609E+02
 0.36205691670E+02 0.20752512813E+02 0.15188842334E+02 0.11551015811E+02 0.92803093644E+01
 0.79561517967E+01 0.72854574756E+01 0.68678008254E+01 0.64806938865E+01 0.64806938865E+01
 0.66519485890E+01 0.70099739609E+01 0.73999389356E+01 0.80357344056E+01 0.92996631205E+01
 0.11479333153E+02 0.14993241850E+02 0.20361566995E+02 0.34362507845E+02 0.77105946305E+02
 0.16410498549E+03 0.29740544086E+03 0.46210179410E+03 0.62674520015E+03 0.75016478263E+03
 0.79615932027E+03 0.75016478263E+03 0.62674520015E+03 0.46210179410E+03 0.29740544086E+03
 0.16410498549E+03 0.77105946305E+02 0.34362507845E+02 0.20361566995E+02 0.14993241850E+02
 0.11479333153E+02 0.92996631205E+01 0.80357344056E+01 0.73999389356E+01 0.70099739609E+01
 0.66519485890E+01 0.68678008254E+01 0.70099739609E+01 0.73132092431E+01 0.76584838066E+01
 0.82280184737E+01 0.93486918178E+01 0.11288666192E+02 0.14455826819E+02 0.19348056411E+02
 0.29824972602E+02 0.62847906504E+02 0.13328397140E+03 0.24405744937E+03 0.38271315323E+03
 0.52208811437E+03 0.62674520015E+03 0.66575895678E+03 0.62674520015E+03 0.52208811437E+03
 0.38271315323E+03 0.24405744937E+03 0.13328397140E+03 0.62847906504E+02 0.29824972602E+02
 0.19348056411E+02 0.14455826819E+02 0.11288666192E+02 0.93486918178E+01 0.82280184737E+01
 0.76584838066E+01 0.73132092431E+01 0.70099739609E+01 0.72854574756E+01 0.73999389356E+01
 0.76584838066E+01 0.79791335077E+01 0.84913126825E+01 0.94384123132E+01 0.11052012353E+02
 0.13709605640E+02 0.17917239302E+02 0.24818870467E+02 0.45662346623E+02 0.94108570009E+02
 0.17434503941E+03 0.27757061050E+03 0.38271315323E+03 0.46210179410E+03 0.49174948301E+03
 0.46210179410E+03 0.38271315323E+03 0.27757061050E+03 0.17434503941E+03 0.94108570009E+02
 0.45662346623E+02 0.24818870467E+02 0.17917239302E+02 0.13709605640E+02 0.11052012353E+02
 0.94384123132E+01 0.84913126825E+01 0.79791335077E+01 0.76584838066E+01 0.73999389356E+01
 0.79561517967E+01 0.80357344056E+01 0.82280184737E+01 0.84913126825E+01 0.89092251882E+01
 0.96436265868E+01 0.10878116103E+02 0.12931178760E+02 0.16264086866E+02 0.21057936241E+02
 0.31497252492E+02 0.58595334760E+02 0.10775460784E+03 0.17434503941E+03 0.24405744937E+03
 0.29740544086E+03 0.31743475897E+03 0.29740544086E+03 0.24405744937E+03 0.17434503941E+03
 0.10775460784E+03 0.58595334760E+02 0.31497252492E+02 0.21057936241E+02 0.16264086866E+02
 0.12931178760E+02 0.10878116103E+02 0.96436265868E+01 0.89092251882E+01 0.84913126825E+01
 0.82280184737E+01 0.80357344056E+01 0.92803093644E+01 0.92996631205E+01 0.93486918178E+01
 0.94384123132E+01 0.96436265868E+01 0.10078723673E+02 0.10882762629E+02 0.12293753388E+02
 0.14671832909E+02 0.18255595692E+02 0.23203589522E+02 0.34685697915E+02 0.58595334760E+02
 0.94108570009E+02 0.13328397140E+03 0.16410498549E+03 0.17581483325E+03 0.16410498549E+03
 0.13328397140E+03 0.94108570009E+02 0.58595334760E+02 0.34685697915E+02 0.23203589522E+02
 0.18255595692E+02 0.14671832909E+02 0.12293753388E+02 0.10882762629E+02 0.10078723673E+02
 0.96436265868E+01 0.94384123132E+01 0.93486918178E+01 0.92996631205E+01 0.11551015811E+02
 0.11479333153E+02 0.11288666192E+02 0.11052012353E+02 0.10878116103E+02 0.10882762629E+02
 0.11182996197E+02 0.11940100946E+02 0.13388666871E+02 0.15745334103E+02 0.18998587734E+02
 0.23203589522E+02 0.31497252492E+02 0.45662346623E+02 0.62847906504E+02 0.77105946305E+02
 0.82651917609E+02 0.77105946305E+02 0.62847906504E+02 0.45662346623E+02 0.31497252492E+02
 0.23203589522E+02 0.18998587734E+02 0.15745334103E+02 0.13388666871E+02 0.11940100946E+02
 0.11182996197E+02 0.10882762629E+02 0.10878116103E+02 0.11052012353E+02 0.11288666192E+02
 0.11479333153E+02 0.15188842334E+02 0.14993241850E+02 0.14455826819E+02 0.13709605640E+02
 0.12931178760E+02 0.12293753388E+02 0.11940100946E+02 0.11991519462E+02 0.12573614416E+02
 0.13809046772E+02 0.15745334103E+02 0.18255595692E+02 0.21057936241E+02 0.24818870467E+02
 0.29824972602E+02 0.34362507845E+02 0.36205691670E+02 0.34362507845E+02 0.29824972602E+02
 0.24818870467E+02 0.21057936241E+02 0.18255595692E+02 0.15745334103E+02 0.13809046772E+02
 0.12573614416E+02 0.11991519462E+02 0.11940100946E+02 0.12293753388E+02 0.12931178760E+02
 0.13709605640E+02 0.14455826819E+02 0.14993241850E+02 0.20752512813E+02 0.20361566995E+02
 0.19348056411E+02 0.17917239302E+02 0.16264086866E+02 0.14671832909E+02 0.13388666871E+02
 0.12573614416E+02 0.12296496010E+02 0.12573614416E+02 0.13388666871E+02 0.14671832909E+02
 0.16264086866E+02 0.17917239302E+02 0.19348056411E+02 0.20361566995E+02 0.20752512813E+02
 0.20361566995E+02 0.19348056411E+02 0.17917239302E+02 0.16264086866E+02 0.14671832909E+02
 0.13388666871E+02 0.12573614416E+02 0.12296496010E+02 0.12573614416E+02 0.13388666871E+02
 0.14671832909E+02 0.16264086866E+02 0.17917239302E+02 0.19348056411E+02 0.20361566995E+02
 0.36205691670E+02 0.34362507845E+02 0.29824972602E+02 0.24818870467E+02 0.21057936241E+02
 0.18255595692E+02 0.15745334103E+02 0.13809046772E+02 0.12573614416E+02 0.11991519462E+02
 0.11940100946E+02 0.12293753388E+02 0.12931178760E+02 0.13709605640E+02 0.14455826819E+02
 0.14993241850E+02 0.15188842334E+02 0.14993241850E+02 0.14455826819E+02 0.13709605640E+02
 0.12931178760E+02 0.12293753388E+02 0.11940100946E+02 0.11991519462E+02 0.12573614416E+02
 0.13809046772E+02 0.15745334103E+02 0.18255595692E+02 0.21057936241E+02 0.24818870467E+02
 0.29824972602E+02 0.34362507845E+02 0.82651917609E+02 0.77105946305E+02 0.62847906504E+02
 0.45662346623E+02 0.31497252492E+02 0.23203589522E+02 0.18998587734E+02 0.15745334103E+02
 0.13388666871E+02 0.11940100946E+02 0.11182996197E+02 0.10882762629E+02 0.10878116103E+02
 0.11052012353E+02 0.11288666192E+02 0.11479333153E+02 0.11551015811E+02 0.11479333153E+02
 0.11288666192E+02 0.11052012353E+02 0.10878116103E+02 0.10882762629E+02 0.11182996197E+02
 0.11940100946E+02 0.13388666871E+02 0.15745334103E+02 0.18998587734E+02 0.23203589522E+02
 0.31497252492E+02 0.45662346623E+02 0.62847906504E+02 0.77105946305E+02 0.17581483325E+03
 0.16410498549E+03 0.13328397140E+03 0.94108570009E+02 0.58595334760E+02 0.34685697915E+02
 0.23203589522E+02 0.18255595692E+02 0.14671832909E+02 0.12293753388E+02 0.10882762629E+02
 0.10078723673E+02 0.96436265868E+01 0.94384123132E+01 0.93486918178E+01 0.92996631205E+01
 0.92803093644E+01 0.92996631205E+01 0.93486918178E+01 0.94384123132E+01 0.96436265868E+01
 0.10078723673E+02 0.10882762629E+02 0.12293753388E+02 0.14671832909E+02 0.18255595692E+02
 0.23203589522E+02 0.34685697915E+02 0.58595334760E+02 0.94108570009E+02 0.13328397140E+03
 0.16410498549E+03 0.31743475897E+03 0.29740544086E+03 0.24405744937E+03 0.17434503941E+03
 0.10775460784E+03 0.58595334760E+02 0.31497252492E+02 0.21057936241E+02 0.16264086866E+02
 0.12931178760E+02 0.10878116103E+02 0.96436265868E+01 0.89092251882E+01 0.84913126825E+01
 0.82280184737E+01 0.80357344056E+01 0.79561517967E+01 0.80357344056E+01 0.82280184737E+01
 0.84913126825E+01 0.89092251882E+01 0.96436265868E+01 0.10878116103E+02 0.12931178760E+02
 0.16264086866E+02 0.21057936241E+02 0.31497252492E+02 0.58595334760E+02 0.10775460784E+03
 0.17434503941E+03 0.24405744937E+03 0.29740544086E+03 0.49174948301E+03 0.46210179410E+03
 0.38271315323E+03 0.27757061050E+03 0.17434503941E+03 0.94108570009E+02 0.45662346623E+02
 0.24818870467E+02 0.17917239302E+02 0.13709605640E+02 0.11052012353E+02 0.94384123132E+01
 0.84913126825E+01 0.79791335077E+01 0.76584838066E+01 0.73999389356E+01 0.72854574756E+01
 0.73999389356E+01 0.76584838066E+01 0.79791335077E+01 0.84913126825E+01 0.94384123132E+01
 0.11052012353E+02 0.13709605640E+02 0.17917239302E+02 0.24818870467E+02 0.45662346623E+02
 0.94108570009E+02 0.17434503941E+03 0.27757061050E+03 0.38271315323E+03 0.46210179410E+03
 0.66575895678E+03 0.62674520015E+03 0.52208811437E+03 0.38271315323E+03 0.24405744937E+03
 0.13328397140E+03 0.62847906504E+02 0.29824972602E+02 0.19348056411E+02 0.14455826819E+02
 0.11288666192E+02 0.93486918178E+01 0.82280184737E+01 0.76584838066E+01 0.73132092431E+01
 0.70099739609E+01 0.68678008254E+01 0.70099739609E+01 0.73132092431E+01 0.76584838066E+01
 0.82280184737E+01 0.93486918178E+01 0.11288666192E+02 0.14455826819E+02 0.19348056411E+02
 0.29824972602E+02 0.62847906504E+02 0.13328397140E+03 0.24405744937E+03 0.38271315323E+03
 0.52208811437E+03 0.62674520015E+03 0.79615932027E+03 0.75016478263E+03 0.62674520015E+03
 0.46210179410E+03 0.29740544086E+03 0.16410498549E+03 0.77105946305E+02 0.34362507845E+02
 0.20361566995E+02 0.14993241850E+02 0.11479333153E+02 0.92996631205E+01 0.80357344056E+01
 0.73999389356E+01 0.70099739609E+01 0.66519485890E+01 0.64806938865E+01 0.66519485890E+01
 0.70099739609E+01 0.73999389356E+01 0.80357344056E+01 0.92996631205E+01 0.11479333153E+02
 0.14993241850E+02 0.20361566995E+02 0.34362507845E+02 0.77105946305E+02 0.16410498549E+03
 0.29740544086E+03 0.46210179410E+03 0.62674520015E+03 0.75016478263E+03 0.79615932027E+03
 0.75016478263E+03 0.62674520015E+03 0.46210179410E+03 0.29740544086E+03 0.16410498549E+03
 0.77105946305E+02 0.34362507845E+02 0.20361566995E+02 0.14993241850E+02 0.11479333153E+02
 0.92996631205E+01 0.80357344056E+01 0.73999389356E+01 0.70099739609E+01 0.66519485890E+01
 0.64806938865E+01 0.66519485890E+01 0.70099739609E+01 0.73999389356E+01 0.80357344056E+01
 0.92996631205E+01 0.11479333153E+02 0.14993241850E+02 0.20361566995E+02 0.34362507845E+02
 0.77105946305E+02 0.16410498549E+03 0.29740544086E+03 0.46210179410E+03 0.62674520015E+03
 0.75016478263E+03 0.75016478263E+03 0.70663407280E+03 0.58982901352E+03 0.43407627721E+03
 0.27852483475E+03 0.15313308143E+03 0.71969695647E+02 0.32690746711E+02 0.19997651354E+02
 0.14802350218E+02 0.11408691318E+02 0.93159777171E+01 0.81088675527E+01 0.75055416192E+01
 0.71411262959E+01 0.68100523821E+01 0.66519485890E+01 0.68100523821E+01 0.71411262959E+01
 0.75055416192E+01 0.81088675527E+01 0.93159777171E+01 0.11408691318E+02 0.14802350218E+02
 0.19997651354E+02 0.32690746711E+02 0.71969695647E+02 0.15313308143E+03 0.27852483475E+03
 0.43407627721E+03 0.58982901352E+03 0.70663407280E+03 0.62674520015E+03 0.58982901352E+03
 0.49081932412E+03 0.35906964688E+03 0.22828386479E+03 0.12429944480E+03 0.58798309134E+02
 0.28588173650E+02 0.19031165174E+02 0.14278747209E+02 0.11221613086E+02 0.93583578272E+01
 0.82868299385E+01 0.77451840319E+01 0.74216675545E+01 0.71411262959E+01 0.70099739609E+01
 0.71411262959E+01 0.74216675545E+01 0.77451840319E+01 0.82868299385E+01 0.93583578272E+01
 0.11221613086E+02 0.14278747209E+02 0.19031165174E+02 0.28588173650E+02 0.58798309134E+02
 0.12429944480E+03 0.22828386479E+03 0.35906964688E+03 0.49081932412E+03 0.58982901352E+03
 0.46210179410E+03 0.43407627721E+03 0.35906964688E+03 0.25987012321E+03 0.16278218134E+03
 0.87782221696E+02 0.43011756950E+02 0.24081243588E+02 0.17631499400E+02 0.13553783750E+02
 0.10990856341E+02 0.94408473553E+01 0.85344873776E+01 0.80465961689E+01 0.77451840319E+01
 0.75055416192E+01 0.73999389356E+01 0.75055416192E+01 0.77451840319E+01 0.80465961689E+01
 0.85344873776E+01 0.94408473553E+01 0.10990856341E+02 0.13553783750E+02 0.17631499400E+02
 0.24081243588E+02 0.43011756950E+02 0.87782221696E+02 0.16278218134E+03 0.25987012321E+03
 0.35906964688E+03 0.43407627721E+03 0.29740544086E+03 0.27852483475E+03 0.22828386479E+03
 0.16278218134E+03 0.10049792594E+03 0.54901490465E+02 0.30123171501E+02 0.20658570906E+02
 0.16021462067E+02 0.12800099317E+02 0.10822192421E+02 0.96362125511E+01 0.89328685999E+01
 0.85344873776E+01 0.82868299385E+01 0.81088675527E+01 0.80357344056E+01 0.81088675527E+01
 0.82868299385E+01 0.85344873776E+01 0.89328685999E+01 0.96362125511E+01 0.10822192421E+02
 0.12800099317E+02 0.16021462067E+02 0.20658570906E+02 0.30123171501E+02 0.54901490465E+02
 0.10049792594E+03 0.16278218134E+03 0.22828386479E+03 0.27852483475E+03 0.16410498549E+03
 0.15313308143E+03 0.12429944480E+03 0.87782221696E+02 0.54901490465E+02 0.33018016481E+02
 0.22640625964E+02 0.17948913141E+02 0.14478168304E+02 0.12185080111E+02 0.10826634379E+02
 0.10053555822E+02 0.96362125511E+01 0.94408473553E+01 0.93583578272E+01 0.93159777171E+01
 0.92996631205E+01 0.93159777171E+01 0.93583578272E+01 0.94408473553E+01 0.96362125511E+01
 0.10053555822E+02 0.10826634379E+02 0.12185080111E+02 0.14478168304E+02 0.17948913141E+02
 0.22640625964E+02 0.33018016481E+02 0.54901490465E+02 0.87782221696E+02 0.12429944480E+03
 0.15313308143E+03 0.77105946305E+02 0.71969695647E+02 0.58798309134E+02 0.43011756950E+02
 0.30123171501E+02 0.22640625964E+02 0.18669145691E+02 0.15513213940E+02 0.13239635844E+02
 0.11845163986E+02 0.11116124614E+02 0.10826634379E+02 0.10822192421E+02 0.10990856341E+02
 0.11221613086E+02 0.11408691318E+02 0.11479333153E+02 0.11408691318E+02 0.11221613086E+02
 0.10990856341E+02 0.10822192421E+02 0.10826634379E+02 0.11116124614E+02 0.11845163986E+02
 0.13239635844E+02 0.15513213940E+02 0.18669145691E+02 0.22640625964E+02 0.30123171501E+02
 0.43011756950E+02 0.58798309134E+02 0.71969695647E+02 0.34362507845E+02 0.32690746711E+02
 0.28588173650E+02 0.24081243588E+02 0.20658570906E+02 0.17948913141E+02 0.15513213940E+02
 0.13644273850E+02 0.12455376772E+02 0.11895391398E+02 0.11845163986E+02 0.12185080111E+02
 0.12800099317E+02 0.13553783750E+02 0.14278747209E+02 0.14802350218E+02 0.14993241850E+02
 0.14802350218E+02 0.14278747209E+02 0.13553783750E+02 0.12800099317E+02 0.12185080111E+02
 0.11845163986E+02 0.11895391398E+02 0.12455376772E+02 0.13644273850E+02 0.15513213940E+02
 0.17948913141E+02 0.20658570906E+02 0.24081243588E+02 0.28588173650E+02 0.32690746711E+02
 0.20361566995E+02 0.19997651354E+02 0.19031165174E+02 0.17631499400E+02 0.16021462067E+02
 0.14478168304E+02 0.13239635844E+02 0.12455376772E+02 0.12189176066E+02 0.12455376772E+02
 0.13239635844E+02 0.14478168304E+02 0.16021462067E+02 0.17631499400E+02 0.19031165174E+02
 0.19997651354E+02 0.20361566995E+02 0.19997651354E+02 0.19031165174E+02 0.17631499400E+02
 0.16021462067E+02 0.14478168304E+02 0.13239635844E+02 0.12455376772E+02 0.12189176066E+02
 0.12455376772E+02 0.13239635844E+02 0.14478168304E+02 0.16021462067E+02 0.17631499400E+02
 0.19031165174E+02 0.19997651354E+02 0.14993241850E+02 0.14802350218E+02 0.14278747209E+02
 0.13553783750E+02 0.12800099317E+02 0.12185080111E+02 0.11845163986E+02 0.11895391398E+02
 0.12455376772E+02 0.13644273850E+02 0.15513213940E+02 0.17948913141E+02 0.20658570906E+02
 0.24081243588E+02 0.28588173650E+02 0.32690746711E+02 0.34362507845E+02 0.32690746711E+02
 0.28588173650E+02 0.24081243588E+02 0.20658570906E+02 0.17948913141E+02 0.15513213940E+02
 0.13644273850E+02 0.12455376772E+02 0.11895391398E+02 0.11845163986E+02 0.12185080111E+02
 0.12800099317E+02 0.13553783750E+02 0.14278747209E+02 0.14802350218E+02 0.11479333153E+02
 0.11408691318E+02 0.11221613086E+02 0.10990856341E+02 0.10822192421E+02 0.10826634379E+02
 0.11116124614E+02 0.11845163986E+02 0.13239635844E+02 0.15513213940E+02 0.18669145691E+02
 0.22640625964E+02 0.30123171501E+02 0.43011756950E+02 0.58798309134E+02 0.71969695647E+02
 0.77105946305E+02 0.71969695647E+02 0.58798309134E+02 0.43011756950E+02 0.30123171501E+02
 0.22640625964E+02 0.18669145691E+02 0.15513213940E+02 0.13239635844E+02 0.11845163986E+02
 0.11116124614E+02 0.10826634379E+02 0.10822192421E+02 0.10990856341E+02 0.11221613086E+02
 0.11408691318E+02 0.92996631205E+01 0.93159777171E+01 0.93583578272E+01 0.94408473553E+01
 0.96362125511E+01 0.10053555822E+02 0.10826634379E+02 0.12185080111E+02 0.14478168304E+02
 0.17948913141E+02 0.22640625964E+02 0.33018016481E+02 0.54901490465E+02 0.87782221696E+02
 0.12429944480E+03 0.15313308143E+03 0.16410498549E+03 0.15313308143E+03 0.12429944480E+03
 0.87782221696E+02 0.54901490465E+02 0.33018016481E+02 0.22640625964E+02 0.17948913141E+02
 0.14478168304E+02 0.12185080111E+02 0.10826634379E+02 0.10053555822E+02 0.96362125511E+01
 0.94408473553E+01 0.93583578272E+01 0.93159777171E+01 0.80357344056E+01 0.81088675527E+01
 0.82868299385E+01 0.85344873776E+01 0.89328685999E+01 0.96362125511E+01 0.10822192421E+02
 0.12800099317E+02 0.16021462067E+02 0.20658570906E+02 0.30123171501E+02 0.54901490465E+02
 0.10049792594E+03 0.16278218134E+03 0.22828386479E+03 0.27852483475E+03 0.29740544086E+03
 0.27852483475E+03 0.22828386479E+03 0.16278218134E+03 0.10049792594E+03 0.54901490465E+02
 0.30123171501E+02 0.20658570906E+02 0.16021462067E+02 0.12800099317E+02 0.10822192421E+02
 0.96362125511E+01 0.89328685999E+01 0.85344873776E+01 0.82868299385E+01 0.81088675527E+01
 0.73999389356E+01 0.75055416192E+01 0.77451840319E+01 0.80465961689E+01 0.85344873776E+01
 0.94408473553E+01 0.10990856341E+02 0.13553783750E+02 0.17631499400E+02 0.24081243588E+02
 0.43011756950E+02 0.87782221696E+02 0.16278218134E+03 0.25987012321E+03 0.35906964688E+03
 0.43407627721E+03 0.46210179410E+03 0.43407627721E+03 0.35906964688E+03 0.25987012321E+03
 0.16278218134E+03 0.87782221696E+02 0.43011756950E+02 0.24081243588E+02 0.17631499400E+02
 0.13553783750E+02 0.10990856341E+02 0.94408473553E+01 0.85344873776E+01 0.80465961689E+01
 0.77451840319E+01 0.75055416192E+01 0.70099739609E+01 0.71411262959E+01 0.74216675545E+01
 0.77451840319E+01 0.82868299385E+01 0.93583578272E+01 0.11221613086E+02 0.14278747209E+02
 0.19031165174E+02 0.28588173650E+02 0.58798309134E+02 0.12429944480E+03 0.22828386479E+03
 0.35906964688E+03 0.49081932412E+03 0.58982901352E+03 0.62674520015E+03 0.58982901352E+03
 0.49081932412E+03 0.35906964688E+03 0.22828386479E+03 0.12429944480E+03 0.58798309134E+02
 0.28588173650E+02 0.19031165174E+02 0.14278747209E+02 0.11221613086E+02 0.93583578272E+01
 0.82868299385E+01 0.77451840319E+01 0.74216675545E+01 0.71411262959E+01 0.66519485890E+01
 0.68100523821E+01 0.71411262959E+01 0.75055416192E+01 0.81088675527E+01 0.93159777171E+01
 0.11408691318E+02 0.14802350218E+02 0.19997651354E+02 0.32690746711E+02 0.71969695647E+02
 0.15313308143E+03 0.27852483475E+03 0.43407627721E+03 0.58982901352E+03 0.70663407280E+03
 0.75016478263E+03 0.70663407280E+03 0.58982901352E+03 0.43407627721E+03 0.27852483475E+03
 0.15313308143E+03 0.71969695647E+02 0.32690746711E+02 0.19997651354E+02 0.14802350218E+02
 0.11408691318E+02 0.93159777171E+01 0.81088675527E+01 0.75055416192E+01 0.71411262959E+01
 0.68100523821E+01 0.64806938865E+01 0.66519485890E+01 0.70099739609E+01 0.73999389356E+01
 0.80357344056E+01 0.92996631205E+01 0.11479333153E+02 0.14993241850E+02 0.20361566995E+02
 0.34362507845E+02 0.77105946305E+02 0.16410498549E+03 0.29740544086E+03 0.46210179410E+03
 0.62674520015E+03 0.75016478263E+03 0.79615932027E+03 0.75016478263E+03 0.62674520015E+03
 0.46210179410E+03 0.29740544086E+03 0.16410498549E+03 0.77105946305E+02 0.34362507845E+02
 0.20361566995E+02 0.14993241850E+02 0.11479333153E+02 0.92996631205E+01 0.80357344056E+01
 0.73999389356E+01 0.70099739609E+01 0.66519485890E+01 0.66519485890E+01 0.68100523821E+01
 0.71411262959E+01 0.75055416192E+01 0.81088675527E+01 0.93159777171E+01 0.11408691318E+02
 0.14802350218E+02 0.19997651354E+02 0.32690746711E+02 0.71969695647E+02 0.15313308143E+03
 0.27852483475E+03 0.43407627721E+03 0.58982901352E+03 0.70663407280E+03 0.75016478263E+03
 0.70663407280E+03 0.58982901352E+03 0.43407627721E+03 0.27852483475E+03 0.15313308143E+03
 0.71969695647E+02 0.32690746711E+02 0.19997651354E+02 0.14802350218E+02 0.11408691318E+02
 0.93159777171E+01 0.81088675527E+01 0.75055416192E+01 0.71411262959E+01 0.68100523821E+01
 0.70099739609E+01 0.71411262959E+01 0.74216675545E+01 0.77451840319E+01 0.82868299385E+01
 0.93583578272E+01 0.11221613086E+02 0.14278747209E+02 0.19031165174E+02 0.28588173650E+02
 0.58798309134E+02 0.12429944480E+03 0.22828386479E+03 0.35906964688E+03 0.49081932412E+03
 0.58982901352E+03 0.62674520015E+03 0.58982901352E+03 0.49081932412E+03 0.35906964688E+03
 0.22828386479E+03 0.12429944480E+03 0.58798309134E+02 0.28588173650E+02 0.19031165174E+02