   4   4   0   0
  0.1200752E+02  0.3635000E-09  0.3635000E-09  0.3635000E-09  0.5000000E-15
  1.000000000000000E-004
  CAR 
 unknown system                          
     24.97480662     -3.84331857  301      7.40473199      1.00000000
     -3.843  0.0000E+00  0.0000E+00
     -3.747  0.0000E+00  0.0000E+00
     -3.651  0.0000E+00  0.0000E+00
     -3.555  0.0000E+00  0.0000E+00
     -3.459 -0.7940E-28 -0.7627E-29
     -3.363 -0.1390E-24 -0.1336E-25
     -3.267 -0.1529E-21 -0.1470E-22
     -3.171 -0.1055E-18 -0.1015E-19
     -3.075 -0.4563E-16 -0.4394E-17
     -2.979 -0.1198E-13 -0.1155E-14
     -2.883 -0.2018E-11 -0.1950E-12
     -2.787 -0.2117E-09 -0.2053E-10
     -2.691 -0.1378E-07 -0.1345E-08
     -2.595 -0.5540E-06 -0.5456E-07
     -2.498 -0.1362E-04 -0.1363E-05
     -2.402 -0.2016E-03 -0.2073E-04
     -2.306 -0.1743E-02 -0.1882E-03
     -2.210 -0.8164E-02 -0.9724E-03
     -2.114 -0.1555E-01 -0.2466E-02
     -2.018  0.2052E-01 -0.4950E-03
     -1.922  0.1544E+00  0.1434E-01
     -1.826  0.2924E+00  0.4243E-01
     -1.730  0.2558E+00  0.6700E-01
     -1.634  0.9628E-01  0.7625E-01
     -1.538 -0.2249E-02  0.7603E-01
     -1.442 -0.1436E-01  0.7465E-01
     -1.346 -0.5074E-02  0.7416E-01
     -1.250 -0.8745E-03  0.7408E-01
     -1.154 -0.4226E-03  0.7404E-01
     -1.058 -0.3874E-02  0.7367E-01
     -0.962 -0.2489E-01  0.7128E-01
     -0.865 -0.7939E-01  0.6365E-01
     -0.769 -0.4490E-01  0.5934E-01
     -0.673  0.4613E+00  0.1037E+00
     -0.577  0.1423E+01  0.2403E+00
     -0.481  0.1799E+01  0.4131E+00
     -0.385  0.1063E+01  0.5152E+00
     -0.289  0.1958E+00  0.5340E+00
     -0.193 -0.8913E-01  0.5254E+00
     -0.097 -0.5699E-01  0.5200E+00
     -0.001 -0.1365E-01  0.5187E+00
      0.095 -0.5468E-02  0.5181E+00
      0.191 -0.2960E-01  0.5153E+00
      0.287 -0.1208E+00  0.5037E+00
      0.383 -0.1717E+00  0.4872E+00
      0.479  0.4589E+00  0.5313E+00
      0.575  0.2238E+01  0.7462E+00
      0.672  0.3621E+01  0.1094E+01
      0.768  0.2746E+01  0.1358E+01
      0.864  0.8321E+00  0.1438E+01
      0.960 -0.1134E+00  0.1427E+01
      1.056 -0.1747E+00  0.1410E+01
      1.152 -0.1319E+00  0.1397E+01
      1.248 -0.1139E+00  0.1386E+01
      1.344  0.3657E+00  0.1422E+01
      1.440  0.1585E+01  0.1574E+01
      1.536  0.2426E+01  0.1807E+01
      1.632  0.1743E+01  0.1974E+01
      1.728  0.4735E+00  0.2020E+01
      1.824 -0.1338E+00  0.2007E+01
      1.920 -0.1900E+00  0.1989E+01
      2.016  0.6771E-01  0.1995E+01
      2.112  0.8606E+00  0.2078E+01
      2.208  0.1711E+01  0.2242E+01
      2.305  0.1522E+01  0.2388E+01
      2.401  0.5283E+00  0.2439E+01
      2.497 -0.7340E-01  0.2432E+01
      2.593  0.1737E+00  0.2449E+01
      2.689  0.2045E+01  0.2645E+01
      2.785  0.6761E+01  0.3295E+01
      2.881  0.1199E+02  0.4447E+01
      2.977  0.1295E+02  0.5690E+01
      3.073  0.9419E+01  0.6595E+01
      3.169  0.5062E+01  0.7081E+01
      3.265  0.3125E+01  0.7382E+01
      3.361  0.5459E+01  0.7906E+01
      3.457  0.9751E+01  0.8843E+01
      3.553  0.1232E+02  0.1003E+02
      3.649  0.1196E+02  0.1117E+02
      3.745  0.7716E+01  0.1192E+02
      3.842  0.3107E+01  0.1221E+02
      3.938  0.5343E+01  0.1273E+02
      4.034  0.1321E+02  0.1400E+02
      4.130  0.1696E+02  0.1563E+02
      4.226  0.1311E+02  0.1688E+02
      4.322  0.9298E+01  0.1778E+02
      4.418  0.1264E+02  0.1899E+02
      4.514  0.1965E+02  0.2088E+02
      4.610  0.2215E+02  0.2301E+02
      4.706  0.1957E+02  0.2489E+02
      4.802  0.1553E+02  0.2638E+02
      4.898  0.1122E+02  0.2746E+02
      4.994  0.7031E+01  0.2813E+02
      5.090  0.4919E+01  0.2860E+02
      5.186  0.7602E+01  0.2933E+02
      5.282  0.1427E+02  0.3071E+02
      5.378  0.2094E+02  0.3272E+02
      5.475  0.2377E+02  0.3500E+02
      5.571  0.2097E+02  0.3701E+02
      5.667  0.1603E+02  0.3855E+02
      5.763  0.1385E+02  0.3988E+02
      5.859  0.1307E+02  0.4114E+02
      5.955  0.9645E+01  0.4207E+02
      6.051  0.4241E+01  0.4247E+02
      6.147  0.5093E+00  0.4252E+02
      6.243 -0.4734E+00  0.4248E+02
      6.339 -0.2725E+00  0.4245E+02
      6.435 -0.6684E-01  0.4245E+02
      6.531 -0.9058E-02  0.4244E+02
      6.627 -0.9006E-03  0.4244E+02
      6.723 -0.2969E-02  0.4244E+02
      6.819 -0.2837E-01  0.4244E+02
      6.915 -0.1519E+00  0.4243E+02
      7.012 -0.3674E+00  0.4239E+02
      7.108  0.1466E+00  0.4241E+02
      7.204  0.2904E+01  0.4268E+02
      7.300  0.6587E+01  0.4332E+02
      7.396  0.6654E+01  0.4396E+02
      7.492  0.2871E+01  0.4423E+02
      7.588 -0.1602E+00  0.4422E+02
      7.684  0.1669E+00  0.4423E+02
      7.780  0.3637E+01  0.4458E+02
      7.876  0.7023E+01  0.4526E+02
      7.972  0.6064E+01  0.4584E+02
      8.068  0.2229E+01  0.4605E+02
      8.164 -0.7785E-01  0.4605E+02
      8.260 -0.3405E+00  0.4601E+02
      8.356 -0.1188E+00  0.4600E+02
      8.452 -0.2754E-01  0.4600E+02
      8.548 -0.3332E-01  0.4600E+02
      8.645 -0.4146E-01  0.4599E+02
      8.741  0.1282E+00  0.4600E+02
      8.837  0.5805E+00  0.4606E+02
      8.933  0.9083E+00  0.4615E+02
      9.029  0.6669E+00  0.4621E+02
      9.125  0.1916E+00  0.4623E+02
      9.221 -0.3102E-01  0.4623E+02
      9.317 -0.3690E-01  0.4622E+02
      9.413 -0.1067E-01  0.4622E+02
      9.509 -0.1564E-02  0.4622E+02
      9.605 -0.1310E-03  0.4622E+02
      9.701 -0.6568E-05  0.4622E+02
      9.797 -0.1643E-05  0.4622E+02
      9.893 -0.4392E-04  0.4622E+02
      9.989 -0.8105E-03  0.4622E+02
     10.085 -0.8875E-02  0.4622E+02
     10.182 -0.5489E-01  0.4622E+02
     10.278 -0.1656E+00  0.4620E+02
     10.374 -0.6213E-01  0.4619E+02
     10.470  0.1032E+01  0.4629E+02
     10.566  0.2956E+01  0.4658E+02
     10.662  0.3561E+01  0.4692E+02
     10.758  0.1995E+01  0.4711E+02
     10.854  0.3137E+00  0.4714E+02
     10.950 -0.2215E+00  0.4712E+02
     11.046 -0.2453E+00  0.4710E+02
     11.142 -0.1675E+00  0.4708E+02
     11.238  0.6573E+00  0.4714E+02
     11.334  0.2532E+01  0.4739E+02
     11.430  0.3643E+01  0.4774E+02
     11.526  0.2463E+01  0.4797E+02
     11.622  0.6089E+00  0.4803E+02
     11.718 -0.1534E+00  0.4802E+02
     11.815 -0.1506E+00  0.4800E+02
     11.911 -0.1375E+00  0.4799E+02
     12.007 -0.3256E+00  0.4796E+02
     12.103 -0.1684E+00  0.4794E+02
     12.199  0.1893E+01  0.4812E+02
     12.295  0.5741E+01  0.4867E+02
     12.391  0.7181E+01  0.4936E+02
     12.487  0.4193E+01  0.4977E+02
     12.583  0.7500E+00  0.4984E+02
     12.679 -0.3610E+00  0.4980E+02
     12.775 -0.2407E+00  0.4978E+02
     12.871 -0.1353E+00  0.4977E+02
     12.967 -0.1929E+00  0.4975E+02
     13.063  0.1263E+00  0.4976E+02
     13.159  0.1588E+01  0.4991E+02
     13.255  0.3379E+01  0.5024E+02
     13.351  0.3262E+01  0.5055E+02
     13.448  0.1402E+01  0.5069E+02
     13.544  0.5465E-01  0.5069E+02
     13.640 -0.1822E+00  0.5068E+02
     13.736 -0.7338E-01  0.5067E+02
     13.832 -0.1414E-01  0.5067E+02
     13.928 -0.7089E-02  0.5067E+02
     14.024 -0.2598E-01  0.5066E+02
     14.120 -0.4619E-01  0.5066E+02
     14.216  0.7386E-01  0.5067E+02
     14.312  0.4872E+00  0.5071E+02
     14.408  0.8813E+00  0.5080E+02
     14.504  0.7111E+00  0.5087E+02
     14.600  0.1303E+00  0.5088E+02
     14.696 -0.1605E+00  0.5086E+02
     14.792  0.5947E+00  0.5092E+02
     14.888  0.2487E+01  0.5116E+02
     14.985  0.3641E+01  0.5151E+02
     15.081  0.2494E+01  0.5175E+02
     15.177  0.6304E+00  0.5181E+02
     15.273 -0.1638E+00  0.5179E+02
     15.369 -0.2208E+00  0.5177E+02
     15.465 -0.2574E+00  0.5175E+02
     15.561 -0.4979E-01  0.5174E+02
     15.657  0.1288E+01  0.5187E+02
     15.753  0.3739E+01  0.5223E+02
     15.849  0.5869E+01  0.5279E+02
     15.945  0.6552E+01  0.5342E+02
     16.041  0.5240E+01  0.5392E+02
     16.137  0.2473E+01  0.5416E+02
     16.233  0.3290E+00  0.5419E+02
     16.329 -0.2618E+00  0.5417E+02
     16.425 -0.1485E+00  0.5415E+02
     16.521 -0.3473E-01  0.5415E+02
     16.618 -0.4624E-02  0.5415E+02
     16.714 -0.3062E-02  0.5415E+02
     16.810 -0.2298E-01  0.5415E+02
     16.906 -0.1044E+00  0.5414E+02
     17.002 -0.1930E+00  0.5412E+02
     17.098  0.2341E+00  0.5414E+02
     17.194  0.1703E+01  0.5430E+02
     17.290  0.3215E+01  0.5461E+02
     17.386  0.4007E+01  0.5500E+02
     17.482  0.5698E+01  0.5554E+02
     17.578  0.7212E+01  0.5624E+02
     17.674  0.5180E+01  0.5673E+02
     17.770  0.1486E+01  0.5688E+02
     17.866 -0.2557E+00  0.5685E+02
     17.962 -0.3012E+00  0.5682E+02
     18.058 -0.1245E+00  0.5681E+02
     18.155 -0.1988E+00  0.5679E+02
     18.251 -0.3758E+00  0.5676E+02
     18.347  0.4107E+00  0.5680E+02
     18.443  0.3534E+01  0.5714E+02
     18.539  0.6944E+01  0.5780E+02
     18.635  0.6269E+01  0.5840E+02
     18.731  0.2466E+01  0.5864E+02
     18.827 -0.6051E-02  0.5864E+02
     18.923 -0.3519E+00  0.5861E+02
     19.019 -0.1294E+00  0.5859E+02
     19.115 -0.2244E-01  0.5859E+02
     19.211 -0.2178E-02  0.5859E+02
     19.307 -0.1250E-03  0.5859E+02
     19.403 -0.4345E-05  0.5859E+02
     19.499 -0.1597E-06  0.5859E+02
     19.595 -0.2539E-05  0.5859E+02
     19.691 -0.5865E-04  0.5859E+02
     19.788 -0.8142E-03  0.5859E+02
     19.884 -0.6560E-02  0.5859E+02
     19.980 -0.2818E-01  0.5859E+02
     20.076 -0.4481E-01  0.5858E+02
     20.172  0.9491E-01  0.5859E+02
     20.268  0.5262E+00  0.5864E+02
     20.364  0.8981E+00  0.5873E+02
     20.460  0.7158E+00  0.5880E+02
     20.556  0.2349E+00  0.5882E+02
     20.652 -0.2141E-01  0.5882E+02
     20.748 -0.3998E-01  0.5882E+02
     20.844 -0.1264E-01  0.5882E+02
     20.940 -0.1978E-02  0.5881E+02
     21.036 -0.1754E-03  0.5881E+02
     21.132 -0.9250E-05  0.5881E+02
     21.228 -0.2962E-06  0.5881E+02
     21.325 -0.5833E-08  0.5881E+02
     21.421 -0.7110E-10  0.5881E+02
     21.517 -0.5388E-12  0.5881E+02
     21.613 -0.2569E-14  0.5881E+02
     21.709 -0.8690E-16  0.5881E+02
     21.805 -0.2717E-13  0.5881E+02
     21.901 -0.5397E-11  0.5881E+02
     21.997 -0.6715E-09  0.5881E+02
     22.093 -0.5192E-07  0.5881E+02
     22.189 -0.2484E-05  0.5881E+02
     22.285 -0.7298E-04  0.5881E+02
     22.381 -0.1300E-02  0.5881E+02
     22.477 -0.1371E-01  0.5881E+02
     22.573 -0.8117E-01  0.5881E+02
     22.669 -0.2297E+00  0.5878E+02
     22.765 -0.3599E-01  0.5878E+02
     22.861  0.1540E+01  0.5893E+02
     22.958  0.4093E+01  0.5932E+02
     23.054  0.4679E+01  0.5977E+02
     23.150  0.2471E+01  0.6001E+02
     23.246  0.3283E+00  0.6004E+02
     23.342 -0.2488E+00  0.6002E+02
     23.438 -0.1306E+00  0.6000E+02
     23.534 -0.2789E-01  0.6000E+02
     23.630 -0.3226E-02  0.6000E+02
     23.726 -0.2179E-03  0.6000E+02
     23.822 -0.8864E-05  0.6000E+02
     23.918 -0.2205E-06  0.6000E+02
     24.014 -0.3387E-08  0.6000E+02
     24.110 -0.3229E-10  0.6000E+02
     24.206 -0.1918E-12  0.6000E+02
     24.302  0.0000E+00  0.6000E+02
     24.398  0.0000E+00  0.6000E+02
     24.495  0.0000E+00  0.6000E+02
     24.591  0.0000E+00  0.6000E+02
     24.687  0.0000E+00  0.6000E+02
     24.783  0.0000E+00  0.6000E+02
     24.879  0.0000E+00  0.6000E+02
     24.975  0.0000E+00  0.6000E+02
