 vasp.6.2.0 18Jan21 (build Mar 17 2021 09:06:54) complex                        
  
 POSCAR found type information on POSCAR Cu
 POSCAR found :  1 types and       4 ions
 LDA part: xc-table for Pade appr. of Perdew
 POSCAR, INCAR and KPOINTS ok, starting setup
 FFT: planning ...
 WAVECAR not read
 WARNING: chargedensity file is incomplete
 entering main loop
       N       E                     dE             d eps       ncg     rms          rms(c)
DAV:   1     0.292533083670E+03    0.29253E+03   -0.14562E+04   256   0.183E+03
DAV:   2     0.356517161570E+01   -0.28897E+03   -0.27954E+03   240   0.342E+02
DAV:   3    -0.174828420892E+02   -0.21048E+02   -0.20304E+02   270   0.136E+02
DAV:   4    -0.179247124934E+02   -0.44187E+00   -0.44132E+00   270   0.257E+01
DAV:   5    -0.179303693002E+02   -0.56568E-02   -0.56567E-02   290   0.271E+00    0.154E+01
DAV:   6    -0.159806305904E+02    0.19497E+01   -0.30576E+01   252   0.111E+02    0.809E+00
DAV:   7    -0.144637092064E+02    0.15169E+01   -0.57805E+00   278   0.465E+01    0.944E-01
DAV:   8    -0.144366243399E+02    0.27085E-01   -0.86779E-02   310   0.341E+00    0.833E-01
DAV:   9    -0.144246501115E+02    0.11974E-01   -0.23833E-02   278   0.311E+00    0.584E-02
DAV:  10    -0.144246958905E+02   -0.45779E-04   -0.80513E-04   312   0.215E-01    0.174E-02
DAV:  11    -0.144246922084E+02    0.36821E-05   -0.12716E-05   250   0.325E-02    0.999E-03
DAV:  12    -0.144246949059E+02   -0.26975E-05   -0.53275E-06   224   0.416E-02    0.285E-03
DAV:  13    -0.144246947981E+02    0.10783E-06   -0.23115E-07   120   0.888E-03
   1 F= -.14424695E+02 E0= -.14419605E+02  d E =-.152705E-01
 writing wavefunctions
