unknown system                          
   1.00000000000000     
     2.236800    0.000000    0.000000
    -1.118400    1.937126    0.000000
     0.000000    0.000000    3.817920
   Fe
     2
Direct
  0.000000  0.000000  0.000000
  0.333333  0.666667  0.500000
 
   20   20   32
 0.13870691704E+03 0.13199124287E+03 0.11379544935E+03 0.88985364096E+02 0.63157491422E+02
 0.40765846499E+02 0.24339507408E+02 0.14480044184E+02 0.10105451754E+02 0.89163809598E+01
 0.86536135171E+01 0.89164057410E+01 0.10105471765E+02 0.14480042581E+02 0.24339504840E+02
 0.40765872497E+02 0.63157541096E+02 0.88985400541E+02 0.11379544995E+03 0.13199122693E+03
 0.13199374457E+03 0.13199123859E+03 0.11956790184E+03 0.98202243202E+02 0.73180806581E+02
 0.49511839794E+02 0.30626048984E+02 0.18039624589E+02 0.11474841685E+02 0.91734273333E+01
 0.86309313941E+01 0.86308522017E+01 0.91733510777E+01 0.11474819667E+02 0.18039182036E+02
 0.30624931704E+02 0.49511155805E+02 0.73182574351E+02 0.98207105195E+02 0.11957351774E+03
 0.11379915582E+03 0.11953920194E+03 0.11379544036E+03 0.98202240096E+02 0.76864584770E+02
 0.54585278786E+02 0.35288972177E+02 0.21266348310E+02 0.13047000041E+02 0.95612421340E+01
 0.86183845722E+01 0.83632564266E+01 0.86182328994E+01 0.95613308806E+01 0.13047127140E+02
 0.21265614749E+02 0.35287244128E+02 0.54584230358E+02 0.76866293385E+02 0.98206494976E+02
 0.88983643866E+02 0.98129051579E+02 0.98129633825E+02 0.88985354769E+02 0.73180802109E+02
 0.54585278715E+02 0.37011577607E+02 0.23186203577E+02 0.14307616101E+02 0.10002283659E+02
 0.86151442286E+01 0.81535174206E+01 0.81534198657E+01 0.86151433010E+01 0.10002777272E+02
 0.14308333709E+02 0.23186227556E+02 0.37010234839E+02 0.54582859168E+02 0.73178300030E+02
 0.63152094692E+02 0.73081005082E+02 0.76725550553E+02 0.73085225176E+02 0.63157485425E+02
 0.49511840870E+02 0.35288980656E+02 0.23186209229E+02 0.14789797939E+02 0.10299862535E+02
 0.86284559684E+01 0.80185864142E+01 0.77992429474E+01 0.80184687176E+01 0.86284530023E+01
 0.10300502469E+02 0.14791404289E+02 0.23187984231E+02 0.35288984668E+02 0.49508638159E+02
 0.40765152497E+02 0.49430168041E+02 0.54439455316E+02 0.54440822554E+02 0.49432673337E+02
 0.40765850961E+02 0.30626062184E+02 0.21266362514E+02 0.14307620009E+02 0.10299861865E+02
 0.86388659548E+01 0.79552616765E+01 0.75878401759E+01 0.75878172577E+01 0.79549288381E+01
 0.86381587906E+01 0.10299782470E+02 0.14309370384E+02 0.21269462613E+02 0.30628169350E+02
 0.24343210704E+02 0.30596352724E+02 0.35206600839E+02 0.36903834340E+02 0.35204916432E+02
 0.30593171686E+02 0.24339521189E+02 0.18039641202E+02 0.13047008029E+02 0.10002282476E+02
 0.86284549876E+01 0.79552598786E+01 0.75189320374E+01 0.73698582093E+01 0.75190754782E+01
 0.79546333654E+01 0.86267124619E+01 0.10000596071E+02 0.13047127140E+02 0.18042124208E+02
 0.14480063718E+02 0.18058552536E+02 0.21274125507E+02 0.23175404364E+02 0.23173687070E+02
 0.21270356705E+02 0.18055662730E+02 0.14480057832E+02 0.11474851788E+02 0.95612415219E+01
 0.86151398400E+01 0.80185805179E+01 0.75878318259E+01 0.73698552931E+01 0.73702615985E+01
 0.75885583942E+01 0.80184898548E+01 0.86133654889E+01 0.95581818782E+01 0.11472323158E+02
 0.10101620128E+02 0.11518115872E+02 0.13119691658E+02 0.14390848638E+02 0.14873929812E+02
 0.14389825464E+02 0.13119700626E+02 0.11520605672E+02 0.10105459167E+02 0.91734265565E+01
 0.86183753559E+01 0.81535072235E+01 0.77992314800E+01 0.75878106886E+01 0.75190778111E+01
 0.75885601751E+01 0.78008377141E+01 0.81551765405E+01 0.86183786731E+01 0.91708334317E+01
 0.89163096724E+01 0.92255689466E+01 0.96607252546E+01 0.10136759959E+02 0.10452460277E+02
 0.10453153357E+02 0.10138886127E+02 0.96638348695E+01 0.92280695872E+01 0.89163774278E+01
 0.86309192051E+01 0.83632438443E+01 0.81534111549E+01 0.80184633120E+01 0.79549314207E+01
 0.79546377459E+01 0.80184903455E+01 0.81551780268E+01 0.83664803604E+01 0.86334659163E+01
 0.86573193805E+01 0.86890423930E+01 0.87267562181E+01 0.87669413317E+01 0.88111460294E+01
 0.88335212215E+01 0.88128333469E+01 0.87686767072E+01 0.87266206343E+01 0.86864572092E+01
 0.86536018710E+01 0.86308411373E+01 0.86182295823E+01 0.86151429765E+01 0.86284549876E+01
 0.86381639564E+01 0.86267154280E+01 0.86133695530E+01 0.86183845722E+01 0.86334670410E+01
 0.89163069126E+01 0.86890415437E+01 0.84759803129E+01 0.83139579219E+01 0.82163687662E+01
 0.81745076580E+01 0.81747941134E+01 0.82163395157E+01 0.83122236348E+01 0.84728060759E+01
 0.86865492571E+01 0.89163994492E+01 0.91733525093E+01 0.95613367064E+01 0.10002781049E+02
 0.10300507817E+02 0.10299788488E+02 0.10000601031E+02 0.95581883161E+01 0.91708356401E+01
 0.10101617766E+02 0.92255673628E+01 0.87267558570E+01 0.83139557473E+01 0.80035953327E+01
 0.78223784545E+01 0.77642400598E+01 0.78216614574E+01 0.80020232719E+01 0.83122976819E+01
 0.87267487585E+01 0.92281656558E+01 0.10105476816E+02 0.11474830651E+02 0.13047136154E+02
 0.14308340008E+02 0.14791410355E+02 0.14309372776E+02 0.13047128166E+02 0.11472324039E+02
 0.14480064282E+02 0.11518115520E+02 0.96607236388E+01 0.87669357536E+01 0.82163630262E+01
 0.78223776463E+01 0.76247178274E+01 0.76243337102E+01 0.78216815558E+01 0.82164336613E+01
 0.87686386079E+01 0.96637187025E+01 0.11520625771E+02 0.14480056793E+02 0.18039196577E+02
 0.21265622416E+02 0.23186229327E+02 0.23187980351E+02 0.21269456076E+02 0.18042122137E+02
 0.24343213271E+02 0.18058554702E+02 0.13119689730E+02 0.10136753861E+02 0.88111385329E+01
 0.81745053646E+01 0.77642422341E+01 0.76243353324E+01 0.77641119356E+01 0.81751226597E+01
 0.88128333469E+01 0.10138387465E+02 0.13119554853E+02 0.18056086461E+02 0.24339521189E+02
 0.30624939591E+02 0.35287240115E+02 0.37010223525E+02 0.35288972177E+02 0.30628164037E+02
 0.40765154167E+02 0.30596357718E+02 0.21274127229E+02 0.14390846356E+02 0.10452455130E+02
 0.88335174570E+01 0.81747951027E+01 0.78216652163E+01 0.78216861230E+01 0.81751259424E+01
 0.88342315539E+01 0.10452557094E+02 0.14389133133E+02 0.21271070174E+02 0.30594288544E+02
 0.40765878629E+02 0.49511148539E+02 0.54584214372E+02 0.54582843253E+02 0.49508629816E+02
 0.63152094134E+02 0.49430175997E+02 0.35206610283E+02 0.23175409434E+02 0.14873928127E+02
 0.10453147462E+02 0.88128299580E+01 0.82163429277E+01 0.80020320318E+01 0.82164428134E+01
 0.88128374545E+01 0.10452556346E+02 0.14872384161E+02 0.23173665933E+02 0.35206607858E+02
 0.49433393336E+02 0.63157534540E+02 0.73182558784E+02 0.76866276195E+02 0.73178288935E+02
 0.88983642420E+02 0.73081016096E+02 0.54439472463E+02 0.36903846870E+02 0.23173687758E+02
 0.14389817011E+02 0.10138878131E+02 0.87686775287E+01 0.83122340706E+01 0.83123102924E+01
 0.87686450076E+01 0.10138385567E+02 0.14389126962E+02 0.23173661550E+02 0.36905131490E+02
 0.54441824232E+02 0.73083503499E+02 0.88985389767E+02 0.98207089638E+02 0.98206482525E+02
 0.11379915521E+03 0.98129064343E+02 0.76725570528E+02 0.54440838717E+02 0.35204918858E+02
 0.21270346966E+02 0.13119689730E+02 0.96638316686E+01 0.87266277329E+01 0.84728183345E+01
 0.87267562181E+01 0.96637171173E+01 0.13119545884E+02 0.21271058713E+02 0.35206600839E+02
 0.54441823248E+02 0.76723810012E+02 0.98124789219E+02 0.11379544036E+03 0.11957350742E+03
 0.13199374478E+03 0.11953921271E+03 0.98129650358E+02 0.73085239689E+02 0.49432677913E+02
 0.30593163470E+02 0.18055650193E+02 0.11520597338E+02 0.92280692791E+01 0.86864655803E+01
 0.86865584775E+01 0.92281669315E+01 0.11520617789E+02 0.18056071757E+02 0.30594275334E+02
 0.49433389957E+02 0.73083506998E+02 0.98124792988E+02 0.11953357216E+03 0.13199122286E+03
 0.13106059407E+03 0.12472326341E+03 0.10754149180E+03 0.84091677423E+02 0.59667091344E+02
 0.38514774652E+02 0.23062674939E+02 0.13874163620E+02 0.98671385264E+01 0.87863087132E+01
 0.85272209660E+01 0.87863340883E+01 0.98671599631E+01 0.13874163561E+02 0.23062672243E+02
 0.38514797832E+02 0.59667136907E+02 0.84091711226E+02 0.10754149244E+03 0.12472324860E+03
 0.12472561115E+03 0.12472325929E+03 0.11299117886E+03 0.92798350449E+02 0.69133377440E+02
 0.46754690476E+02 0.28946855089E+02 0.17159757649E+02 0.11094077886E+02 0.90104604747E+01
 0.84939718530E+01 0.84938925980E+01 0.90103844256E+01 0.11094070334E+02 0.17159373555E+02
 0.28945836843E+02 0.46754060104E+02 0.69135030439E+02 0.92802904144E+02 0.11299644595E+03
 0.10754497135E+03 0.11296959198E+03 0.10754148328E+03 0.92798347563E+02 0.72612600045E+02
 0.51538501417E+02 0.33321891534E+02 0.20154482761E+02 0.12519623344E+02 0.93418706525E+01
 0.84748870046E+01 0.82251586474E+01 0.84747293274E+01 0.93419446279E+01 0.12519754931E+02
 0.20153818689E+02 0.33320283747E+02 0.51537512271E+02 0.72614191046E+02 0.92802335055E+02
 0.84090068753E+02 0.92743850437E+02 0.92744393545E+02 0.84091668699E+02 0.69133373177E+02
 0.51538501297E+02 0.34939773118E+02 0.21941255850E+02 0.13670657490E+02 0.97252779945E+01
 0.84670200552E+01 0.80173923337E+01 0.80172944796E+01 0.84670044479E+01 0.97257258489E+01
 0.13671318360E+02 0.21941266753E+02 0.34938501488E+02 0.51536223105E+02 0.69131025416E+02
 0.59662038288E+02 0.69063290873E+02 0.72514528782E+02 0.69067245663E+02 0.59667085693E+02
 0.46754691402E+02 0.33321899629E+02 0.21941261248E+02 0.14112295589E+02 0.99868727949E+01
 0.84723879166E+01 0.78849329431E+01 0.76727511171E+01 0.78848297200E+01 0.84723854263E+01
 0.99874566119E+01 0.14113776918E+02 0.21942909226E+02 0.33321903459E+02 0.46751697554E+02
 0.38514134699E+02 0.46708722746E+02 0.51450563087E+02 0.51451848511E+02 0.46711073981E+02
 0.38514778877E+02 0.28946867620E+02 0.20154496285E+02 0.13670661025E+02 0.99868720740E+01
 0.84788404326E+01 0.78230860420E+01 0.74685372105E+01 0.74685290094E+01 0.78227997593E+01
 0.84781909844E+01 0.99867934789E+01 0.13672297700E+02 0.20157413461E+02 0.28948862526E+02
 0.23066151149E+02 0.28952944976E+02 0.33303977766E+02 0.34907496228E+02 0.33302409801E+02
 0.28949971518E+02 0.23062687929E+02 0.17159773355E+02 0.12519630714E+02 0.97252766959E+01
 0.84723871591E+01 0.78230844604E+01 0.74021938032E+01 0.72590990932E+01 0.74023433760E+01
 0.78225153536E+01 0.84707657139E+01 0.97237046486E+01 0.12519754931E+02 0.17162114832E+02
 0.13874170103E+02 0.17211197374E+02 0.20224431921E+02 0.22010622680E+02 0.22009016715E+02
 0.20220910009E+02 0.17208503341E+02 0.13874176382E+02 0.11094087353E+02 0.93418699540E+01
 0.84670160779E+01 0.78849276329E+01 0.74685292647E+01 0.72590962879E+01 0.72594712788E+01
 0.74691986841E+01 0.78848362617E+01 0.84653554332E+01 0.93390064472E+01 0.11091714326E+02
 0.98635291992E+01 0.11166174123E+02 0.12648506579E+02 0.13830355623E+02 0.14280462982E+02
 0.13829389516E+02 0.12648514979E+02 0.11168522289E+02 0.98671455157E+01 0.90104597372E+01
 0.84748783157E+01 0.80173829284E+01 0.76727403099E+01 0.74685227230E+01 0.74023456613E+01
 0.74692003435E+01 0.76742189715E+01 0.80189369526E+01 0.84748811854E+01 0.90080218756E+01
 0.87862376076E+01 0.90887403986E+01 0.94922141971E+01 0.99304866539E+01 0.10221407598E+02
 0.10222046474E+02 0.99324585441E+01 0.94951174200E+01 0.90910870846E+01 0.87863054082E+01
 0.84939602480E+01 0.82251468607E+01 0.80172864476E+01 0.78848246104E+01 0.78228022139E+01
 0.78225193898E+01 0.78848364623E+01 0.80189383260E+01 0.82281867672E+01 0.84963516287E+01
 0.85306998719E+01 0.85768879920E+01 0.86311722059E+01 0.86856367003E+01 0.87344248277E+01
 0.87572026134E+01 0.87359955249E+01 0.86872478765E+01 0.86310324581E+01 0.85744575420E+01
 0.85272098936E+01 0.84938821295E+01 0.84747264576E+01 0.84670042573E+01 0.84723871591E+01
 0.84781956620E+01 0.84707682041E+01 0.84653592198E+01 0.84748870046E+01 0.84963527652E+01
 0.87862349212E+01 0.85768871911E+01 0.83847942230E+01 0.82428301077E+01 0.81606067550E+01
 0.81269408614E+01 0.81272159023E+01 0.81605908350E+01 0.82412079459E+01 0.83818141714E+01
 0.85745496963E+01 0.87863280970E+01 0.90103859452E+01 0.93419502877E+01 0.97257292152E+01
 0.99874614150E+01 0.99867990029E+01 0.97237093135E+01 0.93390128054E+01 0.90080241327E+01
 0.98635269625E+01 0.90887389287E+01 0.86311719531E+01 0.82428280127E+01 0.79542913267E+01
 0.77876222257E+01 0.77345370255E+01 0.77869725881E+01 0.79528410623E+01 0.82412817379E+01
 0.86311651162E+01 0.90911835654E+01 0.98671647156E+01 0.11094080812E+02 0.12519763372E+02
 0.13671324158E+02 0.14113782644E+02 0.13672299963E+02 0.12519756002E+02 0.11091715336E+02
 0.13874170812E+02 0.11166173860E+02 0.94922127074E+01 0.86856313073E+01 0.81606011751E+01
 0.77876214697E+01 0.76016565838E+01 0.76013022278E+01 0.77869797802E+01 0.81606718191E+01
 0.86872223221E+01 0.94950137471E+01 0.11168529481E+02 0.13874177032E+02 0.17159387435E+02
 0.20153825960E+02 0.21941268440E+02 0.21942905515E+02 0.20157407208E+02 0.17162113007E+02
 0.23066153845E+02 0.17211199502E+02 0.12648504653E+02 0.99304807187E+01 0.87344175833E+01
 0.81269387256E+01 0.77345391701E+01 0.76013037412E+01 0.77344043674E+01 0.81275021450E+01
 0.87359955249E+01 0.99320020286E+01 0.12648363120E+02 0.17208869917E+02 0.23062687929E+02
 0.28945844453E+02 0.33320279916E+02 0.34938490679E+02 0.33321891534E+02 0.28948857604E+02
 0.38514136450E+02 0.28952949734E+02 0.20224433389E+02 0.13830353326E+02 0.10221402685E+02
 0.87571990906E+01 0.81272168928E+01 0.77869760755E+01 0.77869840237E+01 0.81275052714E+01
 0.87578591777E+01 0.10221504753E+02 0.13828751314E+02 0.20221554752E+02 0.28950988447E+02
 0.38514803808E+02 0.46754053200E+02 0.51537497026E+02 0.51536207980E+02 0.46751689724E+02
 0.59662037761E+02 0.46708730264E+02 0.33303986643E+02 0.22010627450E+02 0.14280461402E+02
 0.10222040887E+02 0.87359922604E+01 0.81605939830E+01 0.79528493076E+01 0.81606805470E+01
 0.87359995048E+01 0.10221504079E+02 0.14279040163E+02 0.22009010173E+02 0.33303984478E+02
 0.46711737114E+02 0.59667130728E+02 0.69135015650E+02 0.72614174723E+02 0.69131014890E+02
 0.84090067295E+02 0.69063301313E+02 0.51450579414E+02 0.34907508153E+02 0.22009017322E+02
 0.13829381399E+02 0.99324508817E+01 0.86872486277E+01 0.82412178844E+01 0.82412937714E+01
 0.86872284663E+01 0.99320003014E+01 0.13828745495E+02 0.22009006010E+02 0.34908727629E+02
 0.51452795506E+02 0.69065635535E+02 0.84091701044E+02 0.92802889330E+02 0.92802323127E+02
 0.10754497071E+03 0.92743862627E+02 0.72514547844E+02 0.51451863870E+02 0.33302411966E+02
 0.20220900603E+02 0.12648504653E+02 0.94951144837E+01 0.86310392950E+01 0.83818258468E+01
 0.86311722059E+01 0.94950123005E+01 0.12648354720E+02 0.20221543879E+02 0.33303977766E+02
 0.51452794538E+02 0.72512909070E+02 0.92739856488E+02 0.10754148328E+03 0.11299643599E+03
 0.12472561134E+03 0.11296960234E+03 0.92744409286E+02 0.69067259367E+02 0.46711078189E+02
 0.28949963606E+02 0.17208491542E+02 0.11168514593E+02 0.90910868540E+01 0.85744654738E+01
 0.85745584290E+01 0.90911848047E+01 0.11168522048E+02 0.17208855991E+02 0.28950975778E+02
 0.46711733804E+02 0.69065638798E+02 0.92739860039E+02 0.11296431242E+03 0.12472324467E+03
 0.11061715536E+03 0.10528049791E+03 0.90788876086E+02 0.70969026063E+02 0.50317889742E+02
 0.32520381699E+02 0.19708540337E+02 0.12320284445E+02 0.92673582299E+01 0.84298041526E+01
 0.81836287350E+01 0.84298293503E+01 0.92673811117E+01 0.12320287003E+02 0.19708537335E+02
 0.32520398510E+02 0.50317925628E+02 0.70969053488E+02 0.90788876795E+02 0.10528048589E+03
 0.10528242965E+03 0.10528049422E+03 0.95380814255E+02 0.78311096809E+02 0.58283288873E+02
 0.39389815105E+02 0.24505351931E+02 0.14876549790E+02 0.10131864262E+02 0.85876487132E+01
 0.81232793115E+01 0.81232007541E+01 0.85875736073E+01 0.10131892152E+02 0.14876316167E+02
 0.24504594433E+02 0.39389327343E+02 0.58284633543E+02 0.78314819841E+02 0.95385139717E+02
 0.90791742399E+02 0.95378329485E+02 0.90788868847E+02 0.78311094534E+02 0.61212402037E+02
 0.43390110751E+02 0.28100803592E+02 0.17248552837E+02 0.11174647392E+02 0.87865072669E+01
 0.80854866702E+01 0.78528849058E+01 0.80853172156E+01 0.87865447511E+01 0.11174789154E+02
 0.17248070952E+02 0.28099516842E+02 0.43389282108E+02 0.61213677614E+02 0.78314360817E+02
 0.70967717750E+02 0.78306557058E+02 0.78306995031E+02 0.70969019004E+02 0.58283285181E+02
 0.43390110486E+02 0.29434956607E+02 0.18676792782E+02 0.12036180395E+02 0.90266103231E+01
 0.80658285359E+01 0.76497526116E+01 0.76496560884E+01 0.80657782847E+01 0.90269396157E+01
 0.12036691421E+02 0.18676770441E+02 0.29433878693E+02 0.43388215060E+02 0.58281354042E+02
 0.50313762908E+02 0.58292064549E+02 0.61223165226E+02 0.58295303589E+02 0.50317885037E+02
 0.39389815593E+02 0.28100810631E+02 0.18676797486E+02 0.12370190260E+02 0.91968117347E+01
 0.80578505397E+01 0.75224522372E+01 0.73308732837E+01 0.75223865263E+01 0.80578493006E+01
 0.91972476871E+01 0.12371339615E+02 0.18678106180E+02 0.28100813957E+02 0.39387383581E+02
 0.32519885567E+02 0.39437669618E+02 0.43454651324E+02 0.43455715212E+02 0.39439604551E+02
 0.32520385239E+02 0.24505362625E+02 0.17248564503E+02 0.12036182925E+02 0.91968108810E+01
 0.80564820674E+01 0.74634962171E+01 0.71452013445E+01 0.71452291824E+01 0.74633281445E+01
 0.80559837683E+01 0.91967347439E+01 0.12037514216E+02 0.17250986681E+02 0.24507051139E+02
 0.19711402939E+02 0.24604261845E+02 0.28250731137E+02 0.29599440748E+02 0.28249475300E+02
 0.24601846939E+02 0.19708551146E+02 0.14876563014E+02 0.11174653106E+02 0.90266087211E+01
 0.80578503820E+01 0.74634952124E+01 0.70853708809E+01 0.69585688167E+01 0.70855325789E+01
 0.74630755841E+01 0.80565521856E+01 0.90253434944E+01 0.11174789154E+02 0.14878520313E+02
 0.12320257821E+02 0.15011047992E+02 0.17478080684E+02 0.18952423705E+02 0.18951117458E+02
 0.17475222965E+02 0.15008879470E+02 0.12320294799E+02 0.10131872029E+02 0.87865063441E+01
 0.80658256706E+01 0.75224484920E+01 0.71451944819E+01 0.69585663104E+01 0.69588583816E+01
 0.71457129435E+01 0.75223573442E+01 0.80644717284E+01 0.87841711469E+01 0.10129919208E+02
 0.92643516273E+01 0.10276529012E+02 0.11445527083E+02 0.12389591697E+02 0.12751441661E+02
 0.12388780943E+02 0.11445533944E+02 0.10278492377E+02 0.92673640861E+01 0.85876481081E+01
 0.80854794168E+01 0.76497453246E+01 0.73308642388E+01 0.71452236640E+01 0.70855347610E+01
 0.71457142877E+01 0.73320065186E+01 0.76509918267E+01 0.80854810956E+01 0.85856298448E+01
 0.84297338923E+01 0.87309958283E+01 0.90636187926E+01 0.94082706496E+01 0.96358461197E+01
 0.96363407850E+01 0.94098301686E+01 0.90659671148E+01 0.87329265768E+01 0.84298014972E+01
 0.81232693038E+01 0.78528752479E+01 0.76496498666E+01 0.75223822160E+01 0.74633302876E+01
 0.74630787319E+01 0.75223567792E+01 0.76509928919E+01 0.78553831501E+01 0.81252399746E+01
 0.81864943394E+01 0.82674147766E+01 0.83599867747E+01 0.84491212141E+01 0.85151280733E+01
 0.85406795020E+01 0.85163861410E+01 0.84504000374E+01 0.83598378151E+01 0.82654027724E+01
 0.81836192441E+01 0.81231918930E+01 0.80853155367E+01 0.80657784413E+01 0.80578503820E+01
 0.80559871714E+01 0.80565534247E+01 0.80644747504E+01 0.80854866702E+01 0.81252411212E+01
 0.84297313864E+01 0.82674141095E+01 0.81276377563E+01 0.80337907377E+01 0.79873077157E+01
 0.79722983171E+01 0.79725413751E+01 0.79873257241E+01 0.80324704968E+01 0.81251821446E+01
 0.82654935858E+01 0.84298241890E+01 0.85875753419E+01 0.87865499283E+01 0.90269418702E+01
 0.91972510580E+01 0.91967389684E+01 0.90253473509E+01 0.87841772469E+01 0.85856321845E+01
 0.92643497009E+01 0.87309946654E+01 0.83599868410E+01 0.80337888675E+01 0.77988652994E+01
 0.76670497541E+01 0.76259033486E+01 0.76665777787E+01 0.77977397030E+01 0.80325432630E+01
 0.83599807397E+01 0.87330220348E+01 0.92673850415E+01 0.10131901211E+02 0.11174796031E+02
 0.12036695868E+02 0.12371344451E+02 0.12037516133E+02 0.11174790316E+02 0.10129920499E+02
 0.12320258883E+02 0.10276528989E+02 0.90636176810E+01 0.84491163549E+01 0.79873025873E+01
 0.76670491450E+01 0.75099091611E+01 0.75096339505E+01 0.76665522171E+01 0.79873729287E+01
 0.84504075518E+01 0.90658972184E+01 0.10278466815E+02 0.12320298420E+02 0.14876328193E+02
 0.17248077121E+02 0.18676771925E+02 0.18678102959E+02 0.17250981185E+02 0.14878519114E+02
 0.19711405942E+02 0.15011050013E+02 0.11445525184E+02 0.94082651987E+01 0.85151215357E+01
 0.79722966169E+01 0.76259054045E+01 0.75096351714E+01 0.76257604240E+01 0.79727170369E+01
 0.85163861410E+01 0.94094862826E+01 0.11445370064E+02 0.15009098716E+02 0.19708551146E+02
 0.24504601254E+02 0.28099513516E+02 0.29433869297E+02 0.28100803592E+02 0.24507047266E+02
 0.32519887519E+02 0.24604265936E+02 0.17478081468E+02 0.12389589391E+02 0.96358418732E+01
 0.85406766512E+01 0.79725423684E+01 0.76665805271E+01 0.76665555746E+01 0.79727197305E+01
 0.85411917288E+01 0.96359420634E+01 0.12388286763E+02 0.17475687963E+02 0.24602601502E+02
 0.32520404003E+02 0.39389321413E+02 0.43389268927E+02 0.43388202144E+02 0.39387377163E+02
 0.50313762453E+02 0.39437675902E+02 0.28250738454E+02 0.18952427667E+02 0.12751440400E+02
 0.96363360528E+01 0.85163832205E+01 0.79873281489E+01 0.77977465393E+01 0.79873804819E+01
 0.85163897580E+01 0.96359415777E+01 0.12750343857E+02 0.18951146640E+02 0.28250736985E+02
 0.39440117494E+02 0.50317920467E+02 0.58284620919E+02 0.61213663722E+02 0.58281345111E+02
 0.70967716263E+02 0.58292073385E+02 0.43454665369E+02 0.29599451018E+02 0.18951117867E+02
 0.12388773771E+02 0.94098234264E+01 0.84504005929E+01 0.80324790678E+01 0.80325537042E+01
 0.84504129666E+01 0.94094849913E+01 0.12388281898E+02 0.18951143087E+02 0.29600490165E+02
 0.43456512068E+02 0.58293993789E+02 0.70969044943E+02 0.78314807120E+02 0.78314350371E+02
 0.90791741690E+02 0.78306567642E+02 0.61223181738E+02 0.43455728354E+02 0.28249476770E+02
 0.17475214504E+02 0.11445525184E+02 0.90659649037E+01 0.83598439164E+01 0.81251922058E+01
 0.83599867747E+01 0.90658961188E+01 0.11445363203E+02 0.17475678718E+02 0.28250731137E+02
 0.43456511165E+02 0.61221868111E+02 0.78303286508E+02 0.90788868847E+02 0.95385130802E+02
 0.10528242978E+03 0.95378338662E+02 0.78307008560E+02 0.58295315051E+02 0.39439607768E+02
 0.24601839890E+02 0.15008869719E+02 0.10278486417E+02 0.87329265317E+01 0.82654094770E+01
 0.82655009575E+01 0.87330231526E+01 0.10278460878E+02 0.15009086944E+02 0.24602590362E+02
 0.39440114427E+02 0.58293996415E+02 0.78303289454E+02 0.95373994832E+02 0.10528048233E+03
 0.83472373731E+02 0.79444661541E+02 0.68492618747E+02 0.53501118516E+02 0.37935410511E+02
 0.24701892182E+02 0.15470712388E+02 0.10457731454E+02 0.85614467174E+01 0.79360712928E+01
 0.77154469036E+01 0.79360917345E+01 0.85614654641E+01 0.10457733599E+02 0.15470709056E+02
 0.24701903575E+02 0.37935436959E+02 0.53501139264E+02 0.68492619533E+02 0.79444652601E+02
 0.79446033428E+02 0.79444658472E+02 0.71952782563E+02 0.59021871272E+02 0.43873317939E+02
 0.29709192318E+02 0.18804100432E+02 0.12069117907E+02 0.90075931555E+01 0.80346160025E+01
 0.76202022261E+01 0.76201273567E+01 0.80345437123E+01 0.90076581670E+01 0.12069064563E+02
 0.18803673295E+02 0.29708889470E+02 0.43874252737E+02 0.59024483241E+02 0.71955843204E+02
 0.68494659406E+02 0.71975041139E+02 0.68492613367E+02 0.59021869863E+02 0.46061625252E+02
 0.32645843434E+02 0.21344531658E+02 0.13618703795E+02 0.95789900465E+01 0.81156262862E+01
 0.75538405191E+01 0.73509096180E+01 0.75536679551E+01 0.81156241140E+01 0.95791391410E+01
 0.13618450407E+02 0.21343665699E+02 0.32645232302E+02 0.46062483689E+02 0.59024169293E+02
 0.53500211097E+02 0.59081646707E+02 0.59081945110E+02 0.53501113808E+02 0.43873315018E+02
 0.32645842948E+02 0.22294047235E+02 0.14569333588E+02 0.10073723120E+02 0.82025282459E+01
 0.75129037435E+01 0.71523460099E+01 0.71522572771E+01 0.75128209025E+01 0.82027122464E+01
 0.10074042491E+02 0.14569273129E+02 0.22293235229E+02 0.32644465693E+02 0.43871943742E+02
 0.37932522946E+02 0.43982613007E+02 0.46211304776E+02 0.43984892117E+02 0.37935407090E+02
 0.29709192143E+02 0.21344537212E+02 0.14569337352E+02 0.10269809651E+02 0.82689185200E+01
 0.74915643325E+01 0.70284534906E+01 0.68678188901E+01 0.70284334693E+01 0.74915646988E+01
 0.82691668204E+01 0.10270529815E+02 0.14570201296E+02 0.21344539839E+02 0.29707508642E+02
 0.24701582731E+02 0.29875001323E+02 0.32902706017E+02 0.32903470296E+02 0.29876375892E+02
 0.24701894683E+02 0.18804108536E+02 0.13618712925E+02 0.10073724304E+02 0.82689175068E+01
 0.74850476263E+01 0.69708202874E+01 0.67051242870E+01 0.67051898455E+01 0.69707895398E+01
 0.74847392890E+01 0.82688459763E+01 0.10074649814E+02 0.13620466027E+02 0.18805374966E+02
 0.15472748929E+02 0.19017810183E+02 0.21703063571E+02 0.22703490712E+02 0.21702220067E+02
 0.19016139814E+02 0.15470720143E+02 0.12069127759E+02 0.95789935520E+01 0.82025262729E+01
 0.74915649667E+01 0.69708200375E+01 0.66530929886E+01 0.65486009869E+01 0.66532582949E+01
 0.69705854726E+01 0.74906905587E+01 0.82016673025E+01 0.95791391410E+01 0.12070562168E+02
 0.10457667069E+02 0.12304839174E+02 0.14043582143E+02 0.15098134973E+02 0.15097228738E+02
 0.14041609359E+02 0.12303367166E+02 0.10457738497E+02 0.90075986668E+01 0.81156251270E+01
 0.75129023550E+01 0.70284518169E+01 0.67051188426E+01 0.65485988993E+01 0.65487842939E+01
 0.67054441596E+01 0.70283669393E+01 0.75119592655E+01 0.81139958685E+01 0.90062108094E+01
 0.85592581869E+01 0.92400043302E+01 0.10021779770E+02 0.10662039780E+02 0.10909649434E+02
 0.10661441706E+02 0.10021784548E+02 0.92414431394E+01 0.85614511303E+01 0.80346156378E+01
 0.75538352157E+01 0.71523415208E+01 0.68678121402E+01 0.67051853726E+01 0.66532603930E+01
 0.67054451311E+01 0.68685256259E+01 0.71531854441E+01 0.75538353595E+01 0.80331628847E+01
 0.79360036353E+01 0.82565285666E+01 0.85455841702E+01 0.87967752123E+01 0.89542719307E+01
 0.89545794854E+01 0.87977937163E+01 0.85471944000E+01 0.82578996385E+01 0.79360695950E+01
 0.76201944237E+01 0.73509027697E+01 0.71522534216E+01 0.70284302477E+01 0.69707913597E+01
 0.69705875425E+01 0.70283653914E+01 0.71531860776E+01 0.73526924928E+01 0.76215962835E+01
 0.77174867765E+01 0.78377866034E+01 0.79702740029E+01 0.80939339909E+01 0.81831330276E+01
 0.82161168099E+01 0.81839780234E+01 0.80947756365E+01 0.79701192544E+01 0.78363392558E+01
 0.77154396259E+01 0.76201206663E+01 0.75536678113E+01 0.75128214832E+01 0.74915649667E+01
 0.74847411239E+01 0.74906901924E+01 0.75119612347E+01 0.75538405191E+01 0.76215973955E+01
 0.79360013190E+01 0.78377861248E+01 0.77632888316E+01 0.77253708085E+01 0.77181081812E+01
 0.77227458037E+01 0.77229422077E+01 0.77181652339E+01 0.77244536758E+01 0.77615386122E+01
 0.78364235714E+01 0.79360877204E+01 0.80345456640E+01 0.81156285708E+01 0.82027130237E+01
 0.82691683770E+01 0.82688485461E+01 0.82016700527E+01 0.81140014845E+01 0.80331652011E+01
 0.85592565853E+01 0.82565278426E+01 0.79702745596E+01 0.77253692833E+01 0.75564559001E+01
 0.74657127828E+01 0.74382957879E+01 0.74654662971E+01 0.75557531744E+01 0.77245236496E+01
 0.79702695137E+01 0.82579877377E+01 0.85614682754E+01 0.90076651968E+01 0.95791438112E+01
 0.10074045148E+02 0.10270533531E+02 0.10074651287E+02 0.95791403057E+01 0.90062123280E+01
 0.10457668505E+02 0.92400046388E+01 0.85455836652E+01 0.80939299441E+01 0.77181037022E+01
 0.74657123682E+01 0.73444370504E+01 0.73442645016E+01 0.74654033479E+01 0.77181722585E+01
 0.80948242439E+01 0.85471692500E+01 0.92413801902E+01 0.10457742078E+02 0.12069073931E+02
 0.13618455030E+02 0.14569274403E+02 0.14570198806E+02 0.13620461520E+02 0.12070561684E+02
 0.15472752260E+02 0.12304841022E+02 0.10021777994E+02 0.87967705239E+01 0.81831275196E+01
 0.77227447014E+01 0.74382977272E+01 0.73442653097E+01 0.74381455286E+01 0.77229810253E+01
 0.81839780234E+01 0.87975968256E+01 0.10021617144E+02 0.12303409427E+02 0.15470720143E+02
 0.18803678901E+02 0.21343663072E+02 0.22293227860E+02 0.21344531658E+02 0.18805372468E+02
 0.24701584895E+02 0.19017813300E+02 0.14043582016E+02 0.10662037545E+02 0.89542686693E+01
 0.82161148917E+01 0.77229431978E+01 0.74654680296E+01 0.74654054950E+01 0.77229831177E+01
 0.82164384395E+01 0.89543602968E+01 0.10661134418E+02 0.14041850116E+02 0.19016563878E+02
 0.24701908240E+02 0.29708884855E+02 0.32645222069E+02 0.32644455946E+02 0.29707504203E+02
 0.37932522569E+02 0.29875005820E+02 0.21703068705E+02 0.15098137868E+02 0.10909648686E+02
 0.89545759571E+01 0.81839755887E+01 0.77181666514E+01 0.75557580902E+01 0.77181781551E+01
 0.81839810968E+01 0.89543600300E+01 0.10908968770E+02 0.15097295268E+02 0.21703068136E+02
 0.29876696736E+02 0.37935433161E+02 0.43874243185E+02 0.46062473321E+02 0.43871937112E+02
 0.53500209581E+02 0.43982619531E+02 0.32902716816E+02 0.22703498699E+02 0.15097228933E+02
 0.10661435898E+02 0.87977882504E+01 0.80947759300E+01 0.77244603482E+01 0.77245318473E+01
 0.80948285842E+01 0.87975960481E+01 0.10661130845E+02 0.15097292568E+02 0.22704282870E+02
 0.32904058386E+02 0.43983983182E+02 0.53501133040E+02 0.59024473573E+02 0.59024161034E+02
 0.68494658620E+02 0.59081654973E+02 0.46211317639E+02 0.32903480329E+02 0.21702220636E+02
 0.14041602280E+02 0.10021777994E+02 0.85471931643E+01 0.79701243003E+01 0.77615464095E+01
 0.79702740029E+01 0.85471685192E+01 0.10021612365E+02 0.14041843164E+02 0.21703063571E+02
 0.32904057621E+02 0.46210430636E+02 0.59079344495E+02 0.68492613367E+02 0.71955835839E+02
 0.79446033499E+02 0.71975048624E+02 0.59081955463E+02 0.43984900424E+02 0.29876377778E+02
 0.19016134054E+02 0.12303360272E+02 0.92414395466E+01 0.82578998013E+01 0.78363441923E+01
 0.78364289866E+01 0.82579886244E+01 0.92413762888E+01 0.12303400686E+02 0.19016555001E+02
 0.29876694125E+02 0.43983984965E+02 0.59079346581E+02 0.71971974405E+02 0.79444649603E+02
 0.56326764595E+02 0.53603514383E+02 0.46205471565E+02 0.36124691894E+02 0.25798073960E+02
 0.17282787601E+02 0.11683336244E+02 0.89304764102E+01 0.79318165730E+01 0.74177285046E+01
 0.72353353541E+01 0.74177389659E+01 0.79318241898E+01 0.89304736694E+01 0.11683332714E+02
 0.17282797109E+02 0.25798094936E+02 0.36124708040E+02 0.46205472399E+02 0.53603507817E+02
 0.53604324995E+02 0.53603512001E+02 0.48526510541E+02 0.39789213224E+02 0.29648730491E+02
 0.20378076377E+02 0.13557235110E+02 0.96747575634E+01 0.80919548022E+01 0.74480199161E+01