   2   2   0   0
  0.8271452E+01  0.2236800E-09  0.2236800E-09  0.3817920E-09  0.5000000E-15
  1.000000000000000E-004
  CAR 
 unknown system                          
     82.01888043     -4.51187644  301      9.50191075      1.00000000
     -4.512  0.0000E+00  0.0000E+00
     -4.223  0.0000E+00  0.0000E+00
     -3.935  0.0000E+00  0.0000E+00
     -3.647  0.0000E+00  0.0000E+00
     -3.358  0.0000E+00  0.0000E+00
     -3.070  0.0000E+00  0.0000E+00
     -2.781  0.0000E+00  0.0000E+00
     -2.493  0.0000E+00  0.0000E+00
     -2.204 -0.2407E-30 -0.6943E-31
     -1.916 -0.3772E-21 -0.1088E-21
     -1.628 -0.8529E-14 -0.2460E-14
     -1.339 -0.2859E-08 -0.8247E-09
     -1.051 -0.1313E-04 -0.3787E-05
     -0.762 -0.3964E-03 -0.1181E-03
     -0.474  0.8401E-02  0.2305E-02
     -0.185  0.3997E-01  0.1383E-01
      0.103  0.8565E-01  0.3854E-01
      0.392  0.5644E-01  0.5482E-01
      0.680  0.1154E+00  0.8811E-01
      0.968  0.1624E+00  0.1350E+00
      1.257  0.1500E+00  0.1782E+00
      1.545  0.1052E+00  0.2086E+00
      1.834  0.1526E+00  0.2526E+00
      2.122  0.3291E+00  0.3475E+00
      2.411  0.2495E+00  0.4195E+00
      2.699  0.3095E+00  0.5087E+00
      2.987  0.1968E+00  0.5655E+00
      3.276  0.1210E+01  0.9145E+00
      3.564  0.1880E+01  0.1457E+01
      3.853  0.1830E+01  0.1985E+01
      4.141  0.2486E+01  0.2702E+01
      4.430  0.2253E+01  0.3351E+01
      4.718  0.2209E+01  0.3989E+01
      5.007  0.1758E+01  0.4496E+01
      5.295  0.2578E+01  0.5239E+01
      5.583  0.2385E+01  0.5927E+01
      5.872  0.2469E+01  0.6639E+01
      6.160  0.2185E+01  0.7270E+01
      6.449  0.1538E+01  0.7713E+01
      6.737  0.2148E+01  0.8333E+01
      7.026  0.2995E+01  0.9197E+01
      7.314  0.2987E+01  0.1006E+02
      7.602  0.3094E+01  0.1095E+02
      7.891  0.3029E+01  0.1182E+02
      8.179  0.3546E+01  0.1285E+02
      8.468  0.2770E+01  0.1365E+02
      8.756  0.2154E+01  0.1427E+02
      9.045  0.2089E+01  0.1487E+02
      9.333  0.2602E+01  0.1562E+02
      9.621  0.2077E+01  0.1622E+02
      9.910  0.1545E+01  0.1666E+02
     10.198  0.2983E+01  0.1753E+02
     10.487  0.3789E+01  0.1862E+02
     10.775  0.3888E+01  0.1974E+02
     11.064  0.3813E+01  0.2084E+02
     11.352  0.1246E+01  0.2120E+02
     11.641  0.1874E+00  0.2125E+02
     11.929  0.1008E+00  0.2128E+02
     12.217  0.8499E+00  0.2153E+02
     12.506  0.6762E+00  0.2172E+02
     12.794  0.5132E+00  0.2187E+02
     13.083  0.2569E+00  0.2194E+02
     13.371  0.6727E+00  0.2214E+02
     13.660  0.3282E+00  0.2223E+02
     13.948  0.2122E+00  0.2229E+02
     14.236  0.2400E+00  0.2236E+02
     14.525  0.8051E+00  0.2260E+02
     14.813  0.4951E+00  0.2274E+02
     15.102  0.3180E+00  0.2283E+02
     15.390  0.2034E+00  0.2289E+02
     15.679  0.3815E+00  0.2300E+02
     15.967  0.3763E+00  0.2311E+02
     16.256  0.4230E+00  0.2323E+02
     16.544  0.2646E+00  0.2331E+02
     16.832  0.2727E+00  0.2338E+02
     17.121  0.2412E+00  0.2345E+02
     17.409  0.3345E+00  0.2355E+02
     17.698  0.2993E+00  0.2364E+02
     17.986  0.4979E+00  0.2378E+02
     18.275  0.2861E+00  0.2386E+02
     18.563  0.9682E-01  0.2389E+02
     18.851  0.6360E-01  0.2391E+02
     19.140  0.1481E+00  0.2395E+02
     19.428  0.3669E-01  0.2396E+02
     19.717  0.1679E+00  0.2401E+02
     20.005  0.2072E+00  0.2407E+02
     20.294  0.2965E+00  0.2416E+02
     20.582  0.4166E+00  0.2428E+02
     20.870  0.2810E+00  0.2436E+02
     21.159  0.3923E+00  0.2447E+02
     21.447  0.6164E+00  0.2465E+02
     21.736  0.8886E+00  0.2490E+02
     22.024  0.7307E+00  0.2512E+02
     22.313  0.5234E+00  0.2527E+02
     22.601  0.3609E+00  0.2537E+02
     22.890  0.7782E+00  0.2559E+02
     23.178  0.5018E+00  0.2574E+02
     23.466  0.8729E+00  0.2599E+02
     23.755  0.5678E+00  0.2616E+02
     24.043  0.5487E+00  0.2631E+02
     24.332  0.6825E+00  0.2651E+02
     24.620  0.7468E+00  0.2673E+02
     24.909  0.6154E+00  0.2690E+02
     25.197  0.6186E+00  0.2708E+02
     25.485  0.6310E+00  0.2726E+02
     25.774  0.6443E+00  0.2745E+02
     26.062  0.6302E+00  0.2763E+02
     26.351  0.3790E+00  0.2774E+02
     26.639  0.5356E+00  0.2789E+02
     26.928  0.5620E+00  0.2806E+02
     27.216  0.6650E+00  0.2825E+02
     27.505  0.5784E+00  0.2842E+02
     27.793  0.6303E+00  0.2860E+02
     28.081  0.5664E+00  0.2876E+02
     28.370  0.9618E+00  0.2904E+02
     28.658  0.9800E+00  0.2932E+02
     28.947  0.3689E+00  0.2943E+02
     29.235  0.1013E+01  0.2972E+02
     29.524  0.1032E+01  0.3002E+02
     29.812  0.4215E+00  0.3014E+02
     30.100  0.8141E+00  0.3037E+02
     30.389  0.8485E+00  0.3062E+02
     30.677  0.7042E+00  0.3082E+02
     30.966  0.9397E+00  0.3109E+02
     31.254  0.1323E+01  0.3147E+02
     31.543  0.4894E+00  0.3162E+02
     31.831  0.9157E+00  0.3188E+02
     32.119  0.9016E+00  0.3214E+02
     32.408  0.5420E+00  0.3230E+02
     32.696  0.6968E+00  0.3250E+02
     32.985  0.1168E+01  0.3283E+02
     33.273  0.8731E+00  0.3309E+02
     33.562  0.6298E+00  0.3327E+02
     33.850  0.1029E+01  0.3356E+02
     34.139  0.1069E+01  0.3387E+02
     34.427  0.7290E+00  0.3408E+02
     34.715  0.5318E+00  0.3424E+02
     35.004  0.4853E+00  0.3438E+02
     35.292  0.6968E+00  0.3458E+02
     35.581  0.6128E+00  0.3475E+02
     35.869  0.1004E+01  0.3504E+02
     36.158  0.6933E+00  0.3524E+02
     36.446  0.5582E+00  0.3540E+02
     36.734  0.6658E+00  0.3560E+02
     37.023  0.6826E+00  0.3579E+02
     37.311  0.6506E+00  0.3598E+02
     37.600  0.2863E+00  0.3606E+02
     37.888  0.4591E+00  0.3620E+02
     38.177  0.3383E+00  0.3629E+02
     38.465  0.8154E+00  0.3653E+02
     38.754  0.6277E+00  0.3671E+02
     39.042  0.8286E+00  0.3695E+02
     39.330  0.1001E+01  0.3724E+02
     39.619  0.9930E+00  0.3752E+02
     39.907  0.7047E+00  0.3773E+02
     40.196  0.6370E+00  0.3791E+02
     40.484  0.5256E+00  0.3806E+02
     40.773  0.9108E+00  0.3832E+02
     41.061  0.1164E+01  0.3866E+02
     41.349  0.8783E+00  0.3891E+02
     41.638  0.7554E+00  0.3913E+02
     41.926  0.7745E+00  0.3936E+02
     42.215  0.6449E+00  0.3954E+02
     42.503  0.5799E+00  0.3971E+02
     42.792  0.8224E+00  0.3995E+02
     43.080  0.8230E+00  0.4018E+02
     43.368  0.7985E+00  0.4041E+02
     43.657  0.1162E+01  0.4075E+02
     43.945  0.5013E+00  0.4089E+02
     44.234  0.5993E+00  0.4107E+02
     44.522  0.7408E+00  0.4128E+02
     44.811  0.7692E+00  0.4150E+02
     45.099  0.1009E+01  0.4179E+02
     45.388  0.6219E+00  0.4197E+02
     45.676  0.8936E+00  0.4223E+02
     45.964  0.7304E+00  0.4244E+02
     46.253  0.6529E+00  0.4263E+02
     46.541  0.7779E+00  0.4285E+02
     46.830  0.9394E+00  0.4312E+02
     47.118  0.1197E+01  0.4347E+02
     47.407  0.5568E+00  0.4363E+02
     47.695  0.6262E+00  0.4381E+02
     47.983  0.5150E+00  0.4396E+02
     48.272  0.6195E+00  0.4414E+02
     48.560  0.7386E+00  0.4435E+02
     48.849  0.5608E+00  0.4451E+02
     49.137  0.1198E+01  0.4486E+02
     49.426  0.1072E+01  0.4517E+02
     49.714  0.1208E+01  0.4552E+02
     50.003  0.1217E+01  0.4587E+02
     50.291  0.7741E+00  0.4609E+02
     50.579  0.6391E+00  0.4627E+02
     50.868  0.1069E+01  0.4658E+02
     51.156  0.1279E+01  0.4695E+02
     51.445  0.7575E+00  0.4717E+02
     51.733  0.1038E+01  0.4747E+02
     52.022  0.9580E+00  0.4775E+02
     52.310  0.1201E+01  0.4809E+02
     52.598  0.8394E+00  0.4833E+02
     52.887  0.1129E+01  0.4866E+02
     53.175  0.7513E+00  0.4888E+02
     53.464  0.4660E+00  0.4901E+02
     53.752  0.6556E+00  0.4920E+02
     54.041  0.9926E+00  0.4949E+02
     54.329  0.6191E+00  0.4966E+02
     54.617  0.4625E+00  0.4980E+02
     54.906  0.9569E+00  0.5007E+02
     55.194  0.6427E+00  0.5026E+02
     55.483  0.1252E+01  0.5062E+02
     55.771  0.1036E+01  0.5092E+02
     56.060  0.8780E+00  0.5117E+02
     56.348  0.1008E+01  0.5146E+02
     56.637  0.1230E+01  0.5182E+02
     56.925  0.9622E+00  0.5210E+02
     57.213  0.1095E+01  0.5241E+02
     57.502  0.6583E+00  0.5260E+02
     57.790  0.7232E+00  0.5281E+02
     58.079  0.1015E+01  0.5310E+02
     58.367  0.1148E+01  0.5343E+02
     58.656  0.1276E+01  0.5380E+02
     58.944  0.1363E+01  0.5419E+02
     59.232  0.9781E+00  0.5448E+02
     59.521  0.1359E+01  0.5487E+02
     59.809  0.1146E+01  0.5520E+02
     60.098  0.1092E+01  0.5551E+02
     60.386  0.1319E+01  0.5590E+02
     60.675  0.1327E+01  0.5628E+02
     60.963  0.8661E+00  0.5653E+02
     61.251  0.1296E+01  0.5690E+02
     61.540  0.1434E+01  0.5732E+02
     61.828  0.1317E+01  0.5770E+02
     62.117  0.1621E+01  0.5816E+02
     62.405  0.1547E+01  0.5861E+02
     62.694  0.1641E+01  0.5908E+02
     62.982  0.1539E+01  0.5953E+02
     63.271  0.1991E+01  0.6010E+02
     63.559  0.1802E+01  0.6062E+02
     63.847  0.2113E+01  0.6123E+02
     64.136  0.2905E+01  0.6207E+02
     64.424  0.1913E+01  0.6262E+02
     64.713  0.2467E+01  0.6333E+02
     65.001  0.3366E+01  0.6430E+02
     65.290  0.2477E+01  0.6502E+02
     65.578  0.2105E+01  0.6562E+02
     65.866  0.1756E+01  0.6613E+02
     66.155  0.1623E+01  0.6660E+02
     66.443  0.1625E+01  0.6707E+02
     66.732  0.1395E+01  0.6747E+02
     67.020  0.1143E+01  0.6780E+02
     67.309  0.1380E+01  0.6820E+02
     67.597  0.1528E+01  0.6864E+02
     67.886  0.1541E+01  0.6908E+02
     68.174  0.1194E+01  0.6943E+02
     68.462  0.9195E+00  0.6969E+02
     68.751  0.1578E+01  0.7015E+02
     69.039  0.9670E+00  0.7043E+02
     69.328  0.9996E+00  0.7071E+02
     69.616  0.1444E+01  0.7113E+02
     69.905  0.1096E+01  0.7145E+02
     70.193  0.9529E+00  0.7172E+02
     70.481  0.1418E+01  0.7213E+02
     70.770  0.1155E+01  0.7246E+02
     71.058  0.1300E+01  0.7284E+02
     71.347  0.1012E+01  0.7313E+02
     71.635  0.1105E+01  0.7345E+02
     71.924  0.1863E+01  0.7399E+02
     72.212  0.1655E+01  0.7446E+02
     72.500  0.1278E+01  0.7483E+02
     72.789  0.9468E+00  0.7511E+02
     73.077  0.7513E+00  0.7532E+02
     73.366  0.1131E+01  0.7565E+02
     73.654  0.1286E+01  0.7602E+02
     73.943  0.1264E+01  0.7638E+02
     74.231  0.1428E+01  0.7680E+02
     74.520  0.1046E+01  0.7710E+02
     74.808  0.9216E+00  0.7736E+02
     75.096  0.7741E+00  0.7759E+02
     75.385  0.1320E+01  0.7797E+02
     75.673  0.1086E+01  0.7828E+02
     75.962  0.1232E+01  0.7864E+02
     76.250  0.1055E+01  0.7894E+02
     76.539  0.7676E+00  0.7916E+02
     76.827  0.9910E+00  0.7945E+02
     77.115  0.8319E+00  0.7969E+02
     77.404  0.3361E+00  0.7978E+02
     77.692  0.6233E+00  0.7996E+02
     77.981  0.7537E-01  0.7999E+02
     78.269  0.5054E-01  0.8000E+02
     78.558 -0.7831E-03  0.8000E+02
     78.846 -0.1322E-03  0.8000E+02
     79.135 -0.3297E-07  0.8000E+02
     79.423 -0.1014E-12  0.8000E+02
     79.711  0.0000E+00  0.8000E+02
     80.000  0.0000E+00  0.8000E+02
     80.288  0.0000E+00  0.8000E+02
     80.577  0.0000E+00  0.8000E+02
     80.865  0.0000E+00  0.8000E+02
     81.154  0.0000E+00  0.8000E+02
     81.442  0.0000E+00  0.8000E+02
     81.730  0.0000E+00  0.8000E+02
     82.019  0.0000E+00  0.8000E+02
