 vasp.6.2.0 18Jan21 (build Mar 17 2021 09:06:54) complex                        
  
 POSCAR found type information on POSCAR Fe
 POSCAR found :  1 types and       2 ions
 LDA part: xc-table for Pade appr. of Perdew
 POSCAR, INCAR and KPOINTS ok, starting setup
 FFT: planning ...
 WAVECAR not read
 WARNING: chargedensity file is incomplete
 entering main loop
       N       E                     dE             d eps       ncg     rms          rms(c)
DAV:   1     0.591441709673E+02    0.59144E+02   -0.23300E+03  9672   0.338E+02
DAV:   2    -0.140665450471E+02   -0.73211E+02   -0.62608E+02  7928   0.981E+01
DAV:   3    -0.178025390754E+02   -0.37360E+01   -0.35883E+01  9528   0.230E+01
DAV:   4    -0.178131824108E+02   -0.10643E-01   -0.10640E-01  8520   0.127E+00
DAV:   5    -0.178131877618E+02   -0.53510E-05   -0.53516E-05  9344   0.274E-02    0.219E+01
DAV:   6    -0.153856504938E+02    0.24275E+01   -0.11208E+00 11256   0.198E+01    0.233E+00
DAV:   7    -0.152775981004E+02    0.10805E+00   -0.36613E-02  9184   0.212E+00    0.196E+00
DAV:   8    -0.152328486312E+02    0.44749E-01   -0.24053E-03 10728   0.292E-01    0.425E-01
DAV:   9    -0.152308504284E+02    0.19982E-02   -0.42098E-04 10032   0.119E-01    0.978E-02
DAV:  10    -0.152307112544E+02    0.13917E-03   -0.11628E-05  9088   0.171E-02    0.219E-02
DAV:  11    -0.152306818399E+02    0.29415E-04   -0.58706E-07  8672   0.443E-03    0.122E-03
DAV:  12    -0.152306817869E+02    0.53023E-07   -0.61699E-08  5896   0.106E-03
   1 F= -.15230682E+02 E0= -.15230617E+02  d E =-.193835E-03
 writing wavefunctions
