unknown system                          
   1.00000000000000     
     3.635000    0.000000    0.000000
     0.000000    3.635000    0.000000
     0.000000    0.000000    3.635000
   Cu
     4
Direct
  0.000000  0.000000  0.000000
  0.500000  0.500000  0.000000
  0.500000  0.000000  0.500000
  0.000000  0.500000  0.500000
 
   32   32   32
  844.88      796.25      665.79      491.73      317.45      175.94      82.880      36.417      20.829      15.126    
  11.461      9.2720      8.0431      7.4212      7.0242      6.6586      6.4854      6.6586      7.0242      7.4212    
  8.0431      9.2720      11.461      15.126      20.829      36.417      82.880      175.94      317.45      491.73    
  665.79      796.25      796.25      750.22      626.73      462.05      297.41      164.24      77.334      34.566    
  20.430      14.930      11.397      9.2987      8.1269      7.5369      7.1632      6.8208      6.6586      6.8208    
  7.1632      7.5369      8.1269      9.2987      11.397      14.930      20.430      34.566      77.334      164.24    
  297.41      462.05      626.73      750.22      665.79      626.73      522.01      382.63      244.06      133.43    
  63.074      30.003      19.393      14.393      11.222      9.3628      8.3261      7.7973      7.4618      7.1632    
  7.0242      7.1632      7.4618      7.7973      8.3261      9.3628      11.222      14.393      19.393      30.003    
  63.074      133.43      244.06      382.63      522.01      626.73      491.73      462.05      382.63      277.51    
  174.40      94.290      45.876      24.952      17.927      13.643      11.000      9.4602      8.5853      8.1101    
  7.7973      7.5369      7.4212      7.5369      7.7973      8.1101      8.5853      9.4602      11.000      13.643    
  17.927      24.952      45.876      94.290      174.40      277.51      382.63      462.05      317.45      297.41    
  244.06      174.40      107.90      58.802      31.672      21.129      16.231      12.855      10.828      9.6540    
  8.9746      8.5853      8.3261      8.1269      8.0431      8.1269      8.3261      8.5853      8.9746      9.6540    
  10.828      12.855      16.231      21.129      31.672      58.802      107.90      174.40      244.06      297.41    
  175.94      164.24      133.43      94.290      58.802      34.869      23.306      18.255      14.598      12.203    
  10.819      10.057      9.6540      9.4602      9.3628      9.2987      9.2720      9.2987      9.3628      9.4602    
  9.6540      10.057      10.819      12.203      14.598      18.255      23.306      34.869      58.802      94.290    
  133.43      164.24      82.880      77.334      63.074      45.876      31.672      23.306      19.012      15.681    
  13.283      11.831      11.095      10.819      10.828      11.000      11.222      11.397      11.461      11.397    
  11.222      11.000      10.828      10.819      11.095      11.831      13.283      15.681      19.012      23.306    
  31.672      45.876      63.074      77.334      36.417      34.566      30.003      24.952      21.129      18.255    
  15.681      13.701      12.447      11.868      11.831      12.203      12.855      13.643      14.393      14.930    
  15.126      14.930      14.393      13.643      12.855      12.203      11.831      11.868      12.447      13.701    
  15.681      18.255      21.129      24.952      30.003      34.566      20.829      20.430      19.393      17.927    
  16.231      14.598      13.283      12.447      12.164      12.447      13.283      14.598      16.231      17.927    
  19.393      20.430      20.829      20.430      19.393      17.927      16.231      14.598      13.283      12.447    
  12.164      12.447      13.283      14.598      16.231      17.927      19.393      20.430      15.126      14.930    
  14.393      13.643      12.855      12.203      11.831      11.868      12.447      13.701      15.681      18.255    
  21.129      24.952      30.003      34.566      36.417      34.566      30.003      24.952      21.129      18.255    
  15.681      13.701      12.447      11.868      11.831      12.203      12.855      13.643      14.393      14.930    
  11.461      11.397      11.222      11.000      10.828      10.819      11.095      11.831      13.283      15.681    
  19.012      23.306      31.672      45.876      63.074      77.334      82.880      77.334      63.074      45.876    
  31.672      23.306      19.012      15.681      13.283      11.831      11.095      10.819      10.828      11.000    
  11.222      11.397      9.2720      9.2987      9.3628      9.4602      9.6540      10.057      10.819      12.203    
  14.598      18.255      23.306      34.869      58.802      94.290      133.43      164.24      175.94      164.24    
  133.43      94.290      58.802      34.869      23.306      18.255      14.598      12.203      10.819      10.057    
  9.6540      9.4602      9.3628      9.2987      8.0431      8.1269      8.3261      8.5853      8.9746      9.6540    
  10.828      12.855      16.231      21.129      31.672      58.802      107.90      174.40      244.06      297.41    
  317.45      297.41      244.06      174.40      107.90      58.802      31.672      21.129      16.231      12.855    
  10.828      9.6540      8.9746      8.5853      8.3261      8.1269      7.4212      7.5369      7.7973      8.1101    
  8.5853      9.4602      11.000      13.643      17.927      24.952      45.876      94.290      174.40      277.51    
  382.63      462.05      491.73      462.05      382.63      277.51      174.40      94.290      45.876      24.952    
  17.927      13.643      11.000      9.4602      8.5853      8.1101      7.7973      7.5369      7.0242      7.1632    
  7.4618      7.7973      8.3261      9.3628      11.222      14.393      19.393      30.003      63.074      133.43    
  244.06      382.63      522.01      626.73      665.79      626.73      522.01      382.63      244.06      133.43    
  63.074      30.003      19.393      14.393      11.222      9.3628      8.3261      7.7973      7.4618      7.1632    
  6.6586      6.8208      7.1632      7.5369      8.1269      9.2987      11.397      14.930      20.430      34.566    
  77.334      164.24      297.41      462.05      626.73      750.22      796.25      750.22      626.73      462.05    
  297.41      164.24      77.334      34.566      20.430      14.930      11.397      9.2987      8.1269      7.5369    
  7.1632      6.8208      6.4854      6.6586      7.0242      7.4212      8.0431      9.2720      11.461      15.126    
  20.829      36.417      82.880      175.94      317.45      491.73      665.79      796.25      844.88      796.25    
  665.79      491.73      317.45      175.94      82.880      36.417      20.829      15.126      11.461      9.2720    
  8.0431      7.4212      7.0242      6.6586      6.6586      6.8208      7.1632      7.5369      8.1269      9.2987    
  11.397      14.930      20.430      34.566      77.334      164.24      297.41      462.05      626.73      750.22    
  796.25      750.22      626.73      462.05      297.41      164.24      77.334      34.566      20.430      14.930    
  11.397      9.2987      8.1269      7.5369      7.1632      6.8208      7.0242      7.1632      7.4618      7.7973    
  8.3261      9.3628      11.222      14.393      19.393      30.003      63.074      133.43      244.06      382.63    
  522.01      626.73      665.79      626.73      522.01      382.63      244.06      133.43      63.074      30.003    
  19.393      14.393      11.222      9.3628      8.3261      7.7973      7.4618      7.1632      7.4212      7.5369    
  7.7973      8.1101      8.5853      9.4602      11.000      13.643      17.927      24.952      45.876      94.290    
  174.40      277.51      382.63      462.05      491.73      462.05      382.63      277.51      174.40      94.290    
  45.876      24.952      17.927      13.643      11.000      9.4602      8.5853      8.1101      7.7973      7.5369    
  8.0431      8.1269      8.3261      8.5853      8.9746      9.6540      10.828      12.855      16.231      21.129    
  31.672      58.802      107.90      174.40      244.06      297.41      317.45      297.41      244.06      174.40    
  107.90      58.802      31.672      21.129      16.231      12.855      10.828      9.6540      8.9746      8.5853    
  8.3261      8.1269      9.2720      9.2987      9.3628      9.4602      9.6540      10.057      10.819      12.203    
  14.598      18.255      23.306      34.869      58.802      94.290      133.43      164.24      175.94      164.24    
  133.43      94.290      58.802      34.869      23.306      18.255      14.598      12.203      10.819      10.057    
  9.6540      9.4602      9.3628      9.2987      11.461      11.397      11.222      11.000      10.828      10.819    
  11.095      11.831      13.283      15.681      19.012      23.306      31.672      45.876      63.074      77.334    
  82.880      77.334      63.074      45.876      31.672      23.306      19.012      15.681      13.283      11.831    
  11.095      10.819      10.828      11.000      11.222      11.397      15.126      14.930      14.393      13.643    
  12.855      12.203      11.831      11.868      12.447      13.701      15.681      18.255      21.129      24.952    
  30.003      34.566      36.417      34.566      30.003      24.952      21.129      18.255      15.681      13.701    
  12.447      11.868      11.831      12.203      12.855      13.643      14.393      14.930      20.829      20.430    
  19.393      17.927      16.231      14.598      13.283      12.447      12.164      12.447      13.283      14.598    
  16.231      17.927      19.393      20.430      20.829      20.430      19.393      17.927      16.231      14.598    
  13.283      12.447      12.164      12.447      13.283      14.598      16.231      17.927      19.393      20.430    
  36.417      34.566      30.003      24.952      21.129      18.255      15.681      13.701      12.447      11.868    
  11.831      12.203      12.855      13.643      14.393      14.930      15.126      14.930      14.393      13.643    
  12.855      12.203      11.831      11.868      12.447      13.701      15.681      18.255      21.129      24.952    
  30.003      34.566      82.880      77.334      63.074      45.876      31.672      23.306      19.012      15.681    
  13.283      11.831      11.095      10.819      10.828      11.000      11.222      11.397      11.461      11.397    
  11.222      11.000      10.828      10.819      11.095      11.831      13.283      15.681      19.012      23.306    
  31.672      45.876      63.074      77.334      175.94      164.24      133.43      94.290      58.802      34.869    
  23.306      18.255      14.598      12.203      10.819      10.057      9.6540      9.4602      9.3628      9.2987    
  9.2720      9.2987      9.3628      9.4602      9.6540      10.057      10.819      12.203      14.598      18.255    
  23.306      34.869      58.802      94.290      133.43      164.24      317.45      297.41      244.06      174.40    
  107.90      58.802      31.672      21.129      16.231      12.855      10.828      9.6540      8.9746      8.5853    
  8.3261      8.1269      8.0431      8.1269      8.3261      8.5853      8.9746      9.6540      10.828      12.855    
  16.231      21.129      31.672      58.802      107.90      174.40      244.06      297.41      491.73      462.05    
  382.63      277.51      174.40      94.290      45.876      24.952      17.927      13.643      11.000      9.4602    
  8.5853      8.1101      7.7973      7.5369      7.4212      7.5369      7.7973      8.1101      8.5853      9.4602    
  11.000      13.643      17.927      24.952      45.876      94.290      174.40      277.51      382.63      462.05    
  665.79      626.73      522.01      382.63      244.06      133.43      63.074      30.003      19.393      14.393    
  11.222      9.3628      8.3261      7.7973      7.4618      7.1632      7.0242      7.1632      7.4618      7.7973    
  8.3261      9.3628      11.222      14.393      19.393      30.003      63.074      133.43      244.06      382.63    
  522.01      626.73      796.25      750.22      626.73      462.05      297.41      164.24      77.334      34.566    
  20.430      14.930      11.397      9.2987      8.1269      7.5369      7.1632      6.8208      6.6586      6.8208    
  7.1632      7.5369      8.1269      9.2987      11.397      14.930      20.430      34.566      77.334      164.24    
  297.41      462.05      626.73      750.22      796.25      750.22      626.73      462.05      297.41      164.24    
  77.334      34.566      20.430      14.930      11.397      9.2987      8.1269      7.5369      7.1632      6.8208    
  6.6586      6.8208      7.1632      7.5369      8.1269      9.2987      11.397      14.930      20.430      34.566    
  77.334      164.24      297.41      462.05      626.73      750.22      750.22      706.66      589.78      434.01    
  278.53      153.27      72.197      32.885      20.057      14.740      11.333      9.3228      8.2053      7.6452    
  7.2934      6.9725      6.8208      6.9725      7.2934      7.6452      8.2053      9.3228      11.333      14.740    
  20.057      32.885      72.197      153.27      278.53      434.01      589.78      706.66      626.73      589.78    
  490.72      358.97      228.29      124.45      59.021      28.755      19.067      14.215      11.162      9.3812    
  8.3925      7.8900      7.5734      7.2934      7.1632      7.2934      7.5734      7.8900      8.3925      9.3812    
  11.162      14.215      19.067      28.755      59.021      124.45      228.29      358.97      490.72      589.78    
  462.05      434.01      358.97      259.81      162.85      87.963      43.215      24.201      17.631      13.487    
  10.946      9.4724      8.6381      8.1860      7.8900      7.6452      7.5369      7.6452      7.8900      8.1860    
  8.6381      9.4724      10.946      13.487      17.631      24.201      43.215      87.963      162.85      259.81    
  358.97      434.01      297.41      278.53      228.29      162.85      100.65      55.100      30.282      20.714    
  15.980      12.724      10.779      9.6566      9.0088      8.6381      8.3925      8.2053      8.1269      8.2053    
  8.3925      8.6381      9.0088      9.6566      10.779      12.724      15.980      20.714      30.282      55.100    
  100.65      162.85      228.29      278.53      164.24      153.27      124.45      87.963      55.100      33.186    
  22.725      17.934      14.397      12.095      10.769      10.041      9.6566      9.4724      9.3812      9.3228    
  9.2987      9.3228      9.3812      9.4724      9.6566      10.041      10.769      12.095      14.397      17.934    
  22.725      33.186      55.100      87.963      124.45      153.27      77.334      72.197      59.021      43.215    
  30.282      22.725      18.665      15.437      13.128      11.736      11.032      10.769      10.779      10.946    
  11.162      11.333      11.397      11.333      11.162      10.946      10.779      10.769      11.032      11.736    
  13.128      15.437      18.665      22.725      30.282      43.215      59.021      72.197      34.566      32.885    
  28.755      24.201      20.714      17.934      15.437      13.528      12.325      11.770      11.736      12.095    
  12.724      13.487      14.215      14.740      14.930      14.740      14.215      13.487      12.724      12.095    
  11.736      11.770      12.325      13.528      15.437      17.934      20.714      24.201      28.755      32.885    
  20.430      20.057      19.067      17.631      15.980      14.397      13.128      12.325      12.052      12.325    
  13.128      14.397      15.980      17.631      19.067      20.057      20.430      20.057      19.067      17.631    
  15.980      14.397      13.128      12.325      12.052      12.325      13.128      14.397      15.980      17.631    
  19.067      20.057      14.930      14.740      14.215      13.487      12.724      12.095      11.736      11.770    
  12.325      13.528      15.437      17.934      20.714      24.201      28.755      32.885      34.566      32.885    
  28.755      24.201      20.714      17.934      15.437      13.528      12.325      11.770      11.736      12.095    
  12.724      13.487      14.215      14.740      11.397      11.333      11.162      10.946      10.779      10.769    
  11.032      11.736      13.128      15.437      18.665      22.725      30.282      43.215      59.021      72.197    
  77.334      72.197      59.021      43.215      30.282      22.725      18.665      15.437      13.128      11.736    
  11.032      10.769      10.779      10.946      11.162      11.333      9.2987      9.3228      9.3812      9.4724    
  9.6566      10.041      10.769      12.095      14.397      17.934      22.725      33.186      55.100      87.963    
  124.45      153.27      164.24      153.27      124.45      87.963      55.100      33.186      22.725      17.934    
  14.397      12.095      10.769      10.041      9.6566      9.4724      9.3812      9.3228      8.1269      8.2053    
  8.3925      8.6381      9.0088      9.6566      10.779      12.724      15.980      20.714      30.282      55.100    
  100.65      162.85      228.29      278.53      297.41      278.53      228.29      162.85      100.65      55.100    
  30.282      20.714      15.980      12.724      10.779      9.6566      9.0088      8.6381      8.3925      8.2053    
  7.5369      7.6452      7.8900      8.1860      8.6381      9.4724      10.946      13.487      17.631      24.201    
  43.215      87.963      162.85      259.81      358.97      434.01      462.05      434.01      358.97      259.81    
  162.85      87.963      43.215      24.201      17.631      13.487      10.946      9.4724      8.6381      8.1860    
  7.8900      7.6452      7.1632      7.2934      7.5734      7.8900      8.3925      9.3812      11.162      14.215    
  19.067      28.755      59.021      124.45      228.29      358.97      490.72      589.78      626.73      589.78    
  490.72      358.97      228.29      124.45      59.021      28.755      19.067      14.215      11.162      9.3812    
  8.3925      7.8900      7.5734      7.2934      6.8208      6.9725      7.2934      7.6452      8.2053      9.3228    
  11.333      14.740      20.057      32.885      72.197      153.27      278.53      434.01      589.78      706.66    
  750.22      706.66      589.78      434.01      278.53      153.27      72.197      32.885      20.057      14.740    
  11.333      9.3228      8.2053      7.6452      7.2934      6.9725      6.6586      6.8208      7.1632      7.5369    
  8.1269      9.2987      11.397      14.930      20.430      34.566      77.334      164.24      297.41      462.05    
  626.73      750.22      796.25      750.22      626.73      462.05      297.41      164.24      77.334      34.566    
  20.430      14.930      11.397      9.2987      8.1269      7.5369      7.1632      6.8208      6.8208      6.9725    
  7.2934      7.6452      8.2053      9.3228      11.333      14.740      20.057      32.885      72.197      153.27    
  278.53      434.01      589.78      706.66      750.22      706.66      589.78      434.01      278.53      153.27    
  72.197      32.885      20.057      14.740      11.333      9.3228      8.2053      7.6452      7.2934      6.9725    
  7.1632      7.2934      7.5734      7.8900      8.3925      9.3812      11.162      14.215      19.067      28.755    
  59.021      124.45      228.29      358.97      490.72      589.78      626.73      589.78      490.72      358.97    
  228.29      124.45      59.021      28.755      19.067      14.215      11.162      9.3812      8.3925      7.8900    
  7.5734      7.2934      7.5369      7.6452      7.8900      8.1860      8.6381      9.4724      10.946      13.487    
  17.631      24.201      43.215      87.963      162.85      259.81      358.97      434.01      462.05      434.01    
  358.97      259.81      162.85      87.963      43.215      24.201      17.631      13.487      10.946      9.4724    
  8.6381      8.1860      7.8900      7.6452      8.1269      8.2053      8.3925      8.6381      9.0088      9.6566    
  10.779      12.724      15.980      20.714      30.282      55.100      100.65      162.85      228.29      278.53    
  297.41      278.53      228.29      162.85      100.65      55.100      30.282      20.714      15.980      12.724    
  10.779      9.6566      9.0088      8.6381      8.3925      8.2053      9.2987      9.3228      9.3812      9.4724    
  9.6566      10.041      10.769      12.095      14.397      17.934      22.725      33.186      55.100      87.963    
  124.45      153.27      164.24      153.27      124.45      87.963      55.100      33.186      22.725      17.934    
  14.397      12.095      10.769      10.041      9.6566      9.4724      9.3812      9.3228      11.397      11.333    
  11.162      10.946      10.779      10.769      11.032      11.736      13.128      15.437      18.665      22.725    
  30.282      43.215      59.021      72.197      77.334      72.197      59.021      43.215      30.282      22.725    
  18.665      15.437      13.128      11.736      11.032      10.769      10.779      10.946      11.162      11.333    
  14.930      14.740      14.215      13.487      12.724      12.095      11.736      11.770      12.325      13.528    
  15.437      17.934      20.714      24.201      28.755      32.885      34.566      32.885      28.755      24.201    
  20.714      17.934      15.437      13.528      12.325      11.770      11.736      12.095      12.724      13.487    
  14.215      14.740      20.430      20.057      19.067      17.631      15.980      14.397      13.128      12.325    
  12.052      12.325      13.128      14.397      15.980      17.631      19.067      20.057      20.430      20.057    
  19.067      17.631      15.980      14.397      13.128      12.325      12.052      12.325      13.128      14.397    
  15.980      17.631      19.067      20.057      34.566      32.885      28.755      24.201      20.714      17.934    
  15.437      13.528      12.325      11.770      11.736      12.095      12.724      13.487      14.215      14.740    
  14.930      14.740      14.215      13.487      12.724      12.095      11.736      11.770      12.325      13.528    
  15.437      17.934      20.714      24.201      28.755      32.885      77.334      72.197      59.021      43.215    
  30.282      22.725      18.665      15.437      13.128      11.736      11.032      10.769      10.779      10.946    
  11.162      11.333      11.397      11.333      11.162      10.946      10.779      10.769      11.032      11.736    
  13.128      15.437      18.665      22.725      30.282      43.215      59.021      72.197      164.24      153.27    
  124.45      87.963      55.100      33.186      22.725      17.934      14.397      12.095      10.769      10.041    
  9.6566      9.4724      9.3812      9.3228      9.2987      9.3228      9.3812      9.4724      9.6566      10.041    
  10.769      12.095      14.397      17.934      22.725      33.186      55.100      87.963      124.45      153.27    
  297.41      278.53      228.29      162.85      100.65      55.100      30.282      20.714      15.980      12.724    
  10.779      9.6566      9.0088      8.6381      8.3925      8.2053      8.1269      8.2053      8.3925      8.6381    
  9.0088      9.6566      10.779      12.724      15.980      20.714      30.282      55.100      100.65      162.85    
  228.29      278.53      462.05      434.01      358.97      259.81      162.85      87.963      43.215      24.201    
  17.631      13.487      10.946      9.4724      8.6381      8.1860      7.8900      7.6452      7.5369      7.6452    
  7.8900      8.1860      8.6381      9.4724      10.946      13.487      17.631      24.201      43.215      87.963    
  162.85      259.81      358.97      434.01      626.73      589.78      490.72      358.97      228.29      124.45    
  59.021      28.755      19.067      14.215      11.162      9.3812      8.3925      7.8900      7.5734      7.2934    
  7.1632      7.2934      7.5734      7.8900      8.3925      9.3812      11.162      14.215      19.067      28.755    
  59.021      124.45      228.29      358.97      490.72      589.78      750.22      706.66      589.78      434.01    
  278.53      153.27      72.197      32.885      20.057      14.740      11.333      9.3228      8.2053      7.6452    
  7.2934      6.9725      6.8208      6.9725      7.2934      7.6452      8.2053      9.3228      11.333      14.740    
  20.057      32.885      72.197      153.27      278.53      434.01      589.78      706.66      665.79      626.73    
  522.01      382.63      244.06      133.43      63.074      30.003      19.393      14.393      11.222      9.3628    
  8.3261      7.7973      7.4618      7.1632      7.0242      7.1632      7.4618      7.7973      8.3261      9.3628    
  11.222      14.393      19.393      30.003      63.074      133.43      244.06      382.63      522.01      626.73    
  626.73      589.78      490.72      358.97      228.29      124.45      59.021      28.755      19.067      14.215    
  11.162      9.3812      8.3925      7.8900      7.5734      7.2934      7.1632      7.2934      7.5734      7.8900    
  8.3925      9.3812      11.162      14.215      19.067      28.755      59.021      124.45      228.29      358.97    
  490.72      589.78      522.01      490.72      406.90      295.82      186.48      100.97      48.705      25.709    
  18.149      13.731      11.003      9.4279      8.5540      8.1031      7.8179      7.5734      7.4618      7.5734    
  7.8179      8.1031      8.5540      9.4279      11.003      13.731      18.149      25.709      48.705      100.97    
  186.48      295.82      406.90      490.72      382.63      358.97      295.82      212.77      132.41      71.591    
  36.545      22.358      16.806      13.063      10.805      9.5065      8.7717      8.3681      8.1031      7.8900    
  7.7973      7.8900      8.1031      8.3681      8.7717      9.5065      10.805      13.063      16.806      22.358    
  36.545      71.591      132.41      212.77      295.82      358.97      244.06      228.29      186.48      132.41    
  81.783      45.691      26.864      19.598      15.283      12.371      10.652      9.6684      9.1005      8.7717    
  8.5540      8.3925      8.3261      8.3925      8.5540      8.7717      9.1005      9.6684      10.652      12.371    
  15.283      19.598      26.864      45.691      81.783      132.41      186.48      228.29      133.43      124.45    
  100.97      71.591      45.691      29.020      21.254      17.032      13.844      11.803      10.638      10.003    
  9.6684      9.5065      9.4279      9.3812      9.3628      9.3812      9.4279      9.5065      9.6684      10.003    
  10.638      11.803      13.844      17.032      21.254      29.020      45.691      71.591      100.97      124.45    
  63.074      59.021      48.705      36.545      26.864      21.254      17.689      14.759      12.704      11.479    
  10.864      10.638      10.652      10.805      11.003      11.162      11.222      11.162      11.003      10.805    
  10.652      10.638      10.864      11.479      12.704      14.759      17.689      21.254      26.864      36.545    
  48.705      59.021      30.003      28.755      25.709      22.358      19.598      17.032      14.759      13.052    
  11.988      11.504      11.479      11.803      12.371      13.063      13.731      14.215      14.393      14.215    
  13.731      13.063      12.371      11.803      11.479      11.504      11.988      13.052      14.759      17.032    
  19.598      22.358      25.709      28.755      19.393      19.067      18.149      16.806      15.283      13.844    
  12.704      11.988      11.747      11.988      12.704      13.844      15.283      16.806      18.149      19.067    
  19.393      19.067      18.149      16.806      15.283      13.844      12.704      11.988      11.747      11.988    
  12.704      13.844      15.283      16.806      18.149      19.067      14.393      14.215      13.731      13.063    
  12.371      11.803      11.479      11.504      11.988      13.052      14.759      17.032      19.598      22.358    
  25.709      28.755      30.003      28.755      25.709      22.358      19.598      17.032      14.759      13.052    
  11.988      11.504      11.479      11.803      12.371      13.063      13.731      14.215      11.222      11.162    
  11.003      10.805      10.652      10.638      10.864      11.479      12.704      14.759      17.689      21.254    
  26.864      36.545      48.705      59.021      63.074      59.021      48.705      36.545      26.864      21.254    
  17.689      14.759      12.704      11.479      10.864      10.638      10.652      10.805      11.003      11.162    
  9.3628      9.3812      9.4279      9.5065      9.6684      10.003      10.638      11.803      13.844      17.032    
  21.254      29.020      45.691      71.591      100.97      124.45      133.43      124.45      100.97      71.591    
  45.691      29.020      21.254      17.032      13.844      11.803      10.638      10.003      9.6684      9.5065    
  9.4279      9.3812      8.3261      8.3925      8.5540      8.7717      9.1005      9.6684      10.652      12.371    
  15.283      19.598      26.864      45.691      81.783      132.41      186.48      228.29      244.06      228.29    