unknown system                          
   1.00000000000000     
     3.635000    0.000000    0.000000
     0.000000    3.635000    0.000000
     0.000000    0.000000    3.635000
   Cu
     4
Direct
  0.000000  0.000000  0.000000
  0.500000  0.500000  0.000000
  0.500000  0.000000  0.500000
  0.000000  0.500000  0.500000
 
   32   32   32
 0.84487589979E+03 0.79625024406E+03 0.66578552395E+03 0.49173136228E+03 0.31745157937E+03
 0.17594412162E+03 0.82880226846E+02 0.36416614417E+02 0.20828655312E+02 0.15125739536E+02
 0.11460926267E+02 0.92719798299E+01 0.80431042457E+01 0.74211874290E+01 0.70241835560E+01
 0.66586345927E+01 0.64854382308E+01 0.66586345927E+01 0.70241835560E+01 0.74211874290E+01
 0.80431042457E+01 0.92719798299E+01 0.11460926267E+02 0.15125739536E+02 0.20828655312E+02
 0.36416614417E+02 0.82880226846E+02 0.17594412162E+03 0.31745157937E+03 0.49173136228E+03
 0.66578552395E+03 0.79625024406E+03 0.79625024406E+03 0.75022302624E+03 0.62673429194E+03
 0.46205478828E+03 0.29741238850E+03 0.16423695817E+03 0.77334393950E+02 0.34565549581E+02
 0.20429677622E+02 0.14930395326E+02 0.11396511659E+02 0.92986989118E+01 0.81268919275E+01
 0.75368745172E+01 0.71632148042E+01 0.68207555562E+01 0.66586345927E+01 0.68207555562E+01
 0.71632148042E+01 0.75368745172E+01 0.81268919275E+01 0.92986989118E+01 0.11396511659E+02
 0.14930395326E+02 0.20429677622E+02 0.34565549581E+02 0.77334393950E+02 0.16423695817E+03
 0.29741238850E+03 0.46205478828E+03 0.62673429194E+03 0.75022302624E+03 0.66578552395E+03
 0.62673429194E+03 0.52200931695E+03 0.38262570758E+03 0.24406388704E+03 0.13343188172E+03
 0.63074461596E+02 0.30002996402E+02 0.19392925948E+02 0.14392573302E+02 0.11222375758E+02
 0.93628027389E+01 0.83261345969E+01 0.77973042230E+01 0.74617662285E+01 0.71632148042E+01
 0.70241835560E+01 0.71632148042E+01 0.74617662285E+01 0.77973042230E+01 0.83261345969E+01
 0.93628027389E+01 0.11222375758E+02 0.14392573302E+02 0.19392925948E+02 0.30002996402E+02
 0.63074461596E+02 0.13343188172E+03 0.24406388704E+03 0.38262570758E+03 0.52200931695E+03
 0.62673429194E+03 0.49173136228E+03 0.46205478828E+03 0.38262570758E+03 0.27751321767E+03
 0.17440363393E+03 0.94289834901E+02 0.45875761876E+02 0.24952401922E+02 0.17926565502E+02
 0.13642643584E+02 0.10999875380E+02 0.94602492649E+01 0.85853452153E+01 0.81101319369E+01
 0.77973042230E+01 0.75368745172E+01 0.74211874290E+01 0.75368745172E+01 0.77973042230E+01
 0.81101319369E+01 0.85853452153E+01 0.94602492649E+01 0.10999875380E+02 0.13642643584E+02
 0.17926565502E+02 0.24952401922E+02 0.45875761876E+02 0.94289834901E+02 0.17440363393E+03
 0.27751321767E+03 0.38262570758E+03 0.46205478828E+03 0.31745157937E+03 0.29741238850E+03
 0.24406388704E+03 0.17440363393E+03 0.10790394628E+03 0.58801890169E+02 0.31671593343E+02
 0.21128909341E+02 0.16231332484E+02 0.12855019818E+02 0.10827817881E+02 0.96540117594E+01
 0.89745822096E+01 0.85853452153E+01 0.83261345969E+01 0.81268919275E+01 0.80431042457E+01
 0.81268919275E+01 0.83261345969E+01 0.85853452153E+01 0.89745822096E+01 0.96540117594E+01
 0.10827817881E+02 0.12855019818E+02 0.16231332484E+02 0.21128909341E+02 0.31671593343E+02
 0.58801890169E+02 0.10790394628E+03 0.17440363393E+03 0.24406388704E+03 0.29741238850E+03
 0.17594412162E+03 0.16423695817E+03 0.13343188172E+03 0.94289834901E+02 0.58801890169E+02
 0.34869456589E+02 0.23306265609E+02 0.18255294375E+02 0.14598275378E+02 0.12202774321E+02
 0.10818815835E+02 0.10056792313E+02 0.96540117594E+01 0.94602492649E+01 0.93628027389E+01
 0.92986989118E+01 0.92719798299E+01 0.92986989118E+01 0.93628027389E+01 0.94602492649E+01
 0.96540117594E+01 0.10056792313E+02 0.10818815835E+02 0.12202774321E+02 0.14598275378E+02
 0.18255294375E+02 0.23306265609E+02 0.34869456589E+02 0.58801890169E+02 0.94289834901E+02
 0.13343188172E+03 0.16423695817E+03 0.82880226846E+02 0.77334393950E+02 0.63074461596E+02
 0.45875761876E+02 0.31671593343E+02 0.23306265609E+02 0.19011631572E+02 0.15680800365E+02
 0.13282650420E+02 0.11831413961E+02 0.11094972278E+02 0.10818815835E+02 0.10827817881E+02
 0.10999875380E+02 0.11222375758E+02 0.11396511659E+02 0.11460926267E+02 0.11396511659E+02
 0.11222375758E+02 0.10999875380E+02 0.10827817881E+02 0.10818815835E+02 0.11094972278E+02
 0.11831413961E+02 0.13282650420E+02 0.15680800365E+02 0.19011631572E+02 0.23306265609E+02
 0.31671593343E+02 0.45875761876E+02 0.63074461596E+02 0.77334393950E+02 0.36416614417E+02
 0.34565549581E+02 0.30002996402E+02 0.24952401922E+02 0.21128909341E+02 0.18255294375E+02
 0.15680800365E+02 0.13701021147E+02 0.12447490797E+02 0.11868197279E+02 0.11831413961E+02
 0.12202774321E+02 0.12855019818E+02 0.13642643584E+02 0.14392573302E+02 0.14930395326E+02
 0.15125739536E+02 0.14930395326E+02 0.14392573302E+02 0.13642643584E+02 0.12855019818E+02
 0.12202774321E+02 0.11831413961E+02 0.11868197279E+02 0.12447490797E+02 0.13701021147E+02
 0.15680800365E+02 0.18255294375E+02 0.21128909341E+02 0.24952401922E+02 0.30002996402E+02
 0.34565549581E+02 0.20828655312E+02 0.20429677622E+02 0.19392925948E+02 0.17926565502E+02
 0.16231332484E+02 0.14598275378E+02 0.13282650420E+02 0.12447490797E+02 0.12163674509E+02
 0.12447490797E+02 0.13282650420E+02 0.14598275378E+02 0.16231332484E+02 0.17926565502E+02
 0.19392925948E+02 0.20429677622E+02 0.20828655312E+02 0.20429677622E+02 0.19392925948E+02
 0.17926565502E+02 0.16231332484E+02 0.14598275378E+02 0.13282650420E+02 0.12447490797E+02
 0.12163674509E+02 0.12447490797E+02 0.13282650420E+02 0.14598275378E+02 0.16231332484E+02
 0.17926565502E+02 0.19392925948E+02 0.20429677622E+02 0.15125739536E+02 0.14930395326E+02
 0.14392573302E+02 0.13642643584E+02 0.12855019818E+02 0.12202774321E+02 0.11831413961E+02
 0.11868197279E+02 0.12447490797E+02 0.13701021147E+02 0.15680800365E+02 0.18255294375E+02
 0.21128909341E+02 0.24952401922E+02 0.30002996402E+02 0.34565549581E+02 0.36416614417E+02
 0.34565549581E+02 0.30002996402E+02 0.24952401922E+02 0.21128909341E+02 0.18255294375E+02
 0.15680800365E+02 0.13701021147E+02 0.12447490797E+02 0.11868197279E+02 0.11831413961E+02
 0.12202774321E+02 0.12855019818E+02 0.13642643584E+02 0.14392573302E+02 0.14930395326E+02
 0.11460926267E+02 0.11396511659E+02 0.11222375758E+02 0.10999875380E+02 0.10827817881E+02
 0.10818815835E+02 0.11094972278E+02 0.11831413961E+02 0.13282650420E+02 0.15680800365E+02
 0.19011631572E+02 0.23306265609E+02 0.31671593343E+02 0.45875761876E+02 0.63074461596E+02
 0.77334393950E+02 0.82880226846E+02 0.77334393950E+02 0.63074461596E+02 0.45875761876E+02
 0.31671593343E+02 0.23306265609E+02 0.19011631572E+02 0.15680800365E+02 0.13282650420E+02
 0.11831413961E+02 0.11094972278E+02 0.10818815835E+02 0.10827817881E+02 0.10999875380E+02
 0.11222375758E+02 0.11396511659E+02 0.92719798299E+01 0.92986989118E+01 0.93628027389E+01
 0.94602492649E+01 0.96540117594E+01 0.10056792313E+02 0.10818815835E+02 0.12202774321E+02
 0.14598275378E+02 0.18255294375E+02 0.23306265609E+02 0.34869456589E+02 0.58801890169E+02
 0.94289834901E+02 0.13343188172E+03 0.16423695817E+03 0.17594412162E+03 0.16423695817E+03
 0.13343188172E+03 0.94289834901E+02 0.58801890169E+02 0.34869456589E+02 0.23306265609E+02
 0.18255294375E+02 0.14598275378E+02 0.12202774321E+02 0.10818815835E+02 0.10056792313E+02
 0.96540117594E+01 0.94602492649E+01 0.93628027389E+01 0.92986989118E+01 0.80431042457E+01
 0.81268919275E+01 0.83261345969E+01 0.85853452153E+01 0.89745822096E+01 0.96540117594E+01
 0.10827817881E+02 0.12855019818E+02 0.16231332484E+02 0.21128909341E+02 0.31671593343E+02
 0.58801890169E+02 0.10790394628E+03 0.17440363393E+03 0.24406388704E+03 0.29741238850E+03
 0.31745157937E+03 0.29741238850E+03 0.24406388704E+03 0.17440363393E+03 0.10790394628E+03
 0.58801890169E+02 0.31671593343E+02 0.21128909341E+02 0.16231332484E+02 0.12855019818E+02
 0.10827817881E+02 0.96540117594E+01 0.89745822096E+01 0.85853452153E+01 0.83261345969E+01
 0.81268919275E+01 0.74211874290E+01 0.75368745172E+01 0.77973042230E+01 0.81101319369E+01
 0.85853452153E+01 0.94602492649E+01 0.10999875380E+02 0.13642643584E+02 0.17926565502E+02
 0.24952401922E+02 0.45875761876E+02 0.94289834901E+02 0.17440363393E+03 0.27751321767E+03
 0.38262570758E+03 0.46205478828E+03 0.49173136228E+03 0.46205478828E+03 0.38262570758E+03
 0.27751321767E+03 0.17440363393E+03 0.94289834901E+02 0.45875761876E+02 0.24952401922E+02
 0.17926565502E+02 0.13642643584E+02 0.10999875380E+02 0.94602492649E+01 0.85853452153E+01
 0.81101319369E+01 0.77973042230E+01 0.75368745172E+01 0.70241835560E+01 0.71632148042E+01
 0.74617662285E+01 0.77973042230E+01 0.83261345969E+01 0.93628027389E+01 0.11222375758E+02
 0.14392573302E+02 0.19392925948E+02 0.30002996402E+02 0.63074461596E+02 0.13343188172E+03
 0.24406388704E+03 0.38262570758E+03 0.52200931695E+03 0.62673429194E+03 0.66578552395E+03
 0.62673429194E+03 0.52200931695E+03 0.38262570758E+03 0.24406388704E+03 0.13343188172E+03
 0.63074461596E+02 0.30002996402E+02 0.19392925948E+02 0.14392573302E+02 0.11222375758E+02
 0.93628027389E+01 0.83261345969E+01 0.77973042230E+01 0.74617662285E+01 0.71632148042E+01
 0.66586345927E+01 0.68207555562E+01 0.71632148042E+01 0.75368745172E+01 0.81268919275E+01
 0.92986989118E+01 0.11396511659E+02 0.14930395326E+02 0.20429677622E+02 0.34565549581E+02
 0.77334393950E+02 0.16423695817E+03 0.29741238850E+03 0.46205478828E+03 0.62673429194E+03
 0.75022302624E+03 0.79625024406E+03 0.75022302624E+03 0.62673429194E+03 0.46205478828E+03
 0.29741238850E+03 0.16423695817E+03 0.77334393950E+02 0.34565549581E+02 0.20429677622E+02
 0.14930395326E+02 0.11396511659E+02 0.92986989118E+01 0.81268919275E+01 0.75368745172E+01
 0.71632148042E+01 0.68207555562E+01 0.64854382308E+01 0.66586345927E+01 0.70241835560E+01
 0.74211874290E+01 0.80431042457E+01 0.92719798299E+01 0.11460926267E+02 0.15125739536E+02
 0.20828655312E+02 0.36416614417E+02 0.82880226846E+02 0.17594412162E+03 0.31745157937E+03
 0.49173136228E+03 0.66578552395E+03 0.79625024406E+03 0.84487589979E+03 0.79625024406E+03
 0.66578552395E+03 0.49173136228E+03 0.31745157937E+03 0.17594412162E+03 0.82880226846E+02
 0.36416614417E+02 0.20828655312E+02 0.15125739536E+02 0.11460926267E+02 0.92719798299E+01
 0.80431042457E+01 0.74211874290E+01 0.70241835560E+01 0.66586345927E+01 0.66586345927E+01
 0.68207555562E+01 0.71632148042E+01 0.75368745172E+01 0.81268919275E+01 0.92986989118E+01
 0.11396511659E+02 0.14930395326E+02 0.20429677622E+02 0.34565549581E+02 0.77334393950E+02
 0.16423695817E+03 0.29741238850E+03 0.46205478828E+03 0.62673429194E+03 0.75022302624E+03
 0.79625024406E+03 0.75022302624E+03 0.62673429194E+03 0.46205478828E+03 0.29741238850E+03
 0.16423695817E+03 0.77334393950E+02 0.34565549581E+02 0.20429677622E+02 0.14930395326E+02
 0.11396511659E+02 0.92986989118E+01 0.81268919275E+01 0.75368745172E+01 0.71632148042E+01
 0.68207555562E+01 0.70241835560E+01 0.71632148042E+01 0.74617662285E+01 0.77973042230E+01
 0.83261345969E+01 0.93628027389E+01 0.11222375758E+02 0.14392573302E+02 0.19392925948E+02
 0.30002996402E+02 0.63074461596E+02 0.13343188172E+03 0.24406388704E+03 0.38262570758E+03
 0.52200931695E+03 0.62673429194E+03 0.66578552395E+03 0.62673429194E+03 0.52200931695E+03
 0.38262570758E+03 0.24406388704E+03 0.13343188172E+03 0.63074461596E+02 0.30002996402E+02
 0.19392925948E+02 0.14392573302E+02 0.11222375758E+02 0.93628027389E+01 0.83261345969E+01
 0.77973042230E+01 0.74617662285E+01 0.71632148042E+01 0.74211874290E+01 0.75368745172E+01
 0.77973042230E+01 0.81101319369E+01 0.85853452153E+01 0.94602492649E+01 0.10999875380E+02
 0.13642643584E+02 0.17926565502E+02 0.24952401922E+02 0.45875761876E+02 0.94289834901E+02
 0.17440363393E+03 0.27751321767E+03 0.38262570758E+03 0.46205478828E+03 0.49173136228E+03
 0.46205478828E+03 0.38262570758E+03 0.27751321767E+03 0.17440363393E+03 0.94289834901E+02
 0.45875761876E+02 0.24952401922E+02 0.17926565502E+02 0.13642643584E+02 0.10999875380E+02
 0.94602492649E+01 0.85853452153E+01 0.81101319369E+01 0.77973042230E+01 0.75368745172E+01
 0.80431042457E+01 0.81268919275E+01 0.83261345969E+01 0.85853452153E+01 0.89745822096E+01
 0.96540117594E+01 0.10827817881E+02 0.12855019818E+02 0.16231332484E+02 0.21128909341E+02
 0.31671593343E+02 0.58801890169E+02 0.10790394628E+03 0.17440363393E+03 0.24406388704E+03
 0.29741238850E+03 0.31745157937E+03 0.29741238850E+03 0.24406388704E+03 0.17440363393E+03
 0.10790394628E+03 0.58801890169E+02 0.31671593343E+02 0.21128909341E+02 0.16231332484E+02
 0.12855019818E+02 0.10827817881E+02 0.96540117594E+01 0.89745822096E+01 0.85853452153E+01
 0.83261345969E+01 0.81268919275E+01 0.92719798299E+01 0.92986989118E+01 0.93628027389E+01
 0.94602492649E+01 0.96540117594E+01 0.10056792313E+02 0.10818815835E+02 0.12202774321E+02
 0.14598275378E+02 0.18255294375E+02 0.23306265609E+02 0.34869456589E+02 0.58801890169E+02
 0.94289834901E+02 0.13343188172E+03 0.16423695817E+03 0.17594412162E+03 0.16423695817E+03
 0.13343188172E+03 0.94289834901E+02 0.58801890169E+02 0.34869456589E+02 0.23306265609E+02
 0.18255294375E+02 0.14598275378E+02 0.12202774321E+02 0.10818815835E+02 0.10056792313E+02
 0.96540117594E+01 0.94602492649E+01 0.93628027389E+01 0.92986989118E+01 0.11460926267E+02
 0.11396511659E+02 0.11222375758E+02 0.10999875380E+02 0.10827817881E+02 0.10818815835E+02
 0.11094972278E+02 0.11831413961E+02 0.13282650420E+02 0.15680800365E+02 0.19011631572E+02
 0.23306265609E+02 0.31671593343E+02 0.45875761876E+02 0.63074461596E+02 0.77334393950E+02
 0.82880226846E+02 0.77334393950E+02 0.63074461596E+02 0.45875761876E+02 0.31671593343E+02
 0.23306265609E+02 0.19011631572E+02 0.15680800365E+02 0.13282650420E+02 0.11831413961E+02
 0.11094972278E+02 0.10818815835E+02 0.10827817881E+02 0.10999875380E+02 0.11222375758E+02
 0.11396511659E+02 0.15125739536E+02 0.14930395326E+02 0.14392573302E+02 0.13642643584E+02
 0.12855019818E+02 0.12202774321E+02 0.11831413961E+02 0.11868197279E+02 0.12447490797E+02
 0.13701021147E+02 0.15680800365E+02 0.18255294375E+02 0.21128909341E+02 0.24952401922E+02
 0.30002996402E+02 0.34565549581E+02 0.36416614417E+02 0.34565549581E+02 0.30002996402E+02
 0.24952401922E+02 0.21128909341E+02 0.18255294375E+02 0.15680800365E+02 0.13701021147E+02
 0.12447490797E+02 0.11868197279E+02 0.11831413961E+02 0.12202774321E+02 0.12855019818E+02
 0.13642643584E+02 0.14392573302E+02 0.14930395326E+02 0.20828655312E+02 0.20429677622E+02
 0.19392925948E+02 0.17926565502E+02 0.16231332484E+02 0.14598275378E+02 0.13282650420E+02
 0.12447490797E+02 0.12163674509E+02 0.12447490797E+02 0.13282650420E+02 0.14598275378E+02
 0.16231332484E+02 0.17926565502E+02 0.19392925948E+02 0.20429677622E+02 0.20828655312E+02
 0.20429677622E+02 0.19392925948E+02 0.17926565502E+02 0.16231332484E+02 0.14598275378E+02
 0.13282650420E+02 0.12447490797E+02 0.12163674509E+02 0.12447490797E+02 0.13282650420E+02
 0.14598275378E+02 0.16231332484E+02 0.17926565502E+02 0.19392925948E+02 0.20429677622E+02
 0.36416614417E+02 0.34565549581E+02 0.30002996402E+02 0.24952401922E+02 0.21128909341E+02
 0.18255294375E+02 0.15680800365E+02 0.13701021147E+02 0.12447490797E+02 0.11868197279E+02
 0.11831413961E+02 0.12202774321E+02 0.12855019818E+02 0.13642643584E+02 0.14392573302E+02
 0.14930395326E+02 0.15125739536E+02 0.14930395326E+02 0.14392573302E+02 0.13642643584E+02
 0.12855019818E+02 0.12202774321E+02 0.11831413961E+02 0.11868197279E+02 0.12447490797E+02
 0.13701021147E+02 0.15680800365E+02 0.18255294375E+02 0.21128909341E+02 0.24952401922E+02
 0.30002996402E+02 0.34565549581E+02 0.82880226846E+02 0.77334393950E+02 0.63074461596E+02
 0.45875761876E+02 0.31671593343E+02 0.23306265609E+02 0.19011631572E+02 0.15680800365E+02
 0.13282650420E+02 0.11831413961E+02 0.11094972278E+02 0.10818815835E+02 0.10827817881E+02
 0.10999875380E+02 0.11222375758E+02 0.11396511659E+02 0.11460926267E+02 0.11396511659E+02
 0.11222375758E+02 0.10999875380E+02 0.10827817881E+02 0.10818815835E+02 0.11094972278E+02
 0.11831413961E+02 0.13282650420E+02 0.15680800365E+02 0.19011631572E+02 0.23306265609E+02
 0.31671593343E+02 0.45875761876E+02 0.63074461596E+02 0.77334393950E+02 0.17594412162E+03
 0.16423695817E+03 0.13343188172E+03 0.94289834901E+02 0.58801890169E+02 0.34869456589E+02
 0.23306265609E+02 0.18255294375E+02 0.14598275378E+02 0.12202774321E+02 0.10818815835E+02
 0.10056792313E+02 0.96540117594E+01 0.94602492649E+01 0.93628027389E+01 0.92986989118E+01
 0.92719798299E+01 0.92986989118E+01 0.93628027389E+01 0.94602492649E+01 0.96540117594E+01
 0.10056792313E+02 0.10818815835E+02 0.12202774321E+02 0.14598275378E+02 0.18255294375E+02
 0.23306265609E+02 0.34869456589E+02 0.58801890169E+02 0.94289834901E+02 0.13343188172E+03
 0.16423695817E+03 0.31745157937E+03 0.29741238850E+03 0.24406388704E+03 0.17440363393E+03
 0.10790394628E+03 0.58801890169E+02 0.31671593343E+02 0.21128909341E+02 0.16231332484E+02
 0.12855019818E+02 0.10827817881E+02 0.96540117594E+01 0.89745822096E+01 0.85853452153E+01
 0.83261345969E+01 0.81268919275E+01 0.80431042457E+01 0.81268919275E+01 0.83261345969E+01
 0.85853452153E+01 0.89745822096E+01 0.96540117594E+01 0.10827817881E+02 0.12855019818E+02
 0.16231332484E+02 0.21128909341E+02 0.31671593343E+02 0.58801890169E+02 0.10790394628E+03
 0.17440363393E+03 0.24406388704E+03 0.29741238850E+03 0.49173136228E+03 0.46205478828E+03
 0.38262570758E+03 0.27751321767E+03 0.17440363393E+03 0.94289834901E+02 0.45875761876E+02
 0.24952401922E+02 0.17926565502E+02 0.13642643584E+02 0.10999875380E+02 0.94602492649E+01
 0.85853452153E+01 0.81101319369E+01 0.77973042230E+01 0.75368745172E+01 0.74211874290E+01
 0.75368745172E+01 0.77973042230E+01 0.81101319369E+01 0.85853452153E+01 0.94602492649E+01
 0.10999875380E+02 0.13642643584E+02 0.17926565502E+02 0.24952401922E+02 0.45875761876E+02
 0.94289834901E+02 0.17440363393E+03 0.27751321767E+03 0.38262570758E+03 0.46205478828E+03
 0.66578552395E+03 0.62673429194E+03 0.52200931695E+03 0.38262570758E+03 0.24406388704E+03
 0.13343188172E+03 0.63074461596E+02 0.30002996402E+02 0.19392925948E+02 0.14392573302E+02
 0.11222375758E+02 0.93628027389E+01 0.83261345969E+01 0.77973042230E+01 0.74617662285E+01
 0.71632148042E+01 0.70241835560E+01 0.71632148042E+01 0.74617662285E+01 0.77973042230E+01
 0.83261345969E+01 0.93628027389E+01 0.11222375758E+02 0.14392573302E+02 0.19392925948E+02
 0.30002996402E+02 0.63074461596E+02 0.13343188172E+03 0.24406388704E+03 0.38262570758E+03
 0.52200931695E+03 0.62673429194E+03 0.79625024406E+03 0.75022302624E+03 0.62673429194E+03
 0.46205478828E+03 0.29741238850E+03 0.16423695817E+03 0.77334393950E+02 0.34565549581E+02
 0.20429677622E+02 0.14930395326E+02 0.11396511659E+02 0.92986989118E+01 0.81268919275E+01
 0.75368745172E+01 0.71632148042E+01 0.68207555562E+01 0.66586345927E+01 0.68207555562E+01
 0.71632148042E+01 0.75368745172E+01 0.81268919275E+01 0.92986989118E+01 0.11396511659E+02
 0.14930395326E+02 0.20429677622E+02 0.34565549581E+02 0.77334393950E+02 0.16423695817E+03
 0.29741238850E+03 0.46205478828E+03 0.62673429194E+03 0.75022302624E+03 0.79625024406E+03
 0.75022302624E+03 0.62673429194E+03 0.46205478828E+03 0.29741238850E+03 0.16423695817E+03
 0.77334393950E+02 0.34565549581E+02 0.20429677622E+02 0.14930395326E+02 0.11396511659E+02
 0.92986989118E+01 0.81268919275E+01 0.75368745172E+01 0.71632148042E+01 0.68207555562E+01
 0.66586345927E+01 0.68207555562E+01 0.71632148042E+01 0.75368745172E+01 0.81268919275E+01
 0.92986989118E+01 0.11396511659E+02 0.14930395326E+02 0.20429677622E+02 0.34565549581E+02
 0.77334393950E+02 0.16423695817E+03 0.29741238850E+03 0.46205478828E+03 0.62673429194E+03
 0.75022302624E+03 0.75022302624E+03 0.70665747701E+03 0.58978335042E+03 0.43400569583E+03
 0.27852576811E+03 0.15326846642E+03 0.72197226295E+02 0.32884949576E+02 0.20057369629E+02
 0.14739613155E+02 0.11333078181E+02 0.93227723704E+01 0.82052555048E+01 0.76452482081E+01
 0.72933590840E+01 0.69724915072E+01 0.68207555562E+01 0.69724915072E+01 0.72933590840E+01
 0.76452482081E+01 0.82052555048E+01 0.93227723704E+01 0.11333078181E+02 0.14739613155E+02
 0.20057369629E+02 0.32884949576E+02 0.72197226295E+02 0.15326846642E+03 0.27852576811E+03
 0.43400569583E+03 0.58978335042E+03 0.70665747701E+03 0.62673429194E+03 0.58978335042E+03
 0.49071500413E+03 0.35897140056E+03 0.22829203502E+03 0.12445089453E+03 0.59020525996E+02
 0.28754897585E+02 0.19066920057E+02 0.14215387638E+02 0.11162461324E+02 0.93811908439E+01
 0.83924614088E+01 0.78899746890E+01 0.75733550136E+01 0.72933590840E+01 0.71632148042E+01
 0.72933590840E+01 0.75733550136E+01 0.78899746890E+01 0.83924614088E+01 0.93811908439E+01
 0.11162461324E+02 0.14215387638E+02 0.19066920057E+02 0.28754897585E+02 0.59020525996E+02
 0.12445089453E+03 0.22829203502E+03 0.35897140056E+03 0.49071500413E+03 0.58978335042E+03
 0.46205478828E+03 0.43400569583E+03 0.35897140056E+03 0.25981426481E+03 0.16284635072E+03
 0.87963104326E+02 0.43215238051E+02 0.24200688543E+02 0.17631423511E+02 0.13486789975E+02
 0.10945859378E+02 0.94723762714E+01 0.86380923202E+01 0.81860049596E+01 0.78899746890E+01
 0.76452482081E+01 0.75368745172E+01 0.76452482081E+01 0.78899746890E+01 0.81860049596E+01
 0.86380923202E+01 0.94723762714E+01 0.10945859378E+02 0.13486789975E+02 0.17631423511E+02
 0.24200688543E+02 0.43215238051E+02 0.87963104326E+02 0.16284635072E+03 0.25981426481E+03
 0.35897140056E+03 0.43400569583E+03 0.29741238850E+03 0.27852576811E+03 0.22829203502E+03
 0.16284635072E+03 0.10064844156E+03 0.55099642437E+02 0.30281759955E+02 0.20713888790E+02
 0.15979984644E+02 0.12724240418E+02 0.10778817680E+02 0.96565775122E+01 0.90087586847E+01
 0.86380923202E+01 0.83924614088E+01 0.82052555048E+01 0.81268919275E+01 0.82052555048E+01
 0.83924614088E+01 0.86380923202E+01 0.90087586847E+01 0.96565775122E+01 0.10778817680E+02
 0.12724240418E+02 0.15979984644E+02 0.20713888790E+02 0.30281759955E+02 0.55099642437E+02
 0.10064844156E+03 0.16284635072E+03 0.22829203502E+03 0.27852576811E+03 0.16423695817E+03
 0.15326846642E+03 0.12445089453E+03 0.87963104326E+02 0.55099642437E+02 0.33185607372E+02
 0.22724530938E+02 0.17933671407E+02 0.14397319494E+02 0.12094504087E+02 0.10768610240E+02
 0.10040561229E+02 0.96565775122E+01 0.94723762714E+01 0.93811908439E+01 0.93227723704E+01
 0.92986989118E+01 0.93227723704E+01 0.93811908439E+01 0.94723762714E+01 0.96565775122E+01
 0.10040561229E+02 0.10768610240E+02 0.12094504087E+02 0.14397319494E+02 0.17933671407E+02
 0.22724530938E+02 0.33185607372E+02 0.55099642437E+02 0.87963104326E+02 0.12445089453E+03
 0.15326846642E+03 0.77334393950E+02 0.72197226295E+02 0.59020525996E+02 0.43215238051E+02
 0.30281759955E+02 0.22724530938E+02 0.18664933117E+02 0.15436583368E+02 0.13127857390E+02
 0.11736219156E+02 0.11031733280E+02 0.10768610240E+02 0.10778817680E+02 0.10945859378E+02
 0.11162461324E+02 0.11333078181E+02 0.11396511659E+02 0.11333078181E+02 0.11162461324E+02
 0.10945859378E+02 0.10778817680E+02 0.10768610240E+02 0.11031733280E+02 0.11736219156E+02
 0.13127857390E+02 0.15436583368E+02 0.18664933117E+02 0.22724530938E+02 0.30281759955E+02
 0.43215238051E+02 0.59020525996E+02 0.72197226295E+02 0.34565549581E+02 0.32884949576E+02
 0.28754897585E+02 0.24200688543E+02 0.20713888790E+02 0.17933671407E+02 0.15436583368E+02
 0.13527953925E+02 0.12324555506E+02 0.11770118411E+02 0.11736219156E+02 0.12094504087E+02
 0.12724240418E+02 0.13486789975E+02 0.14215387638E+02 0.14739613155E+02 0.14930395326E+02
 0.14739613155E+02 0.14215387638E+02 0.13486789975E+02 0.12724240418E+02 0.12094504087E+02
 0.11736219156E+02 0.11770118411E+02 0.12324555506E+02 0.13527953925E+02 0.15436583368E+02
 0.17933671407E+02 0.20713888790E+02 0.24200688543E+02 0.28754897585E+02 0.32884949576E+02
 0.20429677622E+02 0.20057369629E+02 0.19066920057E+02 0.17631423511E+02 0.15979984644E+02
 0.14397319494E+02 0.13127857390E+02 0.12324555506E+02 0.12052023663E+02 0.12324555506E+02
 0.13127857390E+02 0.14397319494E+02 0.15979984644E+02 0.17631423511E+02 0.19066920057E+02
 0.20057369629E+02 0.20429677622E+02 0.20057369629E+02 0.19066920057E+02 0.17631423511E+02
 0.15979984644E+02 0.14397319494E+02 0.13127857390E+02 0.12324555506E+02 0.12052023663E+02
 0.12324555506E+02 0.13127857390E+02 0.14397319494E+02 0.15979984644E+02 0.17631423511E+02
 0.19066920057E+02 0.20057369629E+02 0.14930395326E+02 0.14739613155E+02 0.14215387638E+02
 0.13486789975E+02 0.12724240418E+02 0.12094504087E+02 0.11736219156E+02 0.11770118411E+02
 0.12324555506E+02 0.13527953925E+02 0.15436583368E+02 0.17933671407E+02 0.20713888790E+02
 0.24200688543E+02 0.28754897585E+02 0.32884949576E+02 0.34565549581E+02 0.32884949576E+02
 0.28754897585E+02 0.24200688543E+02 0.20713888790E+02 0.17933671407E+02 0.15436583368E+02
 0.13527953925E+02 0.12324555506E+02 0.11770118411E+02 0.11736219156E+02 0.12094504087E+02
 0.12724240418E+02 0.13486789975E+02 0.14215387638E+02 0.14739613155E+02 0.11396511659E+02
 0.11333078181E+02 0.11162461324E+02 0.10945859378E+02 0.10778817680E+02 0.10768610240E+02
 0.11031733280E+02 0.11736219156E+02 0.13127857390E+02 0.15436583368E+02 0.18664933117E+02
 0.22724530938E+02 0.30281759955E+02 0.43215238051E+02 0.59020525996E+02 0.72197226295E+02
 0.77334393950E+02 0.72197226295E+02 0.59020525996E+02 0.43215238051E+02 0.30281759955E+02
 0.22724530938E+02 0.18664933117E+02 0.15436583368E+02 0.13127857390E+02 0.11736219156E+02
 0.11031733280E+02 0.10768610240E+02 0.10778817680E+02 0.10945859378E+02 0.11162461324E+02
 0.11333078181E+02 0.92986989118E+01 0.93227723704E+01 0.93811908439E+01 0.94723762714E+01
 0.96565775122E+01 0.10040561229E+02 0.10768610240E+02 0.12094504087E+02 0.14397319494E+02
 0.17933671407E+02 0.22724530938E+02 0.33185607372E+02 0.55099642437E+02 0.87963104326E+02
 0.12445089453E+03 0.15326846642E+03 0.16423695817E+03 0.15326846642E+03 0.12445089453E+03
 0.87963104326E+02 0.55099642437E+02 0.33185607372E+02 0.22724530938E+02 0.17933671407E+02
 0.14397319494E+02 0.12094504087E+02 0.10768610240E+02 0.10040561229E+02 0.96565775122E+01
 0.94723762714E+01 0.93811908439E+01 0.93227723704E+01 0.81268919275E+01 0.82052555048E+01
 0.83924614088E+01 0.86380923202E+01 0.90087586847E+01 0.96565775122E+01 0.10778817680E+02
 0.12724240418E+02 0.15979984644E+02 0.20713888790E+02 0.30281759955E+02 0.55099642437E+02
 0.10064844156E+03 0.16284635072E+03 0.22829203502E+03 0.27852576811E+03 0.29741238850E+03
 0.27852576811E+03 0.22829203502E+03 0.16284635072E+03 0.10064844156E+03 0.55099642437E+02
 0.30281759955E+02 0.20713888790E+02 0.15979984644E+02 0.12724240418E+02 0.10778817680E+02
 0.96565775122E+01 0.90087586847E+01 0.86380923202E+01 0.83924614088E+01 0.82052555048E+01
 0.75368745172E+01 0.76452482081E+01 0.78899746890E+01 0.81860049596E+01 0.86380923202E+01
 0.94723762714E+01 0.10945859378E+02 0.13486789975E+02 0.17631423511E+02 0.24200688543E+02
 0.43215238051E+02 0.87963104326E+02 0.16284635072E+03 0.25981426481E+03 0.35897140056E+03
 0.43400569583E+03 0.46205478828E+03 0.43400569583E+03 0.35897140056E+03 0.25981426481E+03
 0.16284635072E+03 0.87963104326E+02 0.43215238051E+02 0.24200688543E+02 0.17631423511E+02
 0.13486789975E+02 0.10945859378E+02 0.94723762714E+01 0.86380923202E+01 0.81860049596E+01
 0.78899746890E+01 0.76452482081E+01 0.71632148042E+01 0.72933590840E+01 0.75733550136E+01
 0.78899746890E+01 0.83924614088E+01 0.93811908439E+01 0.11162461324E+02 0.14215387638E+02
 0.19066920057E+02 0.28754897585E+02 0.59020525996E+02 0.12445089453E+03 0.22829203502E+03
 0.35897140056E+03 0.49071500413E+03 0.58978335042E+03 0.62673429194E+03 0.58978335042E+03
 0.49071500413E+03 0.35897140056E+03 0.22829203502E+03 0.12445089453E+03 0.59020525996E+02
 0.28754897585E+02 0.19066920057E+02 0.14215387638E+02 0.11162461324E+02 0.93811908439E+01
 0.83924614088E+01 0.78899746890E+01 0.75733550136E+01 0.72933590840E+01 0.68207555562E+01
 0.69724915072E+01 0.72933590840E+01 0.76452482081E+01 0.82052555048E+01 0.93227723704E+01
 0.11333078181E+02 0.14739613155E+02 0.20057369629E+02 0.32884949576E+02 0.72197226295E+02
 0.15326846642E+03 0.27852576811E+03 0.43400569583E+03 0.58978335042E+03 0.70665747701E+03
 0.75022302624E+03 0.70665747701E+03 0.58978335042E+03 0.43400569583E+03 0.27852576811E+03
 0.15326846642E+03 0.72197226295E+02 0.32884949576E+02 0.20057369629E+02 0.14739613155E+02
 0.11333078181E+02 0.93227723704E+01 0.82052555048E+01 0.76452482081E+01 0.72933590840E+01
 0.69724915072E+01 0.66586345927E+01 0.68207555562E+01 0.71632148042E+01 0.75368745172E+01
 0.81268919275E+01 0.92986989118E+01 0.11396511659E+02 0.14930395326E+02 0.20429677622E+02
 0.34565549581E+02 0.77334393950E+02 0.16423695817E+03 0.29741238850E+03 0.46205478828E+03
 0.62673429194E+03 0.75022302624E+03 0.79625024406E+03 0.75022302624E+03 0.62673429194E+03
 0.46205478828E+03 0.29741238850E+03 0.16423695817E+03 0.77334393950E+02 0.34565549581E+02
 0.20429677622E+02 0.14930395326E+02 0.11396511659E+02 0.92986989118E+01 0.81268919275E+01
 0.75368745172E+01 0.71632148042E+01 0.68207555562E+01 0.68207555562E+01 0.69724915072E+01
 0.72933590840E+01 0.76452482081E+01 0.82052555048E+01 0.93227723704E+01 0.11333078181E+02
 0.14739613155E+02 0.20057369629E+02 0.32884949576E+02 0.72197226295E+02 0.15326846642E+03
 0.27852576811E+03 0.43400569583E+03 0.58978335042E+03 0.70665747701E+03 0.75022302624E+03
 0.70665747701E+03 0.58978335042E+03 0.43400569583E+03 0.27852576811E+03 0.15326846642E+03
 0.72197226295E+02 0.32884949576E+02 0.20057369629E+02 0.14739613155E+02 0.11333078181E+02
 0.93227723704E+01 0.82052555048E+01 0.76452482081E+01 0.72933590840E+01 0.69724915072E+01
 0.71632148042E+01 0.72933590840E+01 0.75733550136E+01 0.78899746890E+01 0.83924614088E+01
 0.93811908439E+01 0.11162461324E+02 0.14215387638E+02 0.19066920057E+02 0.28754897585E+02
 0.59020525996E+02 0.12445089453E+03 0.22829203502E+03 0.35897140056E+03 0.49071500413E+03
 0.58978335042E+03 0.62673429194E+03 0.58978335042E+03 0.49071500413E+03 0.35897140056E+03
 0.22829203502E+03 0.12445089453E+03 0.59020525996E+02 0.28754897585E+02 0.19066920057E+02