   4   4   0   0
  0.1200752E+02  0.3635000E-09  0.3635000E-09  0.3635000E-09  0.5000000E-15
  1.000000000000000E-004
  CAR 
 unknown system                          
     27.68457707     -3.84118595  301      7.23745312      1.00000000
     -3.841  0.0000E+00  0.0000E+00
     -3.736  0.0000E+00  0.0000E+00
     -3.631  0.0000E+00  0.0000E+00
     -3.526 -0.5513E-31 -0.5794E-32
     -3.421 -0.2741E-27 -0.2881E-28
     -3.316 -0.7810E-24 -0.8210E-25
     -3.211 -0.1275E-20 -0.1340E-21
     -3.106 -0.1190E-17 -0.1252E-18
     -3.000 -0.6184E-15 -0.6511E-16
     -2.895 -0.1866E-12 -0.1968E-13
     -2.790 -0.3209E-10 -0.3392E-11
     -2.685 -0.3121E-08 -0.3314E-09
     -2.580 -0.1705E-06 -0.1825E-07
     -2.475 -0.5171E-05 -0.5617E-06
     -2.370 -0.8512E-04 -0.9507E-05
     -2.265 -0.7241E-03 -0.8560E-04
     -2.160 -0.2746E-02 -0.3742E-03
     -2.055 -0.1135E-02 -0.4934E-03
     -1.950  0.2095E-01  0.1708E-02
     -1.845  0.5608E-01  0.7601E-02
     -1.739  0.5017E-01  0.1287E-01
     -1.634  0.3526E-02  0.1324E-01
     -1.529  0.3357E-01  0.1677E-01
     -1.424  0.2290E+00  0.4084E-01
     -1.319  0.3801E+00  0.8078E-01
     -1.214  0.2312E+00  0.1051E+00
     -1.109  0.4452E-01  0.1098E+00
     -1.004  0.2516E+00  0.1362E+00
     -0.899  0.6894E+00  0.2086E+00
     -0.794  0.6778E+00  0.2799E+00
     -0.689  0.2418E+00  0.3053E+00
     -0.584  0.1031E+00  0.3161E+00
     -0.478  0.3748E+00  0.3555E+00
     -0.373  0.4866E+00  0.4066E+00
     -0.268  0.2289E+00  0.4307E+00
     -0.163  0.6414E-01  0.4374E+00
     -0.058  0.2235E+00  0.4609E+00
      0.047  0.3405E+00  0.4967E+00
      0.152  0.1631E+00  0.5138E+00
      0.257  0.2261E+00  0.5376E+00
      0.362  0.9867E+00  0.6413E+00
      0.467  0.1490E+01  0.7978E+00
      0.572  0.9377E+00  0.8964E+00
      0.678  0.6447E+00  0.9641E+00
      0.783  0.1288E+01  0.1099E+01
      0.888  0.1396E+01  0.1246E+01
      0.993  0.5738E+00  0.1306E+01
      1.098 -0.1229E-01  0.1305E+01
      1.203 -0.9697E-01  0.1295E+01
      1.308 -0.7015E-01  0.1288E+01
      1.413  0.7154E-01  0.1295E+01
      1.518  0.5125E+00  0.1349E+01
      1.623  0.1222E+01  0.1477E+01
      1.728  0.1930E+01  0.1680E+01
      1.833  0.1814E+01  0.1871E+01
      1.939  0.9911E+00  0.1975E+01
      2.044  0.1124E+01  0.2093E+01
      2.149  0.2011E+01  0.2304E+01
      2.254  0.2193E+01  0.2535E+01
      2.359  0.1775E+01  0.2721E+01
      2.464  0.1498E+01  0.2879E+01
      2.569  0.2222E+01  0.3112E+01
      2.674  0.4191E+01  0.3553E+01
      2.779  0.6269E+01  0.4212E+01
      2.884  0.6732E+01  0.4919E+01
      2.989  0.5599E+01  0.5507E+01
      3.094  0.4510E+01  0.5981E+01
      3.200  0.5800E+01  0.6591E+01
      3.305  0.9480E+01  0.7587E+01
      3.410  0.1063E+02  0.8704E+01
      3.515  0.9077E+01  0.9658E+01
      3.620  0.9253E+01  0.1063E+02
      3.725  0.9130E+01  0.1159E+02
      3.830  0.7244E+01  0.1235E+02
      3.935  0.7847E+01  0.1318E+02
      4.040  0.1098E+02  0.1433E+02
      4.145  0.1342E+02  0.1574E+02
      4.250  0.1561E+02  0.1738E+02
      4.356  0.1692E+02  0.1916E+02
      4.461  0.1645E+02  0.2089E+02
      4.566  0.1498E+02  0.2246E+02
      4.671  0.1258E+02  0.2378E+02
      4.776  0.1132E+02  0.2497E+02
      4.881  0.1255E+02  0.2629E+02
      4.986  0.1423E+02  0.2779E+02
      5.091  0.1400E+02  0.2926E+02
      5.196  0.1465E+02  0.3080E+02
      5.301  0.1664E+02  0.3255E+02
      5.406  0.1436E+02  0.3406E+02
      5.511  0.1159E+02  0.3527E+02
      5.617  0.1518E+02  0.3687E+02
      5.722  0.1962E+02  0.3893E+02
      5.827  0.1669E+02  0.4068E+02
      5.932  0.9438E+01  0.4168E+02
      6.037  0.4781E+01  0.4218E+02
      6.142  0.2990E+01  0.4249E+02
      6.247  0.2097E+01  0.4271E+02
      6.352  0.1241E+01  0.4284E+02
      6.457  0.3393E+00  0.4288E+02
      6.562 -0.9030E-01  0.4287E+02
      6.667 -0.4837E-01  0.4286E+02
      6.772  0.1254E+00  0.4288E+02
      6.878  0.1344E+00  0.4289E+02
      6.983  0.4291E+00  0.4294E+02
      7.088  0.2486E+01  0.4320E+02
      7.193  0.5239E+01  0.4375E+02
      7.298  0.5020E+01  0.4428E+02
      7.403  0.2193E+01  0.4451E+02
      7.508  0.1424E+00  0.4452E+02
      7.613 -0.2689E+00  0.4449E+02
      7.718  0.2505E+00  0.4452E+02
      7.823  0.1212E+01  0.4465E+02
      7.928  0.1516E+01  0.4481E+02
      8.034  0.7391E+00  0.4488E+02
      8.139 -0.1298E-02  0.4488E+02
      8.244 -0.1402E+00  0.4487E+02
      8.349  0.2968E+00  0.4490E+02
      8.454  0.1168E+01  0.4502E+02
      8.559  0.1410E+01  0.4517E+02
      8.664  0.8725E+00  0.4526E+02
      8.769  0.1225E+01  0.4539E+02
      8.874  0.2258E+01  0.4563E+02
      8.979  0.1963E+01  0.4584E+02
      9.084  0.6525E+00  0.4590E+02
      9.189 -0.9136E-01  0.4589E+02
      9.295 -0.1683E+00  0.4588E+02
      9.400  0.1728E+00  0.4590E+02
      9.505  0.9567E+00  0.4600E+02
      9.610  0.1420E+01  0.4615E+02
      9.715  0.1589E+01  0.4631E+02
      9.820  0.2721E+01  0.4660E+02
      9.925  0.3475E+01  0.4696E+02
     10.030  0.2213E+01  0.4720E+02
     10.135  0.5529E+00  0.4725E+02
     10.240 -0.8521E-01  0.4724E+02
     10.345 -0.9534E-01  0.4723E+02
     10.450 -0.4158E-01  0.4723E+02
     10.556 -0.4317E-01  0.4723E+02
     10.661  0.4582E-01  0.4723E+02
     10.766  0.4215E+00  0.4728E+02
     10.871  0.7730E+00  0.4736E+02
     10.976  0.5692E+00  0.4742E+02
     11.081  0.1110E+00  0.4743E+02
     11.186 -0.1118E+00  0.4742E+02
     11.291  0.2005E-02  0.4742E+02
     11.396  0.6540E+00  0.4748E+02
     11.501  0.1415E+01  0.4763E+02
     11.606  0.1462E+01  0.4779E+02
     11.712  0.1454E+01  0.4794E+02
     11.817  0.1911E+01  0.4814E+02
     11.922  0.2088E+01  0.4836E+02
     12.027  0.1611E+01  0.4853E+02
     12.132  0.9428E+00  0.4863E+02
     12.237  0.6027E+00  0.4869E+02
     12.342  0.8008E+00  0.4878E+02
     12.447  0.2065E+01  0.4899E+02
     12.552  0.3022E+01  0.4931E+02
     12.657  0.1941E+01  0.4951E+02
     12.762  0.8401E+00  0.4960E+02
     12.867  0.1210E+01  0.4973E+02
     12.973  0.1319E+01  0.4987E+02
     13.078  0.5935E+00  0.4993E+02
     13.183  0.2912E+00  0.4996E+02
     13.288  0.4496E+00  0.5001E+02
     13.393  0.3350E+00  0.5004E+02
     13.498  0.2706E-01  0.5005E+02
     13.603 -0.1726E+00  0.5003E+02
     13.708  0.1854E-01  0.5003E+02
     13.813  0.1306E+01  0.5017E+02
     13.918  0.2952E+01  0.5048E+02
     14.023  0.2610E+01  0.5075E+02
     14.128  0.8082E+00  0.5084E+02
     14.234 -0.1402E+00  0.5082E+02
     14.339 -0.1184E-02  0.5082E+02
     14.444  0.7686E+00  0.5090E+02
     14.549  0.1791E+01  0.5109E+02
     14.654  0.1987E+01  0.5130E+02
     14.759  0.1117E+01  0.5142E+02
     14.864  0.6471E+00  0.5149E+02
     14.969  0.1174E+01  0.5161E+02
     15.074  0.1517E+01  0.5177E+02
     15.179  0.1572E+01  0.5193E+02
     15.284  0.1904E+01  0.5213E+02
     15.390  0.2002E+01  0.5234E+02
     15.495  0.2439E+01  0.5260E+02
     15.600  0.3086E+01  0.5292E+02
     15.705  0.2101E+01  0.5315E+02
     15.810  0.3937E+00  0.5319E+02
     15.915 -0.1810E+00  0.5317E+02
     16.020  0.3950E+00  0.5321E+02
     16.125  0.1336E+01  0.5335E+02
     16.230  0.1381E+01  0.5349E+02
     16.335  0.5631E+00  0.5355E+02
     16.440  0.3461E+00  0.5359E+02
     16.545  0.9291E+00  0.5369E+02
     16.651  0.1357E+01  0.5383E+02
     16.756  0.1507E+01  0.5399E+02
     16.861  0.1766E+01  0.5417E+02
     16.966  0.2008E+01  0.5439E+02
     17.071  0.2278E+01  0.5462E+02
     17.176  0.2341E+01  0.5487E+02
     17.281  0.1702E+01  0.5505E+02
     17.386  0.7815E+00  0.5513E+02
     17.491  0.2680E+00  0.5516E+02
     17.596  0.2978E+00  0.5519E+02
     17.701  0.9587E+00  0.5529E+02
     17.807  0.1429E+01  0.5544E+02
     17.912  0.9798E+00  0.5555E+02
     18.017  0.1040E+01  0.5565E+02
     18.122  0.2224E+01  0.5589E+02
     18.227  0.2850E+01  0.5619E+02
     18.332  0.2169E+01  0.5642E+02
     18.437  0.9163E+00  0.5651E+02
     18.542  0.3596E+00  0.5655E+02
     18.647  0.1232E+01  0.5668E+02
     18.752  0.2445E+01  0.5694E+02
     18.857  0.2455E+01  0.5719E+02
     18.962  0.1438E+01  0.5735E+02
     19.068  0.1539E+01  0.5751E+02
     19.173  0.3513E+01  0.5788E+02
     19.278  0.4232E+01  0.5832E+02
     19.383  0.2200E+01  0.5855E+02
     19.488  0.2348E+00  0.5858E+02
     19.593 -0.2089E+00  0.5855E+02
     19.698 -0.8647E-01  0.5855E+02
     19.803 -0.2025E-01  0.5854E+02
     19.908 -0.4212E-01  0.5854E+02
     20.013 -0.1081E+00  0.5853E+02
     20.118  0.6201E-01  0.5853E+02
     20.223  0.9900E+00  0.5864E+02
     20.329  0.2327E+01  0.5888E+02
     20.434  0.2686E+01  0.5916E+02
     20.539  0.1643E+01  0.5934E+02
     20.644  0.3948E+00  0.5938E+02
     20.749 -0.8813E-01  0.5937E+02
     20.854 -0.7436E-01  0.5936E+02
     20.959 -0.1717E-01  0.5936E+02
     21.064 -0.1894E-02  0.5936E+02
     21.169 -0.1104E-03  0.5936E+02
     21.274 -0.3522E-05  0.5936E+02
     21.379 -0.6268E-07  0.5936E+02
     21.485 -0.3134E-08  0.5936E+02
     21.590 -0.2116E-06  0.5936E+02
     21.695 -0.1002E-04  0.5936E+02
     21.800 -0.2621E-03  0.5936E+02
     21.905 -0.3690E-02  0.5936E+02
     22.010 -0.2628E-01  0.5936E+02
     22.115 -0.7657E-01  0.5935E+02
     22.220  0.4290E-01  0.5935E+02
     22.325  0.7268E+00  0.5943E+02
     22.430  0.1510E+01  0.5959E+02
     22.535  0.1249E+01  0.5972E+02
     22.640  0.3600E+00  0.5976E+02
     22.746 -0.5769E-01  0.5975E+02
     22.851 -0.5580E-01  0.5975E+02
     22.956 -0.1241E-01  0.5974E+02
     23.061 -0.1286E-02  0.5974E+02
     23.166 -0.6973E-04  0.5974E+02
     23.271 -0.2063E-05  0.5974E+02
     23.376 -0.3398E-07  0.5974E+02
     23.481 -0.3148E-09  0.5974E+02
     23.586 -0.1651E-11  0.5974E+02
     23.691 -0.4868E-14  0.5974E+02
     23.796  0.0000E+00  0.5974E+02
     23.901  0.0000E+00  0.5974E+02
     24.007 -0.1548E-29  0.5974E+02
     24.112 -0.7426E-26  0.5974E+02
     24.217 -0.2042E-22  0.5974E+02
     24.322 -0.3215E-19  0.5974E+02
     24.427 -0.2897E-16  0.5974E+02
     24.532 -0.1451E-13  0.5974E+02
     24.637 -0.4225E-11  0.5974E+02
     24.742 -0.7005E-09  0.5974E+02
     24.847 -0.6567E-07  0.5974E+02
     24.952 -0.3456E-05  0.5974E+02
     25.057 -0.1009E-03  0.5974E+02
     25.163 -0.1595E-02  0.5974E+02
     25.268 -0.1296E-01  0.5974E+02
     25.373 -0.4610E-01  0.5974E+02
     25.478 -0.8195E-02  0.5974E+02
     25.583  0.3740E+00  0.5978E+02
     25.688  0.9477E+00  0.5988E+02
     25.793  0.9213E+00  0.5997E+02
     25.898  0.3371E+00  0.6001E+02
     26.003 -0.1807E-01  0.6001E+02
     26.108 -0.4393E-01  0.6000E+02
     26.213 -0.1159E-01  0.6000E+02
     26.318 -0.1362E-02  0.6000E+02
     26.424 -0.8274E-04  0.6000E+02
     26.529 -0.2728E-05  0.6000E+02
     26.634 -0.4994E-07  0.6000E+02
     26.739 -0.5135E-09  0.6000E+02
     26.844 -0.2986E-11  0.6000E+02
     26.949 -0.9737E-14  0.6000E+02
     27.054  0.0000E+00  0.6000E+02
     27.159  0.0000E+00  0.6000E+02
     27.264  0.0000E+00  0.6000E+02
     27.369  0.0000E+00  0.6000E+02
     27.474  0.0000E+00  0.6000E+02
     27.579  0.0000E+00  0.6000E+02
     27.685  0.0000E+00  0.6000E+02
