    4    4    1    1
  0.1200752E+02  0.3635000E-09  0.3635000E-09  0.3635000E-09  0.5000000E-15
  1.000000000000000E-004
  CAR 
 unknown system                          
     44     10     30
 
  0.0000000E+00  0.0000000E+00  0.0000000E+00  0.8000000E-02
    1       -1.841186   1.000000
    2        2.607901   1.000000
    3        2.607901   1.000000
    4        2.607901   1.000000
    5        3.042338   1.000000
    6        3.042338   1.000000
    7        3.042338   1.000000
    8        4.397746   1.000000
    9        4.397746   1.000000
   10        4.397746   1.000000
   11        5.203264   1.000000
   12        5.203264   1.000000
   13        5.744649   1.000000
   14        5.744649   1.000000
   15        5.744649   1.000000
   16        5.896506   1.000000
   17        5.896506   1.000000
   18        5.896506   1.000000
   19        5.896506   1.000000
   20        5.896506   1.000000
   21        5.896506   1.000000
   22        8.896539  -0.000000
   23        8.896539  -0.000000
   24        8.896539  -0.000000
   25       14.376657   0.000000
   26       14.376657   0.000000
   27       14.376657   0.000000
   28       20.339115   0.000000
   29       20.339115   0.000000
   30       20.339115   0.000000
 
  0.2000000E+00  0.0000000E+00  0.0000000E+00  0.4800000E-01
    1       -1.364398   1.000000
    2        2.554507   1.000000
    3        2.816910   1.000000
    4        2.816910   1.000000
    5        3.164903   1.000000
    6        3.176075   1.000000
    7        3.176075   1.000000
    8        4.269764   1.000000
    9        4.516980   1.000000
   10        4.516980   1.000000
   11        5.088863   1.000000
   12        5.250520   1.000000
   13        5.250520   1.000000
   14        5.256932   1.000000
   15        5.582070   1.000000
   16        5.582070   1.000000
   17        5.686829   1.000000
   18        5.703565   1.000000
   19        5.703565   1.000000
   20        5.897174   1.000000
   21        5.897174   1.000000
   22        6.830727   1.007161
   23        9.970649  -0.000000
   24        9.970649  -0.000000
   25       14.561887   0.000000
   26       14.561887   0.000000
   27       17.422930   0.000000
   28       18.090073   0.000000
   29       18.090073   0.000000
   30       18.754691   0.000000
 
  0.4000000E+00  0.0000000E+00  0.0000000E+00  0.4800000E-01
    1       -0.008854   1.000000
    2        1.766407   1.000000
    3        3.236748   1.000000
    4        3.236748   1.000000
    5        3.493819   1.000000
    6        3.589727   1.000000
    7        3.589727   1.000000
    8        3.919614   1.000000
    9        4.301026   1.000000
   10        4.301026   1.000000
   11        4.816915   1.000000
   12        4.828678   1.000000
   13        4.828678   1.000000
   14        4.944068   1.000000
   15        5.242783   1.000000
   16        5.242783   1.000000
   17        5.275357   1.000000
   18        5.275357   1.000000
   19        5.386915   1.000000
   20        5.551292   1.000000
   21        5.897358   1.000000
   22        5.897358   1.000000
   23       12.192128  -0.000000
   24       12.192128  -0.000000
   25       14.966807   0.000000
   26       14.966807   0.000000
   27       15.201951   0.000000
   28       15.201951   0.000000
   29       16.637164   0.000000
   30       16.637164   0.000000
 
  0.2000000E+00  0.2000000E+00  0.0000000E+00  0.9600000E-01
    1       -0.899852   1.000000
    2        2.797528   1.000000
    3        2.797528   1.000000
    4        2.993814   1.000000
    5        3.282031   1.000000
    6        3.284924   1.000000
    7        3.284924   1.000000
    8        4.211622   1.000000
    9        4.555653   1.000000
   10        4.561554   1.000000
   11        4.924437   1.000000
   12        4.924437   1.000000
   13        4.939001   1.000000
   14        5.071812   1.000000
   15        5.276355   1.000000
   16        5.453551   1.000000
   17        5.574743   1.000000
   18        5.574743   1.000000
   19        5.704923   1.000000
   20        5.704923   1.000000
   21        5.768617   1.000000
   22        7.848523  -0.000068
   23        7.848523  -0.000068
   24       10.835411  -0.000000
   25       14.518650   0.000000
   26       14.990069   0.000000
   27       17.754656   0.000000
   28       17.754656   0.000000
   29       18.677129   0.000000
   30       18.677129   0.000000
 
  0.4000000E+00  0.2000000E+00  0.0000000E+00  0.1920000E+00
    1        0.411868   1.000000
    2        2.097108   1.000000
    3        3.320399   1.000000
    4        3.398874   1.000000
    5        3.548346   1.000000
    6        3.574544   1.000000
    7        3.653580   1.000000
    8        3.932357   1.000000
    9        4.075114   1.000000
   10        4.252997   1.000000
   11        4.451788   1.000000
   12        4.552021   1.000000
   13        4.837618   1.000000
   14        5.000281   1.000000
   15        5.186962   1.000000
   16        5.245994   1.000000
   17        5.276936   1.000000
   18        5.333651   1.000000
   19        5.518393   1.000000
   20        5.703559   1.000000
   21        5.707146   1.000000
   22        6.054189   1.000000
   23        9.548472  -0.000000
   24       11.749291  -0.000000
   25       12.871389   0.000000
   26       15.556605   0.000000
   27       15.561886   0.000000
   28       17.029711   0.000000
   29       18.842695   0.000000
   30       20.282955   0.000000
 
  0.4000000E+00  0.4000000E+00  0.0000000E+00  0.9600000E-01
    1        1.551173   1.000000
    2        2.863932   1.000000
    3        2.863932   1.000000
    4        3.373202   1.000000
    5        3.787776   1.000000
    6        3.793369   1.000000
    7        3.793369   1.000000
    8        3.915807   1.000000
    9        4.055965   1.000000
   10        4.055965   1.000000
   11        4.068621   1.000000
   12        4.384787   1.000000
   13        4.872042   1.000000
   14        4.960060   1.000000
   15        5.005067   1.000000
   16        5.059417   1.000000
   17        5.059417   1.000000
   18        5.298911   1.000000
   19        5.298911   1.000000
   20        5.428848   1.000000
   21        6.051398   1.000000
   22        7.139400   0.864706
   23        7.139400   0.864706
   24        8.898554  -0.000000
   25       14.651694   0.000000
   26       16.520283   0.000000
   27       17.186598   0.000000
   28       17.186598   0.000000
   29       18.288524   0.000000
   30       18.288524   0.000000
 
  0.2000000E+00  0.2000000E+00  0.2000000E+00  0.6400000E-01
    1       -0.453559   1.000000
    2        2.970939   1.000000
    3        2.970939   1.000000
    4        2.970939   1.000000
    5        3.392748   1.000000
    6        3.392748   1.000000
    7        3.392748   1.000000
    8        4.183386   1.000000
    9        4.558583   1.000000
   10        4.558583   1.000000
   11        4.691364   1.000000
   12        4.691364   1.000000
   13        4.691364   1.000000
   14        5.204544   1.000000
   15        5.204544   1.000000
   16        5.242476   1.000000
   17        5.242476   1.000000
   18        5.242476   1.000000
   19        5.810139   1.000000
   20        5.810139   1.000000
   21        5.810139   1.000000
   22        8.480488  -0.000000
   23        8.480488  -0.000000
   24        8.480488  -0.000000
   25       15.299636   0.000000
   26       15.299636   0.000000
   27       15.299636   0.000000
   28       18.121033   0.000000
   29       18.121033   0.000000
   30       18.121033   0.000000
 
  0.4000000E+00  0.2000000E+00  0.2000000E+00  0.1920000E+00
    1        0.788327   1.000000
    2        2.321344   1.000000
    3        3.299393   1.000000
    4        3.299393   1.000000
    5        3.642708   1.000000
    6        3.642708   1.000000
    7        3.697201   1.000000
    8        4.010716   1.000000
    9        4.245503   1.000000
   10        4.245503   1.000000
   11        4.363006   1.000000
   12        4.512192   1.000000
   13        4.655535   1.000000
   14        4.903607   1.000000
   15        5.034649   1.000000
   16        5.034649   1.000000
   17        5.306077   1.000000
   18        5.479312   1.000000
   19        5.717944   1.000000
   20        5.726345   1.000000
   21        5.726345   1.000000
   22        6.242275   1.000000
   23        9.843273  -0.000000
   24        9.843273  -0.000000
   25       12.499498  -0.000000
   26       12.499498  -0.000000
   27       16.832676   0.000000
   28       19.140689   0.000000
   29       19.220993   0.000000
   30       19.220993   0.000000
 
  0.4000000E+00  0.4000000E+00  0.2000000E+00  0.1920000E+00
    1        1.746081   1.000000
    2        2.729095   1.000000
    3        2.729095   1.000000
    4        3.042026   1.000000
    5        3.943799   1.000000
    6        4.043934   1.000000
    7        4.043934   1.000000
    8        4.195430   1.000000
    9        4.269984   1.000000
   10        4.269984   1.000000
   11        4.413210   1.000000
   12        4.414835   1.000000
   13        4.573908   1.000000
   14        4.742654   1.000000
   15        4.742654   1.000000
   16        4.760619   1.000000
   17        5.325836   1.000000
   18        5.605963   1.000000
   19        5.605963   1.000000
   20        5.623973   1.000000
   21        5.932053   1.000000
   22        7.173470   0.755986
   23        7.173470   0.755986
   24        8.827024  -0.000000
   25       11.934260  -0.000000
   26       13.904033   0.000000
   27       13.904033   0.000000
   28       16.130514   0.000000
   29       20.425813   0.000000
   30       22.407784   0.000000
 
  0.4000000E+00  0.4000000E+00  0.4000000E+00  0.6400000E-01
    1        2.147822   1.000000
    2        2.569421   1.000000
    3        2.569421   1.000000
    4        2.569421   1.000000
    5        4.247848   1.000000
    6        4.247848   1.000000
    7        4.247848   1.000000
    8        4.415109   1.000000
    9        4.415109   1.000000
   10        4.487238   1.000000
   11        4.487238   1.000000
   12        4.487238   1.000000
   13        4.957600   1.000000
   14        4.957600   1.000000
   15        4.957600   1.000000
   16        5.183250   1.000000
   17        5.650843   1.000000
   18        5.650843   1.000000
   19        5.764686   1.000000
   20        5.764686   1.000000
   21        5.764686   1.000000
   22        7.278595   0.329933
   23        7.278595   0.329933
   24        7.278595   0.329933
   25       11.480961  -0.000000
   26       11.480961  -0.000000
   27       11.480961  -0.000000
   28       13.244965   0.000000
   29       25.684577   0.000000
   30       25.684577   0.000000
