<?xml version="1.0" encoding="ISO-8859-1"?>
<modeling>
 <generator>
  <i name="program" type="string">vasp </i>
  <i name="version" type="string">6.2.0  </i>
  <i name="subversion" type="string">18Jan21 (build Mar 17 2021 09:06:54) complex                          serial </i>
  <i name="platform" type="string">LinuxIFC </i>
  <i name="date" type="string">2021 08 03 </i>
  <i name="time" type="string">10:15:07 </i>
 </generator>
 <incar>
  <i type="string" name="PREC">normal</i>
  <i type="int" name="ICHARG">     1</i>
  <i type="int" name="IBRION">    -1</i>
  <i name="EDIFF">      0.00000100</i>
  <i type="int" name="NSW">     0</i>
  <i name="ENCUT">    280.00000000</i>
  <i type="int" name="NBANDS">    30</i>
  <i type="int" name="ISMEAR">     1</i>
  <i name="SIGMA">      0.20000000</i>
  <i type="logical" name="LCHARG"> T  </i>
  <i type="int" name="KPAR">     1</i>
  <i type="int" name="NCORE">     1</i>
  <i type="string" name="GGA">PE</i>
 </incar>
 <primitive_cell>
  <structure name="primitive_cell" >
   <crystal>
    <varray name="basis" >
     <v>       1.81750000      -1.81750000       0.00000000 </v>
     <v>       1.81750000       0.00000000       1.81750000 </v>
     <v>       0.00000000      -1.81750000       1.81750000 </v>
    </varray>
    <i name="volume">     12.00751822 </i>
    <varray name="rec_basis" >
     <v>       0.27510316      -0.27510316      -0.27510316 </v>
     <v>       0.27510316       0.27510316       0.27510316 </v>
     <v>      -0.27510316      -0.27510316       0.27510316 </v>
    </varray>
   </crystal>
   <varray name="positions" >
    <v>       0.00000000       0.00000000       0.00000000 </v>
   </varray>
  </structure>
  <varray name="primitive_index" >
   <v type="int" >        1 </v>
  </varray>
 </primitive_cell>
 <kpoints>
  <generation param="Monkhorst-Pack">
   <v type="int" name="divisions">       5        5        5 </v>
   <v name="usershift">      0.00000000       0.00000000       0.00000000 </v>
   <v name="genvec1">      0.20000000       0.00000000       0.00000000 </v>
   <v name="genvec2">      0.00000000       0.20000000       0.00000000 </v>
   <v name="genvec3">      0.00000000       0.00000000       0.20000000 </v>
   <v name="shift">      0.00000000       0.00000000       0.00000000 </v>
  </generation>
  <varray name="kpointlist" >
   <v>       0.00000000       0.00000000       0.00000000 </v>
   <v>       0.20000000       0.00000000       0.00000000 </v>
   <v>       0.40000000       0.00000000       0.00000000 </v>
   <v>       0.20000000       0.20000000       0.00000000 </v>
   <v>       0.40000000       0.20000000       0.00000000 </v>
   <v>       0.40000000       0.40000000       0.00000000 </v>
   <v>       0.20000000       0.20000000       0.20000000 </v>
   <v>       0.40000000       0.20000000       0.20000000 </v>
   <v>       0.40000000       0.40000000       0.20000000 </v>
   <v>       0.40000000       0.40000000       0.40000000 </v>
  </varray>
  <varray name="weights" >
   <v>       0.00800000 </v>
   <v>       0.04800000 </v>
   <v>       0.04800000 </v>
   <v>       0.09600000 </v>
   <v>       0.19200000 </v>
   <v>       0.09600000 </v>
   <v>       0.06400000 </v>
   <v>       0.19200000 </v>
   <v>       0.19200000 </v>
   <v>       0.06400000 </v>
  </varray>
 </kpoints>
 <parameters>
  <separator name="general" >
   <i type="string" name="SYSTEM">unknown system</i>
   <i type="logical" name="LCOMPAT"> F  </i>
  </separator>
  <separator name="electronic" >
   <i type="string" name="PREC">normal</i>
   <i name="ENMAX">    280.00000000</i>
   <i name="ENAUG">    586.98000000</i>
   <i name="EDIFF">      0.00000100</i>
   <i type="int" name="IALGO">    38</i>
   <i type="int" name="IWAVPR">     0</i>
   <i type="int" name="NBANDS">    30</i>
   <i type="int" name="NBANDSLOW">    -1</i>
   <i type="int" name="NBANDSHIGH">    -1</i>
   <i name="NELECT">     44.00000000</i>
   <i type="int" name="TURBO">     0</i>
   <i type="int" name="IRESTART">     0</i>
   <i type="int" name="NREBOOT">     0</i>
   <i type="int" name="NMIN">     0</i>
   <i name="EREF">      0.00000000</i>
   <separator name="electronic smearing" >
    <i type="int" name="ISMEAR">     1</i>
    <i name="SIGMA">      0.20000000</i>
    <i name="KSPACING">      0.50000000</i>
    <i type="logical" name="KGAMMA"> T  </i>
    <i type="logical" name="KBLOWUP"> T  </i>
   </separator>
   <separator name="electronic projectors" >
    <i type="logical" name="LREAL"> F  </i>
    <v name="ROPT">      0.00000000</v>
    <i type="int" name="LMAXPAW">  -100</i>
    <i type="int" name="LMAXMIX">     2</i>
    <i type="logical" name="NLSPLINE"> F  </i>
   </separator>
   <separator name="electronic startup" >
    <i type="int" name="ISTART">     1</i>
    <i type="int" name="ICHARG">     1</i>
    <i type="int" name="INIWAV">     1</i>
   </separator>
   <separator name="electronic spin" >
    <i type="int" name="ISPIN">     1</i>
    <i type="logical" name="LNONCOLLINEAR"> F  </i>
    <v name="MAGMOM">      1.00000000      1.00000000      1.00000000      1.00000000</v>
    <i name="NUPDOWN">     -1.00000000</i>
    <i type="logical" name="LSORBIT"> F  </i>
    <v name="SAXIS">      0.00000000      0.00000000      1.00000000</v>
    <i type="logical" name="LSPIRAL"> F  </i>
    <v name="QSPIRAL">      0.00000000      0.00000000      0.00000000</v>
    <i type="logical" name="LZEROZ"> F  </i>
   </separator>
   <separator name="electronic exchange-correlation" >
    <i type="logical" name="LASPH"> F  </i>
    <i type="logical" name="LMETAGGA"> F  </i>
   </separator>
   <separator name="electronic convergence" >
    <i type="int" name="NELM">    60</i>
    <i type="int" name="NELMDL">     0</i>
    <i type="int" name="NELMIN">     2</i>
    <i name="ENINI">    280.00000000</i>
    <separator name="electronic convergence detail" >
     <i type="logical" name="LDIAG"> T  </i>
     <i type="logical" name="LSUBROT"> F  </i>
     <i name="WEIMIN">      0.00000000</i>
     <i name="EBREAK">      0.00000001</i>
     <i name="DEPER">      0.30000000</i>
     <i type="int" name="NRMM">     4</i>
     <i name="TIME">      0.40000000</i>
    </separator>
   </separator>
   <separator name="electronic mixer" >
    <i name="AMIX">      0.40000000</i>
    <i name="BMIX">      1.00000000</i>
    <i name="AMIN">      0.10000000</i>
    <i name="AMIX_MAG">      1.60000000</i>
    <i name="BMIX_MAG">      1.00000000</i>
    <separator name="electronic mixer details" >
     <i type="int" name="IMIX">     4</i>
     <i type="logical" name="MIXFIRST"> F  </i>
     <i type="int" name="MAXMIX">   -45</i>
     <i name="WC">    100.00000000</i>
     <i type="int" name="INIMIX">     1</i>
     <i type="int" name="MIXPRE">     1</i>
     <i type="int" name="MREMOVE">     5</i>
    </separator>
   </separator>
   <separator name="electronic dipolcorrection" >
    <i type="logical" name="LDIPOL"> F  </i>
    <i type="logical" name="LMONO"> F  </i>
    <i type="int" name="IDIPOL">     0</i>
    <i name="EPSILON">      1.00000000</i>
    <v name="DIPOL">   -100.00000000   -100.00000000   -100.00000000</v>
    <i name="EFIELD">      0.00000000</i>
   </separator>
  </separator>
  <separator name="grids" >
   <i type="int" name="NGX">    16</i>
   <i type="int" name="NGY">    16</i>
   <i type="int" name="NGZ">    16</i>
   <i type="int" name="NGXF">    32</i>
   <i type="int" name="NGYF">    32</i>
   <i type="int" name="NGZF">    32</i>
   <i type="logical" name="ADDGRID"> F  </i>
  </separator>
  <separator name="ionic" >
   <i type="int" name="NSW">     0</i>
   <i type="int" name="IBRION">    -1</i>
   <i type="int" name="MDALGO">     0</i>
   <i type="int" name="ISIF">     2</i>
   <i name="PSTRESS">      0.00000000</i>
   <i name="EDIFFG">      0.00001000</i>
   <i type="int" name="NFREE">     0</i>
   <i name="POTIM">      0.50000000</i>
   <i name="SMASS">     -3.00000000</i>
   <i name="SCALEE">      1.00000000</i>
  </separator>
  <separator name="ionic md" >
   <i name="TEBEG">      0.00010000</i>
   <i name="TEEND">      0.00010000</i>
   <i type="int" name="NBLOCK">     1</i>
   <i type="int" name="KBLOCK">     1</i>
   <i type="int" name="NPACO">   256</i>
   <i name="APACO">     16.00000000</i>
  </separator>
  <separator name="symmetry" >
   <i type="int" name="ISYM">     2</i>
   <i name="SYMPREC">      0.00001000</i>
  </separator>
  <separator name="dos" >
   <i type="int" name="LORBIT">     0</i>
   <v name="RWIGS">     -1.00000000</v>
   <i type="int" name="NEDOS">   301</i>
   <i name="EMIN">     10.00000000</i>
   <i name="EMAX">    -10.00000000</i>
   <i name="EFERMI">      0.00000000</i>
  </separator>
  <separator name="writing" >
   <i type="int" name="NWRITE">     2</i>
   <i type="logical" name="LWAVE"> T  </i>
   <i type="logical" name="LDOWNSAMPLE"> F  </i>
   <i type="logical" name="LCHARG"> T  </i>
   <i type="logical" name="LPARD"> F  </i>
   <i type="logical" name="LVTOT"> F  </i>
   <i type="logical" name="LVHAR"> F  </i>
   <i type="logical" name="LELF"> F  </i>
   <i type="logical" name="LOPTICS"> F  </i>
   <v name="STM">      0.00000000      0.00000000      0.00000000      0.00000000      0.00000000      0.00000000      0.00000000</v>
  </separator>
  <separator name="performance" >
   <i type="int" name="NPAR">     1</i>
   <i type="int" name="NSIM">     4</i>
   <i type="int" name="NBLK">    -1</i>
   <i type="logical" name="LPLANE"> T  </i>
   <i type="logical" name="LSCALAPACK"> F  </i>
   <i type="logical" name="LSCAAWARE"> F  </i>
   <i type="logical" name="LSCALU"> F  </i>
   <i type="logical" name="LASYNC"> F  </i>
   <i type="logical" name="LORBITALREAL"> F  </i>
  </separator>
  <separator name="miscellaneous" >
   <i type="int" name="IDIOT">     3</i>
   <i type="int" name="PHON_NSTRUCT">    -1</i>
   <i type="logical" name="LMUSIC"> F  </i>
   <v name="POMASS">     63.54600000</v>
   <v name="DARWINR">      0.00000000</v>
   <v name="DARWINV">      1.00000000</v>
   <i type="logical" name="LCORR"> T  </i>
  </separator>
  <i type="logical" name="GGA_COMPAT"> T  </i>
  <i type="logical" name="LBERRY"> F  </i>
  <i type="int" name="ICORELEVEL">     0</i>
  <i type="logical" name="LDAU"> F  </i>
  <i type="int" name="I_CONSTRAINED_M">     0</i>
  <separator name="electronic exchange-correlation" >
   <i type="string" name="GGA">PE</i>
   <i type="int" name="VOSKOWN">     0</i>
   <i type="logical" name="LHFCALC"> F  </i>
   <i type="string" name="PRECFOCK"></i>
   <i type="logical" name="LSYMGRAD"> F  </i>
   <i type="logical" name="LHFONE"> F  </i>
   <i type="logical" name="LRHFCALC"> F  </i>
   <i type="logical" name="LTHOMAS"> F  </i>
   <i type="logical" name="LMODELHF"> F  </i>
   <i type="logical" name="LFOCKACE"> F  </i>
   <i name="ENCUT4O">     -1.00000000</i>
   <i type="int" name="EXXOEP">     0</i>
   <i type="int" name="FOURORBIT">     0</i>
   <i name="AEXX">      0.00000000</i>
   <i name="HFALPHA">      0.00000000</i>
   <i name="MCALPHA">      0.00000000</i>
   <i name="ALDAX">      1.00000000</i>
   <i name="AGGAX">      1.00000000</i>
   <i name="ALDAC">      1.00000000</i>
   <i name="AGGAC">      1.00000000</i>
   <i type="int" name="NKREDX">     1</i>
   <i type="int" name="NKREDY">     1</i>
   <i type="int" name="NKREDZ">     1</i>
   <i type="logical" name="SHIFTRED"> F  </i>
   <i type="logical" name="ODDONLY"> F  </i>
   <i type="logical" name="EVENONLY"> F  </i>
   <i type="int" name="LMAXFOCK">     0</i>
   <i type="int" name="NMAXFOCKAE">     0</i>
   <i type="logical" name="LFOCKAEDFT"> F  </i>
   <i name="HFSCREEN">      0.00000000</i>
   <i name="HFSCREENC">      0.00000000</i>
   <i type="int" name="NBANDSGWLOW">     0</i>
  </separator>
  <separator name="vdW DFT" >
   <i type="logical" name="LUSE_VDW"> F  </i>
   <i name="Zab_VDW">     -0.84910000</i>
   <i name="PARAM1">      0.12340000</i>
   <i name="PARAM2">      1.00000000</i>
   <i name="PARAM3">      0.00000000</i>
  </separator>
  <separator name="model GW" >
   <i type="int" name="MODEL_GW">     0</i>
   <i name="MODEL_EPS0">      7.20451093</i>
   <i name="MODEL_ALPHA">      1.00000000</i>
  </separator>
  <separator name="linear response parameters" >
   <i type="logical" name="LEPSILON"> F  </i>
   <i type="logical" name="LRPA"> F  </i>
   <i type="logical" name="LNABLA"> F  </i>
   <i type="logical" name="LVEL"> F  </i>
   <i type="int" name="KINTER">     0</i>
   <i name="CSHIFT">      0.10000000</i>
   <i name="OMEGAMAX">     -1.00000000</i>
   <i name="DEG_THRESHOLD">      0.00200000</i>
   <i name="RTIME">     -0.10000000</i>
   <i name="WPLASMAI">      0.00000000</i>
   <v name="DFIELD">      0.00000000      0.00000000      0.00000000</v>
   <v name="WPLASMA">      0.00000000      0.00000000      0.00000000      0.00000000      0.00000000      0.00000000      0.00000000      0.00000000      0.00000000</v>
  </separator>
  <separator name="orbital magnetization" >
   <i type="logical" name="NUCIND"> F  </i>
   <v name="MAGPOS">      0.00000000      0.00000000      0.00000000</v>
   <i type="logical" name="LNICSALL"> T  </i>
   <i type="logical" name="ORBITALMAG"> F  </i>
   <i type="logical" name="LMAGBLOCH"> F  </i>
   <i type="logical" name="LCHIMAG"> F  </i>
   <i type="logical" name="LGAUGE"> T  </i>
   <i type="int" name="MAGATOM">     0</i>
   <v name="MAGDIPOL">      0.00000000      0.00000000      0.00000000</v>
   <v name="AVECCONST">      0.00000000      0.00000000      0.00000000</v>
  </separator>
  <separator name="response functions" >
   <i type="logical" name="LFINITE_TEMPERATURE"> F  </i>
   <i type="logical" name="LADDER"> F  </i>
   <i type="logical" name="LRPAFORCE"> F  </i>
   <i type="logical" name="LFXC"> F  </i>
   <i type="logical" name="LHARTREE"> T  </i>
   <i type="int" name="IBSE">     0</i>
   <v type="int" name="KPOINT">    -1     0     0     0</v>
   <i type="logical" name="LTCTC"> F  </i>
   <i type="logical" name="LTCTE"> F  </i>
   <i type="logical" name="LTETE"> F  </i>
   <i type="logical" name="LTRIPLET"> F  </i>
   <i type="logical" name="LFXCEPS"> F  </i>
   <i type="logical" name="LFXHEG"> F  </i>
   <i type="int" name="NATURALO">     2</i>
   <i type="logical" name="LHOLEGF"> F  </i>
   <i type="logical" name="L2ORDER"> F  </i>
   <i type="logical" name="LDMP1"> F  </i>
   <i type="logical" name="LMP2LT"> F  </i>
   <i type="logical" name="LSMP2LT"> F  </i>
   <i type="logical" name="LGWLF"> F  </i>
   <i name="ENCUTGW">     -2.00000000</i>
   <i name="ENCUTGWSOFT">     -2.00000000</i>
   <i name="ENCUTLF">     -1.00000000</i>
   <i type="logical" name="LESF_SPLINES"> F  </i>
   <i type="int" name="LMAXMP2">    -1</i>
   <i name="SCISSOR">      0.00000000</i>
   <i type="int" name="NOMEGA">     0</i>
   <i type="int" name="NOMEGAR">     0</i>
   <i type="int" name="NBANDSGW">    -1</i>
   <i type="int" name="NBANDSO">    -1</i>
   <i type="int" name="NBANDSV">    -1</i>
   <i type="int" name="NELM">     1</i>
   <i type="int" name="NELMHF">     1</i>
   <i type="int" name="DIM">     3</i>
   <i type="int" name="IESPILON">     4</i>
   <i type="int" name="ANTIRES">     0</i>
   <i name="OMEGAMAX">    -30.00000000</i>
   <i name="OMEGAMIN">    -30.00000000</i>
   <i name="OMEGATL">   -200.00000000</i>
   <i type="int" name="OMEGAGRID">     0</i>
   <i name="CSHIFT">     -0.10000000</i>
   <i type="logical" name="LSELFENERGY"> F  </i>
   <i type="logical" name="LSPECTRAL"> F  </i>
   <i type="logical" name="LSPECTRALGW"> F  </i>
   <i type="logical" name="LSINGLES"> F  </i>
   <i type="logical" name="LFERMIGW"> F  </i>
   <i type="logical" name="ODDONLYGW"> F  </i>
   <i type="logical" name="EVENONLYGW"> F  </i>
   <i type="int" name="NKREDLFX">     1</i>
   <i type="int" name="NKREDLFY">     1</i>
   <i type="int" name="NKREDLFZ">     1</i>
   <i type="int" name="MAXMEM">  2800</i>
   <i type="int" name="TELESCOPE">     0</i>
   <i type="int" name="NTAUPAR">    -1</i>
   <i type="int" name="NOMEGAPAR">    -1</i>
   <i name="DAMP_NEWTON">      0.80000001</i>
   <i name="LAMBDA">      1.00000000</i>
  </separator>
  <separator name="External order field" >
   <i name="OFIELD_KAPPA">      0.00000000</i>
   <v name="OFIELD_K">      0.00000000      0.00000000      0.00000000</v>
   <i name="OFIELD_Q6_NEAR">      0.00000000</i>
   <i name="OFIELD_Q6_FAR">      0.00000000</i>
   <i name="OFIELD_A">      0.00000000</i>
  </separator>
 </parameters>
 <atominfo>
  <atoms>       4 </atoms>
  <types>       1 </types>
  <array name="atoms" >
   <dimension dim="1">ion</dimension>
   <field type="string">element</field>
   <field type="int">atomtype</field>
   <set>
    <rc><c>Cu</c><c>   1</c></rc>
    <rc><c>Cu</c><c>   1</c></rc>
    <rc><c>Cu</c><c>   1</c></rc>
    <rc><c>Cu</c><c>   1</c></rc>
   </set>
  </array>
  <array name="atomtypes" >
   <dimension dim="1">type</dimension>
   <field type="int">atomspertype</field>
   <field type="string">element</field>
   <field>mass</field>
   <field>valence</field>
   <field type="string">pseudopotential</field>
   <set>
    <rc><c>   4</c><c>Cu</c><c>     63.54600000</c><c>     11.00000000</c><c>  PAW_PBE Cu 22Jun2005                  </c></rc>
   </set>
  </array>
 </atominfo>
 <structure name="initialpos" >
  <crystal>
   <varray name="basis" >
    <v>       3.63500000       0.00000000       0.00000000 </v>
    <v>       0.00000000       3.63500000       0.00000000 </v>
    <v>       0.00000000       0.00000000       3.63500000 </v>
   </varray>
   <i name="volume">     48.03007287 </i>
   <varray name="rec_basis" >
    <v>       0.27510316       0.00000000       0.00000000 </v>
    <v>       0.00000000       0.27510316       0.00000000 </v>
    <v>       0.00000000       0.00000000       0.27510316 </v>
   </varray>
  </crystal>
  <varray name="positions" >
   <v>       0.00000000       0.00000000       0.00000000 </v>
   <v>       0.50000000       0.50000000       0.00000000 </v>
   <v>       0.50000000       0.00000000       0.50000000 </v>
   <v>       0.00000000       0.50000000       0.50000000 </v>
  </varray>
 </structure>
 <calculation>
  <scstep>
   <time name="dav">    0.12    0.13</time>
   <time name="total">    0.15    0.15</time>
   <energy>
    <i name="alphaZ">    243.62337785 </i>
    <i name="ewald">  -4395.34838493 </i>
    <i name="hartreedc">  -1368.48232158 </i>
    <i name="XCdc">    178.56559461 </i>
    <i name="pawpsdc">   5253.18685736 </i>
    <i name="pawaedc">  -5683.30831220 </i>
    <i name="eentropy">     -0.02926324 </i>
    <i name="bandstr">    193.42846634 </i>
    <i name="atom">   5563.65721665 </i>
    <i name="e_fr_energy">    -14.70676915 </i>
    <i name="e_wo_entrp">    -14.67750591 </i>
    <i name="e_0_energy">    -14.69701474 </i>
   </energy>
  </scstep>
  <scstep>
   <time name="dav">    0.12    0.12</time>
   <time name="total">    0.14    0.14</time>
   <energy>
    <i name="e_fr_energy">    -14.70502740 </i>
    <i name="e_wo_entrp">    -14.67591231 </i>
    <i name="e_0_energy">    -14.69532237 </i>
   </energy>
  </scstep>
  <scstep>
   <time name="dav">    0.09    0.09</time>
   <time name="total">    0.12    0.12</time>
   <energy>
    <i name="e_fr_energy">    -14.70502557 </i>
    <i name="e_wo_entrp">    -14.67588085 </i>
    <i name="e_0_energy">    -14.69531066 </i>
   </energy>
  </scstep>
  <scstep>
   <time name="dav">    0.07    0.07</time>
   <time name="total">    0.09    0.09</time>
   <energy>
    <i name="alphaZ">    243.62337785 </i>
    <i name="ewald">  -4395.34838493 </i>
    <i name="hartreedc">  -1368.47964251 </i>
    <i name="XCdc">    178.56547237 </i>
    <i name="pawpsdc">   5253.18357639 </i>
    <i name="pawaedc">  -5683.30742459 </i>
    <i name="eentropy">     -0.02915031 </i>
    <i name="bandstr">    193.42993364 </i>
    <i name="atom">   5563.65721665 </i>
    <i name="e_fr_energy">    -14.70502544 </i>
    <i name="e_wo_entrp">    -14.67587513 </i>
    <i name="e_0_energy">    -14.69530867 </i>
   </energy>
  </scstep>
  <structure>
   <crystal>
    <varray name="basis" >
     <v>       3.63500000       0.00000000       0.00000000 </v>
     <v>       0.00000000       3.63500000       0.00000000 </v>
     <v>       0.00000000       0.00000000       3.63500000 </v>
    </varray>
    <i name="volume">     48.03007287 </i>
    <varray name="rec_basis" >
     <v>       0.27510316       0.00000000       0.00000000 </v>
     <v>       0.00000000       0.27510316       0.00000000 </v>
     <v>       0.00000000       0.00000000       0.27510316 </v>
    </varray>
   </crystal>
   <varray name="positions" >
    <v>       0.00000000       0.00000000       0.00000000 </v>
    <v>       0.50000000       0.50000000       0.00000000 </v>
    <v>       0.50000000       0.00000000       0.50000000 </v>
    <v>       0.00000000       0.50000000       0.50000000 </v>
   </varray>
  </structure>
  <varray name="forces" >
   <v>      -0.00000000      -0.00000000       0.00000000 </v>
   <v>       0.00000000      -0.00000000      -0.00000000 </v>
   <v>      -0.00000000      -0.00000000      -0.00000000 </v>
   <v>       0.00000000       0.00000000       0.00000000 </v>
  </varray>
  <varray name="stress" >
   <v>     -85.12992463       0.00000000      -0.00000000 </v>
   <v>       0.00000000     -85.12992463       0.00000000 </v>
   <v>       0.00000000       0.00000000     -85.12992463 </v>
  </varray>
  <energy>
   <i name="e_fr_energy">    -14.70502544 </i>
   <i name="e_wo_entrp">    -14.67587513 </i>
   <i name="e_0_energy">    -14.69530867 </i>
  </energy>
  <time name="totalsc">    0.64    0.64</time>
  <eigenvalues>
   <array>
    <dimension dim="1">band</dimension>
    <dimension dim="2">kpoint</dimension>
    <dimension dim="3">spin</dimension>
    <field>eigene</field>
    <field>occ</field>
    <set>
     <set comment="spin 1">
      <set comment="kpoint 1">
       <r>   -1.8412    1.0000 </r>
       <r>    2.6079    1.0000 </r>
       <r>    2.6079    1.0000 </r>
       <r>    2.6079    1.0000 </r>
       <r>    3.0423    1.0000 </r>
       <r>    3.0423    1.0000 </r>
       <r>    3.0423    1.0000 </r>
       <r>    4.3977    1.0000 </r>
       <r>    4.3977    1.0000 </r>
       <r>    4.3977    1.0000 </r>
       <r>    5.2033    1.0000 </r>
       <r>    5.2033    1.0000 </r>
       <r>    5.7446    1.0000 </r>
       <r>    5.7446    1.0000 </r>
       <r>    5.7446    1.0000 </r>
       <r>    5.8965    1.0000 </r>
       <r>    5.8965    1.0000 </r>
       <r>    5.8965    1.0000 </r>
       <r>    5.8965    1.0000 </r>
       <r>    5.8965    1.0000 </r>
       <r>    5.8965    1.0000 </r>
       <r>    8.8965   -0.0000 </r>
       <r>    8.8965   -0.0000 </r>
       <r>    8.8965   -0.0000 </r>
       <r>   14.3767    0.0000 </r>
       <r>   14.3767    0.0000 </r>
       <r>   14.3767    0.0000 </r>
       <r>   20.3391    0.0000 </r>
       <r>   20.3391    0.0000 </r>
       <r>   20.3391    0.0000 </r>
      </set>
      <set comment="kpoint 2">
       <r>   -1.3644    1.0000 </r>
       <r>    2.5545    1.0000 </r>
       <r>    2.8169    1.0000 </r>
       <r>    2.8169    1.0000 </r>
       <r>    3.1649    1.0000 </r>
       <r>    3.1761    1.0000 </r>
       <r>    3.1761    1.0000 </r>
       <r>    4.2698    1.0000 </r>
       <r>    4.5170    1.0000 </r>
       <r>    4.5170    1.0000 </r>
       <r>    5.0889    1.0000 </r>
       <r>    5.2505    1.0000 </r>
       <r>    5.2505    1.0000 </r>
       <r>    5.2569    1.0000 </r>
       <r>    5.5821    1.0000 </r>
       <r>    5.5821    1.0000 </r>
       <r>    5.6868    1.0000 </r>
       <r>    5.7036    1.0000 </r>
       <r>    5.7036    1.0000 </r>
       <r>    5.8972    1.0000 </r>
       <r>    5.8972    1.0000 </r>
       <r>    6.8307    1.0072 </r>
       <r>    9.9706   -0.0000 </r>
       <r>    9.9706   -0.0000 </r>
       <r>   14.5619    0.0000 </r>
       <r>   14.5619    0.0000 </r>
       <r>   17.4229    0.0000 </r>
       <r>   18.0901    0.0000 </r>
       <r>   18.0901    0.0000 </r>
       <r>   18.7547    0.0000 </r>
      </set>
      <set comment="kpoint 3">
       <r>   -0.0089    1.0000 </r>
       <r>    1.7664    1.0000 </r>
       <r>    3.2367    1.0000 </r>
       <r>    3.2367    1.0000 </r>
       <r>    3.4938    1.0000 </r>
       <r>    3.5897    1.0000 </r>
       <r>    3.5897    1.0000 </r>
       <r>    3.9196    1.0000 </r>
       <r>    4.3010    1.0000 </r>
       <r>    4.3010    1.0000 </r>
       <r>    4.8169    1.0000 </r>
       <r>    4.8287    1.0000 </r>
       <r>    4.8287    1.0000 </r>
       <r>    4.9441    1.0000 </r>
       <r>    5.2428    1.0000 </r>
       <r>    5.2428    1.0000 </r>
       <r>    5.2754    1.0000 </r>
       <r>    5.2754    1.0000 </r>
       <r>    5.3869    1.0000 </r>
       <r>    5.5513    1.0000 </r>
       <r>    5.8974    1.0000 </r>
       <r>    5.8974    1.0000 </r>
       <r>   12.1921   -0.0000 </r>
       <r>   12.1921   -0.0000 </r>
       <r>   14.9668    0.0000 </r>
       <r>   14.9668    0.0000 </r>
       <r>   15.2020    0.0000 </r>
       <r>   15.2020    0.0000 </r>
       <r>   16.6372    0.0000 </r>
       <r>   16.6372    0.0000 </r>
      </set>
      <set comment="kpoint 4">
       <r>   -0.8999    1.0000 </r>
       <r>    2.7975    1.0000 </r>
       <r>    2.7975    1.0000 </r>
       <r>    2.9938    1.0000 </r>
       <r>    3.2820    1.0000 </r>
       <r>    3.2849    1.0000 </r>
       <r>    3.2849    1.0000 </r>
       <r>    4.2116    1.0000 </r>
       <r>    4.5557    1.0000 </r>
       <r>    4.5616    1.0000 </r>
       <r>    4.9244    1.0000 </r>
       <r>    4.9244    1.0000 </r>
       <r>    4.9390    1.0000 </r>
       <r>    5.0718    1.0000 </r>
       <r>    5.2764    1.0000 </r>
       <r>    5.4536    1.0000 </r>
       <r>    5.5747    1.0000 </r>
       <r>    5.5747    1.0000 </r>
       <r>    5.7049    1.0000 </r>
       <r>    5.7049    1.0000 </r>
       <r>    5.7686    1.0000 </r>
       <r>    7.8485   -0.0001 </r>
       <r>    7.8485   -0.0001 </r>
       <r>   10.8354   -0.0000 </r>
       <r>   14.5186    0.0000 </r>
       <r>   14.9901    0.0000 </r>
       <r>   17.7547    0.0000 </r>
       <r>   17.7547    0.0000 </r>
       <r>   18.6771    0.0000 </r>
       <r>   18.6771    0.0000 </r>
      </set>
      <set comment="kpoint 5">
       <r>    0.4119    1.0000 </r>
       <r>    2.0971    1.0000 </r>
       <r>    3.3204    1.0000 </r>
       <r>    3.3989    1.0000 </r>
       <r>    3.5483    1.0000 </r>
       <r>    3.5745    1.0000 </r>
       <r>    3.6536    1.0000 </r>
       <r>    3.9324    1.0000 </r>
       <r>    4.0751    1.0000 </r>
       <r>    4.2530    1.0000 </r>
       <r>    4.4518    1.0000 </r>
       <r>    4.5520    1.0000 </r>
       <r>    4.8376    1.0000 </r>
       <r>    5.0003    1.0000 </r>
       <r>    5.1870    1.0000 </r>
       <r>    5.2460    1.0000 </r>
       <r>    5.2769    1.0000 </r>
       <r>    5.3337    1.0000 </r>
       <r>    5.5184    1.0000 </r>
       <r>    5.7036    1.0000 </r>
       <r>    5.7071    1.0000 </r>
       <r>    6.0542    1.0000 </r>
       <r>    9.5485   -0.0000 </r>
       <r>   11.7493   -0.0000 </r>
       <r>   12.8714    0.0000 </r>
       <r>   15.5566    0.0000 </r>
       <r>   15.5619    0.0000 </r>
       <r>   17.0297    0.0000 </r>
       <r>   18.8427    0.0000 </r>
       <r>   20.2830    0.0000 </r>
      </set>
      <set comment="kpoint 6">
       <r>    1.5512    1.0000 </r>
       <r>    2.8639    1.0000 </r>
       <r>    2.8639    1.0000 </r>
       <r>    3.3732    1.0000 </r>
       <r>    3.7878    1.0000 </r>
       <r>    3.7934    1.0000 </r>
       <r>    3.7934    1.0000 </r>
       <r>    3.9158    1.0000 </r>
       <r>    4.0560    1.0000 </r>
       <r>    4.0560    1.0000 </r>
       <r>    4.0686    1.0000 </r>
       <r>    4.3848    1.0000 </r>
       <r>    4.8720    1.0000 </r>
       <r>    4.9601    1.0000 </r>
       <r>    5.0051    1.0000 </r>
       <r>    5.0594    1.0000 </r>
       <r>    5.0594    1.0000 </r>
       <r>    5.2989    1.0000 </r>
       <r>    5.2989    1.0000 </r>
       <r>    5.4288    1.0000 </r>
       <r>    6.0514    1.0000 </r>
       <r>    7.1394    0.8647 </r>
       <r>    7.1394    0.8647 </r>
       <r>    8.8986   -0.0000 </r>
       <r>   14.6517    0.0000 </r>
       <r>   16.5203    0.0000 </r>
       <r>   17.1866    0.0000 </r>
       <r>   17.1866    0.0000 </r>
       <r>   18.2885    0.0000 </r>
       <r>   18.2885    0.0000 </r>
      </set>
      <set comment="kpoint 7">
       <r>   -0.4536    1.0000 </r>
       <r>    2.9709    1.0000 </r>
       <r>    2.9709    1.0000 </r>
       <r>    2.9709    1.0000 </r>
       <r>    3.3927    1.0000 </r>
       <r>    3.3927    1.0000 </r>
       <r>    3.3927    1.0000 </r>
       <r>    4.1834    1.0000 </r>
       <r>    4.5586    1.0000 </r>
       <r>    4.5586    1.0000 </r>
       <r>    4.6914    1.0000 </r>
       <r>    4.6914    1.0000 </r>
       <r>    4.6914    1.0000 </r>
       <r>    5.2045    1.0000 </r>
       <r>    5.2045    1.0000 </r>
       <r>    5.2425    1.0000 </r>
       <r>    5.2425    1.0000 </r>
       <r>    5.2425    1.0000 </r>
       <r>    5.8101    1.0000 </r>
       <r>    5.8101    1.0000 </r>
       <r>    5.8101    1.0000 </r>
       <r>    8.4805   -0.0000 </r>
       <r>    8.4805   -0.0000 </r>
       <r>    8.4805   -0.0000 </r>
       <r>   15.2996    0.0000 </r>
       <r>   15.2996    0.0000 </r>
       <r>   15.2996    0.0000 </r>
       <r>   18.1210    0.0000 </r>
       <r>   18.1210    0.0000 </r>
       <r>   18.1210    0.0000 </r>
      </set>
      <set comment="kpoint 8">
       <r>    0.7883    1.0000 </r>
       <r>    2.3213    1.0000 </r>
       <r>    3.2994    1.0000 </r>
       <r>    3.2994    1.0000 </r>
       <r>    3.6427    1.0000 </r>
       <r>    3.6427    1.0000 </r>
       <r>    3.6972    1.0000 </r>
       <r>    4.0107    1.0000 </r>
       <r>    4.2455    1.0000 </r>
       <r>    4.2455    1.0000 </r>
       <r>    4.3630    1.0000 </r>
       <r>    4.5122    1.0000 </r>
       <r>    4.6555    1.0000 </r>
       <r>    4.9036    1.0000 </r>
       <r>    5.0346    1.0000 </r>
       <r>    5.0346    1.0000 </r>
       <r>    5.3061    1.0000 </r>
       <r>    5.4793    1.0000 </r>
       <r>    5.7179    1.0000 </r>
       <r>    5.7263    1.0000 </r>
       <r>    5.7263    1.0000 </r>
       <r>    6.2423    1.0000 </r>
       <r>    9.8433   -0.0000 </r>
       <r>    9.8433   -0.0000 </r>
       <r>   12.4995   -0.0000 </r>
       <r>   12.4995   -0.0000 </r>
       <r>   16.8327    0.0000 </r>
       <r>   19.1407    0.0000 </r>
       <r>   19.2210    0.0000 </r>
       <r>   19.2210    0.0000 </r>
      </set>
      <set comment="kpoint 9">
       <r>    1.7461    1.0000 </r>
       <r>    2.7291    1.0000 </r>
       <r>    2.7291    1.0000 </r>
       <r>    3.0420    1.0000 </r>
       <r>    3.9438    1.0000 </r>
       <r>    4.0439    1.0000 </r>
       <r>    4.0439    1.0000 </r>
       <r>    4.1954    1.0000 </r>
       <r>    4.2700    1.0000 </r>
       <r>    4.2700    1.0000 </r>
       <r>    4.4132    1.0000 </r>
       <r>    4.4148    1.0000 </r>
       <r>    4.5739    1.0000 </r>
       <r>    4.7427    1.0000 </r>
       <r>    4.7427    1.0000 </r>
       <r>    4.7606    1.0000 </r>
       <r>    5.3258    1.0000 </r>
       <r>    5.6060    1.0000 </r>
       <r>    5.6060    1.0000 </r>
       <r>    5.6240    1.0000 </r>
       <r>    5.9321    1.0000 </r>
       <r>    7.1735    0.7560 </r>
       <r>    7.1735    0.7560 </r>
       <r>    8.8270   -0.0000 </r>
       <r>   11.9343   -0.0000 </r>
       <r>   13.9040    0.0000 </r>
       <r>   13.9040    0.0000 </r>
       <r>   16.1305    0.0000 </r>
       <r>   20.4258    0.0000 </r>
       <r>   22.4078    0.0000 </r>
      </set>
      <set comment="kpoint 10">
       <r>    2.1478    1.0000 </r>
       <r>    2.5694    1.0000 </r>
       <r>    2.5694    1.0000 </r>
       <r>    2.5694    1.0000 </r>
       <r>    4.2478    1.0000 </r>
       <r>    4.2478    1.0000 </r>
       <r>    4.2478    1.0000 </r>
       <r>    4.4151    1.0000 </r>
       <r>    4.4151    1.0000 </r>
       <r>    4.4872    1.0000 </r>
       <r>    4.4872    1.0000 </r>
       <r>    4.4872    1.0000 </r>
       <r>    4.9576    1.0000 </r>
       <r>    4.9576    1.0000 </r>
       <r>    4.9576    1.0000 </r>
       <r>    5.1833    1.0000 </r>
       <r>    5.6508    1.0000 </r>
       <r>    5.6508    1.0000 </r>
       <r>    5.7647    1.0000 </r>
       <r>    5.7647    1.0000 </r>
       <r>    5.7647    1.0000 </r>
       <r>    7.2786    0.3299 </r>
       <r>    7.2786    0.3299 </r>
       <r>    7.2786    0.3299 </r>
       <r>   11.4810   -0.0000 </r>
       <r>   11.4810   -0.0000 </r>
       <r>   11.4810   -0.0000 </r>
       <r>   13.2450    0.0000 </r>
       <r>   25.6846    0.0000 </r>
       <r>   25.6846    0.0000 </r>
      </set>
     </set>
    </set>
   </array>
  </eigenvalues>
  <separator name="orbital magnetization" >
   <v name="MAGDIPOLOUT">      0.00000000      0.00000000      0.00000000</v>
  </separator>
  <dos>
   <i name="efermi">      7.23745312 </i>
   <total>
    <array>
     <dimension dim="1">gridpoints</dimension>
     <dimension dim="2">spin</dimension>
     <field>energy</field>
     <field>total</field>
     <field>integrated</field>
     <set>
      <set comment="spin 1">
       <r>    -3.8412     0.0000     0.0000 </r>
       <r>    -3.7361     0.0000     0.0000 </r>
       <r>    -3.6310     0.0000     0.0000 </r>
       <r>    -3.5259    -0.0000    -0.0000 </r>
       <r>    -3.4208    -0.0000    -0.0000 </r>
       <r>    -3.3158    -0.0000    -0.0000 </r>
       <r>    -3.2107    -0.0000    -0.0000 </r>
       <r>    -3.1056    -0.0000    -0.0000 </r>
       <r>    -3.0005    -0.0000    -0.0000 </r>
       <r>    -2.8954    -0.0000    -0.0000 </r>
       <r>    -2.7903    -0.0000    -0.0000 </r>
       <r>    -2.6852    -0.0000    -0.0000 </r>
       <r>    -2.5802    -0.0000    -0.0000 </r>
       <r>    -2.4751    -0.0000    -0.0000 </r>
       <r>    -2.3700    -0.0001    -0.0000 </r>
       <r>    -2.2649    -0.0007    -0.0001 </r>
       <r>    -2.1598    -0.0027    -0.0004 </r>
       <r>    -2.0547    -0.0011    -0.0005 </r>
       <r>    -1.9496     0.0209     0.0017 </r>
       <r>    -1.8446     0.0561     0.0076 </r>
       <r>    -1.7395     0.0502     0.0129 </r>
       <r>    -1.6344     0.0035     0.0132 </r>
       <r>    -1.5293     0.0336     0.0168 </r>
       <r>    -1.4242     0.2290     0.0408 </r>
       <r>    -1.3191     0.3801     0.0808 </r>
       <r>    -1.2140     0.2312     0.1051 </r>
       <r>    -1.1090     0.0445     0.1098 </r>
       <r>    -1.0039     0.2516     0.1362 </r>
       <r>    -0.8988     0.6894     0.2086 </r>
       <r>    -0.7937     0.6778     0.2799 </r>
       <r>    -0.6886     0.2418     0.3053 </r>
       <r>    -0.5835     0.1031     0.3161 </r>
       <r>    -0.4784     0.3748     0.3555 </r>
       <r>    -0.3734     0.4866     0.4066 </r>
       <r>    -0.2683     0.2289     0.4307 </r>
       <r>    -0.1632     0.0641     0.4374 </r>
       <r>    -0.0581     0.2235     0.4609 </r>
       <r>     0.0470     0.3405     0.4967 </r>
       <r>     0.1521     0.1631     0.5138 </r>
       <r>     0.2572     0.2261     0.5376 </r>
       <r>     0.3622     0.9867     0.6413 </r>
       <r>     0.4673     1.4896     0.7978 </r>
       <r>     0.5724     0.9377     0.8964 </r>
       <r>     0.6775     0.6447     0.9641 </r>
       <r>     0.7826     1.2882     1.0995 </r>
       <r>     0.8877     1.3961     1.2462 </r>
       <r>     0.9928     0.5738     1.3065 </r>
       <r>     1.0979    -0.0123     1.3052 </r>
       <r>     1.2029    -0.0970     1.2950 </r>
       <r>     1.3080    -0.0702     1.2876 </r>
       <r>     1.4131     0.0715     1.2951 </r>
       <r>     1.5182     0.5125     1.3490 </r>
       <r>     1.6233     1.2217     1.4774 </r>
       <r>     1.7284     1.9300     1.6802 </r>
       <r>     1.8335     1.8140     1.8708 </r>
       <r>     1.9385     0.9911     1.9750 </r>
       <r>     2.0436     1.1242     2.0931 </r>
       <r>     2.1487     2.0109     2.3044 </r>
       <r>     2.2538     2.1935     2.5349 </r>
       <r>     2.3589     1.7749     2.7214 </r>
       <r>     2.4640     1.4979     2.8789 </r>
       <r>     2.5691     2.2222     3.1124 </r>
       <r>     2.6741     4.1905     3.5527 </r>
       <r>     2.7792     6.2689     4.2115 </r>
       <r>     2.8843     6.7317     4.9189 </r>
       <r>     2.9894     5.5991     5.5073 </r>
       <r>     3.0945     4.5100     5.9812 </r>
       <r>     3.1996     5.8000     6.5907 </r>
       <r>     3.3047     9.4800     7.5870 </r>
       <r>     3.4097    10.6307     8.7041 </r>
       <r>     3.5148     9.0773     9.6580 </r>
       <r>     3.6199     9.2534    10.6304 </r>
       <r>     3.7250     9.1296    11.5898 </r>
       <r>     3.8301     7.2444    12.3511 </r>
       <r>     3.9352     7.8469    13.1757 </r>
       <r>     4.0403    10.9781    14.3293 </r>
       <r>     4.1453    13.4220    15.7398 </r>
       <r>     4.2504    15.6149    17.3807 </r>
       <r>     4.3555    16.9168    19.1584 </r>
       <r>     4.4606    16.4525    20.8873 </r>
       <r>     4.5657    14.9767    22.4611 </r>
       <r>     4.6708    12.5800    23.7831 </r>
       <r>     4.7759    11.3180    24.9725 </r>
       <r>     4.8809    12.5541    26.2918 </r>
       <r>     4.9860    14.2285    27.7870 </r>
       <r>     5.0911    14.0004    29.2582 </r>
       <r>     5.1962    14.6510    30.7978 </r>
       <r>     5.3013    16.6390    32.5463 </r>
       <r>     5.4064    14.3621    34.0556 </r>
       <r>     5.5115    11.5880    35.2733 </r>
       <r>     5.6165    15.1839    36.8689 </r>
       <r>     5.7216    19.6248    38.9312 </r>
       <r>     5.8267    16.6871    40.6848 </r>
       <r>     5.9318     9.4377    41.6766 </r>
       <r>     6.0369     4.7809    42.1790 </r>
       <r>     6.1420     2.9896    42.4931 </r>
       <r>     6.2471     2.0971    42.7135 </r>
       <r>     6.3521     1.2407    42.8439 </r>
       <r>     6.4572     0.3393    42.8796 </r>
       <r>     6.5623    -0.0903    42.8701 </r>
       <r>     6.6674    -0.0484    42.8650 </r>
       <r>     6.7725     0.1254    42.8782 </r>
       <r>     6.8776     0.1344    42.8923 </r>
       <r>     6.9827     0.4291    42.9374 </r>
       <r>     7.0877     2.4863    43.1987 </r>
       <r>     7.1928     5.2395    43.7493 </r>
       <r>     7.2979     5.0202    44.2768 </r>
       <r>     7.4030     2.1929    44.5072 </r>
       <r>     7.5081     0.1424    44.5222 </r>
       <r>     7.6132    -0.2689    44.4940 </r>
       <r>     7.7183     0.2505    44.5203 </r>
       <r>     7.8233     1.2116    44.6476 </r>
       <r>     7.9284     1.5162    44.8069 </r>
       <r>     8.0335     0.7391    44.8846 </r>
       <r>     8.1386    -0.0013    44.8845 </r>
       <r>     8.2437    -0.1402    44.8697 </r>
       <r>     8.3488     0.2968    44.9009 </r>
       <r>     8.4539     1.1682    45.0237 </r>
       <r>     8.5589     1.4097    45.1718 </r>
       <r>     8.6640     0.8725    45.2635 </r>
       <r>     8.7691     1.2254    45.3923 </r>
       <r>     8.8742     2.2584    45.6296 </r>
       <r>     8.9793     1.9626    45.8359 </r>
       <r>     9.0844     0.6525    45.9044 </r>
       <r>     9.1895    -0.0914    45.8948 </r>
       <r>     9.2945    -0.1683    45.8771 </r>
       <r>     9.3996     0.1728    45.8953 </r>
       <r>     9.5047     0.9567    45.9958 </r>
       <r>     9.6098     1.4204    46.1451 </r>
       <r>     9.7149     1.5891    46.3121 </r>
       <r>     9.8200     2.7207    46.5980 </r>
       <r>     9.9251     3.4748    46.9632 </r>
       <r>    10.0301     2.2128    47.1957 </r>
       <r>    10.1352     0.5529    47.2538 </r>
       <r>    10.2403    -0.0852    47.2448 </r>
       <r>    10.3454    -0.0953    47.2348 </r>
       <r>    10.4505    -0.0416    47.2305 </r>
       <r>    10.5556    -0.0432    47.2259 </r>
       <r>    10.6607     0.0458    47.2307 </r>
       <r>    10.7658     0.4215    47.2750 </r>
       <r>    10.8708     0.7730    47.3563 </r>
       <r>    10.9759     0.5692    47.4161 </r>
       <r>    11.0810     0.1110    47.4277 </r>
       <r>    11.1861    -0.1118    47.4160 </r>
       <r>    11.2912     0.0020    47.4162 </r>
       <r>    11.3963     0.6540    47.4849 </r>
       <r>    11.5014     1.4149    47.6336 </r>
       <r>    11.6064     1.4617    47.7872 </r>
       <r>    11.7115     1.4540    47.9400 </r>
       <r>    11.8166     1.9111    48.1408 </r>
       <r>    11.9217     2.0878    48.3602 </r>
       <r>    12.0268     1.6112    48.5295 </r>
       <r>    12.1319     0.9428    48.6286 </r>
       <r>    12.2370     0.6027    48.6920 </r>
       <r>    12.3420     0.8008    48.7761 </r>
       <r>    12.4471     2.0653    48.9931 </r>
       <r>    12.5522     3.0223    49.3107 </r>
       <r>    12.6573     1.9410    49.5147 </r>
       <r>    12.7624     0.8401    49.6030 </r>
       <r>    12.8675     1.2099    49.7301 </r>
       <r>    12.9726     1.3186    49.8687 </r>
       <r>    13.0776     0.5935    49.9311 </r>
       <r>    13.1827     0.2912    49.9617 </r>
       <r>    13.2878     0.4496    50.0089 </r>
       <r>    13.3929     0.3350    50.0441 </r>
       <r>    13.4980     0.0271    50.0470 </r>
       <r>    13.6031    -0.1726    50.0288 </r>
       <r>    13.7082     0.0185    50.0308 </r>
       <r>    13.8132     1.3058    50.1680 </r>
       <r>    13.9183     2.9516    50.4782 </r>
       <r>    14.0234     2.6096    50.7524 </r>
       <r>    14.1285     0.8082    50.8373 </r>
       <r>    14.2336    -0.1402    50.8226 </r>
       <r>    14.3387    -0.0012    50.8225 </r>
       <r>    14.4438     0.7686    50.9032 </r>
       <r>    14.5488     1.7909    51.0914 </r>
       <r>    14.6539     1.9865    51.3002 </r>
       <r>    14.7590     1.1169    51.4176 </r>
       <r>    14.8641     0.6471    51.4856 </r>
       <r>    14.9692     1.1736    51.6089 </r>
       <r>    15.0743     1.5168    51.7683 </r>
       <r>    15.1794     1.5716    51.9334 </r>
       <r>    15.2844     1.9040    52.1335 </r>
       <r>    15.3895     2.0017    52.3439 </r>
       <r>    15.4946     2.4392    52.6002 </r>
       <r>    15.5997     3.0863    52.9245 </r>
       <r>    15.7048     2.1012    53.1453 </r>
       <r>    15.8099     0.3937    53.1867 </r>
       <r>    15.9150    -0.1810    53.1677 </r>
       <r>    16.0200     0.3950    53.2092 </r>
       <r>    16.1251     1.3363    53.3496 </r>
       <r>    16.2302     1.3806    53.4947 </r>
       <r>    16.3353     0.5631    53.5539 </r>
       <r>    16.4404     0.3461    53.5902 </r>
       <r>    16.5455     0.9291    53.6879 </r>
       <r>    16.6506     1.3570    53.8305 </r>
       <r>    16.7556     1.5075    53.9889 </r>
       <r>    16.8607     1.7658    54.1744 </r>
       <r>    16.9658     2.0080    54.3855 </r>
       <r>    17.0709     2.2779    54.6248 </r>
       <r>    17.1760     2.3414    54.8709 </r>
       <r>    17.2811     1.7024    55.0498 </r>
       <r>    17.3862     0.7815    55.1319 </r>
       <r>    17.4912     0.2680    55.1601 </r>
       <r>    17.5963     0.2978    55.1914 </r>
       <r>    17.7014     0.9587    55.2921 </r>
       <r>    17.8065     1.4286    55.4422 </r>
       <r>    17.9116     0.9798    55.5452 </r>
       <r>    18.0167     1.0399    55.6545 </r>
       <r>    18.1218     2.2239    55.8882 </r>
       <r>    18.2268     2.8496    56.1876 </r>
       <r>    18.3319     2.1685    56.4155 </r>
       <r>    18.4370     0.9163    56.5118 </r>
       <r>    18.5421     0.3596    56.5496 </r>
       <r>    18.6472     1.2324    56.6791 </r>
       <r>    18.7523     2.4453    56.9361 </r>
       <r>    18.8574     2.4546    57.1940 </r>
       <r>    18.9624     1.4381    57.3451 </r>
       <r>    19.0675     1.5386    57.5068 </r>
       <r>    19.1726     3.5131    57.8760 </r>
       <r>    19.2777     4.2316    58.3207 </r>
       <r>    19.3828     2.2002    58.5519 </r>
       <r>    19.4879     0.2348    58.5766 </r>
       <r>    19.5930    -0.2089    58.5546 </r>
       <r>    19.6981    -0.0865    58.5455 </r>
       <r>    19.8031    -0.0202    58.5434 </r>
       <r>    19.9082    -0.0421    58.5390 </r>
       <r>    20.0133    -0.1081    58.5276 </r>
       <r>    20.1184     0.0620    58.5341 </r>
       <r>    20.2235     0.9900    58.6382 </r>
       <r>    20.3286     2.3270    58.8827 </r>
       <r>    20.4337     2.6863    59.1650 </r>
       <r>    20.5387     1.6426    59.3376 </r>
       <r>    20.6438     0.3948    59.3791 </r>
       <r>    20.7489    -0.0881    59.3698 </r>
       <r>    20.8540    -0.0744    59.3620 </r>
       <r>    20.9591    -0.0172    59.3602 </r>
       <r>    21.0642    -0.0019    59.3600 </r>
       <r>    21.1693    -0.0001    59.3600 </r>
       <r>    21.2743    -0.0000    59.3600 </r>
       <r>    21.3794    -0.0000    59.3600 </r>
       <r>    21.4845    -0.0000    59.3600 </r>
       <r>    21.5896    -0.0000    59.3600 </r>
       <r>    21.6947    -0.0000    59.3600 </r>
       <r>    21.7998    -0.0003    59.3600 </r>
       <r>    21.9049    -0.0037    59.3596 </r>
       <r>    22.0099    -0.0263    59.3568 </r>
       <r>    22.1150    -0.0766    59.3488 </r>
       <r>    22.2201     0.0429    59.3533 </r>
       <r>    22.3252     0.7268    59.4297 </r>
       <r>    22.4303     1.5097    59.5883 </r>
       <r>    22.5354     1.2489    59.7195 </r>
       <r>    22.6405     0.3600    59.7574 </r>
       <r>    22.7455    -0.0577    59.7513 </r>
       <r>    22.8506    -0.0558    59.7454 </r>
       <r>    22.9557    -0.0124    59.7441 </r>
       <r>    23.0608    -0.0013    59.7440 </r>
       <r>    23.1659    -0.0001    59.7440 </r>
       <r>    23.2710    -0.0000    59.7440 </r>
       <r>    23.3761    -0.0000    59.7440 </r>
       <r>    23.4811    -0.0000    59.7440 </r>
       <r>    23.5862    -0.0000    59.7440 </r>
       <r>    23.6913    -0.0000    59.7440 </r>
       <r>    23.7964     0.0000    59.7440 </r>
       <r>    23.9015     0.0000    59.7440 </r>
       <r>    24.0066    -0.0000    59.7440 </r>
       <r>    24.1117    -0.0000    59.7440 </r>
       <r>    24.2167    -0.0000    59.7440 </r>
       <r>    24.3218    -0.0000    59.7440 </r>
       <r>    24.4269    -0.0000    59.7440 </r>
       <r>    24.5320    -0.0000    59.7440 </r>
       <r>    24.6371    -0.0000    59.7440 </r>
       <r>    24.7422    -0.0000    59.7440 </r>
       <r>    24.8473    -0.0000    59.7440 </r>
       <r>    24.9523    -0.0000    59.7440 </r>
       <r>    25.0574    -0.0001    59.7440 </r>
       <r>    25.1625    -0.0016    59.7438 </r>
       <r>    25.2676    -0.0130    59.7425 </r>
       <r>    25.3727    -0.0461    59.7376 </r>
       <r>    25.4778    -0.0082    59.7368 </r>
       <r>    25.5829     0.3740    59.7761 </r>
       <r>    25.6879     0.9477    59.8756 </r>
       <r>    25.7930     0.9213    59.9725 </r>
       <r>    25.8981     0.3371    60.0079 </r>
       <r>    26.0032    -0.0181    60.0060 </r>
       <r>    26.1083    -0.0439    60.0014 </r>
       <r>    26.2134    -0.0116    60.0002 </r>
       <r>    26.3185    -0.0014    60.0000 </r>
       <r>    26.4235    -0.0001    60.0000 </r>
       <r>    26.5286    -0.0000    60.0000 </r>
       <r>    26.6337    -0.0000    60.0000 </r>
       <r>    26.7388    -0.0000    60.0000 </r>
       <r>    26.8439    -0.0000    60.0000 </r>
       <r>    26.9490    -0.0000    60.0000 </r>
       <r>    27.0541     0.0000    60.0000 </r>
       <r>    27.1591     0.0000    60.0000 </r>
       <r>    27.2642     0.0000    60.0000 </r>
       <r>    27.3693     0.0000    60.0000 </r>
       <r>    27.4744     0.0000    60.0000 </r>
       <r>    27.5795     0.0000    60.0000 </r>
       <r>    27.6846     0.0000    60.0000 </r>
      </set>
     </set>
    </array>
   </total>
  </dos>
 </calculation>
 <structure name="finalpos" >
  <crystal>
   <varray name="basis" >
    <v>       3.63500000       0.00000000       0.00000000 </v>
    <v>       0.00000000       3.63500000       0.00000000 </v>
    <v>       0.00000000       0.00000000       3.63500000 </v>
   </varray>
   <i name="volume">     48.03007287 </i>
   <varray name="rec_basis" >
    <v>       0.27510316       0.00000000       0.00000000 </v>
    <v>       0.00000000       0.27510316       0.00000000 </v>
    <v>       0.00000000       0.00000000       0.27510316 </v>
   </varray>
  </crystal>
  <varray name="positions" >
   <v>       0.00000000       0.00000000       0.00000000 </v>
   <v>       0.50000000       0.50000000       0.00000000 </v>
   <v>       0.50000000       0.00000000       0.50000000 </v>
   <v>       0.00000000       0.50000000       0.50000000 </v>
  </varray>
 </structure>
</modeling>
