unknown system                          
   1.00000000000000     
     3.374435    0.000000    0.000000
     0.000000    3.374435    0.000000
     0.000000    0.000000    3.374435
   Pd   Ir   Pt   Cu
     1     1     1     1
Direct
  0.000000  0.000000  0.000000
  0.500000  0.500000  0.000000
  0.500000  0.000000  0.500000
  0.000000  0.500000  0.500000
 
   28   28   28
  236.90      226.15      198.59      164.09      129.99      98.305      69.327      45.315      29.271      21.048    
  16.806      14.340      13.104      12.672      12.603      12.672      13.104      14.340      16.806      21.048    
  29.271      45.315      69.327      98.305      129.99      164.09      198.59      226.15      226.29      216.09    
  189.91      157.01      124.38      94.054      66.439      43.721      28.652      20.933      16.871      14.519    
  13.348      12.941      12.877      12.941      13.348      14.519      16.871      20.933      28.652      43.721    
  66.439      94.054      124.38      157.01      189.91      216.09      198.61      189.82      167.12      138.33    
  109.53      82.802      58.848      39.599      27.120      20.708      17.155      15.144      14.175      13.857    
  13.814      13.857      14.175      15.144      17.155      20.708      27.120      39.599      58.848      82.802    
  109.53      138.33      167.12      189.82      162.96      155.88      137.47      113.83      89.978      68.084    
  49.107      34.517      25.425      20.653      17.898      16.455      15.846      15.707      15.712      15.707    
  15.846      16.455      17.898      20.653      25.425      34.517      49.107      68.084      89.978      113.83    
  137.47      155.88      126.91      121.48      107.24      88.765      70.133      53.481      39.833      30.047    
  24.277      21.100      19.401      18.743      18.682      18.863      18.970      18.863      18.682      18.743    
  19.401      21.100      24.277      30.047      39.833      53.481      70.133      88.765      107.24      121.48    
  93.811      89.872      79.510      66.054      52.678      41.266      32.651      27.075      23.981      22.347    
  21.968      22.486      23.414      24.256      24.594      24.256      23.414      22.486      21.968      22.347    
  23.981      27.075      32.651      41.266      52.678      66.054      79.510      89.872      64.938      62.385    
  55.690      47.104      38.861      32.337      28.004      25.635      24.554      24.769      26.203      28.427    
  30.808      32.641      33.330      32.641      30.808      28.427      26.203      24.769      24.554      25.635    
  28.004      32.337      38.861      47.104      55.690      62.385      42.195      40.845      37.357      33.047    
  29.227      26.664      25.453      25.274      26.314      28.698      32.205      36.323      40.288      43.194    
  44.266      43.194      40.288      36.323      32.205      28.698      26.314      25.274      25.453      26.664    
  29.227      33.047      37.357      40.845      27.368      26.872      25.653      24.331      23.499      23.429    
  24.170      26.083      29.369      33.877      39.244      44.931      50.156      53.917      55.296      53.917    
  50.156      44.931      39.244      33.877      29.369      26.083      24.170      23.429      23.499      24.331    
  25.653      26.872      19.631      19.564      19.466      19.578      20.192      21.574      24.089      28.105    
  33.483      39.745      46.407      53.041      59.016      63.327      64.918      63.327      59.016      53.041    
  46.407      39.745      33.483      28.105      24.089      21.574      20.192      19.578      19.466      19.564    
  15.472      15.558      15.899      16.716      18.289      20.897      25.110      31.099      38.298      45.874    
  53.316      60.476      66.985      71.805      73.616      71.805      66.985      60.476      53.316      45.874    
  38.298      31.099      25.110      20.897      18.289      16.716      15.899      15.558      12.993      13.176    
  13.810      15.125      17.398      21.067      26.840      34.613      43.380      52.007      60.086      67.862    
  75.215      80.887      83.067      80.887      75.215      67.862      60.086      52.007      43.380      34.613    
  26.840      21.067      17.398      15.125      13.810      13.176      11.712      11.949      12.753      14.376    
  17.121      21.657      28.738      38.007      48.087      57.656      66.504      75.268      83.954      90.892    
  93.603      90.892      83.954      75.268      66.504      57.656      48.087      38.007      28.738      21.657    
  17.121      14.376      12.753      11.949      11.236      11.493      12.367      14.134      17.144      22.248    
  30.212      40.506      51.513      61.831      71.435      81.244      91.279      99.446      102.66      99.446    
  91.279      81.244      71.435      61.831      51.513      40.506      30.212      22.248      17.144      14.134    
  12.367      11.493      11.149      11.409      12.298      14.101      17.193      22.492      30.770      41.431    
  52.780      63.394      73.324      83.591      94.204      102.89      106.31      102.89      94.204      83.591    
  73.324      63.394      52.780      41.431      30.770      22.492      17.193      14.101      12.298      11.409    
  11.236      11.493      12.367      14.134      17.144      22.248      30.212      40.506      51.513      61.831    
  71.435      81.244      91.279      99.446      102.66      99.446      91.279      81.244      71.435      61.831    
  51.513      40.506      30.212      22.248      17.144      14.134      12.367      11.493      11.712      11.949    
  12.753      14.376      17.121      21.657      28.738      38.007      48.087      57.656      66.504      75.268    
  83.954      90.892      93.603      90.892      83.954      75.268      66.504      57.656      48.087      38.007    
  28.738      21.657      17.121      14.376      12.753      11.949      12.993      13.176      13.810      15.125    
  17.398      21.067      26.840      34.613      43.380      52.007      60.086      67.862      75.215      80.887    
  83.067      80.887      75.215      67.862      60.086      52.007      43.380      34.613      26.840      21.067    
  17.398      15.125      13.810      13.176      15.472      15.558      15.899      16.716      18.289      20.897    
  25.110      31.099      38.298      45.874      53.316      60.476      66.985      71.805      73.616      71.805    
  66.985      60.476      53.316      45.874      38.298      31.099      25.110      20.897      18.289      16.716    
  15.899      15.558      19.631      19.564      19.466      19.578      20.192      21.574      24.089      28.105    
  33.483      39.745      46.407      53.041      59.016      63.327      64.918      63.327      59.016      53.041    
  46.407      39.745      33.483      28.105      24.089      21.574      20.192      19.578      19.466      19.564    
  27.368      26.872      25.653      24.331      23.499      23.429      24.170      26.083      29.369      33.877    
  39.244      44.931      50.156      53.917      55.296      53.917      50.156      44.931      39.244      33.877    
  29.369      26.083      24.170      23.429      23.499      24.331      25.653      26.872      42.195      40.845    
  37.357      33.047      29.227      26.664      25.453      25.274      26.314      28.698      32.205      36.323    
  40.288      43.194      44.266      43.194      40.288      36.323      32.205      28.698      26.314      25.274    
  25.453      26.664      29.227      33.047      37.357      40.845      64.938      62.385      55.690      47.104    
  38.861      32.337      28.004      25.635      24.554      24.769      26.203      28.427      30.808      32.641    
  33.330      32.641      30.808      28.427      26.203      24.769      24.554      25.635      28.004      32.337    
  38.861      47.104      55.690      62.385      93.811      89.872      79.510      66.054      52.678      41.266    
  32.651      27.075      23.981      22.347      21.968      22.486      23.414      24.256      24.594      24.256    
  23.414      22.486      21.968      22.347      23.981      27.075      32.651      41.266      52.678      66.054    
  79.510      89.872      126.91      121.48      107.24      88.765      70.133      53.481      39.833      30.047    
  24.277      21.100      19.401      18.743      18.682      18.863      18.970      18.863      18.682      18.743    
  19.401      21.100      24.277      30.047      39.833      53.481      70.133      88.765      107.24      121.48    
  162.96      155.88      137.47      113.83      89.978      68.084      49.107      34.517      25.425      20.653    
  17.898      16.455      15.846      15.707      15.712      15.707      15.846      16.455      17.898      20.653    
  25.425      34.517      49.107      68.084      89.978      113.83      137.47      155.88      198.61      189.82    
  167.12      138.33      109.53      82.802      58.848      39.599      27.120      20.708      17.155      15.144    
  14.175      13.857      13.814      13.857      14.175      15.144      17.155      20.708      27.120      39.599    
  58.848      82.802      109.53      138.33      167.12      189.82      226.29      216.09      189.91      157.01    
  124.38      94.054      66.439      43.721      28.652      20.933      16.871      14.519      13.348      12.941    
  12.877      12.941      13.348      14.519      16.871      20.933      28.652      43.721      66.439      94.054    
  124.38      157.01      189.91      216.09      226.36      216.18      190.03      157.15      124.51      94.144    
  66.479      43.725      28.641      20.917      16.852      14.496      13.318      12.907      12.841      12.907    
  13.318      14.496      16.852      20.917      28.641      43.725      66.479      94.144      124.51      157.15    
  190.03      216.18      216.59      206.91      181.99      150.56      119.26      90.152      63.767      42.232    
  28.064      20.807      16.914      14.667      13.553      13.167      13.107      13.167      13.553      14.667    
  16.914      20.807      28.064      42.232      63.767      90.152      119.26      150.56      181.99      206.91    
  190.98      182.57      160.80      133.10      105.31      79.559      56.628      38.371      26.635      20.588    
  17.185      15.269      14.351      14.052      14.012      14.052      14.351      15.269      17.185      20.588    
  26.635      38.371      56.628      79.559      105.31      133.10      160.80      182.57      157.59      150.75    
  132.92      109.98      86.821      65.641      47.443      33.602      25.049      20.523      17.895      16.531    
  15.964      15.839      15.847      15.839      15.964      16.531      17.895      20.523      25.049      33.602    
  47.443      65.641      86.821      109.98      132.92      150.75      123.25      117.96      104.07      86.042    
  67.886      51.754      38.670      29.397      23.966      20.939      19.338      18.736      18.699      18.882    
  18.988      18.882      18.699      18.736      19.338      20.939      23.966      29.397      38.670      51.754    
  67.886      86.042      104.07      117.96      91.222      87.376      77.258      64.128      51.115      40.091    
  31.858      26.591      23.666      22.130      21.799      22.320      23.225      24.040      24.366      24.040    
  23.225      22.320      21.799      22.130      23.666      26.591      31.858      40.091      51.115      64.128    
  77.258      87.376      63.117      60.634      54.125      45.792      37.823      31.562      27.448      25.214    
  24.202      24.442      25.852      28.010      30.310      32.073      32.736      32.073      30.310      28.010    
  25.852      24.442      24.202      25.214      27.448      31.562      37.823      45.792      54.125      60.634    
  41.073      39.771      36.409      32.263      28.602      26.162      25.017      24.857      25.888      28.223    
  31.636      35.624      39.448      42.241      43.270      42.241      39.448      35.624      31.636      28.223    
  25.888      24.857      25.017      26.162      28.602      32.263      36.409      39.771      26.835      26.362    
  25.200      23.939      23.144      23.069      23.787      25.649      28.857      33.262      38.492      44.006    
  49.041      52.648      53.968      52.648      49.041      44.006      38.492      33.262      28.857      25.649    
  23.787      23.069      23.144      23.939      25.200      26.362      19.431      19.367      19.272      19.372    
  19.960      21.302      23.737      27.643      32.904      39.046      45.561      51.995      57.732      61.837    
  63.346      61.837      57.732      51.995      45.561      39.046      32.904      27.643      23.737      21.302    
  19.960      19.372      19.272      19.367      15.379      15.465      15.803      16.605      18.142      20.678    
  24.765      30.610      37.686      45.158      52.460      59.383      65.570      70.095      71.785      70.095    
  65.570      59.383      52.460      45.158      37.686      30.610      24.765      20.678      18.142      16.605    
  15.803      15.465      12.952      13.136      13.770      15.069      17.300      20.870      26.487      34.105    
  42.766      51.317      59.249      66.709      73.595      78.828      80.827      78.828      73.595      66.709    
  59.249      51.317      42.766      34.105      26.487      20.870      17.300      15.069      13.770      13.136    
  11.681      11.921      12.728      14.338      17.041      21.460      28.370      37.489      47.486      56.997    
  65.663      73.990      82.021      88.343      90.800      88.343      82.021      73.990      65.663      56.997    
  47.486      37.489      28.370      21.460      17.041      14.338      12.728      11.921      11.191      11.452    
  12.334      14.095      17.064      22.043      29.833      39.982      50.924      61.188      70.566      79.822    
  89.033      96.432      99.331      96.432      89.033      79.822      70.566      61.188      50.924      39.982    
  29.833      22.043      17.064      14.095      12.334      11.452      11.093      11.359      12.257      14.058    
  17.111      22.284      30.385      40.905      52.194      62.754      72.439      82.103      91.825      99.680    
  102.77      99.680      91.825      82.103      72.439      62.754      52.194      40.905      30.385      22.284    
  17.111      14.058      12.257      11.359      11.191      11.452      12.334      14.095      17.064      22.043    
  29.833      39.982      50.924      61.188      70.566      79.822      89.033      96.432      99.331      96.432    
  89.033      79.822      70.566      61.188      50.924      39.982      29.833      22.043      17.064      14.095    
  12.334      11.452      11.681      11.921      12.728      14.338      17.041      21.460      28.370      37.489    
  47.486      56.997      65.663      73.990      82.021      88.343      90.800      88.343      82.021      73.990    
  65.663      56.997      47.486      37.489      28.370      21.460      17.041      14.338      12.728      11.921    
  12.952      13.136      13.770      15.069      17.300      20.870      26.487      34.105      42.766      51.317    
  59.249      66.709      73.595      78.828      80.827      78.828      73.595      66.709      59.249      51.317    
  42.766      34.105      26.487      20.870      17.300      15.069      13.770      13.136      15.379      15.465    
  15.803      16.605      18.142      20.678      24.765      30.610      37.686      45.158      52.460      59.383    
  65.570      70.095      71.785      70.095      65.570      59.383      52.460      45.158      37.686      30.610    
  24.765      20.678      18.142      16.605      15.803      15.465      19.431      19.367      19.272      19.372    
  19.960      21.302      23.737      27.643      32.904      39.046      45.561      51.995      57.732      61.837    
  63.346      61.837      57.732      51.995      45.561      39.046      32.904      27.643      23.737      21.302    
  19.960      19.372      19.272      19.367      26.835      26.362      25.200      23.939      23.144      23.069    
  23.787      25.649      28.857      33.262      38.492      44.006      49.041      52.648      53.968      52.648    
  49.041      44.006      38.492      33.262      28.857      25.649      23.787      23.069      23.144      23.939    
  25.200      26.362      41.073      39.771      36.409      32.263      28.602      26.162      25.017      24.857    
  25.888      28.223      31.636      35.624      39.448      42.241      43.270      42.241      39.448      35.624    
  31.636      28.223      25.888      24.857      25.017      26.162      28.602      32.263      36.409      39.771    
  63.117      60.634      54.125      45.792      37.823      31.562      27.448      25.214      24.202      24.442    
  25.852      28.010      30.310      32.073      32.736      32.073      30.310      28.010      25.852      24.442    
  24.202      25.214      27.448      31.562      37.823      45.792      54.125      60.634      91.222      87.376    
  77.258      64.128      51.115      40.091      31.858      26.591      23.666      22.130      21.799      22.320    
  23.225      24.040      24.366      24.040      23.225      22.320      21.799      22.130      23.666      26.591    
  31.858      40.091      51.115      64.128      77.258      87.376      123.25      117.96      104.07      86.042    
  67.886      51.754      38.670      29.397      23.966      20.939      19.338      18.736      18.699      18.882    
  18.988      18.882      18.699      18.736      19.338      20.939      23.966      29.397      38.670      51.754    
  67.886      86.042      104.07      117.96      157.59      150.75      132.92      109.98      86.821      65.641    
  47.443      33.602      25.049      20.523      17.895      16.531      15.964      15.839      15.847      15.839    
  15.964      16.531      17.895      20.523      25.049      33.602      47.443      65.641      86.821      109.98    
  132.92      150.75      190.98      182.57      160.80      133.10      105.31      79.559      56.628      38.371    
  26.635      20.588      17.185      15.269      14.351      14.052      14.012      14.052      14.351      15.269    
  17.185      20.588      26.635      38.371      56.628      79.559      105.31      133.10      160.80      182.57    
  216.59      206.91      181.99      150.56      119.26      90.152      63.767      42.232      28.064      20.807    
  16.914      14.667      13.553      13.167      13.107      13.167      13.553      14.667      16.914      20.807    
  28.064      42.232      63.767      90.152      119.26      150.56      181.99      206.91      198.81      190.07    
  167.48      138.77      109.93      83.067      58.953      39.595      27.074      20.658      17.105      15.086    
  14.105      13.776      13.728      13.776      14.105      15.086      17.105      20.658      27.074      39.595    
  58.953      83.067      109.93      138.77      167.48      190.07      191.11      182.73      161.05      133.40    
  105.59      79.737      56.696      38.364      26.601      20.554      17.152      15.233      14.308      14.003    
  13.960      14.003      14.308      15.233      17.152      20.554      26.601      38.364      56.696      79.737    
  105.59      133.40      161.05      182.73      170.55      163.12      143.79      118.98      93.920      70.841    
  50.729      35.172      25.422      20.330      17.370      15.751      15.004      14.779      14.756      14.779    
  15.004      15.751      17.370      20.330      25.422      35.172      50.729      70.841      93.920      118.98    
  143.79      163.12      142.74      136.54      120.33      99.345      78.150      59.009      42.997      31.208    
  24.096      20.221      17.971      16.852      16.424      16.360      16.382      16.360      16.424      16.852    
  17.971      20.221      24.096      31.208      42.997      59.009      78.150      99.345      120.33      136.54    
  112.75      107.86      95.022      78.341      61.625      47.033      35.549      27.685      23.147      20.539    
  19.226      18.801      18.850      19.059      19.167      19.059      18.850      18.801      19.226      20.539    
  23.147      27.685      35.549      47.033      61.625      78.341      95.022      107.86      83.651      80.094    
  70.741      58.635      46.748      36.876      29.730      25.299      22.815      21.562      21.381      21.932    
  22.793      23.547      23.846      23.547      22.793      21.932      21.381      21.562      22.815      25.299    
  29.730      36.876      46.748      58.635      70.741      80.094      57.833      55.568      49.643      42.094    
  34.955      29.460      25.952      24.066      23.249      23.569      24.919      26.912      29.001      30.589    
  31.183      30.589      29.001      26.912      24.919      23.569      23.249      24.066      25.952      29.460    
  34.955      42.094      49.643      55.568      37.898      36.739      33.755      30.097      26.901      24.804    
  23.822      23.726      24.731      26.924      30.080      33.720      37.172      39.673      40.590      39.673    
  37.172      33.720      30.080      26.924      24.731      23.726      23.822      24.804      26.901      30.097    
  33.755      36.739      25.369      24.961      23.957      22.867      22.168      22.079      22.746      24.465    
  27.445      31.549      36.396      41.443      45.984      49.194      50.361      49.194      45.984      41.443    
  36.396      31.549      27.445      24.465      22.746      22.079      22.168      22.867      23.957      24.961    
  18.888      18.828      18.728      18.799      19.321      20.555      22.772      26.359      31.268      37.053    
  43.159      49.072      54.203      57.792      59.095      57.792      54.203      49.072      43.159      37.053    
  31.268      26.359      22.772      20.555      19.321      18.799      18.728      18.828      15.172      15.254    
  15.572      16.318      17.740      20.073      23.799      29.214      35.907      43.060      49.985      56.318    
  61.720      65.524      66.919      65.524      61.720      56.318      49.985      43.060      35.907      29.214    
  23.799      20.073      17.740      16.318      15.572      15.254      12.957      13.134      13.736      14.957    
  17.043      20.318      25.473      32.613      40.922      49.228      56.788      63.494      69.265      73.441    
  75.001      73.441      69.265      63.494      56.788      49.228      40.922      32.613      25.473      20.318    
  17.043      14.957      13.736      13.134      11.781      12.012      12.785      14.310      16.850      20.907    
  27.295      35.922      45.619      54.939      63.171      70.469      76.936      81.773      83.613      81.773    
  76.936      70.469      63.171      54.939      45.619      35.922      27.295      20.907      16.850      14.310    
  12.785      12.012      11.303      11.558      12.410      14.088      16.886      21.469      28.706      38.368    
  49.047      59.139      67.987      75.940      83.183      88.722      90.852      88.722      83.183      75.940    
  67.987      59.139      49.047      38.368      28.706      21.469      16.886      14.088      12.410      11.558    
  11.198      11.458      12.329      14.051      16.931      21.697      29.238      39.274      50.314      60.703    
  69.811      78.058      85.646      91.491      93.747      91.491      85.646      78.058      69.811      60.703    
  50.314      39.274      29.238      21.697      16.931      14.051      12.329      11.458      11.303      11.558    
  12.410      14.088      16.886      21.469      28.706      38.368      49.047      59.139      67.987      75.940    
  83.183      88.722      90.852      88.722      83.183      75.940      67.987      59.139      49.047      38.368    
  28.706      21.469      16.886      14.088      12.410      11.558      11.781      12.012      12.785      14.310    
  16.850      20.907      27.295      35.922      45.619      54.939      63.171      70.469      76.936      81.773    
  83.613      81.773      76.936      70.469      63.171      54.939      45.619      35.922      27.295      20.907    
  16.850      14.310      12.785      12.012      12.957      13.134      13.736      14.957      17.043      20.318    
  25.473      32.613      40.922      49.228      56.788      63.494      69.265      73.441      75.001      73.441    
  69.265      63.494      56.788      49.228      40.922      32.613      25.473      20.318      17.043      14.957    
  13.736      13.134      15.172      15.254      15.572      16.318      17.740      20.073      23.799      29.214    
  35.907      43.060      49.985      56.318      61.720      65.524      66.919      65.524      61.720      56.318    
  49.985      43.060      35.907      29.214      23.799      20.073      17.740      16.318      15.572      15.254    
  18.888      18.828      18.728      18.799      19.321      20.555      22.772      26.359      31.268      37.053    
  43.159      49.072      54.203      57.792      59.095      57.792      54.203      49.072      43.159      37.053    
  31.268      26.359      22.772      20.555      19.321      18.799      18.728      18.828      25.369      24.961    
  23.957      22.867      22.168      22.079      22.746      24.465      27.445      31.549      36.396      41.443    
  45.984      49.194      50.361      49.194      45.984      41.443      36.396      31.549      27.445      24.465    
  22.746      22.079      22.168      22.867      23.957      24.961      37.898      36.739      33.755      30.097    
  26.901      24.804      23.822      23.726      24.731      26.924      30.080      33.720      37.172      39.673    
  40.590      39.673      37.172      33.720      30.080      26.924      24.731      23.726      23.822      24.804    
  26.901      30.097      33.755      36.739      57.833      55.568      49.643      42.094      34.955      29.460    
  25.952      24.066      23.249      23.569      24.919      26.912      29.001      30.589      31.183      30.589    
  29.001      26.912      24.919      23.569      23.249      24.066      25.952      29.460      34.955      42.094    
  49.643      55.568      83.651      80.094      70.741      58.635      46.748      36.876      29.730      25.299    
  22.815      21.562      21.381      21.932      22.793      23.547      23.846      23.547      22.793      21.932    
  21.381      21.562      22.815      25.299      29.730      36.876      46.748      58.635      70.741      80.094    
  112.75      107.86      95.022      78.341      61.625      47.033      35.549      27.685      23.147      20.539    
  19.226      18.801      18.850      19.059      19.167      19.059      18.850      18.801      19.226      20.539    
  23.147      27.685      35.549      47.033      61.625      78.341      95.022      107.86      142.74      136.54    
  120.33      99.345      78.150      59.009      42.997      31.208      24.096      20.221      17.971      16.852    
  16.424      16.360      16.382      16.360      16.424      16.852      17.971      20.221      24.096      31.208    
  42.997      59.009      78.150      99.345      120.33      136.54      170.55      163.12      143.79      118.98    
  93.920      70.841      50.729      35.172      25.422      20.330      17.370      15.751      15.004      14.779    
  14.756      14.779      15.004      15.751      17.370      20.330      25.422      35.172      50.729      70.841    
  93.920      118.98      143.79      163.12      191.11      182.73      161.05      133.40      105.59      79.737    
  56.696      38.364      26.601      20.554      17.152      15.233      14.308      14.003      13.960      14.003    
  14.308      15.233      17.152      20.554      26.601      38.364      56.696      79.737      105.59      133.40    
  161.05      182.73      163.16      156.17      137.95      114.44      90.527      68.417      49.200      34.460    
  25.329      20.576      17.844      16.412      15.806      15.665      15.668      15.665      15.806      16.412    
  17.844      20.576      25.329      34.460      49.200      68.417      90.527      114.44      137.95      156.17    
  157.74      150.97      133.31      110.47      87.259      65.901      47.508      33.547      24.967      20.460    
  17.854      16.505      15.943      15.820      15.828      15.820      15.943      16.505      17.854      20.460    
  24.967      33.547      47.508      65.901      87.259      110.47      133.31      150.97      142.79      136.63    
  120.50      99.565      78.344      59.115      43.010      31.167      24.049      20.191      17.958      16.853    
  16.434      16.376      16.400      16.376      16.434      16.853      17.958      20.191      24.049      31.167    
  43.010      59.115      78.344      99.565      120.50      136.63      121.37      116.09      102.20      84.144    