unknown system                          
   1.00000000000000     
     3.374435    0.000000    0.000000
     0.000000    3.374435    0.000000
     0.000000    0.000000    3.374435
   Pd   Ir   Pt   Cu
     1     1     1     1
Direct
  0.000000  0.000000  0.000000
  0.500000  0.500000  0.000000
  0.500000  0.000000  0.500000
  0.000000  0.500000  0.500000
 
   28   28   28
 0.23689585395E+03 0.22614991860E+03 0.19859476883E+03 0.16409077459E+03 0.12998648499E+03
 0.98304862652E+02 0.69326702628E+02 0.45315357727E+02 0.29271121090E+02 0.21047908415E+02
 0.16805884403E+02 0.14340072387E+02 0.13104412543E+02 0.12672039486E+02 0.12603043635E+02
 0.12672039486E+02 0.13104412543E+02 0.14340072387E+02 0.16805884403E+02 0.21047908415E+02
 0.29271121090E+02 0.45315357727E+02 0.69326702628E+02 0.98304862652E+02 0.12998648499E+03
 0.16409077459E+03 0.19859476883E+03 0.22614991860E+03 0.22628541042E+03 0.21609100486E+03
 0.18990527157E+03 0.15700854977E+03 0.12437924243E+03 0.94054187155E+02 0.66438728357E+02
 0.43720883430E+02 0.28652283776E+02 0.20932566331E+02 0.16870733204E+02 0.14518772896E+02
 0.13347685529E+02 0.12941281081E+02 0.12877434503E+02 0.12941281081E+02 0.13347685529E+02
 0.14518772896E+02 0.16870733204E+02 0.20932566331E+02 0.28652283776E+02 0.43720883430E+02
 0.66438728357E+02 0.94054187155E+02 0.12437924243E+03 0.15700854977E+03 0.18990527157E+03
 0.21609100486E+03 0.19861414595E+03 0.18982014878E+03 0.16711652901E+03 0.13832963281E+03
 0.10952836910E+03 0.82802142791E+02 0.58847807744E+02 0.39599309581E+02 0.27119724385E+02
 0.20708019856E+02 0.17155201256E+02 0.15144330088E+02 0.14175034135E+02 0.13857156066E+02
 0.13813726378E+02 0.13857156066E+02 0.14175034135E+02 0.15144330088E+02 0.17155201256E+02
 0.20708019856E+02 0.27119724385E+02 0.39599309581E+02 0.58847807744E+02 0.82802142791E+02
 0.10952836910E+03 0.13832963281E+03 0.16711652901E+03 0.18982014878E+03 0.16295844799E+03
 0.15588041642E+03 0.13746726771E+03 0.11382642175E+03 0.89978374590E+02 0.68084325911E+02
 0.49106981185E+02 0.34517194282E+02 0.25424721906E+02 0.20652650536E+02 0.17897975694E+02
 0.16455067343E+02 0.15846068158E+02 0.15706670277E+02 0.15711677041E+02 0.15706670277E+02
 0.15846068158E+02 0.16455067343E+02 0.17897975694E+02 0.20652650536E+02 0.25424721906E+02
 0.34517194282E+02 0.49106981185E+02 0.68084325911E+02 0.89978374590E+02 0.11382642175E+03
 0.13746726771E+03 0.15588041642E+03 0.12691361065E+03 0.12147964058E+03 0.10723700618E+03
 0.88765319345E+02 0.70133326434E+02 0.53480866761E+02 0.39833239545E+02 0.30047278503E+02
 0.24277443180E+02 0.21100098704E+02 0.19400722545E+02 0.18742629485E+02 0.18682295430E+02
 0.18862873392E+02 0.18970149588E+02 0.18862873392E+02 0.18682295430E+02 0.18742629485E+02
 0.19400722545E+02 0.21100098704E+02 0.24277443180E+02 0.30047278503E+02 0.39833239545E+02
 0.53480866761E+02 0.70133326434E+02 0.88765319345E+02 0.10723700618E+03 0.12147964058E+03
 0.93810766047E+02 0.89871822742E+02 0.79509838990E+02 0.66053970069E+02 0.52678021738E+02
 0.41266250806E+02 0.32651008296E+02 0.27075052290E+02 0.23981302113E+02 0.22347155654E+02
 0.21967635906E+02 0.22485843758E+02 0.23413542392E+02 0.24255790631E+02 0.24594267474E+02
 0.24255790631E+02 0.23413542392E+02 0.22485843758E+02 0.21967635906E+02 0.22347155654E+02
 0.23981302113E+02 0.27075052290E+02 0.32651008296E+02 0.41266250806E+02 0.52678021738E+02
 0.66053970069E+02 0.79509838990E+02 0.89871822742E+02 0.64938160494E+02 0.62384984008E+02
 0.55689888931E+02 0.47103628440E+02 0.38861056416E+02 0.32336864923E+02 0.28004297965E+02
 0.25634589919E+02 0.24554478933E+02 0.24769168489E+02 0.26203064780E+02 0.28426540254E+02
 0.30808248092E+02 0.32640589725E+02 0.33330350727E+02 0.32640589725E+02 0.30808248092E+02
 0.28426540254E+02 0.26203064780E+02 0.24769168489E+02 0.24554478933E+02 0.25634589919E+02
 0.28004297965E+02 0.32336864923E+02 0.38861056416E+02 0.47103628440E+02 0.55689888931E+02
 0.62384984008E+02 0.42195005886E+02 0.40845351640E+02 0.37357355481E+02 0.33047204839E+02
 0.29227307228E+02 0.26663873511E+02 0.25453268003E+02 0.25274216362E+02 0.26314385831E+02
 0.28698059100E+02 0.32204857716E+02 0.36322994469E+02 0.40287899407E+02 0.43193812938E+02
 0.44265769315E+02 0.43193812938E+02 0.40287899407E+02 0.36322994469E+02 0.32204857716E+02
 0.28698059100E+02 0.26314385831E+02 0.25274216362E+02 0.25453268003E+02 0.26663873511E+02
 0.29227307228E+02 0.33047204839E+02 0.37357355481E+02 0.40845351640E+02 0.27367699460E+02
 0.26872310013E+02 0.25653385211E+02 0.24331091008E+02 0.23499270564E+02 0.23429232105E+02
 0.24169823720E+02 0.26083182350E+02 0.29368518107E+02 0.33877031519E+02 0.39243776772E+02
 0.44931113817E+02 0.50156438156E+02 0.53916904648E+02 0.55296454850E+02 0.53916904648E+02
 0.50156438156E+02 0.44931113817E+02 0.39243776772E+02 0.33877031519E+02 0.29368518107E+02
 0.26083182350E+02 0.24169823720E+02 0.23429232105E+02 0.23499270564E+02 0.24331091008E+02
 0.25653385211E+02 0.26872310013E+02 0.19630891215E+02 0.19563792952E+02 0.19466471380E+02
 0.19578415029E+02 0.20191599338E+02 0.21574432548E+02 0.24088924857E+02 0.28105316972E+02
 0.33483296900E+02 0.39745323431E+02 0.46406956547E+02 0.53041099147E+02 0.59016457967E+02
 0.63327381778E+02 0.64918462088E+02 0.63327381778E+02 0.59016457967E+02 0.53041099147E+02
 0.46406956547E+02 0.39745323431E+02 0.33483296900E+02 0.28105316972E+02 0.24088924857E+02
 0.21574432548E+02 0.20191599338E+02 0.19578415029E+02 0.19466471380E+02 0.19563792952E+02
 0.15472055986E+02 0.15557770672E+02 0.15898589774E+02 0.16715912681E+02 0.18288567169E+02
 0.20896505121E+02 0.25110064169E+02 0.31098616892E+02 0.38297829393E+02 0.45874416931E+02
 0.53316433447E+02 0.60475662112E+02 0.66985475962E+02 0.71805143817E+02 0.73616320743E+02
 0.71805143817E+02 0.66985475962E+02 0.60475662112E+02 0.53316433447E+02 0.45874416931E+02
 0.38297829393E+02 0.31098616892E+02 0.25110064169E+02 0.20896505121E+02 0.18288567169E+02
 0.16715912681E+02 0.15898589774E+02 0.15557770672E+02 0.12993007642E+02 0.13175708619E+02
 0.13810263997E+02 0.15125379247E+02 0.17397777160E+02 0.21067064883E+02 0.26839877108E+02
 0.34613385262E+02 0.43379781050E+02 0.52006809310E+02 0.60086013639E+02 0.67862449811E+02
 0.75214900644E+02 0.80886609755E+02 0.83067010539E+02 0.80886609755E+02 0.75214900644E+02
 0.67862449811E+02 0.60086013639E+02 0.52006809310E+02 0.43379781050E+02 0.34613385262E+02
 0.26839877108E+02 0.21067064883E+02 0.17397777160E+02 0.15125379247E+02 0.13810263997E+02
 0.13175708619E+02 0.11712404166E+02 0.11949011541E+02 0.12753415994E+02 0.14375600285E+02
 0.17120897554E+02 0.21656640543E+02 0.28737537527E+02 0.38007307151E+02 0.48086554278E+02
 0.57656319445E+02 0.66504111125E+02 0.75268475963E+02 0.83953756011E+02 0.90891992688E+02
 0.93603370911E+02 0.90891992688E+02 0.83953756011E+02 0.75268475963E+02 0.66504111125E+02
 0.57656319445E+02 0.48086554278E+02 0.38007307151E+02 0.28737537527E+02 0.21656640543E+02
 0.17120897554E+02 0.14375600285E+02 0.12753415994E+02 0.11949011541E+02 0.11236301043E+02
 0.11493063887E+02 0.12367438957E+02 0.14133981064E+02 0.17144076885E+02 0.22247552039E+02
 0.30212104938E+02 0.40506414000E+02 0.51513352723E+02 0.61831293314E+02 0.71434963045E+02
 0.81244224992E+02 0.91278771975E+02 0.99445935164E+02 0.10266197533E+03 0.99445935164E+02
 0.91278771975E+02 0.81244224992E+02 0.71434963045E+02 0.61831293314E+02 0.51513352723E+02
 0.40506414000E+02 0.30212104938E+02 0.22247552039E+02 0.17144076885E+02 0.14133981064E+02
 0.12367438957E+02 0.11493063887E+02 0.11148796429E+02 0.11408915954E+02 0.12297721476E+02
 0.14100995025E+02 0.17193012999E+02 0.22492414768E+02 0.30769570392E+02 0.41431357873E+02
 0.52780105374E+02 0.63393968261E+02 0.73324085681E+02 0.83591029918E+02 0.94203646270E+02
 0.10288760902E+03 0.10631396085E+03 0.10288760902E+03 0.94203646270E+02 0.83591029918E+02
 0.73324085681E+02 0.63393968261E+02 0.52780105374E+02 0.41431357873E+02 0.30769570392E+02
 0.22492414768E+02 0.17193012999E+02 0.14100995025E+02 0.12297721476E+02 0.11408915954E+02
 0.11236301043E+02 0.11493063887E+02 0.12367438957E+02 0.14133981064E+02 0.17144076885E+02
 0.22247552039E+02 0.30212104938E+02 0.40506414000E+02 0.51513352723E+02 0.61831293314E+02
 0.71434963045E+02 0.81244224992E+02 0.91278771975E+02 0.99445935164E+02 0.10266197533E+03
 0.99445935164E+02 0.91278771975E+02 0.81244224992E+02 0.71434963045E+02 0.61831293314E+02
 0.51513352723E+02 0.40506414000E+02 0.30212104938E+02 0.22247552039E+02 0.17144076885E+02
 0.14133981064E+02 0.12367438957E+02 0.11493063887E+02 0.11712404166E+02 0.11949011541E+02
 0.12753415994E+02 0.14375600285E+02 0.17120897554E+02 0.21656640543E+02 0.28737537527E+02
 0.38007307151E+02 0.48086554278E+02 0.57656319445E+02 0.66504111125E+02 0.75268475963E+02
 0.83953756011E+02 0.90891992688E+02 0.93603370911E+02 0.90891992688E+02 0.83953756011E+02
 0.75268475963E+02 0.66504111125E+02 0.57656319445E+02 0.48086554278E+02 0.38007307151E+02
 0.28737537527E+02 0.21656640543E+02 0.17120897554E+02 0.14375600285E+02 0.12753415994E+02
 0.11949011541E+02 0.12993007642E+02 0.13175708619E+02 0.13810263997E+02 0.15125379247E+02
 0.17397777160E+02 0.21067064883E+02 0.26839877108E+02 0.34613385262E+02 0.43379781050E+02
 0.52006809310E+02 0.60086013639E+02 0.67862449811E+02 0.75214900644E+02 0.80886609755E+02
 0.83067010539E+02 0.80886609755E+02 0.75214900644E+02 0.67862449811E+02 0.60086013639E+02
 0.52006809310E+02 0.43379781050E+02 0.34613385262E+02 0.26839877108E+02 0.21067064883E+02
 0.17397777160E+02 0.15125379247E+02 0.13810263997E+02 0.13175708619E+02 0.15472055986E+02
 0.15557770672E+02 0.15898589774E+02 0.16715912681E+02 0.18288567169E+02 0.20896505121E+02
 0.25110064169E+02 0.31098616892E+02 0.38297829393E+02 0.45874416931E+02 0.53316433447E+02
 0.60475662112E+02 0.66985475962E+02 0.71805143817E+02 0.73616320743E+02 0.71805143817E+02
 0.66985475962E+02 0.60475662112E+02 0.53316433447E+02 0.45874416931E+02 0.38297829393E+02
 0.31098616892E+02 0.25110064169E+02 0.20896505121E+02 0.18288567169E+02 0.16715912681E+02
 0.15898589774E+02 0.15557770672E+02 0.19630891215E+02 0.19563792952E+02 0.19466471380E+02
 0.19578415029E+02 0.20191599338E+02 0.21574432548E+02 0.24088924857E+02 0.28105316972E+02
 0.33483296900E+02 0.39745323431E+02 0.46406956547E+02 0.53041099147E+02 0.59016457967E+02
 0.63327381778E+02 0.64918462088E+02 0.63327381778E+02 0.59016457967E+02 0.53041099147E+02
 0.46406956547E+02 0.39745323431E+02 0.33483296900E+02 0.28105316972E+02 0.24088924857E+02
 0.21574432548E+02 0.20191599338E+02 0.19578415029E+02 0.19466471380E+02 0.19563792952E+02
 0.27367699460E+02 0.26872310013E+02 0.25653385211E+02 0.24331091008E+02 0.23499270564E+02
 0.23429232105E+02 0.24169823720E+02 0.26083182350E+02 0.29368518107E+02 0.33877031519E+02
 0.39243776772E+02 0.44931113817E+02 0.50156438156E+02 0.53916904648E+02 0.55296454850E+02
 0.53916904648E+02 0.50156438156E+02 0.44931113817E+02 0.39243776772E+02 0.33877031519E+02
 0.29368518107E+02 0.26083182350E+02 0.24169823720E+02 0.23429232105E+02 0.23499270564E+02
 0.24331091008E+02 0.25653385211E+02 0.26872310013E+02 0.42195005886E+02 0.40845351640E+02
 0.37357355481E+02 0.33047204839E+02 0.29227307228E+02 0.26663873511E+02 0.25453268003E+02
 0.25274216362E+02 0.26314385831E+02 0.28698059100E+02 0.32204857716E+02 0.36322994469E+02
 0.40287899407E+02 0.43193812938E+02 0.44265769315E+02 0.43193812938E+02 0.40287899407E+02
 0.36322994469E+02 0.32204857716E+02 0.28698059100E+02 0.26314385831E+02 0.25274216362E+02
 0.25453268003E+02 0.26663873511E+02 0.29227307228E+02 0.33047204839E+02 0.37357355481E+02
 0.40845351640E+02 0.64938160494E+02 0.62384984008E+02 0.55689888931E+02 0.47103628440E+02
 0.38861056416E+02 0.32336864923E+02 0.28004297965E+02 0.25634589919E+02 0.24554478933E+02
 0.24769168489E+02 0.26203064780E+02 0.28426540254E+02 0.30808248092E+02 0.32640589725E+02
 0.33330350727E+02 0.32640589725E+02 0.30808248092E+02 0.28426540254E+02 0.26203064780E+02
 0.24769168489E+02 0.24554478933E+02 0.25634589919E+02 0.28004297965E+02 0.32336864923E+02
 0.38861056416E+02 0.47103628440E+02 0.55689888931E+02 0.62384984008E+02 0.93810766047E+02
 0.89871822742E+02 0.79509838990E+02 0.66053970069E+02 0.52678021738E+02 0.41266250806E+02
 0.32651008296E+02 0.27075052290E+02 0.23981302113E+02 0.22347155654E+02 0.21967635906E+02
 0.22485843758E+02 0.23413542392E+02 0.24255790631E+02 0.24594267474E+02 0.24255790631E+02
 0.23413542392E+02 0.22485843758E+02 0.21967635906E+02 0.22347155654E+02 0.23981302113E+02
 0.27075052290E+02 0.32651008296E+02 0.41266250806E+02 0.52678021738E+02 0.66053970069E+02
 0.79509838990E+02 0.89871822742E+02 0.12691361065E+03 0.12147964058E+03 0.10723700618E+03
 0.88765319345E+02 0.70133326434E+02 0.53480866761E+02 0.39833239545E+02 0.30047278503E+02
 0.24277443180E+02 0.21100098704E+02 0.19400722545E+02 0.18742629485E+02 0.18682295430E+02
 0.18862873392E+02 0.18970149588E+02 0.18862873392E+02 0.18682295430E+02 0.18742629485E+02
 0.19400722545E+02 0.21100098704E+02 0.24277443180E+02 0.30047278503E+02 0.39833239545E+02
 0.53480866761E+02 0.70133326434E+02 0.88765319345E+02 0.10723700618E+03 0.12147964058E+03
 0.16295844799E+03 0.15588041642E+03 0.13746726771E+03 0.11382642175E+03 0.89978374590E+02
 0.68084325911E+02 0.49106981185E+02 0.34517194282E+02 0.25424721906E+02 0.20652650536E+02
 0.17897975694E+02 0.16455067343E+02 0.15846068158E+02 0.15706670277E+02 0.15711677041E+02
 0.15706670277E+02 0.15846068158E+02 0.16455067343E+02 0.17897975694E+02 0.20652650536E+02
 0.25424721906E+02 0.34517194282E+02 0.49106981185E+02 0.68084325911E+02 0.89978374590E+02
 0.11382642175E+03 0.13746726771E+03 0.15588041642E+03 0.19861414595E+03 0.18982014878E+03
 0.16711652901E+03 0.13832963281E+03 0.10952836910E+03 0.82802142791E+02 0.58847807744E+02
 0.39599309581E+02 0.27119724385E+02 0.20708019856E+02 0.17155201256E+02 0.15144330088E+02
 0.14175034135E+02 0.13857156066E+02 0.13813726378E+02 0.13857156066E+02 0.14175034135E+02
 0.15144330088E+02 0.17155201256E+02 0.20708019856E+02 0.27119724385E+02 0.39599309581E+02
 0.58847807744E+02 0.82802142791E+02 0.10952836910E+03 0.13832963281E+03 0.16711652901E+03
 0.18982014878E+03 0.22628541042E+03 0.21609100486E+03 0.18990527157E+03 0.15700854977E+03
 0.12437924243E+03 0.94054187155E+02 0.66438728357E+02 0.43720883430E+02 0.28652283776E+02
 0.20932566331E+02 0.16870733204E+02 0.14518772896E+02 0.13347685529E+02 0.12941281081E+02
 0.12877434503E+02 0.12941281081E+02 0.13347685529E+02 0.14518772896E+02 0.16870733204E+02
 0.20932566331E+02 0.28652283776E+02 0.43720883430E+02 0.66438728357E+02 0.94054187155E+02
 0.12437924243E+03 0.15700854977E+03 0.18990527157E+03 0.21609100486E+03 0.22635624014E+03
 0.21617853827E+03 0.19002812065E+03 0.15715381717E+03 0.12451229948E+03 0.94144479355E+02
 0.66478749243E+02 0.43724877451E+02 0.28640505929E+02 0.20916972847E+02 0.16852461467E+02
 0.14495509267E+02 0.13318281737E+02 0.12906900489E+02 0.12841157078E+02 0.12906900489E+02
 0.13318281737E+02 0.14495509267E+02 0.16852461467E+02 0.20916972847E+02 0.28640505929E+02
 0.43724877451E+02 0.66478749243E+02 0.94144479355E+02 0.12451229948E+03 0.15715381717E+03
 0.19002812065E+03 0.21617853827E+03 0.21659197368E+03 0.20691005466E+03 0.18199061621E+03
 0.15056416436E+03 0.11926384671E+03 0.90152097822E+02 0.63766613273E+02 0.42232401763E+02
 0.28064025976E+02 0.20806993781E+02 0.16913855676E+02 0.14667348658E+02 0.13552934975E+02
 0.13167124949E+02 0.13106587710E+02 0.13167124949E+02 0.13552934975E+02 0.14667348658E+02
 0.16913855676E+02 0.20806993781E+02 0.28064025976E+02 0.42232401763E+02 0.63766613273E+02
 0.90152097822E+02 0.11926384671E+03 0.15056416436E+03 0.18199061621E+03 0.20691005466E+03
 0.19098311550E+03 0.18256734358E+03 0.16079806472E+03 0.13310212888E+03 0.10531311274E+03
 0.79558687192E+02 0.56627767816E+02 0.38371177991E+02 0.26634796797E+02 0.20588498012E+02
 0.17184595754E+02 0.15269127184E+02 0.14351046194E+02 0.14052184842E+02 0.14012033127E+02
 0.14052184842E+02 0.14351046194E+02 0.15269127184E+02 0.17184595754E+02 0.20588498012E+02
 0.26634796797E+02 0.38371177991E+02 0.56627767816E+02 0.79558687192E+02 0.10531311274E+03
 0.13310212888E+03 0.16079806472E+03 0.18256734358E+03 0.15758901742E+03 0.15074720503E+03
 0.13292082117E+03 0.10998048643E+03 0.86821004411E+02 0.65640507439E+02 0.47442793685E+02
 0.33602063825E+02 0.25049223033E+02 0.20522781038E+02 0.17894876391E+02 0.16530980036E+02
 0.15963527681E+02 0.15839429166E+02 0.15847099000E+02 0.15839429166E+02 0.15963527681E+02
 0.16530980036E+02 0.17894876391E+02 0.20522781038E+02 0.25049223033E+02 0.33602063825E+02
 0.47442793685E+02 0.65640507439E+02 0.86821004411E+02 0.10998048643E+03 0.13292082117E+03
 0.15074720503E+03 0.12325184557E+03 0.11795722045E+03 0.10406837502E+03 0.86042363881E+02
 0.67886015154E+02 0.51754457337E+02 0.38669768039E+02 0.29397203541E+02 0.23965610773E+02
 0.20939437882E+02 0.19337800065E+02 0.18736195389E+02 0.18698583824E+02 0.18882054318E+02
 0.18987824063E+02 0.18882054318E+02 0.18698583824E+02 0.18736195389E+02 0.19337800065E+02
 0.20939437882E+02 0.23965610773E+02 0.29397203541E+02 0.38669768039E+02 0.51754457337E+02
 0.67886015154E+02 0.86042363881E+02 0.10406837502E+03 0.11795722045E+03 0.91222332010E+02
 0.87376095946E+02 0.77257727735E+02 0.64127678979E+02 0.51115116448E+02 0.40090575170E+02
 0.31857922681E+02 0.26590899901E+02 0.23665882346E+02 0.22129843320E+02 0.21798544539E+02
 0.22320312679E+02 0.23225076914E+02 0.24039600035E+02 0.24365889132E+02 0.24039600035E+02
 0.23225076914E+02 0.22320312679E+02 0.21798544539E+02 0.22129843320E+02 0.23665882346E+02
 0.26590899901E+02 0.31857922681E+02 0.40090575170E+02 0.51115116448E+02 0.64127678979E+02
 0.77257727735E+02 0.87376095946E+02 0.63117053436E+02 0.60633759566E+02 0.54125409515E+02
 0.45792274480E+02 0.37823336220E+02 0.31561514650E+02 0.27447649567E+02 0.25214189674E+02
 0.24201552156E+02 0.24442420284E+02 0.25851870347E+02 0.28010342067E+02 0.30309562766E+02
 0.32072814666E+02 0.32735548167E+02 0.32072814666E+02 0.30309562766E+02 0.28010342067E+02
 0.25851870347E+02 0.24442420284E+02 0.24201552156E+02 0.25214189674E+02 0.27447649567E+02
 0.31561514650E+02 0.37823336220E+02 0.45792274480E+02 0.54125409515E+02 0.60633759566E+02
 0.41073477528E+02 0.39771485578E+02 0.36409307760E+02 0.32262716283E+02 0.28601962810E+02
 0.26161540210E+02 0.25016534638E+02 0.24857153107E+02 0.25888358029E+02 0.28222563986E+02
 0.31635764576E+02 0.35624063388E+02 0.39447715395E+02 0.42241374341E+02 0.43270228120E+02
 0.42241374341E+02 0.39447715395E+02 0.35624063388E+02 0.31635764576E+02 0.28222563986E+02
 0.25888358029E+02 0.24857153107E+02 0.25016534638E+02 0.26161540210E+02 0.28601962810E+02
 0.32262716283E+02 0.36409307760E+02 0.39771485578E+02 0.26835111706E+02 0.26362382777E+02
 0.25199637423E+02 0.23938775721E+02 0.23143766972E+02 0.23068987680E+02 0.23787095329E+02
 0.25649138597E+02 0.28856917385E+02 0.33261964095E+02 0.38491884771E+02 0.44005544662E+02
 0.49041430595E+02 0.52648279794E+02 0.53968066859E+02 0.52648279794E+02 0.49041430595E+02
 0.44005544662E+02 0.38491884771E+02 0.33261964095E+02 0.28856917385E+02 0.25649138597E+02
 0.23787095329E+02 0.23068987680E+02 0.23143766972E+02 0.23938775721E+02 0.25199637423E+02
 0.26362382777E+02 0.19431392817E+02 0.19367250801E+02 0.19271606906E+02 0.19372179958E+02
 0.19960492082E+02 0.21302377407E+02 0.23736948923E+02 0.27643208052E+02 0.32903894483E+02
 0.39045859138E+02 0.45560979034E+02 0.51995399296E+02 0.57731934922E+02 0.61836889262E+02
 0.63345502352E+02 0.61836889262E+02 0.57731934922E+02 0.51995399296E+02 0.45560979034E+02
 0.39045859138E+02 0.32903894483E+02 0.27643208052E+02 0.23736948923E+02 0.21302377407E+02
 0.19960492082E+02 0.19372179958E+02 0.19271606906E+02 0.19367250801E+02 0.15378706587E+02
 0.15464820470E+02 0.15803022389E+02 0.16605364898E+02 0.18141995975E+02 0.20677735973E+02
 0.24764920681E+02 0.30609540601E+02 0.37685799199E+02 0.45158393482E+02 0.52460412460E+02
 0.59382949592E+02 0.65570496037E+02 0.70094733713E+02 0.71784764380E+02 0.70094733713E+02
 0.65570496037E+02 0.59382949592E+02 0.52460412460E+02 0.45158393482E+02 0.37685799199E+02
 0.30609540601E+02 0.24764920681E+02 0.20677735973E+02 0.18141995975E+02 0.16605364898E+02
 0.15803022389E+02 0.15464820470E+02 0.12952415501E+02 0.13136311409E+02 0.13769529917E+02
 0.15068856317E+02 0.17300281727E+02 0.20869522553E+02 0.26486615143E+02 0.34105455635E+02
 0.42766265156E+02 0.51316591233E+02 0.59248899393E+02 0.66709102523E+02 0.73595290873E+02
 0.78828310697E+02 0.80827350515E+02 0.78828310697E+02 0.73595290873E+02 0.66709102523E+02
 0.59248899393E+02 0.51316591233E+02 0.42766265156E+02 0.34105455635E+02 0.26486615143E+02
 0.20869522553E+02 0.17300281727E+02 0.15068856317E+02 0.13769529917E+02 0.13136311409E+02
 0.11681472634E+02 0.11920850021E+02 0.12727747239E+02 0.14338154787E+02 0.17041336080E+02
 0.21459922708E+02 0.28370413282E+02 0.37488511787E+02 0.47485519932E+02 0.56996817543E+02
 0.65663411509E+02 0.73990346215E+02 0.82020523190E+02 0.88342522798E+02 0.90799526847E+02
 0.88342522798E+02 0.82020523190E+02 0.73990346215E+02 0.65663411509E+02 0.56996817543E+02
 0.47485519932E+02 0.37488511787E+02 0.28370413282E+02 0.21459922708E+02 0.17041336080E+02
 0.14338154787E+02 0.12727747239E+02 0.11920850021E+02 0.11190680992E+02 0.11452083580E+02
 0.12333838160E+02 0.14094828421E+02 0.17064404091E+02 0.22043433627E+02 0.29832615014E+02
 0.39981961629E+02 0.50923639752E+02 0.61187859801E+02 0.70566109450E+02 0.79821658196E+02
 0.89033336964E+02 0.96431552631E+02 0.99331229016E+02 0.96431552631E+02 0.89033336964E+02
 0.79821658196E+02 0.70566109450E+02 0.61187859801E+02 0.50923639752E+02 0.39981961629E+02
 0.29832615014E+02 0.22043433627E+02 0.17064404091E+02 0.14094828421E+02 0.12333838160E+02
 0.11452083580E+02 0.11093115415E+02 0.11358745335E+02 0.12257247066E+02 0.14058040681E+02
 0.17110771047E+02 0.22284103222E+02 0.30385105203E+02 0.40905061795E+02 0.52194442517E+02
 0.62754259268E+02 0.72438570698E+02 0.82103319775E+02 0.91825356697E+02 0.99679620696E+02
 0.10276509297E+03 0.99679620696E+02 0.91825356697E+02 0.82103319775E+02 0.72438570698E+02
 0.62754259268E+02 0.52194442517E+02 0.40905061795E+02 0.30385105203E+02 0.22284103222E+02
 0.17110771047E+02 0.14058040681E+02 0.12257247066E+02 0.11358745335E+02 0.11190680992E+02
 0.11452083580E+02 0.12333838160E+02 0.14094828421E+02 0.17064404091E+02 0.22043433627E+02
 0.29832615014E+02 0.39981961629E+02 0.50923639752E+02 0.61187859801E+02 0.70566109450E+02
 0.79821658196E+02 0.89033336964E+02 0.96431552631E+02 0.99331229016E+02 0.96431552631E+02
 0.89033336964E+02 0.79821658196E+02 0.70566109450E+02 0.61187859801E+02 0.50923639752E+02
 0.39981961629E+02 0.29832615014E+02 0.22043433627E+02 0.17064404091E+02 0.14094828421E+02
 0.12333838160E+02 0.11452083580E+02 0.11681472634E+02 0.11920850021E+02 0.12727747239E+02
 0.14338154787E+02 0.17041336080E+02 0.21459922708E+02 0.28370413282E+02 0.37488511787E+02
 0.47485519932E+02 0.56996817543E+02 0.65663411509E+02 0.73990346215E+02 0.82020523190E+02
 0.88342522798E+02 0.90799526847E+02 0.88342522798E+02 0.82020523190E+02 0.73990346215E+02
 0.65663411509E+02 0.56996817543E+02 0.47485519932E+02 0.37488511787E+02 0.28370413282E+02
 0.21459922708E+02 0.17041336080E+02 0.14338154787E+02 0.12727747239E+02 0.11920850021E+02
 0.12952415501E+02 0.13136311409E+02 0.13769529917E+02 0.15068856317E+02 0.17300281727E+02
 0.20869522553E+02 0.26486615143E+02 0.34105455635E+02 0.42766265156E+02 0.51316591233E+02
 0.59248899393E+02 0.66709102523E+02 0.73595290873E+02 0.78828310697E+02 0.80827350515E+02
 0.78828310697E+02 0.73595290873E+02 0.66709102523E+02 0.59248899393E+02 0.51316591233E+02
 0.42766265156E+02 0.34105455635E+02 0.26486615143E+02 0.20869522553E+02 0.17300281727E+02
 0.15068856317E+02 0.13769529917E+02 0.13136311409E+02 0.15378706587E+02 0.15464820470E+02
 0.15803022389E+02 0.16605364898E+02 0.18141995975E+02 0.20677735973E+02 0.24764920681E+02
 0.30609540601E+02 0.37685799199E+02 0.45158393482E+02 0.52460412460E+02 0.59382949592E+02
 0.65570496037E+02 0.70094733713E+02 0.71784764380E+02 0.70094733713E+02 0.65570496037E+02
 0.59382949592E+02 0.52460412460E+02 0.45158393482E+02 0.37685799199E+02 0.30609540601E+02
 0.24764920681E+02 0.20677735973E+02 0.18141995975E+02 0.16605364898E+02 0.15803022389E+02
 0.15464820470E+02 0.19431392817E+02 0.19367250801E+02 0.19271606906E+02 0.19372179958E+02
 0.19960492082E+02 0.21302377407E+02 0.23736948923E+02 0.27643208052E+02 0.32903894483E+02
 0.39045859138E+02 0.45560979034E+02 0.51995399296E+02 0.57731934922E+02 0.61836889262E+02
 0.63345502352E+02 0.61836889262E+02 0.57731934922E+02 0.51995399296E+02 0.45560979034E+02
 0.39045859138E+02 0.32903894483E+02 0.27643208052E+02 0.23736948923E+02 0.21302377407E+02
 0.19960492082E+02 0.19372179958E+02 0.19271606906E+02 0.19367250801E+02 0.26835111706E+02
 0.26362382777E+02 0.25199637423E+02 0.23938775721E+02 0.23143766972E+02 0.23068987680E+02
 0.23787095329E+02 0.25649138597E+02 0.28856917385E+02 0.33261964095E+02 0.38491884771E+02
 0.44005544662E+02 0.49041430595E+02 0.52648279794E+02 0.53968066859E+02 0.52648279794E+02
 0.49041430595E+02 0.44005544662E+02 0.38491884771E+02 0.33261964095E+02 0.28856917385E+02
 0.25649138597E+02 0.23787095329E+02 0.23068987680E+02 0.23143766972E+02 0.23938775721E+02
 0.25199637423E+02 0.26362382777E+02 0.41073477528E+02 0.39771485578E+02 0.36409307760E+02
 0.32262716283E+02 0.28601962810E+02 0.26161540210E+02 0.25016534638E+02 0.24857153107E+02
 0.25888358029E+02 0.28222563986E+02 0.31635764576E+02 0.35624063388E+02 0.39447715395E+02
 0.42241374341E+02 0.43270228120E+02 0.42241374341E+02 0.39447715395E+02 0.35624063388E+02
 0.31635764576E+02 0.28222563986E+02 0.25888358029E+02 0.24857153107E+02 0.25016534638E+02
 0.26161540210E+02 0.28601962810E+02 0.32262716283E+02 0.36409307760E+02 0.39771485578E+02
 0.63117053436E+02 0.60633759566E+02 0.54125409515E+02 0.45792274480E+02 0.37823336220E+02
 0.31561514650E+02 0.27447649567E+02 0.25214189674E+02 0.24201552156E+02 0.24442420284E+02
 0.25851870347E+02 0.28010342067E+02 0.30309562766E+02 0.32072814666E+02 0.32735548167E+02
 0.32072814666E+02 0.30309562766E+02 0.28010342067E+02 0.25851870347E+02 0.24442420284E+02
 0.24201552156E+02 0.25214189674E+02 0.27447649567E+02 0.31561514650E+02 0.37823336220E+02
 0.45792274480E+02 0.54125409515E+02 0.60633759566E+02 0.91222332010E+02 0.87376095946E+02
 0.77257727735E+02 0.64127678979E+02 0.51115116448E+02 0.40090575170E+02 0.31857922681E+02
 0.26590899901E+02 0.23665882346E+02 0.22129843320E+02 0.21798544539E+02 0.22320312679E+02
 0.23225076914E+02 0.24039600035E+02 0.24365889132E+02 0.24039600035E+02 0.23225076914E+02
 0.22320312679E+02 0.21798544539E+02 0.22129843320E+02 0.23665882346E+02 0.26590899901E+02
 0.31857922681E+02 0.40090575170E+02 0.51115116448E+02 0.64127678979E+02 0.77257727735E+02
 0.87376095946E+02 0.12325184557E+03 0.11795722045E+03 0.10406837502E+03 0.86042363881E+02
 0.67886015154E+02 0.51754457337E+02 0.38669768039E+02 0.29397203541E+02 0.23965610773E+02
 0.20939437882E+02 0.19337800065E+02 0.18736195389E+02 0.18698583824E+02 0.18882054318E+02
 0.18987824063E+02 0.18882054318E+02 0.18698583824E+02 0.18736195389E+02 0.19337800065E+02
 0.20939437882E+02 0.23965610773E+02 0.29397203541E+02 0.38669768039E+02 0.51754457337E+02
 0.67886015154E+02 0.86042363881E+02 0.10406837502E+03 0.11795722045E+03 0.15758901742E+03
 0.15074720503E+03 0.13292082117E+03 0.10998048643E+03 0.86821004411E+02 0.65640507439E+02
 0.47442793685E+02 0.33602063825E+02 0.25049223033E+02 0.20522781038E+02 0.17894876391E+02
 0.16530980036E+02 0.15963527681E+02 0.15839429166E+02 0.15847099000E+02 0.15839429166E+02
 0.15963527681E+02 0.16530980036E+02 0.17894876391E+02 0.20522781038E+02 0.25049223033E+02
 0.33602063825E+02 0.47442793685E+02 0.65640507439E+02 0.86821004411E+02 0.10998048643E+03
 0.13292082117E+03 0.15074720503E+03 0.19098311550E+03 0.18256734358E+03 0.16079806472E+03
 0.13310212888E+03 0.10531311274E+03 0.79558687192E+02 0.56627767816E+02 0.38371177991E+02
 0.26634796797E+02 0.20588498012E+02 0.17184595754E+02 0.15269127184E+02 0.14351046194E+02
 0.14052184842E+02 0.14012033127E+02 0.14052184842E+02 0.14351046194E+02 0.15269127184E+02
 0.17184595754E+02 0.20588498012E+02 0.26634796797E+02 0.38371177991E+02 0.56627767816E+02
 0.79558687192E+02 0.10531311274E+03 0.13310212888E+03 0.16079806472E+03 0.18256734358E+03
 0.21659197368E+03 0.20691005466E+03 0.18199061621E+03 0.15056416436E+03 0.11926384671E+03
 0.90152097822E+02 0.63766613273E+02 0.42232401763E+02 0.28064025976E+02 0.20806993781E+02
 0.16913855676E+02 0.14667348658E+02 0.13552934975E+02 0.13167124949E+02 0.13106587710E+02
 0.13167124949E+02 0.13552934975E+02 0.14667348658E+02 0.16913855676E+02 0.20806993781E+02
 0.28064025976E+02 0.42232401763E+02 0.63766613273E+02 0.90152097822E+02 0.11926384671E+03
 0.15056416436E+03 0.18199061621E+03 0.20691005466E+03 0.19880799035E+03 0.19006967311E+03
 0.16748374921E+03 0.13877181882E+03 0.10993144309E+03 0.83067127115E+02 0.58953232371E+02
 0.39595115490E+02 0.27073598654E+02 0.20658261385E+02 0.17104861067E+02 0.15086229733E+02
 0.14104634301E+02 0.13775998961E+02 0.13728370039E+02 0.13775998961E+02 0.14104634301E+02
 0.15086229733E+02 0.17104861067E+02 0.20658261385E+02 0.27073598654E+02 0.39595115490E+02
 0.58953232371E+02 0.83067127115E+02 0.10993144309E+03 0.13877181882E+03 0.16748374921E+03
 0.19006967311E+03 0.19111022987E+03 0.18273365833E+03 0.16104722029E+03 0.13340406320E+03
 0.10558778728E+03 0.79737081489E+02 0.56695621119E+02 0.38364248775E+02 0.26600771647E+02
 0.20553952040E+02 0.17151565925E+02 0.15232717712E+02 0.14307918941E+02 0.14002883784E+02
 0.13960287900E+02 0.14002883784E+02 0.14307918941E+02 0.15232717712E+02 0.17151565925E+02
 0.20553952040E+02 0.26600771647E+02 0.38364248775E+02 0.56695621119E+02 0.79737081489E+02
 0.10558778728E+03 0.13340406320E+03 0.16104722029E+03 0.18273365833E+03 0.17054964793E+03