   4   4   0   0
  0.9606015E+01  0.3374435E-09  0.3374435E-09  0.3374435E-09  0.5000000E-15
  1.000000000000000E-004
  CAR 
 unknown system                          
     37.48583567      1.97233218  301     17.47521721      1.00000000
      1.972  0.0000E+00  0.0000E+00
      2.091  0.0000E+00  0.0000E+00
      2.209  0.0000E+00  0.0000E+00
      2.327 -0.1241E-30 -0.1469E-31
      2.446 -0.1372E-26 -0.1624E-27
      2.564 -0.7480E-23 -0.8856E-24
      2.683 -0.2010E-19 -0.2380E-20
      2.801 -0.2587E-16 -0.3065E-17
      2.919 -0.1665E-13 -0.1973E-14
      3.038 -0.5245E-11 -0.6229E-12
      3.156 -0.8038E-09 -0.9577E-10
      3.274 -0.5950E-07 -0.7140E-08
      3.393 -0.2109E-05 -0.2568E-06
      3.511 -0.3535E-04 -0.4442E-05
      3.630 -0.2760E-03 -0.3712E-04
      3.748 -0.9529E-03 -0.1499E-03
      3.866 -0.6903E-03 -0.2316E-03
      3.985  0.6716E-02  0.5634E-03
      4.103  0.3117E-01  0.4254E-02
      4.222  0.7112E-01  0.1267E-01
      4.340  0.9913E-01  0.2441E-01
      4.458  0.8857E-01  0.3489E-01
      4.577  0.7554E-01  0.4384E-01
      4.695  0.1323E+00  0.5950E-01
      4.813  0.2224E+00  0.8583E-01
      4.932  0.2052E+00  0.1101E+00
      5.050  0.1048E+00  0.1225E+00
      5.169  0.1207E+00  0.1368E+00
      5.287  0.2376E+00  0.1649E+00
      5.405  0.2863E+00  0.1988E+00
      5.524  0.3094E+00  0.2355E+00
      5.642  0.3395E+00  0.2757E+00
      5.760  0.3717E+00  0.3197E+00
      5.879  0.5094E+00  0.3800E+00
      5.997  0.6226E+00  0.4537E+00
      6.116  0.5399E+00  0.5176E+00
      6.234  0.4017E+00  0.5651E+00
      6.352  0.6633E+00  0.6437E+00
      6.471  0.1182E+01  0.7836E+00
      6.589  0.1183E+01  0.9236E+00
      6.707  0.9357E+00  0.1034E+01
      6.826  0.1157E+01  0.1171E+01
      6.944  0.1893E+01  0.1395E+01
      7.063  0.2323E+01  0.1670E+01
      7.181  0.2170E+01  0.1927E+01
      7.299  0.2234E+01  0.2192E+01
      7.418  0.2829E+01  0.2527E+01
      7.536  0.3420E+01  0.2932E+01
      7.654  0.3695E+01  0.3369E+01
      7.773  0.3923E+01  0.3833E+01
      7.891  0.4029E+01  0.4310E+01
      8.010  0.3950E+01  0.4778E+01
      8.128  0.3905E+01  0.5240E+01
      8.246  0.4277E+01  0.5746E+01
      8.365  0.4847E+01  0.6320E+01
      8.483  0.4778E+01  0.6886E+01
      8.602  0.4022E+01  0.7362E+01
      8.720  0.3696E+01  0.7799E+01
      8.838  0.3825E+01  0.8252E+01
      8.957  0.3952E+01  0.8720E+01
      9.075  0.3975E+01  0.9191E+01
      9.193  0.3544E+01  0.9610E+01
      9.312  0.3074E+01  0.9974E+01
      9.430  0.3162E+01  0.1035E+02
      9.549  0.3180E+01  0.1072E+02
      9.667  0.2644E+01  0.1104E+02
      9.785  0.2261E+01  0.1131E+02
      9.904  0.2499E+01  0.1160E+02
     10.022  0.2763E+01  0.1193E+02
     10.140  0.2639E+01  0.1224E+02
     10.259  0.2592E+01  0.1255E+02
     10.377  0.3032E+01  0.1291E+02
     10.496  0.3644E+01  0.1334E+02
     10.614  0.3679E+01  0.1377E+02
     10.732  0.3336E+01  0.1417E+02
     10.851  0.3474E+01  0.1458E+02
     10.969  0.3934E+01  0.1505E+02
     11.087  0.3946E+01  0.1551E+02
     11.206  0.3459E+01  0.1592E+02
     11.324  0.3060E+01  0.1628E+02
     11.443  0.3219E+01  0.1667E+02
     11.561  0.3733E+01  0.1711E+02
     11.679  0.3933E+01  0.1757E+02
     11.798  0.3698E+01  0.1801E+02
     11.916  0.3865E+01  0.1847E+02
     12.034  0.4889E+01  0.1905E+02
     12.153  0.5996E+01  0.1976E+02
     12.271  0.6681E+01  0.2055E+02
     12.390  0.7115E+01  0.2139E+02
     12.508  0.6933E+01  0.2221E+02
     12.626  0.5944E+01  0.2291E+02
     12.745  0.4951E+01  0.2350E+02
     12.863  0.4540E+01  0.2404E+02
     12.982  0.4440E+01  0.2456E+02
     13.100  0.4213E+01  0.2506E+02
     13.218  0.4225E+01  0.2556E+02
     13.337  0.4769E+01  0.2613E+02
     13.455  0.5011E+01  0.2672E+02
     13.573  0.4895E+01  0.2730E+02
     13.692  0.5090E+01  0.2790E+02
     13.810  0.4972E+01  0.2849E+02
     13.929  0.4106E+01  0.2898E+02
     14.047  0.3111E+01  0.2934E+02
     14.165  0.2768E+01  0.2967E+02
     14.284  0.3111E+01  0.3004E+02
     14.402  0.3497E+01  0.3045E+02
     14.520  0.3195E+01  0.3083E+02
     14.639  0.2531E+01  0.3113E+02
     14.757  0.2358E+01  0.3141E+02
     14.876  0.2353E+01  0.3169E+02
     14.994  0.2168E+01  0.3195E+02
     15.112  0.2194E+01  0.3221E+02
     15.231  0.2339E+01  0.3248E+02
     15.349  0.2520E+01  0.3278E+02
     15.467  0.2943E+01  0.3313E+02
     15.586  0.3501E+01  0.3354E+02
     15.704  0.4210E+01  0.3404E+02
     15.823  0.4687E+01  0.3460E+02
     15.941  0.4403E+01  0.3512E+02
     16.059  0.3681E+01  0.3555E+02
     16.178  0.3366E+01  0.3595E+02
     16.296  0.3536E+01  0.3637E+02
     16.414  0.3646E+01  0.3680E+02
     16.533  0.3270E+01  0.3719E+02
     16.651  0.2779E+01  0.3752E+02
     16.770  0.2921E+01  0.3787E+02
     16.888  0.3450E+01  0.3827E+02
     17.006  0.3777E+01  0.3872E+02
     17.125  0.3604E+01  0.3915E+02
     17.243  0.2902E+01  0.3949E+02
     17.362  0.2249E+01  0.3976E+02
     17.480  0.2137E+01  0.4001E+02
     17.598  0.2231E+01  0.4027E+02
     17.717  0.2284E+01  0.4054E+02
     17.835  0.2319E+01  0.4082E+02
     17.953  0.2273E+01  0.4109E+02
     18.072  0.2076E+01  0.4133E+02
     18.190  0.1896E+01  0.4156E+02
     18.309  0.1972E+01  0.4179E+02
     18.427  0.2183E+01  0.4205E+02
     18.545  0.2093E+01  0.4230E+02
     18.664  0.1745E+01  0.4250E+02
     18.782  0.1496E+01  0.4268E+02
     18.900  0.1436E+01  0.4285E+02
     19.019  0.1322E+01  0.4301E+02
     19.137  0.1180E+01  0.4315E+02
     19.256  0.1165E+01  0.4329E+02
     19.374  0.9708E+00  0.4340E+02
     19.492  0.6930E+00  0.4348E+02
     19.611  0.6829E+00  0.4356E+02
     19.729  0.8925E+00  0.4367E+02
     19.847  0.9295E+00  0.4378E+02
     19.966  0.5964E+00  0.4385E+02
     20.084  0.3247E+00  0.4389E+02
     20.203  0.4633E+00  0.4394E+02
     20.321  0.6909E+00  0.4403E+02
     20.439  0.6365E+00  0.4410E+02
     20.558  0.4559E+00  0.4415E+02
     20.676  0.4275E+00  0.4421E+02
     20.794  0.5216E+00  0.4427E+02
     20.913  0.5116E+00  0.4433E+02
     21.031  0.4397E+00  0.4438E+02
     21.150  0.4952E+00  0.4444E+02
     21.268  0.4699E+00  0.4449E+02
     21.386  0.4171E+00  0.4454E+02
     21.505  0.6021E+00  0.4461E+02
     21.623  0.8073E+00  0.4471E+02
     21.742  0.7881E+00  0.4480E+02
     21.860  0.6107E+00  0.4488E+02
     21.978  0.5517E+00  0.4494E+02
     22.097  0.7706E+00  0.4503E+02
     22.215  0.9602E+00  0.4515E+02
     22.333  0.1026E+01  0.4527E+02
     22.452  0.1043E+01  0.4539E+02
     22.570  0.9247E+00  0.4550E+02
     22.689  0.8951E+00  0.4561E+02
     22.807  0.1101E+01  0.4574E+02
     22.925  0.1266E+01  0.4589E+02
     23.044  0.1075E+01  0.4601E+02
     23.162  0.7058E+00  0.4610E+02
     23.280  0.4921E+00  0.4616E+02
     23.399  0.5211E+00  0.4622E+02
     23.517  0.7137E+00  0.4630E+02
     23.636  0.8384E+00  0.4640E+02
     23.754  0.8174E+00  0.4650E+02
     23.872  0.9193E+00  0.4661E+02
     23.991  0.1148E+01  0.4674E+02
     24.109  0.1075E+01  0.4687E+02
     24.227  0.6261E+00  0.4694E+02
     24.346  0.2916E+00  0.4698E+02
     24.464  0.2741E+00  0.4701E+02
     24.583  0.4744E+00  0.4707E+02
     24.701  0.8124E+00  0.4716E+02
     24.819  0.9677E+00  0.4728E+02
     24.938  0.6767E+00  0.4736E+02
     25.056  0.3258E+00  0.4740E+02
     25.174  0.2174E+00  0.4742E+02
     25.293  0.2502E+00  0.4745E+02
     25.411  0.4370E+00  0.4750E+02
     25.530  0.5700E+00  0.4757E+02
     25.648  0.5051E+00  0.4763E+02
     25.766  0.5320E+00  0.4769E+02
     25.885  0.6068E+00  0.4777E+02
     26.003  0.5286E+00  0.4783E+02
     26.122  0.4921E+00  0.4789E+02
     26.240  0.5737E+00  0.4795E+02
     26.358  0.6624E+00  0.4803E+02
     26.477  0.7499E+00  0.4812E+02
     26.595  0.8721E+00  0.4822E+02
     26.713  0.9882E+00  0.4834E+02
     26.832  0.9967E+00  0.4846E+02
     26.950  0.1079E+01  0.4859E+02
     27.069  0.1318E+01  0.4874E+02
     27.187  0.1441E+01  0.4891E+02
     27.305  0.1355E+01  0.4907E+02
     27.424  0.1294E+01  0.4923E+02
     27.542  0.1217E+01  0.4937E+02
     27.660  0.1067E+01  0.4950E+02
     27.779  0.1020E+01  0.4962E+02
     27.897  0.1079E+01  0.4975E+02
     28.016  0.1201E+01  0.4989E+02
     28.134  0.1110E+01  0.5002E+02
     28.252  0.8925E+00  0.5013E+02
     28.371  0.9388E+00  0.5024E+02
     28.489  0.1086E+01  0.5037E+02
     28.607  0.1107E+01  0.5050E+02
     28.726  0.1165E+01  0.5063E+02
     28.844  0.1133E+01  0.5077E+02
     28.963  0.1028E+01  0.5089E+02
     29.081  0.9094E+00  0.5100E+02
     29.199  0.7751E+00  0.5109E+02
     29.318  0.8334E+00  0.5119E+02
     29.436  0.1129E+01  0.5132E+02
     29.554  0.1490E+01  0.5150E+02
     29.673  0.1759E+01  0.5171E+02
     29.791  0.1570E+01  0.5189E+02
     29.910  0.1041E+01  0.5202E+02
     30.028  0.8746E+00  0.5212E+02
     30.146  0.1088E+01  0.5225E+02
     30.265  0.1207E+01  0.5239E+02
     30.383  0.1142E+01  0.5253E+02
     30.502  0.1108E+01  0.5266E+02
     30.620  0.1165E+01  0.5279E+02
     30.738  0.1233E+01  0.5294E+02
     30.857  0.1336E+01  0.5310E+02
     30.975  0.1431E+01  0.5327E+02
     31.093  0.1362E+01  0.5343E+02
     31.212  0.1327E+01  0.5359E+02
     31.330  0.1434E+01  0.5376E+02
     31.449  0.1430E+01  0.5393E+02
     31.567  0.1382E+01  0.5409E+02
     31.685  0.1375E+01  0.5425E+02
     31.804  0.1471E+01  0.5443E+02
     31.922  0.1573E+01  0.5461E+02
     32.040  0.1494E+01  0.5479E+02
     32.159  0.1391E+01  0.5495E+02
     32.277  0.1473E+01  0.5513E+02
     32.396  0.1675E+01  0.5533E+02
     32.514  0.1738E+01  0.5553E+02
     32.632  0.1743E+01  0.5574E+02
     32.751  0.1976E+01  0.5597E+02
     32.869  0.1902E+01  0.5620E+02
     32.987  0.1374E+01  0.5636E+02
     33.106  0.1178E+01  0.5650E+02
     33.224  0.1389E+01  0.5666E+02
     33.343  0.1585E+01  0.5685E+02
     33.461  0.1776E+01  0.5706E+02
     33.579  0.1976E+01  0.5730E+02
     33.698  0.1954E+01  0.5753E+02
     33.816  0.1877E+01  0.5775E+02
     33.934  0.1727E+01  0.5795E+02
     34.053  0.1635E+01  0.5815E+02
     34.171  0.1771E+01  0.5836E+02
     34.290  0.1914E+01  0.5858E+02
     34.408  0.2028E+01  0.5882E+02
     34.526  0.2013E+01  0.5906E+02
     34.645  0.1805E+01  0.5928E+02
     34.763  0.1584E+01  0.5946E+02
     34.882  0.1245E+01  0.5961E+02
     35.000  0.9235E+00  0.5972E+02
     35.118  0.7960E+00  0.5981E+02
     35.237  0.7389E+00  0.5990E+02
     35.355  0.5521E+00  0.5997E+02
     35.473  0.2491E+00  0.6000E+02
     35.592  0.4777E-01  0.6000E+02
     35.710 -0.8277E-02  0.6000E+02
     35.829 -0.7690E-02  0.6000E+02
     35.947 -0.1959E-02  0.6000E+02
     36.065 -0.2255E-03  0.6000E+02
     36.184 -0.1232E-04  0.6000E+02
     36.302 -0.3237E-06  0.6000E+02
     36.420 -0.4131E-08  0.6000E+02
     36.539 -0.2576E-10  0.6000E+02
     36.657 -0.7882E-13  0.6000E+02
     36.776 -0.1127E-15  0.6000E+02
     36.894  0.0000E+00  0.6000E+02
     37.012  0.0000E+00  0.6000E+02
     37.131  0.0000E+00  0.6000E+02
     37.249  0.0000E+00  0.6000E+02
     37.367  0.0000E+00  0.6000E+02
     37.486  0.0000E+00  0.6000E+02
