    4    4    1    1
  0.9606015E+01  0.3374435E-09  0.3374435E-09  0.3374435E-09  0.5000000E-15
  1.000000000000000E-004
  CAR 
 unknown system                          
     40    216     30
 
  0.0000000E+00  0.0000000E+00  0.0000000E+00  0.7513148E-03
    1        3.972332   1.000000
    2        5.384124   1.000000
    3        7.066185   1.000000
    4        7.129552   1.000000
    5        7.174786   1.000000
    6        7.361366   1.000000
    7        7.447118   1.000000
    8       11.856975   1.000000
    9       11.878945   1.000000
   10       12.071561   1.000000
   11       14.230857   1.000000
   12       14.485663   1.000000
   13       15.805848   1.000000
   14       16.161313   1.000000
   15       16.403282   1.000000
   16       17.545302   0.222669
   17       17.930463  -0.002966
   18       18.371515  -0.000000
   19       18.782770  -0.000000
   20       19.345472  -0.000000
   21       19.373324  -0.000000
   22       19.429355  -0.000000
   23       19.656011  -0.000000
   24       20.805508  -0.000000
   25       29.692657   0.000000
   26       30.270109   0.000000
   27       30.609621   0.000000
   28       31.339430   0.000000
   29       31.526921   0.000000
   30       33.388959   0.000000
 
  0.9090909E-01  0.0000000E+00  0.0000000E+00  0.1502630E-02
    1        4.119499   1.000000
    2        5.501580   1.000000
    3        7.155428   1.000000
    4        7.188484   1.000000
    5        7.287674   1.000000
    6        7.470798   1.000000
    7        7.568166   1.000000
    8       11.773350   1.000000
    9       11.919354   1.000000
   10       12.134744   1.000000
   11       14.237215   1.000000
   12       14.397795   1.000000
   13       15.799032   1.000000
   14       15.892713   1.000000
   15       15.961887   1.000000
   16       16.670571   1.000000
   17       17.850715  -0.011636
   18       17.937111  -0.002599
   19       18.565808  -0.000000
   20       18.614027  -0.000000
   21       18.969621  -0.000000
   22       20.579012  -0.000000
   23       20.723175  -0.000000
   24       20.805031  -0.000000
   25       29.339004   0.000000
   26       30.492762   0.000000
   27       30.791557   0.000000
   28       31.271549   0.000000
   29       32.011675   0.000000
   30       33.513662   0.000000
 
  0.0000000E+00  0.9090909E-01  0.0000000E+00  0.1502630E-02
    1        4.138856   1.000000
    2        5.511093   1.000000
    3        7.139142   1.000000
    4        7.231412   1.000000
    5        7.253444   1.000000
    6        7.472384   1.000000
    7        7.568485   1.000000
    8       11.924679   1.000000
    9       11.943785   1.000000
   10       11.976941   1.000000
   11       14.153964   1.000000
   12       14.504133   1.000000
   13       15.482802   1.000000
   14       15.971130   1.000000
   15       16.117184   1.000000
   16       17.518592   0.321166
   17       17.566041   0.156133
   18       18.365466  -0.000000
   19       18.372611  -0.000000
   20       18.545055  -0.000000
   21       18.823903  -0.000000
   22       19.001893  -0.000000
   23       20.903502  -0.000000
   24       21.469145  -0.000000
   25       29.727447   0.000000
   26       29.959164   0.000000
   27       30.499275   0.000000
   28       31.698119   0.000000
   29       32.128966   0.000000
   30       33.265925   0.000000
 
  0.0000000E+00  0.0000000E+00  0.9090909E-01  0.1502630E-02
    1        4.141428   1.000000
    2        5.514028   1.000000
    3        7.195755   1.000000
    4        7.254507   1.000000
    5        7.290281   1.000000
    6        7.426645   1.000000
    7        7.503982   1.000000
    8       11.748212   1.000000
    9       11.938231   1.000000
   10       12.134645   1.000000
   11       14.185328   1.000000
   12       14.463175   1.000000
   13       15.458789   1.000000
   14       16.026602   1.000000
   15       16.389097   1.000000
   16       16.828782   1.000024
   17       17.644343  -0.000818
   18       17.767826  -0.029264
   19       18.453883  -0.000000
   20       18.846338  -0.000000
   21       19.084019  -0.000000
   22       19.648097  -0.000000
   23       20.656470  -0.000000
   24       21.393961  -0.000000
   25       29.407268   0.000000
   26       29.971126   0.000000
   27       30.825241   0.000000
   28       31.688015   0.000000
   29       32.213581   0.000000
   30       33.186137   0.000000
 
  0.1818182E+00  0.0000000E+00  0.0000000E+00  0.1502630E-02
    1        4.540063   1.000000
    2        5.839913   1.000000
    3        7.359611   1.000000
    4        7.393230   1.000000
    5        7.623091   1.000000
    6        7.794254   1.000000
    7        7.930316   1.000000
    8       11.478125   1.000000
    9       12.101993   1.000000
   10       12.325206   1.000000
   11       14.074926   1.000000
   12       14.327695   1.000000
   13       14.812742   1.000000
   14       15.197436   1.000000
   15       15.407259   1.000000
   16       15.781800   1.000000
   17       17.302633   1.004440
   18       17.355860   0.918568
   19       17.764647  -0.029930
   20       17.821161  -0.017271
   21       18.387274  -0.000000
   22       20.804037  -0.000000
   23       22.232803  -0.000000
   24       22.292174  -0.000000
   25       28.647848   0.000000
   26       30.885787   0.000000
   27       31.017639   0.000000
   28       31.034962   0.000000
   29       32.860913   0.000000
   30       33.167524   0.000000
 
  0.0000000E+00  0.1818182E+00  0.0000000E+00  0.1502630E-02
    1        4.620999   1.000000
    2        5.877276   1.000000
    3        7.326234   1.000000
    4        7.394528   1.000000
    5        7.616718   1.000000
    6        7.799129   1.000000
    7        7.940415   1.000000
    8       11.710607   1.000000
    9       12.131546   1.000000
   10       12.144330   1.000000
   11       13.929380   1.000000
   12       14.560274   1.000000
   13       14.683877   1.000000
   14       14.963142   1.000000
   15       15.954793   1.000000
   16       16.632062   1.000000
   17       17.355002   0.920497
   18       17.450352   0.604319
   19       17.748960  -0.032853
   20       17.873877  -0.008169
   21       18.107842  -0.000036
   22       18.351963  -0.000000
   23       22.474664  -0.000000
   24       22.690020  -0.000000
   25       28.752182   0.000000
   26       30.508611   0.000000
   27       30.791296   0.000000
   28       31.798197   0.000000
   29       32.576891   0.000000
   30       33.109349   0.000000
 
  0.0000000E+00  0.0000000E+00  0.1818182E+00  0.1502630E-02
    1        4.632784   1.000000
    2        5.891571   1.000000
    3        7.557217   1.000000
    4        7.618336   1.000000
    5        7.622229   1.000000
    6        7.633358   1.000000
    7        7.670202   1.000000
    8       11.439572   1.000000
    9       12.115478   1.000000
   10       12.326478   1.000000
   11       13.978082   1.000000
   12       14.474673   1.000000
   13       14.625824   1.000000
   14       15.328807   1.000000
   15       15.577698   1.000000
   16       16.353620   1.000000
   17       16.982520   1.001361
   18       17.356451   0.917227
   19       17.472571   0.511195
   20       17.870650  -0.008601
   21       18.327257  -0.000000
   22       19.628672  -0.000000
   23       22.420638  -0.000000
   24       22.575508  -0.000000
   25       28.362773   0.000000
   26       30.584989   0.000000
   27       31.033808   0.000000
   28       32.018558   0.000000
   29       32.597452   0.000000
   30       33.012107   0.000000
 
  0.2727273E+00  0.0000000E+00  0.0000000E+00  0.1502630E-02
    1        5.163536   1.000000
    2        6.352400   1.000000
    3        7.623150   1.000000
    4        7.728222   1.000000
    5        8.169666   1.000000
    6        8.316584   1.000000
    7        8.497917   1.000000
    8       11.055263   1.000000
    9       12.352022   1.000000
   10       12.634066   1.000000
   11       13.663935   1.000000
   12       13.667607   1.000000
   13       13.737898   1.000000
   14       14.386079   1.000000
   15       14.642014   1.000000
   16       15.761767   1.000000
   17       15.948395   1.000000
   18       16.516991   1.000000
   19       16.833062   1.000027
   20       17.171939   1.026915
   21       18.047879  -0.000196
   22       20.803245  -0.000000
   23       23.888901   0.000000
   24       24.074616   0.000000
   25       28.016504   0.000000
   26       30.599443   0.000000
   27       30.771153   0.000000
   28       30.862993   0.000000
   29       32.133917   0.000000
   30       34.291806   0.000000
 
  0.0000000E+00  0.2727273E+00  0.0000000E+00  0.1502630E-02
    1        5.359274   1.000000
    2        6.429112   1.000000
    3        7.564603   1.000000
    4        7.641123   1.000000
    5        8.197480   1.000000
    6        8.322831   1.000000
    7        8.534262   1.000000
    8       11.326771   1.000000
    9       12.476968   1.000000
   10       12.484306   1.000000
   11       13.599788   1.000000
   12       13.666455   1.000000
   13       13.780838   1.000000
   14       14.624921   1.000000
   15       15.189534   1.000000
   16       15.903105   1.000000
   17       16.334569   1.000000
   18       16.575296   1.000000
   19       16.799830   1.000010
   20       17.096338   1.011076
   21       17.369038   0.886594
   22       18.339241  -0.000000
   23       24.101360   0.000000
   24       24.149395   0.000000
   25       28.044286   0.000000
   26       30.536002   0.000000
   27       30.692223   0.000000
   28       31.538607   0.000000
   29       32.688739   0.000000
   30       33.066023   0.000000
 
  0.0000000E+00  0.0000000E+00  0.2727273E+00  0.1502630E-02
    1        5.392187   1.000000
    2        6.470972   1.000000
    3        7.840053   1.000000
    4        7.922360   1.000000
    5        8.148500   1.000000
    6        8.194231   1.000000
    7        8.215969   1.000000
    8       10.982542   1.000000
    9       12.364592   1.000000
   10       12.641452   1.000000
   11       13.611512   1.000000
   12       13.634947   1.000000
   13       13.834641   1.000000
   14       14.543695   1.000000
   15       14.828090   1.000000
   16       15.970995   1.000000
   17       16.192843   1.000000
   18       16.312731   1.000000
   19       16.762373   1.000003
   20       16.934657   1.000446
   21       17.520063   0.315430
   22       19.607045  -0.000000
   23       23.983903   0.000000
   24       24.235048   0.000000
   25       27.594473   0.000000
   26       30.661568   0.000000
   27       30.886488   0.000000
   28       32.017342   0.000000
   29       32.096047   0.000000
   30       33.508505   0.000000
 
  0.3636364E+00  0.0000000E+00  0.0000000E+00  0.1502630E-02
    1        5.837789   1.000000
    2        6.931685   1.000000
    3        7.930985   1.000000
    4        8.095338   1.000000
    5        8.904478   1.000000
    6        9.005410   1.000000
    7        9.139898   1.000000
    8       10.600481   1.000000
    9       12.118390   1.000000
   10       12.374660   1.000000
   11       13.041609   1.000000
   12       13.135770   1.000000
   13       13.201886   1.000000
   14       13.905762   1.000000
   15       14.411600   1.000000
   16       14.550510   1.000000
   17       15.729271   1.000000
   18       15.746272   1.000000
   19       15.937324   1.000000
   20       16.388567   1.000000
   21       17.887800  -0.006490
   22       20.802305  -0.000000
   23       25.577421   0.000000
   24       25.829514   0.000000
   25       27.575938   0.000000
   26       29.992125   0.000000
   27       30.111828   0.000000
   28       30.232449   0.000000
   29       31.763223   0.000000
   30       34.932666   0.000000
 
  0.0000000E+00  0.3636364E+00  0.0000000E+00  0.1502630E-02
    1        6.222048   1.000000
    2        7.047518   1.000000
    3        7.769565   1.000000
    4        7.919656   1.000000
    5        8.940454   1.000000
    6        8.996416   1.000000
    7        9.234164   1.000000
    8       10.922242   1.000000
    9       12.590773   1.000000
   10       12.604646   1.000000
   11       12.976208   1.000000
   12       12.985051   1.000000
   13       13.235898   1.000000
   14       13.980127   1.000000
   15       14.568448   1.000000
   16       15.350724   1.000000
   17       15.456671   1.000000
   18       15.501611   1.000000
   19       15.710336   1.000000
   20       16.350237   1.000000
   21       17.298810   1.008162
   22       18.330550  -0.000000
   23       25.588695   0.000000
   24       25.848247   0.000000
   25       27.599827   0.000000
   26       29.722571   0.000000
   27       30.120116   0.000000
   28       31.289558   0.000000
   29       32.549967   0.000000
   30       33.159310   0.000000
 
  0.0000000E+00  0.0000000E+00  0.3636364E+00  0.1502630E-02
    1        6.305509   1.000000
    2        7.139419   1.000000
    3        7.978231   1.000000
    4        8.304469   1.000000
    5        8.771163   1.000000
    6        8.953654   1.000000
    7        8.999257   1.000000
    8       10.460786   1.000000
    9       12.139520   1.000000
   10       12.422694   1.000000
   11       13.086554   1.000000
   12       13.166702   1.000000
   13       13.177038   1.000000
   14       14.020859   1.000000
   15       14.469987   1.000000
   16       14.710482   1.000000
   17       15.383928   1.000000
   18       15.706631   1.000000
   19       16.146254   1.000000
   20       16.278490   1.000000
   21       17.113907   1.014181
   22       19.587904  -0.000000
   23       25.477835   0.000000
   24       26.028555   0.000000
   25       27.112764   0.000000
   26       29.777508   0.000000
   27       30.383673   0.000000
   28       31.697274   0.000000
   29       31.933483   0.000000
   30       33.791775   0.000000
 
  0.4545455E+00  0.0000000E+00  0.0000000E+00  0.1502630E-02
    1        6.303120   1.000000
    2        7.360243   1.000000
    3        8.170797   1.000000
    4        8.374374   1.000000
    5        9.611743   1.000000
    6        9.737751   1.000000
    7        9.748699   1.000000
    8       10.274824   1.000000
    9       11.233035   1.000000
   10       11.245307   1.000000
   11       12.922792   1.000000
   12       13.265418   1.000000
   13       13.409001   1.000000
   14       13.411854   1.000000
   15       13.661947   1.000000
   16       14.526024   1.000000
   17       15.143247   1.000000
   18       15.286337   1.000000
   19       15.737905   1.000000
   20       15.804033   1.000000
   21       17.816112  -0.018353
   22       20.801899  -0.000000
   23       27.166357   0.000000
   24       27.354822   0.000000
   25       27.410742   0.000000
   26       28.847260   0.000000
   27       29.193580   0.000000
   28       29.820674   0.000000
   29       31.615506   0.000000
   30       35.171366   0.000000
 
  0.0000000E+00  0.4545455E+00  0.0000000E+00  0.1502630E-02
    1        6.921354   1.000000
    2        7.506992   1.000000
    3        7.832510   1.000000
    4        8.124936   1.000000
    5        9.656988   1.000000
    6        9.673535   1.000000
    7        9.785279   1.000000
    8       10.642562   1.000000
    9       11.688892   1.000000
   10       11.708651   1.000000
   11       12.894224   1.000000
   12       13.231010   1.000000
   13       13.569137   1.000000
   14       13.597176   1.000000
   15       14.287343   1.000000
   16       14.491168   1.000000
   17       14.498032   1.000000
   18       14.849357   1.000000
   19       15.470330   1.000000
   20       16.010390   1.000000
   21       17.259724   1.031411
   22       18.326389  -0.000000
   23       27.036004   0.000000
   24       27.387471   0.000000
   25       27.482409   0.000000
   26       28.583581   0.000000
   27       28.986161   0.000000
   28       31.167241   0.000000
   29       32.437607   0.000000
   30       33.210767   0.000000
 
  0.0000000E+00  0.0000000E+00  0.4545455E+00  0.1502630E-02
    1        7.157205   1.000000
    2        7.566423   1.000000
    3        7.959496   1.000000
    4        8.652443   1.000000
    5        9.225609   1.000000
    6        9.846888   1.000000
    7        9.884227   1.000000
    8       10.030735   1.000000
    9       11.192932   1.000000
   10       11.216013   1.000000
   11       12.856724   1.000000
   12       13.257704   1.000000
   13       13.540107   1.000000
   14       13.549168   1.000000
   15       13.774369   1.000000
   16       14.716887   1.000000
   17       14.776744   1.000000
   18       14.890818   1.000000
   19       15.461503   1.000000
   20       16.259749   1.000000
   21       16.979631   1.001277
   22       19.577513  -0.000000
   23       26.883669   0.000000
   24       26.909171   0.000000
   25       27.715572   0.000000
   26       28.628411   0.000000
   27       29.266434   0.000000
   28       31.523266   0.000000
   29       31.841513   0.000000
   30       33.909907   0.000000
 
  0.9090909E-01  0.9090909E-01  0.0000000E+00  0.3005259E-02
    1        4.283413   1.000000
    2        5.626999   1.000000
    3        7.234683   1.000000
    4        7.291323   1.000000
    5        7.364109   1.000000
    6        7.539349   1.000000
    7        7.722146   1.000000
    8       11.774348   1.000000
    9       11.980505   1.000000
   10       12.107795   1.000000
   11       14.158875   1.000000
   12       14.418697   1.000000
   13       15.391591   1.000000
   14       15.518458   1.000000
   15       15.942482   1.000000
   16       16.810444   1.000014
   17       17.404154   0.780686
   18       17.652833  -0.009277
   19       17.893427  -0.005892
   20       18.391261  -0.000000
   21       19.548987  -0.000000
   22       19.734709  -0.000000
   23       20.811451  -0.000000
   24       21.856104  -0.000000
   25       29.359656   0.000000
   26       30.104691   0.000000
   27       30.760946   0.000000
   28       32.028874   0.000000
   29       32.151600   0.000000
   30       32.912863   0.000000
 
  0.0000000E+00  0.9090909E-01  0.9090909E-01  0.3005259E-02
    1        4.301058   1.000000
    2        5.639672   1.000000
    3        7.237509   1.000000
    4        7.336716   1.000000
    5        7.395689   1.000000
    6        7.545978   1.000000
    7        7.638793   1.000000
    8       11.754660   1.000000
    9       11.997824   1.000000
   10       12.104451   1.000000
   11       14.124386   1.000000
   12       14.468117   1.000000
   13       15.159236   1.000000
   14       15.791148   1.000000
   15       16.028092   1.000000
   16       17.049586   1.005171
   17       17.404426   0.779755
   18       17.591628   0.088201
   19       17.778944  -0.026813
   20       18.311970  -0.000000
   21       19.012012  -0.000000
   22       19.610471  -0.000000
   23       21.513108  -0.000000
   24       21.577730  -0.000000
   25       29.498195   0.000000
   26       30.061867   0.000000
   27       30.255327   0.000000
   28       32.011797   0.000000
   29       32.654877   0.000000
   30       32.928545   0.000000
 
  0.9090909E-01  0.0000000E+00  0.9090909E-01  0.3005259E-02
    1        4.285426   1.000000
    2        5.630121   1.000000
    3        7.250100   1.000000
    4        7.305702   1.000000
    5        7.428953   1.000000
    6        7.542593   1.000000
    7        7.632422   1.000000
    8       11.679315   1.000000
    9       11.968076   1.000000
   10       12.191739   1.000000
   11       14.203403   1.000000
   12       14.366932   1.000000
   13       15.301557   1.000000
   14       15.846407   1.000000
   15       16.096825   1.000000
   16       16.369301   1.000000
   17       16.672172   1.000000
   18       17.733908  -0.034796
   19       18.480256  -0.000000
   20       18.505585  -0.000000
   21       19.864305  -0.000000
   22       19.990166  -0.000000
   23       20.320692  -0.000000
   24       21.816307  -0.000000
   25       29.256949   0.000000
   26       29.961906   0.000000
   27       31.062063   0.000000
   28       31.891970   0.000000
   29       32.331270   0.000000
   30       32.911060   0.000000
 
  0.1818182E+00  0.9090909E-01  0.0000000E+00  0.3005259E-02
    1        4.697450   1.000000
    2        5.961227   1.000000
    3        7.461854   1.000000
    4        7.485607   1.000000
    5        7.695226   1.000000
    6        7.805723   1.000000
    7        8.114934   1.000000
    8       11.460516   1.000000
    9       12.135012   1.000000
   10       12.318055   1.000000
   11       14.050571   1.000000
   12       14.251019   1.000000
   13       14.576304   1.000000
   14       14.817757   1.000000
   15       15.419910   1.000000
   16       15.979785   1.000000
   17       16.354241   1.000000
   18       17.274181   1.025657
   19       17.435067   0.666153
   20       17.945210  -0.002205
   21       19.251238  -0.000000
   22       20.011402  -0.000000
   23       21.843147  -0.000000
   24       23.020962   0.000000
   25       28.609275   0.000000
   26       30.284025   0.000000
   27       31.257718   0.000000
   28       31.304290   0.000000
   29       32.884839   0.000000
   30       33.389338   0.000000
 
  0.0000000E+00  0.1818182E+00  0.9090909E-01  0.3005259E-02
    1        4.764401   1.000000
    2        6.001216   1.000000
    3        7.413770   1.000000
    4        7.487827   1.000000
    5        7.725844   1.000000
    6        7.877702   1.000000
    7        8.049278   1.000000
    8       11.612244   1.000000
    9       12.171932   1.000000
   10       12.188358   1.000000
   11       13.921133   1.000000
   12       14.325071   1.000000
   13       14.643293   1.000000
   14       14.780904   1.000000
   15       15.902410   1.000000
   16       16.234878   1.000000
   17       16.849220   1.000044
   18       16.974770   1.001146
   19       17.386319   0.838104
   20       17.708954  -0.034936
   21       18.378367  -0.000000
   22       19.143545  -0.000000
   23       22.464327  -0.000000
   24       22.917422  -0.000000
   25       28.671875   0.000000
   26       30.084293   0.000000
   27       30.851192   0.000000
   28       32.041066   0.000000
   29       32.498361   0.000000
   30       33.539601   0.000000
 
  0.9090909E-01  0.0000000E+00  0.1818182E+00  0.3005259E-02
    1        4.767793   1.000000
    2        6.003415   1.000000
    3        7.541247   1.000000
    4        7.616758   1.000000
    5        7.761949   1.000000
    6        7.785760   1.000000
    7        7.870173   1.000000
    8       11.383178   1.000000
    9       12.138101   1.000000
   10       12.357595   1.000000
   11       13.992046   1.000000
   12       14.361694   1.000000
   13       14.489066   1.000000
   14       15.095835   1.000000
   15       15.467381   1.000000
   16       15.698034   1.000000
   17       16.163202   1.000000
   18       17.383648   0.846074
   19       17.834369  -0.014595
   20       18.024673  -0.000358
   21       18.962308  -0.000000
   22       19.366990  -0.000000
   23       21.924679  -0.000000
   24       23.028561   0.000000
   25       28.355002   0.000000
   26       30.346392   0.000000
   27       31.388691   0.000000
   28       31.967631   0.000000
   29       32.434606   0.000000
   30       33.106379   0.000000
 
 -0.9090909E-01  0.1818182E+00  0.0000000E+00  0.3005259E-02
    1        4.758534   1.000000
    2        5.988517   1.000000
    3        7.431114   1.000000
    4        7.483092   1.000000
    5        7.693813   1.000000
    6        7.813909   1.000000
    7        8.121761   1.000000
    8       11.620613   1.000000
    9       12.159832   1.000000
   10       12.198236   1.000000
   11       13.933979   1.000000
   12       14.370259   1.000000
   13       14.562496   1.000000
   14       14.783103   1.000000
   15       15.774566   1.000000
   16       16.080259   1.000000
   17       16.878072   1.000101
   18       17.029470   1.003566
   19       17.681889  -0.028252
   20       17.824626  -0.016547
   21       18.545523  -0.000000
   22       19.000937  -0.000000
   23       22.075685  -0.000000
   24       23.110176   0.000000
   25       28.602437   0.000000
   26       30.314034   0.000000
   27       31.137814   0.000000
   28       32.052635   0.000000
   29       32.445069   0.000000
   30       32.898781   0.000000
 
 -0.1818182E+00  0.0000000E+00  0.9090909E-01  0.3005259E-02
    1        4.697835   1.000000
    2        5.964765   1.000000
    3        7.461958   1.000000
    4        7.465796   1.000000
    5        7.750233   1.000000
    6        7.871612   1.000000
    7        8.026198   1.000000
    8       11.409827   1.000000
    9       12.129513   1.000000
   10       12.356384   1.000000
   11       14.082696   1.000000
   12       14.247269   1.000000
   13       14.590214   1.000000
   14       14.926815   1.000000
   15       15.353895   1.000000
   16       15.813288   1.000000
   17       15.893594   1.000000
   18       17.496126   0.412061
   19       17.713982  -0.035304
   20       18.222997  -0.000001
   21       19.095580  -0.000000
   22       20.069346  -0.000000
   23       21.775843  -0.000000
   24       22.942829   0.000000
   25       28.611892   0.000000
   26       30.208445   0.000000
   27       31.280428   0.000000
   28       31.411703   0.000000
   29       32.817459   0.000000
   30       33.424587   0.000000
 
  0.0000000E+00  0.9090909E-01  0.1818182E+00  0.3005259E-02
    1        4.773364   1.000000
    2        6.012476   1.000000
    3        7.555441   1.000000
    4        7.618479   1.000000
    5        7.699334   1.000000
    6        7.792251   1.000000
    7        7.908637   1.000000
    8       11.425497   1.000000
    9       12.147918   1.000000
   10       12.317258   1.000000
   11       13.958722   1.000000
   12       14.294112   1.000000
   13       14.548245   1.000000
   14       14.965574   1.000000
   15       15.627463   1.000000
   16       16.386184   1.000000
   17       16.441375   1.000000
   18       16.993034   1.001708
   19       17.200865   1.032753
   20       17.633159   0.012632
   21       19.202876  -0.000000
   22       19.229128  -0.000000
   23       22.377558  -0.000000
   24       22.918824  -0.000000
   25       28.397454   0.000000
   26       30.261321   0.000000
   27       30.921721   0.000000
   28       31.881423   0.000000
   29       32.674368   0.000000
   30       33.798711   0.000000
 
  0.2727273E+00  0.9090909E-01  0.0000000E+00  0.3005259E-02
    1        5.313850   1.000000
    2        6.469077   1.000000
    3        7.725964   1.000000
    4        7.828710   1.000000
    5        8.235235   1.000000
    6        8.288957   1.000000
    7        8.681488   1.000000
    8       11.037690   1.000000
    9       12.310176   1.000000
   10       12.631495   1.000000
   11       13.421937   1.000000
   12       13.620968   1.000000
   13       13.687665   1.000000
   14       14.319414   1.000000
   15       14.695863   1.000000
   16       15.225808   1.000000
   17       15.725020   1.000000
   18       16.533280   1.000000
   19       16.797530   1.000009
   20       17.512491   0.345277
   21       18.346147  -0.000000
   22       20.169138  -0.000000
   23       23.336685   0.000000
   24       24.599737   0.000000
   25       27.915228   0.000000
   26       29.779415   0.000000
   27       30.822875   0.000000
   28       31.286834   0.000000
   29       33.261713   0.000000
   30       34.454984   0.000000
 
  0.0000000E+00  0.2727273E+00  0.9090909E-01  0.3005259E-02
    1        5.478707   1.000000
    2        6.546586   1.000000
    3        7.659755   1.000000
    4        7.729093   1.000000
    5        8.242870   1.000000
    6        8.395053   1.000000
    7        8.679505   1.000000
    8       11.271612   1.000000
    9       12.445395   1.000000
   10       12.496288   1.000000
   11       13.428190   1.000000
   12       13.664372   1.000000
   13       13.670062   1.000000
   14       14.645668   1.000000
   15       14.757011   1.000000
   16       15.792058   1.000000
   17       15.888874   1.000000
   18       16.236620   1.000000
   19       16.834790   1.000029
   20       17.280634   1.022084
   21       18.074282  -0.000096
   22       18.159236  -0.000007
   23       23.704321   0.000000
   24       24.493795   0.000000
   25       27.899643   0.000000
   26       29.719471   0.000000
   27       31.050828   0.000000
   28       32.061004   0.000000
   29       32.683548   0.000000
   30       33.767869   0.000000
 
  0.9090909E-01  0.0000000E+00  0.2727273E+00  0.3005259E-02
    1        5.514491   1.000000
    2        6.577890   1.000000
    3        7.918226   1.000000
    4        7.975706   1.000000
    5        8.118420   1.000000
    6        8.317462   1.000000
    7        8.441091   1.000000
    8       10.937848   1.000000
    9       12.387815   1.000000
   10       12.607323   1.000000
   11       13.473977   1.000000
   12       13.562111   1.000000
   13       13.708680   1.000000
   14       14.442419   1.000000
   15       14.692853   1.000000
   16       14.987374   1.000000
   17       16.150503   1.000000
   18       16.791618   1.000007
   19       16.806155   1.000012
   20       17.436333   0.661133
   21       17.601013   0.067406
   22       19.233731  -0.000000
   23       23.626556   0.000000
   24       24.395255   0.000000
   25       27.603320   0.000000
   26       30.157663   0.000000
   27       31.053910   0.000000
   28       31.966206   0.000000
   29       32.703397   0.000000
   30       33.619814   0.000000
 
 -0.9090909E-01  0.2727273E+00  0.0000000E+00  0.3005259E-02
    1        5.487923   1.000000
    2        6.535121   1.000000
    3        7.676257   1.000000
    4        7.732972   1.000000
    5        8.263598   1.000000
    6        8.304740   1.000000
    7        8.713273   1.000000