       N       E                     dE             d eps       ncg     rms          rms(c)
DAV:   1     0.238159326807E+03    0.23816E+03   -0.11863E+04 14170   0.102E+03
DAV:   2    -0.451495402093E+01   -0.24267E+03   -0.23001E+03 13762   0.293E+02
DAV:   3    -0.153272679240E+02   -0.10812E+02   -0.10593E+02 15070   0.718E+01
DAV:   4    -0.155888301523E+02   -0.26156E+00   -0.26138E+00 16466   0.107E+01
DAV:   5    -0.155996881359E+02   -0.10858E-01   -0.10857E-01 18064   0.209E+00    0.573E+01
DAV:   6    -0.152324225057E+02    0.36727E+00   -0.18252E+01 15568   0.124E+02    0.293E+01
DAV:   7    -0.147150162620E+02    0.51741E+00   -0.11652E+01 15792   0.158E+02    0.243E+01
DAV:   8    -0.135050618219E+02    0.12100E+01   -0.10253E+01 15734   0.774E+01    0.305E+00
DAV:   9    -0.133458939465E+02    0.15917E+00   -0.44488E-01 19984   0.177E+01    0.146E+00
DAV:  10    -0.133165962086E+02    0.29298E-01   -0.84335E-02 19360   0.103E+01    0.535E-01
DAV:  11    -0.133164355848E+02    0.16062E-03   -0.12272E-02 16244   0.100E+00    0.221E-01
DAV:  12    -0.133162937066E+02    0.14188E-03   -0.73305E-04 17360   0.358E-01    0.174E-01
DAV:  13    -0.133160178943E+02    0.27581E-03   -0.71547E-04 16946   0.114E+00    0.215E-02
DAV:  14    -0.133160168795E+02    0.10148E-05   -0.74262E-05 20180   0.120E-01    0.975E-03
DAV:  15    -0.133160160132E+02    0.86634E-06   -0.18733E-06 10746   0.494E-02
   1 F= -.13316016E+02 E0= -.13316411E+02  d E =0.118543E-02
