 vasp.6.2.0 18Jan21 (build Mar 17 2021 09:06:54) complex                        
  
 executed on             LinuxIFC date 2021.06.11  11:33:21
 serial version


--------------------------------------------------------------------------------------------------------


 INCAR:
   ENCUT = 270.000000
   SIGMA = 0.200000
   EDIFF = 1.00e-06
   GGA = PE
   PREC = normal
   IBRION = 1
   ICHARG = 1
   ISIF = 2
   ISMEAR = 1
   KPAR = 1
   NBANDS = 30
   NSW = 0
   NCORE = 1
   LCHARG = .TRUE.

 POTCAR:    PAW_PBE Pd 04Jan2005                  
 POTCAR:    PAW_PBE Ir 06Sep2000                  
 POTCAR:    PAW_PBE Pt 04Feb2005                  
 POTCAR:    PAW_PBE Cu 22Jun2005                  
 POTCAR:    PAW_PBE Pd 04Jan2005                  
   SHA256 =  dd6f6f02930356371984e2b707ff5e456046761dc76b07c1eba30abd15eb3c39 Pd/POTCAR             
   COPYR  = (c) Copyright 04Jan2005 Georg Kresse                                                    
   COPYR  = This file is part of the software VASP. Any use, copying, and all other rights are regul
   COPYR  = If you do not have a valid VASP license, you may not use, copy or distribute this file. 
   VRHFIN =Pd : s1 d9                                                                               
   LEXCH  = PE                                                                                      
   EATOM  =   809.7530 eV,   59.5152 Ry                                                             
                                                                                                    
   TITEL  = PAW_PBE Pd 04Jan2005                                                                    
   LULTRA =        F    use ultrasoft PP ?                                                          
   IUNSCR =        1    unscreen: 0-lin 1-nonlin 2-no                                               
   RPACOR =    2.000    partial core radius                                                         
   POMASS =  106.420; ZVAL   =   10.000    mass and valenz                                          
   RCORE  =    2.600    outmost cutoff radius                                                       
   RWIGS  =    2.710; RWIGS  =    1.434    wigner-seitz radius (au A)                               
   ENMAX  =  250.925; ENMIN  =  188.194 eV                                                          
   ICORE  =        3    local potential                                                             
   LCOR   =        T    correct aug charges                                                         
   LPAW   =        T    paw PP                                                                      
   EAUG   =  416.230                                                                                
   DEXC   =    0.000                                                                                
   RMAX   =    2.653    core radius for proj-oper                                                   
   RAUG   =    1.300    factor for augmentation sphere                                              
   RDEP   =    2.734    radius for radial grids                                                     
   RDEPT  =    2.103    core radius for aug-charge                                                  
                                                                                                    
   Atomic configuration                                                                             
   12 entries                                                                                       
     n  l   j            E        occ.                                                              
     1  0  0.50    -24164.6631   2.0000                                                             
     2  0  0.50     -3530.9218   2.0000                                                             
     2  1  1.50     -3165.6822   6.0000                                                             
     3  0  0.50      -639.4577   2.0000                                                             
     3  1  1.50      -519.4532   6.0000                                                             
     3  2  2.50      -328.9757  10.0000                                                             
     4  0  0.50       -88.7014   2.0000                                                             
     4  1  1.50       -54.4540   6.0000                                                             
     4  2  2.50        -6.6878   9.0000                                                             
     5  0  0.50        -4.3543   1.0000                                                             
     5  1  0.50        -1.3606   0.0000                                                             
     4  3  2.50        -1.3606   0.0000                                                             
   Description                                                                                      
     l       E           TYP  RCUT    TYP  RCUT                                                     
     2     -6.6878251     23  2.400                                                                 
     2     -8.0484077     23  2.400                                                                 
     0     -4.3542939     23  2.400                                                                 
     0      4.3406793     23  2.400                                                                 
     1     -4.0817478     23  2.600                                                                 
     1     15.8380318     23  2.600                                                                 
     3     -4.0817478     23  2.400                                                                 
  local pseudopotential read in
  partial core-charges read in
  partial kinetic energy density read in
  atomic valenz-charges read in
  non local Contribution for L=           2  read in
    real space projection operators read in
  non local Contribution for L=           2  read in
    real space projection operators read in
  non local Contribution for L=           0  read in
    real space projection operators read in
  non local Contribution for L=           0  read in
    real space projection operators read in
  non local Contribution for L=           1  read in
    real space projection operators read in
  non local Contribution for L=           1  read in
    real space projection operators read in
    PAW grid and wavefunctions read in
 
   number of l-projection  operators is LMAX  =           6
   number of lm-projection operators is LMMAX =          18
 
 POTCAR:    PAW_PBE Ir 06Sep2000                  
   SHA256 =  7c6af8d4d487b237782eb51e6f62977b27a1da78c3c96acd1cebefd6c308f120 Ir/POTCAR             
   COPYR  = (c) Copyright 06Sep2000 Georg Kresse                                                    
   COPYR  = This file is part of the software VASP. Any use, copying, and all other rights are regul
   COPYR  = If you do not have a valid VASP license, you may not use, copy or distribute this file. 
   VRHFIN =Ir: s1d8                                                                                 
   LEXCH  = PE                                                                                      
   EATOM  =   560.1833 eV,   41.1723 Ry                                                             
                                                                                                    
   TITEL  = PAW_PBE Ir 06Sep2000                                                                    
   LULTRA =        F    use ultrasoft PP ?                                                          
   IUNSCR =        1    unscreen: 0-lin 1-nonlin 2-no                                               
   RPACOR =    2.250    partial core radius                                                         
   POMASS =  192.220; ZVAL   =    9.000    mass and valenz                                          
   RCORE  =    2.600    outmost cutoff radius                                                       
   RWIGS  =    2.690; RWIGS  =    1.423    wigner-seitz radius (au A)                               
   ENMAX  =  210.864; ENMIN  =  158.148 eV                                                          
   RCLOC  =    1.857    cutoff for local pot                                                        
   LCOR   =        T    correct aug charges                                                         
   LPAW   =        T    paw PP                                                                      
   EAUG   =  318.962                                                                                
   DEXC   =    0.000                                                                                
   RMAX   =    2.667    core radius for proj-oper                                                   
   RAUG   =    1.300    factor for augmentation sphere                                              
   RDEP   =    2.748    radius for radial grids                                                     
   RDEPT  =    2.300    core radius for aug-charge                                                  
                                                                                                    
   Atomic configuration                                                                             
   16 entries                                                                                       
     n  l   j            E        occ.                                                              
     1  0  0.50    -76100.0449   2.0000                                                             
     2  0  0.50    -13308.1683   2.0000                                                             
     2  1  1.50    -11558.0021   6.0000                                                             
     3  0  0.50     -3110.7274   2.0000                                                             
     3  1  1.50     -2599.2109   6.0000                                                             
     3  2  2.50     -2037.1515  10.0000                                                             
     4  0  0.50      -661.6001   2.0000                                                             
     4  1  1.50      -493.8981   6.0000                                                             
     4  2  2.50      -288.1909  10.0000                                                             
     4  3  3.50       -59.5718  14.0000                                                             
     5  0  0.50       -95.3879   2.0000                                                             
     5  1  1.50       -52.2747   6.0000                                                             
     5  2  2.50        -5.4180   8.0000                                                             
     6  0  0.50        -5.5479   1.0000                                                             
     6  1  1.50        -6.8029   0.0000                                                             
     5  3  2.50        -1.3606   0.0000                                                             
   Description                                                                                      
     l       E           TYP  RCUT    TYP  RCUT                                                     
     2     -5.4179967     23  2.600                                                                 
     2     -6.7785793     23  2.600                                                                 
     0     -5.5478636     23  2.600                                                                 
     0      2.2542272     23  2.600                                                                 
     1     -2.7211652     23  2.600                                                                 
     1     20.4087390     23  2.600                                                                 
  local pseudopotential read in
  partial core-charges read in
  partial kinetic energy density read in
  atomic valenz-charges read in
  non local Contribution for L=           2  read in
    real space projection operators read in
  non local Contribution for L=           2  read in
    real space projection operators read in
  non local Contribution for L=           0  read in
    real space projection operators read in
  non local Contribution for L=           0  read in
    real space projection operators read in
  non local Contribution for L=           1  read in
    real space projection operators read in
  non local Contribution for L=           1  read in
    real space projection operators read in
    PAW grid and wavefunctions read in
 
   number of l-projection  operators is LMAX  =           6
   number of lm-projection operators is LMMAX =          18
 
 POTCAR:    PAW_PBE Pt 04Feb2005                  
   SHA256 =  3ed90460adef76debcff1cfb73ee1349b515b1a3db03439735b44de3a8db7dc8 Pt/POTCAR             
   COPYR  = (c) Copyright 04Feb2005 Georg Kresse                                                    
   COPYR  = This file is part of the software VASP. Any use, copying, and all other rights are regul
   COPYR  = If you do not have a valid VASP license, you may not use, copy or distribute this file. 
   VRHFIN =Pt: s1d9                                                                                 
   LEXCH  = PE                                                                                      
   EATOM  =   729.1176 eV,   53.5886 Ry                                                             
                                                                                                    
   TITEL  = PAW_PBE Pt 04Feb2005                                                                    
   LULTRA =        F    use ultrasoft PP ?                                                          
   IUNSCR =        1    unscreen: 0-lin 1-nonlin 2-no                                               
   RPACOR =    2.330    partial core radius                                                         
   POMASS =  195.080; ZVAL   =   10.000    mass and valenz                                          
   RCORE  =    2.600    outmost cutoff radius                                                       
   RWIGS  =    2.750; RWIGS  =    1.455    wigner-seitz radius (au A)                               
   ENMAX  =  230.283; ENMIN  =  172.712 eV                                                          
   ICORE  =        3    local potential                                                             
   LCOR   =        T    correct aug charges                                                         
   LPAW   =        T    paw PP                                                                      
   EAUG   =  358.966                                                                                
   DEXC   =    0.000                                                                                
   RMAX   =    2.658    core radius for proj-oper                                                   
   RAUG   =    1.300    factor for augmentation sphere                                              
   RDEP   =    2.761    radius for radial grids                                                     
   RDEPT  =    2.203    core radius for aug-charge                                                  
                                                                                                    
   Atomic configuration                                                                             
   16 entries                                                                                       
     n  l   j            E        occ.                                                              
     1  0  0.50    -78401.1885   2.0000                                                             
     2  0  0.50    -13770.7750   2.0000                                                             
     2  1  1.50    -11931.0468   6.0000                                                             
     3  0  0.50     -3234.7234   2.0000                                                             
     3  1  1.50     -2699.2216   6.0000                                                             
     3  2  2.50     -2119.5714  10.0000                                                             
     4  0  0.50      -695.1528   2.0000                                                             
     4  1  1.50      -519.6034   6.0000                                                             
     4  2  2.50      -306.6786  10.0000                                                             
     4  3  3.50       -70.1041  14.0000                                                             
     5  0  0.50      -101.7747   2.0000                                                             
     5  1  1.50       -55.9873   6.0000                                                             
     5  2  2.50        -6.1423   9.0000                                                             
     6  0  0.50        -5.6573   1.0000                                                             
     6  1  1.50        -6.8029   0.0000                                                             
     5  3  2.50        -1.3606   0.0000                                                             
   Description                                                                                      
     l       E           TYP  RCUT    TYP  RCUT                                                     
     2     -6.1423404     23  2.500                                                                 
     2     -7.5029230     23  2.500                                                                 
     0     -5.6573207     23  2.500                                                                 
     0      0.7416693     23  2.500                                                                 
     1     -2.7211652     23  2.600                                                                 
     1     20.4087390     23  2.600                                                                 
     3     -1.3605826     23  2.500                                                                 
  local pseudopotential read in
  partial core-charges read in
  partial kinetic energy density read in
  atomic valenz-charges read in
  non local Contribution for L=           2  read in
    real space projection operators read in
  non local Contribution for L=           2  read in
    real space projection operators read in
  non local Contribution for L=           0  read in
    real space projection operators read in
  non local Contribution for L=           0  read in
    real space projection operators read in
  non local Contribution for L=           1  read in
    real space projection operators read in
  non local Contribution for L=           1  read in
    real space projection operators read in
    PAW grid and wavefunctions read in
 
   number of l-projection  operators is LMAX  =           6
   number of lm-projection operators is LMMAX =          18
 
 POTCAR:    PAW_PBE Cu 22Jun2005                  
   SHA256 =  0e71e558f37a4e8407882b4609ceaae59938afaad9ced71dfe8490308a0ab630 Cu/POTCAR             
   COPYR  = (c) Copyright 22Jun2005 Georg Kresse                                                    
   COPYR  = This file is part of the software VASP. Any use, copying, and all other rights are regul
   COPYR  = If you do not have a valid VASP license, you may not use, copy or distribute this file. 
   VRHFIN =Cu: d10 p1                                                                               
   LEXCH  = PE                                                                                      
   EATOM  =  1390.9808 eV,  102.2342 Ry                                                             
                                                                                                    
   TITEL  = PAW_PBE Cu 22Jun2005                                                                    
   LULTRA =        F    use ultrasoft PP ?                                                          
   IUNSCR =        1    unscreen: 0-lin 1-nonlin 2-no                                               
   RPACOR =    2.000    partial core radius                                                         
   POMASS =   63.546; ZVAL   =   11.000    mass and valenz                                          
   RCORE  =    2.300    outmost cutoff radius                                                       
   RWIGS  =    2.200; RWIGS  =    1.164    wigner-seitz radius (au A)                               
   ENMAX  =  295.446; ENMIN  =  221.585 eV                                                          
   ICORE  =        3    local potential                                                             
   LCOR   =        T    correct aug charges                                                         
   LPAW   =        T    paw PP                                                                      
   EAUG   =  586.980                                                                                
   DEXC   =    0.000                                                                                
   RMAX   =    2.344    core radius for proj-oper                                                   
   RAUG   =    1.300    factor for augmentation sphere                                              
   RDEP   =    2.302    radius for radial grids                                                     
   RDEPT  =    1.771    core radius for aug-charge                                                  
                                                                                                    
   Atomic configuration                                                                             
    9 entries                                                                                       
     n  l   j            E        occ.                                                              
     1  0  0.50     -8850.2468   2.0000                                                             
     2  0  0.50     -1062.3498   2.0000                                                             
     2  1  1.50      -916.8226   6.0000                                                             
     3  0  0.50      -114.6929   2.0000                                                             
     3  1  1.50       -72.1325   6.0000                                                             
     3  2  2.50        -5.0394  10.0000                                                             
     4  0  0.50        -4.6097   1.0000                                                             
     4  1  0.50        -4.0817   0.0000                                                             
     4  3  2.50        -1.3606   0.0000                                                             
   Description                                                                                      
     l       E           TYP  RCUT    TYP  RCUT                                                     
     2     -5.0393973     23  2.200                                                                 
     2     10.8846608     23  2.200                                                                 
     0     -4.6097109     23  2.200                                                                 
     0      8.2520465     23  2.200                                                                 
     1     -2.7211652     23  2.200                                                                 
     1     21.7055443     23  2.200                                                                 
     3      2.7211652     23  2.300                                                                 
  local pseudopotential read in
  partial core-charges read in
  partial kinetic energy density read in
  atomic valenz-charges read in
  non local Contribution for L=           2  read in
    real space projection operators read in
  non local Contribution for L=           2  read in
    real space projection operators read in
  non local Contribution for L=           0  read in
    real space projection operators read in
  non local Contribution for L=           0  read in
    real space projection operators read in
  non local Contribution for L=           1  read in
    real space projection operators read in
  non local Contribution for L=           1  read in
    real space projection operators read in
    PAW grid and wavefunctions read in
 
   number of l-projection  operators is LMAX  =           6
   number of lm-projection operators is LMMAX =          18
 
  PAW_PBE Pd 04Jan2005                  :
 energy of atom  1       EATOM= -809.7530
 kinetic energy error for atom=    0.0525 (will be added to EATOM!!)
  PAW_PBE Ir 06Sep2000                  :
 energy of atom  2       EATOM= -560.1833
 kinetic energy error for atom=    0.0351 (will be added to EATOM!!)
  PAW_PBE Pt 04Feb2005                  :
 energy of atom  3       EATOM= -729.1176
 kinetic energy error for atom=    0.0526 (will be added to EATOM!!)
  PAW_PBE Cu 22Jun2005                  :
 energy of atom  4       EATOM=-1390.9808
 kinetic energy error for atom=    0.1077 (will be added to EATOM!!)
 
 
 POSCAR: Pd Ir Pt Cu
  positions in cartesian coordinates
  No initial velocities read in
 exchange correlation table for  LEXCH =        8
   RHO(1)=    0.500       N(1)  =     2000
   RHO(2)=  100.500       N(2)  =     4000
 


--------------------------------------------------------------------------------------------------------


 ion  position               nearest neighbor table
   1  0.000  0.000  0.000-   2 2.39   3 2.39   4 2.39   3 2.39   4 2.39   2 2.39   4 2.39   4 2.39
                             2 2.39   3 2.39   3 2.39   2 2.39
   2  0.500  0.500  0.000-   1 2.39   3 2.39   4 2.39   3 2.39   4 2.39   1 2.39   3 2.39   3 2.39
                             1 2.39   4 2.39   4 2.39   1 2.39
   3  0.500  0.000  0.500-   1 2.39   2 2.39   4 2.39   1 2.39   2 2.39   2 2.39   4 2.39   2 2.39
                             1 2.39   4 2.39   1 2.39   4 2.39
   4  0.000  0.500  0.500-   1 2.39   2 2.39   3 2.39   1 2.39   2 2.39   1 2.39   3 2.39   1 2.39
                             2 2.39   3 2.39   2 2.39   3 2.39
 
  LATTYP: Found a simple cubic cell.
 ALAT       =     3.3744350820
  
  Lattice vectors:
  
 A1 = (   3.3744350820,   0.0000000000,   0.0000000000)
 A2 = (   0.0000000000,   3.3744350820,   0.0000000000)
 A3 = (   0.0000000000,   0.0000000000,   3.3744350820)


Analysis of symmetry for initial positions (statically):
=====================================================================
 Subroutine PRICEL returns:
 Original cell was already a primitive cell.
 

 Routine SETGRP: Setting up the symmetry group for a 
 simple cubic supercell.


 Subroutine GETGRP returns: Found  8 space group operations
 (whereof  8 operations were pure point group operations)
 out of a pool of 48 trial point group operations.


The static configuration has the point symmetry D_2h.


Analysis of symmetry for dynamics (positions and initial velocities):
=====================================================================
 Subroutine PRICEL returns:
 Original cell was already a primitive cell.
 

 Routine SETGRP: Setting up the symmetry group for a 
 simple cubic supercell.


 Subroutine GETGRP returns: Found  8 space group operations
 (whereof  8 operations were pure point group operations)
 out of a pool of 48 trial point group operations.


The dynamic configuration has the point symmetry D_2h.


 Subroutine INISYM returns: Found  8 space group operations
 (whereof  8 operations are pure point group operations),
 and found     1 'primitive' translations


----------------------------------------------------------------------------------------

                                     Primitive cell                                     

  volume of cell :      38.4241

  direct lattice vectors                    reciprocal lattice vectors
     3.374435082  0.000000000  0.000000000     0.296345900  0.000000000  0.000000000
     0.000000000  3.374435082  0.000000000     0.000000000  0.296345900  0.000000000
     0.000000000  0.000000000  3.374435082     0.000000000  0.000000000  0.296345900

  length of vectors
     3.374435082  3.374435082  3.374435082     0.296345900  0.296345900  0.296345900

  position of ions in fractional coordinates (direct lattice)
     0.000000000  0.000000000  0.000000000
     0.500000000  0.500000000  0.000000000
     0.500000000  0.000000000  0.500000000
     0.000000000  0.500000000  0.500000000

  ion indices of the primitive-cell ions
   primitive index   ion index
                 1           1
                 2           2
                 3           3
                 4           4

----------------------------------------------------------------------------------------

 
 
 KPOINTS: KPOINTS created by Atomic Simulation Env

Automatic generation of k-mesh.
 Grid dimensions read from file:
 generate k-points for:   11   11   11

 Generating k-lattice:

  Cartesian coordinates                     Fractional coordinates (reciprocal lattice)
     0.026940536  0.000000000  0.000000000     0.090909091  0.000000000  0.000000000
     0.000000000  0.026940536  0.000000000     0.000000000  0.090909091  0.000000000
     0.000000000  0.000000000  0.026940536     0.000000000  0.000000000  0.090909091

  Length of vectors
     0.026940536  0.026940536  0.026940536

  Shift w.r.t. Gamma in fractional coordinates (k-lattice)
     0.000000000  0.000000000  0.000000000

 
 Subroutine IBZKPT returns following result:
 ===========================================
 
 Found    216 irreducible k-points:
 
 Following reciprocal coordinates:
            Coordinates               Weight
  0.000000  0.000000  0.000000      1.000000
  0.090909  0.000000  0.000000      2.000000
  0.000000  0.090909  0.000000      2.000000
  0.000000  0.000000  0.090909      2.000000
  0.181818  0.000000  0.000000      2.000000
  0.000000  0.181818  0.000000      2.000000
  0.000000  0.000000  0.181818      2.000000
  0.272727  0.000000  0.000000      2.000000
  0.000000  0.272727  0.000000      2.000000
  0.000000  0.000000  0.272727      2.000000
  0.363636  0.000000  0.000000      2.000000
  0.000000  0.363636  0.000000      2.000000
  0.000000  0.000000  0.363636      2.000000
  0.454545  0.000000  0.000000      2.000000
  0.000000  0.454545  0.000000      2.000000
  0.000000  0.000000  0.454545      2.000000
  0.090909  0.090909  0.000000      4.000000
  0.000000  0.090909  0.090909      4.000000
  0.090909  0.000000  0.090909      4.000000
  0.181818  0.090909  0.000000      4.000000
  0.000000  0.181818  0.090909      4.000000
  0.090909  0.000000  0.181818      4.000000
 -0.090909  0.181818  0.000000      4.000000
 -0.181818  0.000000  0.090909      4.000000
  0.000000  0.090909  0.181818      4.000000
  0.272727  0.090909  0.000000      4.000000
  0.000000  0.272727  0.090909      4.000000
  0.090909  0.000000  0.272727      4.000000
 -0.090909  0.272727  0.000000      4.000000
 -0.272727  0.000000  0.090909      4.000000
  0.000000  0.090909  0.272727      4.000000
  0.363636  0.090909  0.000000      4.000000
  0.000000  0.363636  0.090909      4.000000
  0.090909  0.000000  0.363636      4.000000
 -0.090909  0.363636  0.000000      4.000000
 -0.363636  0.000000  0.090909      4.000000
  0.000000  0.090909  0.363636      4.000000
  0.454545  0.090909  0.000000      4.000000
  0.000000  0.454545  0.090909      4.000000
  0.090909  0.000000  0.454545      4.000000
 -0.090909  0.454545  0.000000      4.000000
 -0.454545  0.000000  0.090909      4.000000
  0.000000  0.090909  0.454545      4.000000
  0.181818  0.181818  0.000000      4.000000
  0.000000  0.181818  0.181818      4.000000
  0.181818  0.000000  0.181818      4.000000
  0.272727  0.181818  0.000000      4.000000
  0.000000  0.272727  0.181818      4.000000
  0.181818  0.000000  0.272727      4.000000
 -0.181818  0.272727  0.000000      4.000000
 -0.272727  0.000000  0.181818      4.000000
  0.000000  0.181818  0.272727      4.000000
  0.363636  0.181818  0.000000      4.000000
  0.000000  0.363636  0.181818      4.000000
  0.181818  0.000000  0.363636      4.000000
 -0.181818  0.363636  0.000000      4.000000
 -0.363636  0.000000  0.181818      4.000000
  0.000000  0.181818  0.363636      4.000000
  0.454545  0.181818  0.000000      4.000000
  0.000000  0.454545  0.181818      4.000000
  0.181818  0.000000  0.454545      4.000000
 -0.181818  0.454545  0.000000      4.000000
 -0.454545  0.000000  0.181818      4.000000
  0.000000  0.181818  0.454545      4.000000
  0.272727  0.272727  0.000000      4.000000
  0.000000  0.272727  0.272727      4.000000
  0.272727  0.000000  0.272727      4.000000
  0.363636  0.272727  0.000000      4.000000
  0.000000  0.363636  0.272727      4.000000
  0.272727  0.000000  0.363636      4.000000
 -0.272727  0.363636  0.000000      4.000000
 -0.363636  0.000000  0.272727      4.000000
  0.000000  0.272727  0.363636      4.000000
  0.454545  0.272727  0.000000      4.000000
  0.000000  0.454545  0.272727      4.000000
  0.272727  0.000000  0.454545      4.000000
 -0.272727  0.454545  0.000000      4.000000
 -0.454545  0.000000  0.272727      4.000000
  0.000000  0.272727  0.454545      4.000000
  0.363636  0.363636  0.000000      4.000000
  0.000000  0.363636  0.363636      4.000000
  0.363636  0.000000  0.363636      4.000000
  0.454545  0.363636  0.000000      4.000000
  0.000000  0.454545  0.363636      4.000000
  0.363636  0.000000  0.454545      4.000000
 -0.363636  0.454545  0.000000      4.000000
 -0.454545  0.000000  0.363636      4.000000
  0.000000  0.363636  0.454545      4.000000
  0.454545  0.454545  0.000000      4.000000
  0.000000  0.454545  0.454545      4.000000
  0.454545  0.000000  0.454545      4.000000
  0.090909  0.090909  0.090909      8.000000
  0.181818  0.090909  0.090909      8.000000
  0.090909  0.181818  0.090909      8.000000
  0.090909  0.090909  0.181818      8.000000
  0.272727  0.090909  0.090909      8.000000
  0.090909  0.272727  0.090909      8.000000
  0.090909  0.090909  0.272727      8.000000
  0.363636  0.090909  0.090909      8.000000
  0.090909  0.363636  0.090909      8.000000
  0.090909  0.090909  0.363636      8.000000
  0.454545  0.090909  0.090909      8.000000
  0.090909  0.454545  0.090909      8.000000
  0.090909  0.090909  0.454545      8.000000
  0.181818  0.181818  0.090909      8.000000
  0.090909  0.181818  0.181818      8.000000
  0.181818  0.090909  0.181818      8.000000
  0.272727  0.181818  0.090909      8.000000
  0.090909  0.272727  0.181818      8.000000
  0.181818  0.090909  0.272727      8.000000
 -0.181818  0.272727  0.090909      8.000000
 -0.272727  0.090909  0.181818      8.000000
 -0.090909  0.181818  0.272727      8.000000
  0.363636  0.181818  0.090909      8.000000
  0.090909  0.363636  0.181818      8.000000
  0.181818  0.090909  0.363636      8.000000
 -0.181818  0.363636  0.090909      8.000000
 -0.363636  0.090909  0.181818      8.000000
 -0.090909  0.181818  0.363636      8.000000
  0.454545  0.181818  0.090909      8.000000
  0.090909  0.454545  0.181818      8.000000
  0.181818  0.090909  0.454545      8.000000
 -0.181818  0.454545  0.090909      8.000000
 -0.454545  0.090909  0.181818      8.000000
 -0.090909  0.181818  0.454545      8.000000
  0.272727  0.272727  0.090909      8.000000
  0.090909  0.272727  0.272727      8.000000
  0.272727  0.090909  0.272727      8.000000
  0.363636  0.272727  0.090909      8.000000
  0.090909  0.363636  0.272727      8.000000
  0.272727  0.090909  0.363636      8.000000
 -0.272727  0.363636  0.090909      8.000000
 -0.363636  0.090909  0.272727      8.000000
 -0.090909  0.272727  0.363636      8.000000
  0.454545  0.272727  0.090909      8.000000
  0.090909  0.454545  0.272727      8.000000
  0.272727  0.090909  0.454545      8.000000
 -0.272727  0.454545  0.090909      8.000000
 -0.454545  0.090909  0.272727      8.000000
 -0.090909  0.272727  0.454545      8.000000
  0.363636  0.363636  0.090909      8.000000
  0.090909  0.363636  0.363636      8.000000
  0.363636  0.090909  0.363636      8.000000
  0.454545  0.363636  0.090909      8.000000
  0.090909  0.454545  0.363636      8.000000
  0.363636  0.090909  0.454545      8.000000
 -0.363636  0.454545  0.090909      8.000000
 -0.454545  0.090909  0.363636      8.000000
 -0.090909  0.363636  0.454545      8.000000
  0.454545  0.454545  0.090909      8.000000
  0.090909  0.454545  0.454545      8.000000
  0.454545  0.090909  0.454545      8.000000
  0.181818  0.181818  0.181818      8.000000
  0.272727  0.181818  0.181818      8.000000
  0.181818  0.272727  0.181818      8.000000
  0.181818  0.181818  0.272727      8.000000
  0.363636  0.181818  0.181818      8.000000
  0.181818  0.363636  0.181818      8.000000
  0.181818  0.181818  0.363636      8.000000
  0.454545  0.181818  0.181818      8.000000
  0.181818  0.454545  0.181818      8.000000
  0.181818  0.181818  0.454545      8.000000
  0.272727  0.272727  0.181818      8.000000
  0.181818  0.272727  0.272727      8.000000
  0.272727  0.181818  0.272727      8.000000
  0.363636  0.272727  0.181818      8.000000
  0.181818  0.363636  0.272727      8.000000
  0.272727  0.181818  0.363636      8.000000
 -0.272727  0.363636  0.181818      8.000000
 -0.363636  0.181818  0.272727      8.000000
 -0.181818  0.272727  0.363636      8.000000
  0.454545  0.272727  0.181818      8.000000
  0.181818  0.454545  0.272727      8.000000
  0.272727  0.181818  0.454545      8.000000
 -0.272727  0.454545  0.181818      8.000000
 -0.454545  0.181818  0.272727      8.000000
 -0.181818  0.272727  0.454545      8.000000
  0.363636  0.363636  0.181818      8.000000
  0.181818  0.363636  0.363636      8.000000
  0.363636  0.181818  0.363636      8.000000
  0.454545  0.363636  0.181818      8.000000
  0.181818  0.454545  0.363636      8.000000
  0.363636  0.181818  0.454545      8.000000
 -0.363636  0.454545  0.181818      8.000000
 -0.454545  0.181818  0.363636      8.000000
 -0.181818  0.363636  0.454545      8.000000
  0.454545  0.454545  0.181818      8.000000
  0.181818  0.454545  0.454545      8.000000
  0.454545  0.181818  0.454545      8.000000
  0.272727  0.272727  0.272727      8.000000
  0.363636  0.272727  0.272727      8.000000
  0.272727  0.363636  0.272727      8.000000
  0.272727  0.272727  0.363636      8.000000
  0.454545  0.272727  0.272727      8.000000
  0.272727  0.454545  0.272727      8.000000
  0.272727  0.272727  0.454545      8.000000
  0.363636  0.363636  0.272727      8.000000
  0.272727  0.363636  0.363636      8.000000
  0.363636  0.272727  0.363636      8.000000
  0.454545  0.363636  0.272727      8.000000
  0.272727  0.454545  0.363636      8.000000
  0.363636  0.272727  0.454545      8.000000
 -0.363636  0.454545  0.272727      8.000000
 -0.454545  0.272727  0.363636      8.000000
 -0.272727  0.363636  0.454545      8.000000
  0.454545  0.454545  0.272727      8.000000
  0.272727  0.454545  0.454545      8.000000
  0.454545  0.272727  0.454545      8.000000
  0.363636  0.363636  0.363636      8.000000
  0.454545  0.363636  0.363636      8.000000
  0.363636  0.454545  0.363636      8.000000
  0.363636  0.363636  0.454545      8.000000
  0.454545  0.454545  0.363636      8.000000
  0.363636  0.454545  0.454545      8.000000
  0.454545  0.363636  0.454545      8.000000
  0.454545  0.454545  0.454545      8.000000
 
 Following cartesian coordinates:
            Coordinates               Weight
  0.000000  0.000000  0.000000      1.000000
  0.026941  0.000000  0.000000      2.000000
  0.000000  0.026941  0.000000      2.000000
  0.000000  0.000000  0.026941      2.000000
  0.053881  0.000000  0.000000      2.000000
  0.000000  0.053881  0.000000      2.000000
  0.000000  0.000000  0.053881      2.000000
  0.080822  0.000000  0.000000      2.000000
  0.000000  0.080822  0.000000      2.000000
  0.000000  0.000000  0.080822      2.000000
  0.107762  0.000000  0.000000      2.000000
  0.000000  0.107762  0.000000      2.000000
  0.000000  0.000000  0.107762      2.000000
  0.134703  0.000000  0.000000      2.000000
  0.000000  0.134703  0.000000      2.000000
  0.000000  0.000000  0.134703      2.000000
  0.026941  0.026941  0.000000      4.000000
  0.000000  0.026941  0.026941      4.000000
  0.026941  0.000000  0.026941      4.000000
  0.053881  0.026941  0.000000      4.000000
  0.000000  0.053881  0.026941      4.000000
  0.026941  0.000000  0.053881      4.000000
 -0.026941  0.053881  0.000000      4.000000
 -0.053881  0.000000  0.026941      4.000000
  0.000000  0.026941  0.053881      4.000000
  0.080822  0.026941  0.000000      4.000000
  0.000000  0.080822  0.026941      4.000000
  0.026941  0.000000  0.080822      4.000000
 -0.026941  0.080822  0.000000      4.000000
 -0.080822  0.000000  0.026941      4.000000
  0.000000  0.026941  0.080822      4.000000
  0.107762  0.026941  0.000000      4.000000
  0.000000  0.107762  0.026941      4.000000
  0.026941  0.000000  0.107762      4.000000
 -0.026941  0.107762  0.000000      4.000000
 -0.107762  0.000000  0.026941      4.000000
  0.000000  0.026941  0.107762      4.000000
  0.134703  0.026941  0.000000      4.000000
  0.000000  0.134703  0.026941      4.000000
  0.026941  0.000000  0.134703      4.000000
 -0.026941  0.134703  0.000000      4.000000
 -0.134703  0.000000  0.026941      4.000000
  0.000000  0.026941  0.134703      4.000000
  0.053881  0.053881  0.000000      4.000000
  0.000000  0.053881  0.053881      4.000000
  0.053881  0.000000  0.053881      4.000000
  0.080822  0.053881  0.000000      4.000000
  0.000000  0.080822  0.053881      4.000000
  0.053881  0.000000  0.080822      4.000000
 -0.053881  0.080822  0.000000      4.000000
 -0.080822  0.000000  0.053881      4.000000
  0.000000  0.053881  0.080822      4.000000
  0.107762  0.053881  0.000000      4.000000
  0.000000  0.107762  0.053881      4.000000
  0.053881  0.000000  0.107762      4.000000
 -0.053881  0.107762  0.000000      4.000000
 -0.107762  0.000000  0.053881      4.000000
  0.000000  0.053881  0.107762      4.000000
  0.134703  0.053881  0.000000      4.000000
  0.000000  0.134703  0.053881      4.000000
  0.053881  0.000000  0.134703      4.000000
 -0.053881  0.134703  0.000000      4.000000
 -0.134703  0.000000  0.053881      4.000000
  0.000000  0.053881  0.134703      4.000000
  0.080822  0.080822  0.000000      4.000000
  0.000000  0.080822  0.080822      4.000000
  0.080822  0.000000  0.080822      4.000000
  0.107762  0.080822  0.000000      4.000000
  0.000000  0.107762  0.080822      4.000000
  0.080822  0.000000  0.107762      4.000000
 -0.080822  0.107762  0.000000      4.000000
 -0.107762  0.000000  0.080822      4.000000
  0.000000  0.080822  0.107762      4.000000
  0.134703  0.080822  0.000000      4.000000
  0.000000  0.134703  0.080822      4.000000
  0.080822  0.000000  0.134703      4.000000
 -0.080822  0.134703  0.000000      4.000000
 -0.134703  0.000000  0.080822      4.000000
  0.000000  0.080822  0.134703      4.000000
  0.107762  0.107762  0.000000      4.000000
  0.000000  0.107762  0.107762      4.000000
  0.107762  0.000000  0.107762      4.000000
  0.134703  0.107762  0.000000      4.000000
  0.000000  0.134703  0.107762      4.000000
  0.107762  0.000000  0.134703      4.000000
 -0.107762  0.134703  0.000000      4.000000
 -0.134703  0.000000  0.107762      4.000000
  0.000000  0.107762  0.134703      4.000000
  0.134703  0.134703  0.000000      4.000000
  0.000000  0.134703  0.134703      4.000000
  0.134703  0.000000  0.134703      4.000000
  0.026941  0.026941  0.026941      8.000000
  0.053881  0.026941  0.026941      8.000000
  0.026941  0.053881  0.026941      8.000000
  0.026941  0.026941  0.053881      8.000000
  0.080822  0.026941  0.026941      8.000000
  0.026941  0.080822  0.026941      8.000000
  0.026941  0.026941  0.080822      8.000000
  0.107762  0.026941  0.026941      8.000000
  0.026941  0.107762  0.026941      8.000000
  0.026941  0.026941  0.107762      8.000000
  0.134703  0.026941  0.026941      8.000000
  0.026941  0.134703  0.026941      8.000000
  0.026941  0.026941  0.134703      8.000000
  0.053881  0.053881  0.026941      8.000000
  0.026941  0.053881  0.053881      8.000000
  0.053881  0.026941  0.053881      8.000000
  0.080822  0.053881  0.026941      8.000000
  0.026941  0.080822  0.053881      8.000000
  0.053881  0.026941  0.080822      8.000000
 -0.053881  0.080822  0.026941      8.000000
 -0.080822  0.026941  0.053881      8.000000
 -0.026941  0.053881  0.080822      8.000000
  0.107762  0.053881  0.026941      8.000000
  0.026941  0.107762  0.053881      8.000000
  0.053881  0.026941  0.107762      8.000000
 -0.053881  0.107762  0.026941      8.000000
 -0.107762  0.026941  0.053881      8.000000
 -0.026941  0.053881  0.107762      8.000000
  0.134703  0.053881  0.026941      8.000000
  0.026941  0.134703  0.053881      8.000000
  0.053881  0.026941  0.134703      8.000000
 -0.053881  0.134703  0.026941      8.000000
 -0.134703  0.026941  0.053881      8.000000
 -0.026941  0.053881  0.134703      8.000000
  0.080822  0.080822  0.026941      8.000000
  0.026941  0.080822  0.080822      8.000000
  0.080822  0.026941  0.080822      8.000000
  0.107762  0.080822  0.026941      8.000000
  0.026941  0.107762  0.080822      8.000000
  0.080822  0.026941  0.107762      8.000000
 -0.080822  0.107762  0.026941      8.000000
 -0.107762  0.026941  0.080822      8.000000
 -0.026941  0.080822  0.107762      8.000000
  0.134703  0.080822  0.026941      8.000000
  0.026941  0.134703  0.080822      8.000000
  0.080822  0.026941  0.134703      8.000000
 -0.080822  0.134703  0.026941      8.000000
 -0.134703  0.026941  0.080822      8.000000
 -0.026941  0.080822  0.134703      8.000000
  0.107762  0.107762  0.026941      8.000000
  0.026941  0.107762  0.107762      8.000000
  0.107762  0.026941  0.107762      8.000000
  0.134703  0.107762  0.026941      8.000000
  0.026941  0.134703  0.107762      8.000000
  0.107762  0.026941  0.134703      8.000000
 -0.107762  0.134703  0.026941      8.000000
 -0.134703  0.026941  0.107762      8.000000
 -0.026941  0.107762  0.134703      8.000000
  0.134703  0.134703  0.026941      8.000000
  0.026941  0.134703  0.134703      8.000000
  0.134703  0.026941  0.134703      8.000000
  0.053881  0.053881  0.053881      8.000000
  0.080822  0.053881  0.053881      8.000000
  0.053881  0.080822  0.053881      8.000000
  0.053881  0.053881  0.080822      8.000000
  0.107762  0.053881  0.053881      8.000000
  0.053881  0.107762  0.053881      8.000000
  0.053881  0.053881  0.107762      8.000000
  0.134703  0.053881  0.053881      8.000000
  0.053881  0.134703  0.053881      8.000000
  0.053881  0.053881  0.134703      8.000000
  0.080822  0.080822  0.053881      8.000000
  0.053881  0.080822  0.080822      8.000000
  0.080822  0.053881  0.080822      8.000000
  0.107762  0.080822  0.053881      8.000000
  0.053881  0.107762  0.080822      8.000000
  0.080822  0.053881  0.107762      8.000000
 -0.080822  0.107762  0.053881      8.000000
 -0.107762  0.053881  0.080822      8.000000
 -0.053881  0.080822  0.107762      8.000000
  0.134703  0.080822  0.053881      8.000000
  0.053881  0.134703  0.080822      8.000000
  0.080822  0.053881  0.134703      8.000000
 -0.080822  0.134703  0.053881      8.000000
 -0.134703  0.053881  0.080822      8.000000
 -0.053881  0.080822  0.134703      8.000000
  0.107762  0.107762  0.053881      8.000000
  0.053881  0.107762  0.107762      8.000000
  0.107762  0.053881  0.107762      8.000000
  0.134703  0.107762  0.053881      8.000000
  0.053881  0.134703  0.107762      8.000000
  0.107762  0.053881  0.134703      8.000000
 -0.107762  0.134703  0.053881      8.000000
 -0.134703  0.053881  0.107762      8.000000
 -0.053881  0.107762  0.134703      8.000000
  0.134703  0.134703  0.053881      8.000000
  0.053881  0.134703  0.134703      8.000000
  0.134703  0.053881  0.134703      8.000000
  0.080822  0.080822  0.080822      8.000000
  0.107762  0.080822  0.080822      8.000000
  0.080822  0.107762  0.080822      8.000000
  0.080822  0.080822  0.107762      8.000000
  0.134703  0.080822  0.080822      8.000000
  0.080822  0.134703  0.080822      8.000000
  0.080822  0.080822  0.134703      8.000000
  0.107762  0.107762  0.080822      8.000000
  0.080822  0.107762  0.107762      8.000000
  0.107762  0.080822  0.107762      8.000000
  0.134703  0.107762  0.080822      8.000000
  0.080822  0.134703  0.107762      8.000000
  0.107762  0.080822  0.134703      8.000000
 -0.107762  0.134703  0.080822      8.000000
 -0.134703  0.080822  0.107762      8.000000
 -0.080822  0.107762  0.134703      8.000000
  0.134703  0.134703  0.080822      8.000000
  0.080822  0.134703  0.134703      8.000000
  0.134703  0.080822  0.134703      8.000000
  0.107762  0.107762  0.107762      8.000000
  0.134703  0.107762  0.107762      8.000000
  0.107762  0.134703  0.107762      8.000000
  0.107762  0.107762  0.134703      8.000000
  0.134703  0.134703  0.107762      8.000000
  0.107762  0.134703  0.134703      8.000000
  0.134703  0.107762  0.134703      8.000000
  0.134703  0.134703  0.134703      8.000000
 


--------------------------------------------------------------------------------------------------------




 Dimension of arrays:
   k-points           NKPTS =    216   k-points in BZ     NKDIM =    216   number of bands    NBANDS=     30
   number of dos      NEDOS =    301   number of ions     NIONS =      4
   non local maximal  LDIM  =      6   non local SUM 2l+1 LMDIM =     18
   total plane-waves  NPLWV =   2744
   max r-space proj   IRMAX =      1   max aug-charges    IRDMAX=   5363
   dimension x,y,z NGX =    14 NGY =   14 NGZ =   14
   dimension x,y,z NGXF=    28 NGYF=   28 NGZF=   28
   support grid    NGXF=    28 NGYF=   28 NGZF=   28
   ions per type =               1   1   1   1
   NGX,Y,Z   is equivalent  to a cutoff of   6.90,  6.90,  6.90 a.u.
   NGXF,Y,Z  is equivalent  to a cutoff of  13.79, 13.79, 13.79 a.u.

 SYSTEM =  unknown system                          
 POSCAR =  Pd Ir Pt Cu                             

 Startparameter for this run:
   NWRITE =      2    write-flag & timer
   PREC   = normal    normal or accurate (medium, high low for compatibility)
   ISTART =      0    job   : 0-new  1-cont  2-samecut
   ICHARG =      1    charge: 1-file 2-atom 10-const
   ISPIN  =      1    spin polarized calculation?
   LNONCOLLINEAR =      F non collinear calculations
   LSORBIT =      F    spin-orbit coupling
   INIWAV =      1    electr: 0-lowe 1-rand  2-diag
   LASPH  =      F    aspherical Exc in radial PAW
   METAGGA=      F    non-selfconsistent MetaGGA calc.

 Electronic Relaxation 1
   ENCUT  =  270.0 eV  19.84 Ry    4.45 a.u.   4.52  4.52  4.52*2*pi/ulx,y,z
   ENINI  =  270.0     initial cutoff
   ENAUG  =  587.0 eV  augmentation charge cutoff
   NELM   =     60;   NELMIN=  2; NELMDL= -5     # of ELM steps 
   EDIFF  = 0.1E-05   stopping-criterion for ELM
   LREAL  =      F    real-space projection
   NLSPLINE    = F    spline interpolate recip. space projectors
   LCOMPAT=      F    compatible to vasp.4.4
   GGA_COMPAT  = T    GGA compatible to vasp.4.4-vasp.4.6
   LMAXPAW     = -100 max onsite density
   LMAXMIX     =    2 max onsite mixed and CHGCAR
   VOSKOWN=      0    Vosko Wilk Nusair interpolation
   ROPT   =    0.00000   0.00000   0.00000   0.00000
 Ionic relaxation
   EDIFFG = 0.1E-04   stopping-criterion for IOM
   NSW    =      0    number of steps for IOM
   NBLOCK =      1;   KBLOCK =      1    inner block; outer block 
   IBRION =     -1    ionic relax: 0-MD 1-quasi-New 2-CG
   NFREE  =      0    steps in history (QN), initial steepest desc. (CG)
   ISIF   =      2    stress and relaxation
   IWAVPR =      0    prediction:  0-non 1-charg 2-wave 3-comb
   ISYM   =      2    0-nonsym 1-usesym 2-fastsym
   LCORR  =      T    Harris-Foulkes like correction to forces

   POTIM  = 0.5000    time-step for ionic-motion
   TEIN   =    0.0    initial temperature
   TEBEG  =    0.0;   TEEND  =   0.0 temperature during run
   SMASS  =  -3.00    Nose mass-parameter (am)
   estimated Nose-frequenzy (Omega)   =  0.10E-29 period in steps = 0.13E+47 mass=  -0.260E-27a.u.
   SCALEE = 1.0000    scale energy and forces
   NPACO  =    256;   APACO  = 16.0  distance and # of slots for P.C.
   PSTRESS=    0.0 pullay stress

  Mass of Ions in am
   POMASS = 106.42192.22195.08 63.55
  Ionic Valenz
   ZVAL   =  10.00  9.00 10.00 11.00
  Atomic Wigner-Seitz radii
   RWIGS  =  -1.00 -1.00 -1.00 -1.00
  virtual crystal weights 
   VCA    =   1.00  1.00  1.00  1.00
   NELECT =      40.0000    total number of electrons
   NUPDOWN=      -1.0000    fix difference up-down

 DOS related values:
   EMIN   =  10.00;   EMAX   =-10.00  energy-range for DOS
   EFERMI =   0.00
   ISMEAR =     1;   SIGMA  =   0.20  broadening in eV -4-tet -1-fermi 0-gaus

 Electronic relaxation 2 (details)
   IALGO  =     38    algorithm
   LDIAG  =      T    sub-space diagonalisation (order eigenvalues)
   LSUBROT=      F    optimize rotation matrix (better conditioning)
   TURBO    =      0    0=normal 1=particle mesh
   IRESTART =      0    0=no restart 2=restart with 2 vectors
   NREBOOT  =      0    no. of reboots
   NMIN     =      0    reboot dimension
   EREF     =   0.00    reference energy to select bands
   IMIX   =      4    mixing-type and parameters
     AMIX     =   0.40;   BMIX     =  1.00
     AMIX_MAG =   1.60;   BMIX_MAG =  1.00
     AMIN     =   0.10
     WC   =   100.;   INIMIX=   1;  MIXPRE=   1;  MAXMIX= -45

 Intra band minimization:
   WEIMIN = 0.0000     energy-eigenvalue tresh-hold
   EBREAK =  0.83E-08  absolut break condition
   DEPER  =   0.30     relativ break condition  

   TIME   =   0.40     timestep for ELM

  volume/ion in A,a.u.               =       9.61        64.82
  Fermi-wavevector in a.u.,A,eV,Ry     =   1.659181  3.135397 37.455225  2.752881
  Thomas-Fermi vector in A             =   2.746634
 
 Write flags
   LWAVE        =      T    write WAVECAR
   LDOWNSAMPLE  =      F    k-point downsampling of WAVECAR
   LCHARG       =      T    write CHGCAR
   LVTOT        =      F    write LOCPOT, total local potential
   LVHAR        =      F    write LOCPOT, Hartree potential only
   LELF         =      F    write electronic localiz. function (ELF)
   LORBIT       =      0    0 simple, 1 ext, 2 COOP (PROOUT), +10 PAW based schemes


 Dipole corrections
   LMONO  =      F    monopole corrections only (constant potential shift)
   LDIPOL =      F    correct potential (dipole corrections)
   IDIPOL =      0    1-x, 2-y, 3-z, 4-all directions 
   EPSILON=  1.0000000 bulk dielectric constant

 Exchange correlation treatment:
   GGA     =    PE    GGA type
   LEXCH   =     8    internal setting for exchange type
   VOSKOWN=      0    Vosko Wilk Nusair interpolation
   LHFCALC =     F    Hartree Fock is set to
   LHFONE  =     F    Hartree Fock one center treatment
   AEXX    =    0.0000 exact exchange contribution

 Linear response parameters
   LEPSILON=     F    determine dielectric tensor
   LRPA    =     F    only Hartree local field effects (RPA)
   LNABLA  =     F    use nabla operator in PAW spheres
   LVEL    =     F    velocity operator in full k-point grid
   LINTERFAST=   F  fast interpolation
   KINTER  =     0    interpolate to denser k-point grid
   CSHIFT  =0.1000    complex shift for real part using Kramers Kronig
   OMEGAMAX=  -1.0    maximum frequency
   DEG_THRESHOLD= 0.2000000E-02 threshold for treating states as degnerate
   RTIME   =   -0.100 relaxation time in fs
  (WPLASMAI=    0.000 imaginary part of plasma frequency in eV, 0.658/RTIME)
   DFIELD  = 0.0000000 0.0000000 0.0000000 field for delta impulse in time
 
 Orbital magnetization related:
   ORBITALMAG=     F  switch on orbital magnetization
   LCHIMAG   =     F  perturbation theory with respect to B field
   DQ        =  0.001000  dq finite difference perturbation B field
   LLRAUG    =     F  two centre corrections for induced B field



--------------------------------------------------------------------------------------------------------


 Static calculation
 charge density and potential will be updated during run
 non-spin polarized calculation
 Variant of blocked Davidson
 Davidson routine will perform the subspace rotation
 perform sub-space diagonalisation
    after iterative eigenvector-optimisation
 modified Broyden-mixing scheme, WC =      100.0
 initial mixing is a Kerker type mixing with AMIX =  0.4000 and BMIX =      1.0000
 Hartree-type preconditioning will be used
 using additional bands           10
 reciprocal scheme for non local part
 use partial core corrections
 calculate Harris-corrections to forces 
   (improved forces if not selfconsistent)
 use gradient corrections 
 use of overlap-Matrix (Vanderbilt PP)
 Methfessel and Paxton  Order N= 1 SIGMA  =   0.20


--------------------------------------------------------------------------------------------------------


  energy-cutoff  :      270.00
  volume of cell :       38.42
      direct lattice vectors                 reciprocal lattice vectors
     3.374435082  0.000000000  0.000000000     0.296345900  0.000000000  0.000000000
     0.000000000  3.374435082  0.000000000     0.000000000  0.296345900  0.000000000
     0.000000000  0.000000000  3.374435082     0.000000000  0.000000000  0.296345900

  length of vectors
     3.374435082  3.374435082  3.374435082     0.296345900  0.296345900  0.296345900


 
 k-points in units of 2pi/SCALE and weight: KPOINTS created by Atomic Simulation Env
   0.00000000  0.00000000  0.00000000       0.001
   0.02694054  0.00000000  0.00000000       0.002
   0.00000000  0.02694054  0.00000000       0.002
   0.00000000  0.00000000  0.02694054       0.002
   0.05388107  0.00000000  0.00000000       0.002
   0.00000000  0.05388107  0.00000000       0.002
   0.00000000  0.00000000  0.05388107       0.002
   0.08082161  0.00000000  0.00000000       0.002
   0.00000000  0.08082161  0.00000000       0.002
   0.00000000  0.00000000  0.08082161       0.002
   0.10776215  0.00000000  0.00000000       0.002
   0.00000000  0.10776215  0.00000000       0.002
   0.00000000  0.00000000  0.10776215       0.002
   0.13470268  0.00000000  0.00000000       0.002
   0.00000000  0.13470268  0.00000000       0.002
   0.00000000  0.00000000  0.13470268       0.002
   0.02694054  0.02694054  0.00000000       0.003
   0.00000000  0.02694054  0.02694054       0.003
   0.02694054  0.00000000  0.02694054       0.003
   0.05388107  0.02694054  0.00000000       0.003
   0.00000000  0.05388107  0.02694054       0.003
   0.02694054  0.00000000  0.05388107       0.003
  -0.02694054  0.05388107  0.00000000       0.003
  -0.05388107  0.00000000  0.02694054       0.003
   0.00000000  0.02694054  0.05388107       0.003
   0.08082161  0.02694054  0.00000000       0.003
   0.00000000  0.08082161  0.02694054       0.003
   0.02694054  0.00000000  0.08082161       0.003
  -0.02694054  0.08082161  0.00000000       0.003
  -0.08082161  0.00000000  0.02694054       0.003
   0.00000000  0.02694054  0.08082161       0.003
   0.10776215  0.02694054  0.00000000       0.003
   0.00000000  0.10776215  0.02694054       0.003
   0.02694054  0.00000000  0.10776215       0.003
  -0.02694054  0.10776215  0.00000000       0.003
  -0.10776215  0.00000000  0.02694054       0.003
   0.00000000  0.02694054  0.10776215       0.003
   0.13470268  0.02694054  0.00000000       0.003
   0.00000000  0.13470268  0.02694054       0.003
   0.02694054  0.00000000  0.13470268       0.003
  -0.02694054  0.13470268  0.00000000       0.003
  -0.13470268  0.00000000  0.02694054       0.003
   0.00000000  0.02694054  0.13470268       0.003
   0.05388107  0.05388107  0.00000000       0.003
   0.00000000  0.05388107  0.05388107       0.003
   0.05388107  0.00000000  0.05388107       0.003
   0.08082161  0.05388107  0.00000000       0.003
   0.00000000  0.08082161  0.05388107       0.003
   0.05388107  0.00000000  0.08082161       0.003
  -0.05388107  0.08082161  0.00000000       0.003
  -0.08082161  0.00000000  0.05388107       0.003
   0.00000000  0.05388107  0.08082161       0.003
   0.10776215  0.05388107  0.00000000       0.003
   0.00000000  0.10776215  0.05388107       0.003
   0.05388107  0.00000000  0.10776215       0.003
  -0.05388107  0.10776215  0.00000000       0.003
  -0.10776215  0.00000000  0.05388107       0.003
   0.00000000  0.05388107  0.10776215       0.003
   0.13470268  0.05388107  0.00000000       0.003
   0.00000000  0.13470268  0.05388107       0.003
   0.05388107  0.00000000  0.13470268       0.003
  -0.05388107  0.13470268  0.00000000       0.003
  -0.13470268  0.00000000  0.05388107       0.003
   0.00000000  0.05388107  0.13470268       0.003
   0.08082161  0.08082161  0.00000000       0.003
   0.00000000  0.08082161  0.08082161       0.003
   0.08082161  0.00000000  0.08082161       0.003
   0.10776215  0.08082161  0.00000000       0.003
   0.00000000  0.10776215  0.08082161       0.003
   0.08082161  0.00000000  0.10776215       0.003
  -0.08082161  0.10776215  0.00000000       0.003
  -0.10776215  0.00000000  0.08082161       0.003
   0.00000000  0.08082161  0.10776215       0.003
   0.13470268  0.08082161  0.00000000       0.003
   0.00000000  0.13470268  0.08082161       0.003
   0.08082161  0.00000000  0.13470268       0.003
  -0.08082161  0.13470268  0.00000000       0.003
  -0.13470268  0.00000000  0.08082161       0.003
   0.00000000  0.08082161  0.13470268       0.003
   0.10776215  0.10776215  0.00000000       0.003
   0.00000000  0.10776215  0.10776215       0.003
   0.10776215  0.00000000  0.10776215       0.003
   0.13470268  0.10776215  0.00000000       0.003
   0.00000000  0.13470268  0.10776215       0.003
   0.10776215  0.00000000  0.13470268       0.003
  -0.10776215  0.13470268  0.00000000       0.003
  -0.13470268  0.00000000  0.10776215       0.003
   0.00000000  0.10776215  0.13470268       0.003
   0.13470268  0.13470268  0.00000000       0.003
   0.00000000  0.13470268  0.13470268       0.003
   0.13470268  0.00000000  0.13470268       0.003
   0.02694054  0.02694054  0.02694054       0.006
   0.05388107  0.02694054  0.02694054       0.006
   0.02694054  0.05388107  0.02694054       0.006
   0.02694054  0.02694054  0.05388107       0.006
   0.08082161  0.02694054  0.02694054       0.006
   0.02694054  0.08082161  0.02694054       0.006
   0.02694054  0.02694054  0.08082161       0.006
   0.10776215  0.02694054  0.02694054       0.006
   0.02694054  0.10776215  0.02694054       0.006
   0.02694054  0.02694054  0.10776215       0.006
   0.13470268  0.02694054  0.02694054       0.006
   0.02694054  0.13470268  0.02694054       0.006
   0.02694054  0.02694054  0.13470268       0.006
   0.05388107  0.05388107  0.02694054       0.006
   0.02694054  0.05388107  0.05388107       0.006
   0.05388107  0.02694054  0.05388107       0.006
   0.08082161  0.05388107  0.02694054       0.006
   0.02694054  0.08082161  0.05388107       0.006
   0.05388107  0.02694054  0.08082161       0.006
  -0.05388107  0.08082161  0.02694054       0.006
  -0.08082161  0.02694054  0.05388107       0.006
  -0.02694054  0.05388107  0.08082161       0.006
   0.10776215  0.05388107  0.02694054       0.006
   0.02694054  0.10776215  0.05388107       0.006
   0.05388107  0.02694054  0.10776215       0.006
  -0.05388107  0.10776215  0.02694054       0.006
  -0.10776215  0.02694054  0.05388107       0.006
  -0.02694054  0.05388107  0.10776215       0.006
   0.13470268  0.05388107  0.02694054       0.006
   0.02694054  0.13470268  0.05388107       0.006
   0.05388107  0.02694054  0.13470268       0.006
  -0.05388107  0.13470268  0.02694054       0.006
  -0.13470268  0.02694054  0.05388107       0.006
  -0.02694054  0.05388107  0.13470268       0.006
   0.08082161  0.08082161  0.02694054       0.006
   0.02694054  0.08082161  0.08082161       0.006
   0.08082161  0.02694054  0.08082161       0.006
   0.10776215  0.08082161  0.02694054       0.006
   0.02694054  0.10776215  0.08082161       0.006
   0.08082161  0.02694054  0.10776215       0.006
  -0.08082161  0.10776215  0.02694054       0.006
  -0.10776215  0.02694054  0.08082161       0.006
  -0.02694054  0.08082161  0.10776215       0.006
   0.13470268  0.08082161  0.02694054       0.006
   0.02694054  0.13470268  0.08082161       0.006
   0.08082161  0.02694054  0.13470268       0.006
  -0.08082161  0.13470268  0.02694054       0.006
  -0.13470268  0.02694054  0.08082161       0.006
  -0.02694054  0.08082161  0.13470268       0.006
   0.10776215  0.10776215  0.02694054       0.006
   0.02694054  0.10776215  0.10776215       0.006
   0.10776215  0.02694054  0.10776215       0.006
   0.13470268  0.10776215  0.02694054       0.006
   0.02694054  0.13470268  0.10776215       0.006
   0.10776215  0.02694054  0.13470268       0.006
  -0.10776215  0.13470268  0.02694054       0.006
  -0.13470268  0.02694054  0.10776215       0.006
  -0.02694054  0.10776215  0.13470268       0.006
   0.13470268  0.13470268  0.02694054       0.006
   0.02694054  0.13470268  0.13470268       0.006
   0.13470268  0.02694054  0.13470268       0.006
   0.05388107  0.05388107  0.05388107       0.006
   0.08082161  0.05388107  0.05388107       0.006
   0.05388107  0.08082161  0.05388107       0.006
   0.05388107  0.05388107  0.08082161       0.006
   0.10776215  0.05388107  0.05388107       0.006
   0.05388107  0.10776215  0.05388107       0.006
   0.05388107  0.05388107  0.10776215       0.006
   0.13470268  0.05388107  0.05388107       0.006
   0.05388107  0.13470268  0.05388107       0.006
   0.05388107  0.05388107  0.13470268       0.006
   0.08082161  0.08082161  0.05388107       0.006
   0.05388107  0.08082161  0.08082161       0.006
   0.08082161  0.05388107  0.08082161       0.006
   0.10776215  0.08082161  0.05388107       0.006
   0.05388107  0.10776215  0.08082161       0.006
   0.08082161  0.05388107  0.10776215       0.006
  -0.08082161  0.10776215  0.05388107       0.006
  -0.10776215  0.05388107  0.08082161       0.006
  -0.05388107  0.08082161  0.10776215       0.006
   0.13470268  0.08082161  0.05388107       0.006
   0.05388107  0.13470268  0.08082161       0.006
   0.08082161  0.05388107  0.13470268       0.006
  -0.08082161  0.13470268  0.05388107       0.006
  -0.13470268  0.05388107  0.08082161       0.006
  -0.05388107  0.08082161  0.13470268       0.006
   0.10776215  0.10776215  0.05388107       0.006
   0.05388107  0.10776215  0.10776215       0.006
   0.10776215  0.05388107  0.10776215       0.006
   0.13470268  0.10776215  0.05388107       0.006
   0.05388107  0.13470268  0.10776215       0.006
   0.10776215  0.05388107  0.13470268       0.006
  -0.10776215  0.13470268  0.05388107       0.006
  -0.13470268  0.05388107  0.10776215       0.006
  -0.05388107  0.10776215  0.13470268       0.006
   0.13470268  0.13470268  0.05388107       0.006
   0.05388107  0.13470268  0.13470268       0.006
   0.13470268  0.05388107  0.13470268       0.006
   0.08082161  0.08082161  0.08082161       0.006
   0.10776215  0.08082161  0.08082161       0.006
   0.08082161  0.10776215  0.08082161       0.006
   0.08082161  0.08082161  0.10776215       0.006
   0.13470268  0.08082161  0.08082161       0.006
   0.08082161  0.13470268  0.08082161       0.006
   0.08082161  0.08082161  0.13470268       0.006
   0.10776215  0.10776215  0.08082161       0.006
   0.08082161  0.10776215  0.10776215       0.006
   0.10776215  0.08082161  0.10776215       0.006
   0.13470268  0.10776215  0.08082161       0.006
   0.08082161  0.13470268  0.10776215       0.006
   0.10776215  0.08082161  0.13470268       0.006
  -0.10776215  0.13470268  0.08082161       0.006
  -0.13470268  0.08082161  0.10776215       0.006
  -0.08082161  0.10776215  0.13470268       0.006
   0.13470268  0.13470268  0.08082161       0.006
   0.08082161  0.13470268  0.13470268       0.006
   0.13470268  0.08082161  0.13470268       0.006
   0.10776215  0.10776215  0.10776215       0.006
   0.13470268  0.10776215  0.10776215       0.006
   0.10776215  0.13470268  0.10776215       0.006
   0.10776215  0.10776215  0.13470268       0.006
   0.13470268  0.13470268  0.10776215       0.006
   0.10776215  0.13470268  0.13470268       0.006
   0.13470268  0.10776215  0.13470268       0.006
   0.13470268  0.13470268  0.13470268       0.006
 
 k-points in reciprocal lattice and weights: KPOINTS created by Atomic Simulation Env
   0.00000000  0.00000000  0.00000000       0.001
   0.09090909  0.00000000  0.00000000       0.002
   0.00000000  0.09090909  0.00000000       0.002
   0.00000000  0.00000000  0.09090909       0.002
   0.18181818  0.00000000  0.00000000       0.002
   0.00000000  0.18181818  0.00000000       0.002
   0.00000000  0.00000000  0.18181818       0.002
   0.27272727  0.00000000  0.00000000       0.002
   0.00000000  0.27272727  0.00000000       0.002
   0.00000000  0.00000000  0.27272727       0.002
   0.36363636  0.00000000  0.00000000       0.002
   0.00000000  0.36363636  0.00000000       0.002
   0.00000000  0.00000000  0.36363636       0.002
   0.45454545  0.00000000  0.00000000       0.002
   0.00000000  0.45454545  0.00000000       0.002
   0.00000000  0.00000000  0.45454545       0.002
   0.09090909  0.09090909  0.00000000       0.003
   0.00000000  0.09090909  0.09090909       0.003
   0.09090909  0.00000000  0.09090909       0.003
   0.18181818  0.09090909  0.00000000       0.003
   0.00000000  0.18181818  0.09090909       0.003
   0.09090909  0.00000000  0.18181818       0.003
  -0.09090909  0.18181818  0.00000000       0.003
  -0.18181818  0.00000000  0.09090909       0.003
   0.00000000  0.09090909  0.18181818       0.003
   0.27272727  0.09090909  0.00000000       0.003
   0.00000000  0.27272727  0.09090909       0.003
   0.09090909  0.00000000  0.27272727       0.003
  -0.09090909  0.27272727  0.00000000       0.003
  -0.27272727  0.00000000  0.09090909       0.003
   0.00000000  0.09090909  0.27272727       0.003
   0.36363636  0.09090909  0.00000000       0.003
   0.00000000  0.36363636  0.09090909       0.003
   0.09090909  0.00000000  0.36363636       0.003
  -0.09090909  0.36363636  0.00000000       0.003
  -0.36363636  0.00000000  0.09090909       0.003
   0.00000000  0.09090909  0.36363636       0.003
   0.45454545  0.09090909  0.00000000       0.003
   0.00000000  0.45454545  0.09090909       0.003
   0.09090909  0.00000000  0.45454545       0.003
  -0.09090909  0.45454545  0.00000000       0.003
  -0.45454545  0.00000000  0.09090909       0.003
   0.00000000  0.09090909  0.45454545       0.003
   0.18181818  0.18181818  0.00000000       0.003
   0.00000000  0.18181818  0.18181818       0.003
   0.18181818  0.00000000  0.18181818       0.003
   0.27272727  0.18181818  0.00000000       0.003
   0.00000000  0.27272727  0.18181818       0.003
   0.18181818  0.00000000  0.27272727       0.003
  -0.18181818  0.27272727  0.00000000       0.003
  -0.27272727  0.00000000  0.18181818       0.003
   0.00000000  0.18181818  0.27272727       0.003
   0.36363636  0.18181818  0.00000000       0.003
   0.00000000  0.36363636  0.18181818       0.003
   0.18181818  0.00000000  0.36363636       0.003
  -0.18181818  0.36363636  0.00000000       0.003
  -0.36363636  0.00000000  0.18181818       0.003
   0.00000000  0.18181818  0.36363636       0.003
   0.45454545  0.18181818  0.00000000       0.003
   0.00000000  0.45454545  0.18181818       0.003
   0.18181818  0.00000000  0.45454545       0.003
  -0.18181818  0.45454545  0.00000000       0.003
  -0.45454545  0.00000000  0.18181818       0.003
   0.00000000  0.18181818  0.45454545       0.003
   0.27272727  0.27272727  0.00000000       0.003
   0.00000000  0.27272727  0.27272727       0.003
   0.27272727  0.00000000  0.27272727       0.003
   0.36363636  0.27272727  0.00000000       0.003
   0.00000000  0.36363636  0.27272727       0.003
   0.27272727  0.00000000  0.36363636       0.003
  -0.27272727  0.36363636  0.00000000       0.003
  -0.36363636  0.00000000  0.27272727       0.003
   0.00000000  0.27272727  0.36363636       0.003
   0.45454545  0.27272727  0.00000000       0.003
   0.00000000  0.45454545  0.27272727       0.003
   0.27272727  0.00000000  0.45454545       0.003
  -0.27272727  0.45454545  0.00000000       0.003
  -0.45454545  0.00000000  0.27272727       0.003
   0.00000000  0.27272727  0.45454545       0.003
   0.36363636  0.36363636  0.00000000       0.003
   0.00000000  0.36363636  0.36363636       0.003
   0.36363636  0.00000000  0.36363636       0.003
   0.45454545  0.36363636  0.00000000       0.003
   0.00000000  0.45454545  0.36363636       0.003
   0.36363636  0.00000000  0.45454545       0.003
  -0.36363636  0.45454545  0.00000000       0.003
  -0.45454545  0.00000000  0.36363636       0.003
   0.00000000  0.36363636  0.45454545       0.003
   0.45454545  0.45454545  0.00000000       0.003
   0.00000000  0.45454545  0.45454545       0.003
   0.45454545  0.00000000  0.45454545       0.003
   0.09090909  0.09090909  0.09090909       0.006
   0.18181818  0.09090909  0.09090909       0.006
   0.09090909  0.18181818  0.09090909       0.006
   0.09090909  0.09090909  0.18181818       0.006
   0.27272727  0.09090909  0.09090909       0.006
   0.09090909  0.27272727  0.09090909       0.006
   0.09090909  0.09090909  0.27272727       0.006
   0.36363636  0.09090909  0.09090909       0.006
   0.09090909  0.36363636  0.09090909       0.006
   0.09090909  0.09090909  0.36363636       0.006
   0.45454545  0.09090909  0.09090909       0.006
   0.09090909  0.45454545  0.09090909       0.006
   0.09090909  0.09090909  0.45454545       0.006
   0.18181818  0.18181818  0.09090909       0.006
   0.09090909  0.18181818  0.18181818       0.006
   0.18181818  0.09090909  0.18181818       0.006
   0.27272727  0.18181818  0.09090909       0.006
   0.09090909  0.27272727  0.18181818       0.006
   0.18181818  0.09090909  0.27272727       0.006
  -0.18181818  0.27272727  0.09090909       0.006
  -0.27272727  0.09090909  0.18181818       0.006
  -0.09090909  0.18181818  0.27272727       0.006
   0.36363636  0.18181818  0.09090909       0.006
   0.09090909  0.36363636  0.18181818       0.006
   0.18181818  0.09090909  0.36363636       0.006
  -0.18181818  0.36363636  0.09090909       0.006
  -0.36363636  0.09090909  0.18181818       0.006
  -0.09090909  0.18181818  0.36363636       0.006
   0.45454545  0.18181818  0.09090909       0.006
   0.09090909  0.45454545  0.18181818       0.006
   0.18181818  0.09090909  0.45454545       0.006
  -0.18181818  0.45454545  0.09090909       0.006
  -0.45454545  0.09090909  0.18181818       0.006
  -0.09090909  0.18181818  0.45454545       0.006
   0.27272727  0.27272727  0.09090909       0.006
   0.09090909  0.27272727  0.27272727       0.006
   0.27272727  0.09090909  0.27272727       0.006
   0.36363636  0.27272727  0.09090909       0.006
   0.09090909  0.36363636  0.27272727       0.006
   0.27272727  0.09090909  0.36363636       0.006
  -0.27272727  0.36363636  0.09090909       0.006
  -0.36363636  0.09090909  0.27272727       0.006
  -0.09090909  0.27272727  0.36363636       0.006
   0.45454545  0.27272727  0.09090909       0.006
   0.09090909  0.45454545  0.27272727       0.006
   0.27272727  0.09090909  0.45454545       0.006
  -0.27272727  0.45454545  0.09090909       0.006
  -0.45454545  0.09090909  0.27272727       0.006
  -0.09090909  0.27272727  0.45454545       0.006
   0.36363636  0.36363636  0.09090909       0.006
   0.09090909  0.36363636  0.36363636       0.006
   0.36363636  0.09090909  0.36363636       0.006
   0.45454545  0.36363636  0.09090909       0.006
   0.09090909  0.45454545  0.36363636       0.006
   0.36363636  0.09090909  0.45454545       0.006
  -0.36363636  0.45454545  0.09090909       0.006
  -0.45454545  0.09090909  0.36363636       0.006
  -0.09090909  0.36363636  0.45454545       0.006
   0.45454545  0.45454545  0.09090909       0.006
   0.09090909  0.45454545  0.45454545       0.006
   0.45454545  0.09090909  0.45454545       0.006
   0.18181818  0.18181818  0.18181818       0.006
   0.27272727  0.18181818  0.18181818       0.006
   0.18181818  0.27272727  0.18181818       0.006
   0.18181818  0.18181818  0.27272727       0.006
   0.36363636  0.18181818  0.18181818       0.006
   0.18181818  0.36363636  0.18181818       0.006
   0.18181818  0.18181818  0.36363636       0.006
   0.45454545  0.18181818  0.18181818       0.006
   0.18181818  0.45454545  0.18181818       0.006
   0.18181818  0.18181818  0.45454545       0.006
   0.27272727  0.27272727  0.18181818       0.006
   0.18181818  0.27272727  0.27272727       0.006
   0.27272727  0.18181818  0.27272727       0.006
   0.36363636  0.27272727  0.18181818       0.006
   0.18181818  0.36363636  0.27272727       0.006
   0.27272727  0.18181818  0.36363636       0.006
  -0.27272727  0.36363636  0.18181818       0.006
  -0.36363636  0.18181818  0.27272727       0.006
  -0.18181818  0.27272727  0.36363636       0.006
   0.45454545  0.27272727  0.18181818       0.006
   0.18181818  0.45454545  0.27272727       0.006
   0.27272727  0.18181818  0.45454545       0.006
  -0.27272727  0.45454545  0.18181818       0.006
  -0.45454545  0.18181818  0.27272727       0.006
  -0.18181818  0.27272727  0.45454545       0.006
   0.36363636  0.36363636  0.18181818       0.006
   0.18181818  0.36363636  0.36363636       0.006
   0.36363636  0.18181818  0.36363636       0.006
   0.45454545  0.36363636  0.18181818       0.006
   0.18181818  0.45454545  0.36363636       0.006
   0.36363636  0.18181818  0.45454545       0.006
  -0.36363636  0.45454545  0.18181818       0.006
  -0.45454545  0.18181818  0.36363636       0.006
  -0.18181818  0.36363636  0.45454545       0.006
   0.45454545  0.45454545  0.18181818       0.006
   0.18181818  0.45454545  0.45454545       0.006
   0.45454545  0.18181818  0.45454545       0.006
   0.27272727  0.27272727  0.27272727       0.006
   0.36363636  0.27272727  0.27272727       0.006
   0.27272727  0.36363636  0.27272727       0.006
   0.27272727  0.27272727  0.36363636       0.006
   0.45454545  0.27272727  0.27272727       0.006
   0.27272727  0.45454545  0.27272727       0.006
   0.27272727  0.27272727  0.45454545       0.006
   0.36363636  0.36363636  0.27272727       0.006
   0.27272727  0.36363636  0.36363636       0.006
   0.36363636  0.27272727  0.36363636       0.006
   0.45454545  0.36363636  0.27272727       0.006
   0.27272727  0.45454545  0.36363636       0.006
   0.36363636  0.27272727  0.45454545       0.006
  -0.36363636  0.45454545  0.27272727       0.006
  -0.45454545  0.27272727  0.36363636       0.006
  -0.27272727  0.36363636  0.45454545       0.006
   0.45454545  0.45454545  0.27272727       0.006
   0.27272727  0.45454545  0.45454545       0.006
   0.45454545  0.27272727  0.45454545       0.006
   0.36363636  0.36363636  0.36363636       0.006
   0.45454545  0.36363636  0.36363636       0.006
   0.36363636  0.45454545  0.36363636       0.006
   0.36363636  0.36363636  0.45454545       0.006
   0.45454545  0.45454545  0.36363636       0.006
   0.36363636  0.45454545  0.45454545       0.006
   0.45454545  0.36363636  0.45454545       0.006
   0.45454545  0.45454545  0.45454545       0.006
 
 position of ions in fractional coordinates (direct lattice) 
   0.00000000  0.00000000  0.00000000
   0.50000000  0.50000000  0.00000000
[...]
     30      34.5937      0.00000

 k-point   209 :       0.3636    0.3636    0.3636
  band No.  band energies     occupation 
      1       6.8359      2.00000
      2       6.9601      2.00000
      3       7.7904      2.00000
      4       8.1160      2.00000
      5      10.5149      2.00000
      6      10.6692      2.00000
      7      10.8452      2.00000
      8      11.8900      2.00000
      9      12.1071      2.00000
     10      12.1962      2.00000
     11      12.3979      2.00000
     12      12.7179      2.00000
     13      13.1153      2.00000
     14      13.1485      2.00000
     15      13.2948      2.00000
     16      13.9011      2.00000
     17      15.8690      2.00000
     18      16.3316      2.00000
     19      16.3668      2.00000
     20      17.3318      1.93125
     21      18.6656     -0.00000
     22      19.7990     -0.00000
     23      20.4027     -0.00000
     24      20.8064     -0.00000
     25      27.0380      0.00000
     26      27.4225      0.00000
     27      28.5541      0.00000
     28      30.3327      0.00000
     29      34.0623      0.00000
     30      34.3545      0.00000

 k-point   210 :       0.4545    0.3636    0.3636
  band No.  band energies     occupation 
      1       6.6683      2.00000
      2       6.9485      2.00000
      3       7.6733      2.00000
      4       7.8277      2.00000
      5      10.6021      2.00000
      6      10.9229      2.00000
      7      11.1698      2.00000
      8      11.6525      2.00000
      9      11.9108      2.00000
     10      12.2246      2.00000
     11      12.3052      2.00000
     12      12.4821      2.00000
     13      13.5288      2.00000
     14      13.5872      2.00000
     15      13.8728      2.00000
     16      14.3509      2.00000
     17      15.8152      2.00000
     18      16.5347      2.00000
     19      16.8080      2.00003
     20      17.5536      0.38990
     21      18.2146     -0.00000
     22      18.7554     -0.00000
     23      20.3012     -0.00000
     24      20.3758     -0.00000
     25      27.1327      0.00000
     26      27.3907      0.00000
     27      28.4101      0.00000
     28      30.2071      0.00000
     29      33.6877      0.00000
     30      34.1554      0.00000

 k-point   211 :       0.3636    0.4545    0.3636
  band No.  band energies     occupation 
      1       6.6709      2.00000
      2       7.0656      2.00000
      3       7.3797      2.00000
      4       7.9799      2.00000
      5      10.5807      2.00000
      6      11.0324      2.00000
      7      11.1415      2.00000
      8      11.6870      2.00000
      9      11.8677      2.00000
     10      12.0897      2.00000
     11      12.1894      2.00000
     12      12.6735      2.00000
     13      13.5798      2.00000
     14      13.6380      2.00000
     15      13.7503      2.00000
     16      14.1300      2.00000
     17      15.8253      2.00000
     18      16.6779      2.00000
     19      17.0040      2.00430
     20      17.4001      1.58888
     21      18.4032     -0.00000
     22      18.5111     -0.00000
     23      20.2693     -0.00000
     24      20.7419     -0.00000
     25      26.7627      0.00000
     26      27.4518      0.00000
     27      28.7488      0.00000
     28      29.7515      0.00000
     29      33.9519      0.00000
     30      34.0845      0.00000

 k-point   212 :       0.3636    0.3636    0.4545
  band No.  band energies     occupation 
      1       6.6692      2.00000
      2       7.0826      2.00000
      3       7.3965      2.00000
      4       7.9154      2.00000
      5      10.7225      2.00000
      6      10.8274      2.00000
      7      11.1498      2.00000
      8      11.6246      2.00000
      9      11.9557      2.00000
     10      12.1943      2.00000
     11      12.2859      2.00000
     12      12.5021      2.00000
     13      13.4338      2.00000
     14      13.7014      2.00000
     15      13.7542      2.00000
     16      14.4051      2.00000
     17      16.0131      2.00000
     18      16.3544      2.00000
     19      16.8592      2.00012
     20      17.4660      1.07801
     21      18.3217     -0.00000
     22      18.7214     -0.00000
     23      20.2865     -0.00000
     24      20.6320     -0.00000
     25      26.6900      0.00000
     26      27.6915      0.00000
     27      28.5825      0.00000
     28      29.7741      0.00000
     29      33.8548      0.00000
     30      34.0541      0.00000

 k-point   213 :       0.4545    0.4545    0.3636
  band No.  band energies     occupation 
      1       6.4604      2.00000
      2       7.0062      2.00000
      3       7.2582      2.00000
      4       7.6603      2.00000
      5      10.9712      2.00000
      6      11.0463      2.00000
      7      11.2890      2.00000
      8      11.4902      2.00000
      9      11.6457      2.00000
     10      12.0620      2.00000
     11      12.2234      2.00000
     12      12.4800      2.00000
     13      14.1611      2.00000
     14      14.2405      2.00000
     15      14.4402      2.00000
     16      14.8334      2.00000
     17      15.8124      2.00000
     18      16.7185      2.00000
     19      16.9590      2.00160
     20      17.7521     -0.06464
     21      18.1240     -0.00004
     22      18.3843     -0.00000
     23      19.5579     -0.00000
     24      19.8623     -0.00000
     25      27.2231      0.00000
     26      27.4738      0.00000
     27      28.0164      0.00000
     28      29.7602      0.00000
     29      33.5611      0.00000
     30      33.7115      0.00000

 k-point   214 :       0.3636    0.4545    0.4545
  band No.  band energies     occupation 
      1       6.4683      2.00000
      2       7.0228      2.00000
      3       7.1373      2.00000
      4       7.6923      2.00000
      5      10.8482      2.00000
      6      11.1920      2.00000
      7      11.2624      2.00000
      8      11.5436      2.00000
      9      11.6091      2.00000
     10      12.0508      2.00000
     11      12.2061      2.00000
     12      12.4928      2.00000
     13      14.0856      2.00000
     14      14.2812      2.00000
     15      14.3761      2.00000
     16      14.8352      2.00000
     17      15.9460      2.00000
     18      16.7252      2.00000
     19      17.0656      2.01364
     20      17.4446      1.25607
     21      18.0405     -0.00048
     22      18.3283     -0.00000
     23      19.8409     -0.00000
     24      20.2508     -0.00000
     25      27.0479      0.00000
     26      27.4936      0.00000
     27      28.0061      0.00000
     28      29.4187      0.00000
     29      33.5259      0.00000
     30      33.7040      0.00000

 k-point   215 :       0.4545    0.3636    0.4545
  band No.  band energies     occupation 
      1       6.4627      2.00000
      2       7.0005      2.00000
      3       7.2593      2.00000
      4       7.6305      2.00000
      5      10.7791      2.00000
      6      11.0114      2.00000
      7      11.4443      2.00000
      8      11.6612      2.00000
      9      11.7611      2.00000
     10      12.0692      2.00000
     11      12.2393      2.00000
     12      12.3114      2.00000
     13      14.0912      2.00000
     14      14.2104      2.00000
     15      14.3830      2.00000
     16      15.0878      2.00000
     17      15.9303      2.00000
     18      16.5030      2.00000
     19      16.6773      2.00000
     20      17.9315     -0.00581
     21      18.5860     -0.00000
     22      18.6307     -0.00000
     23      19.1526     -0.00000
     24      19.5919     -0.00000
     25      27.1398      0.00000
     26      27.6294      0.00000
     27      27.9647      0.00000
     28      29.7701      0.00000
     29      33.4743      0.00000
     30      33.6832      0.00000

 k-point   216 :       0.4545    0.4545    0.4545
  band No.  band energies     occupation 
      1       6.2404      2.00000
      2       6.8797      2.00000
      3       6.9696      2.00000
      4       7.4425      2.00000
      5      10.9489      2.00000
      6      11.1487      2.00000
      7      11.4223      2.00000
      8      11.4910      2.00000
      9      11.5798      2.00000
     10      12.1036      2.00000
     11      12.1411      2.00000
     12      12.3708      2.00000
     13      14.9322      2.00000
     14      15.0965      2.00000
     15      15.2879      2.00000
     16      15.8555      2.00000
     17      16.0083      2.00000
     18      16.5819      2.00000
     19      16.6490      2.00000
     20      17.6236      0.05256
     21      17.8257     -0.03263
     22      18.5810     -0.00000
     23      18.8419     -0.00000
     24      19.2049     -0.00000
     25      27.1618      0.00000
     26      27.2695      0.00000
     27      27.5425      0.00000
     28      29.5633      0.00000
     29      33.0609      0.00000
     30      33.1428      0.00000


--------------------------------------------------------------------------------------------------------


 soft charge-density along one line, spin component           1
         0         1         2         3         4         5         6         7         8         9
x    23.3011    0.0000   -1.0438    0.0000   -0.4802    0.0000    0.0710    0.0000   -0.0927    0.0000
x    -0.0061    0.0000    0.0439    0.0000    0.0000    0.0000
y    23.3011    0.0000    1.1131    0.0000   -0.4610    0.0000   -0.2198   -0.0000   -0.0944    0.0000
y     0.0205   -0.0000    0.0413    0.0000    0.0000    0.0000
z    23.3011    0.0000    0.2400    0.0000   -0.4674    0.0000   -0.0616   -0.0000   -0.0962    0.0000
z     0.0021    0.0000    0.0420    0.0000    0.0000    0.0000
 total charge-density along one line
x    40.0000    0.0000    4.0021    0.0000    7.9410    0.0000    2.3295    0.0000    0.7383    0.0000
x     0.1040    0.0000    0.0388    0.0000    0.0045    0.0000    0.0047    0.0000   -0.0009   -0.0000
x    -0.0016    0.0000    0.0001    0.0000    0.0007    0.0000    0.0000    0.0000   -0.0005    0.0000
y    40.0000    0.0000   -1.2265    0.0000    8.0011    0.0000   -1.4952    0.0000    0.7317   -0.0000
y    -0.0828    0.0000    0.0199   -0.0000    0.0072   -0.0000    0.0049   -0.0000    0.0005    0.0000
y    -0.0017    0.0000   -0.0009    0.0000    0.0007   -0.0000    0.0003   -0.0000   -0.0005    0.0000
z    40.0000    0.0000   -2.8030    0.0000    7.9758   -0.0000   -1.6190   -0.0000    0.7239   -0.0000
z    -0.1037   -0.0000    0.0251   -0.0000    0.0047   -0.0000    0.0049   -0.0000   -0.0001    0.0000
z    -0.0017    0.0000   -0.0006   -0.0000    0.0007    0.0000    0.0003   -0.0000   -0.0005   -0.0000
 
 pseudopotential strength for first ion, spin component:           1
  0.485   0.000   0.000   0.000  -0.000   0.121   0.000   0.000
  0.000   0.591   0.000  -0.000  -0.000   0.000   0.222   0.000
  0.000   0.000   0.563   0.000   0.003   0.000   0.000   0.195
  0.000  -0.000   0.000   0.487   0.000   0.000  -0.000   0.000
 -0.000  -0.000   0.003   0.000   0.568  -0.000  -0.000   0.003
  0.121   0.000   0.000   0.000  -0.000  -0.204   0.000   0.000
  0.000   0.222   0.000  -0.000  -0.000   0.000  -0.107   0.000
  0.000   0.000   0.195   0.000   0.003   0.000   0.000  -0.133
  0.000  -0.000   0.000   0.122   0.000   0.000  -0.000   0.000
 -0.000  -0.000   0.003   0.000   0.200  -0.000  -0.000   0.003
  0.000  -0.000  -0.006  -0.000   0.013   0.000  -0.000  -0.006
  0.000  -0.000  -0.011  -0.000   0.022   0.000  -0.000  -0.011
  0.000   0.000  -0.000  -0.000  -0.000   0.000   0.000  -0.000
 -0.000   0.000  -0.000   0.000   0.000  -0.000   0.000  -0.000
  0.000  -0.000  -0.000   0.000   0.000   0.000  -0.000  -0.000
  0.000   0.000  -0.000  -0.000  -0.000   0.000   0.000  -0.000
 -0.000   0.000  -0.000   0.000   0.000  -0.000   0.000  -0.000
  0.000  -0.000  -0.000   0.000   0.000   0.000  -0.000  -0.000
 total augmentation occupancy for first ion, spin component:           1
  5.816   0.000   0.000   0.000   0.000  -6.034   0.000   0.000   0.000   0.000  -0.000   0.000   0.000   0.000   0.000   0.000
  0.000   9.494   0.000   0.000   0.000   0.000  -8.469   0.000  -0.000   0.000   0.000   0.000   0.000   0.000   0.000   0.000
  0.000   0.000   7.315   0.000  -1.525   0.000   0.000  -6.539   0.000   1.233   0.262  -0.046   0.000   0.000   0.000   0.000
  0.000   0.000   0.000   7.792   0.000   0.000   0.000   0.000  -7.845   0.000   0.000   0.000   0.000   0.000   0.000   0.000
  0.000   0.000  -1.525   0.000  10.334   0.000   0.000   1.234   0.000  -9.113  -0.793   0.203   0.000   0.000   0.000   0.000
 -6.034   0.000   0.000   0.000   0.000   7.994   0.000   0.000   0.000   0.000  -0.000   0.000   0.000   0.000   0.000   0.000
  0.000  -8.469   0.000   0.000   0.000   0.000   9.356   0.000   0.000   0.000   0.000   0.000   0.000   0.000   0.000   0.000
  0.000   0.000  -6.539   0.000   1.234   0.000   0.000   7.627   0.000  -0.999  -0.227   0.015   0.000   0.000   0.000   0.000
  0.000  -0.000   0.000  -7.845   0.000   0.000   0.000   0.000   9.644   0.000   0.000   0.000   0.000   0.000   0.000   0.000
 -0.000   0.000   1.233   0.000  -9.113   0.000   0.000  -0.999   0.000   9.823   0.652  -0.129   0.000   0.000   0.000   0.000
  0.000   0.000   0.262   0.000  -0.793   0.000   0.000  -0.227   0.000   0.652   3.752  -0.690   0.000   0.000   0.000   0.000
  0.000   0.000  -0.046   0.000   0.203   0.000   0.000   0.015   0.000  -0.129  -0.690   0.144   0.000   0.000   0.000   0.000
  0.000   0.000   0.000   0.000   0.000   0.000   0.000   0.000   0.000   0.000   0.000   0.000   0.594   0.000  -0.000  -0.016
  0.000   0.000   0.000   0.000   0.000   0.000   0.000   0.000   0.000   0.000   0.000   0.000   0.000   0.595   0.000   0.000
  0.000   0.000   0.000   0.000   0.000   0.000   0.000   0.000   0.000   0.000   0.000   0.000  -0.000   0.000   0.667   0.000
  0.000   0.000   0.000   0.000   0.000   0.000   0.000   0.000   0.000   0.000   0.000   0.000  -0.016   0.000   0.000   0.002
  0.000   0.000   0.000   0.000   0.000   0.000   0.000   0.000   0.000   0.000   0.000   0.000   0.000  -0.021   0.000   0.000
  0.000   0.000   0.000   0.000   0.000   0.000   0.000   0.000   0.000   0.000   0.000   0.000   0.000   0.000  -0.016  -0.000


------------------------ aborting loop because EDIFF is reached ----------------------------------------


    CHARGE:  cpu time    0.1142: real time    0.1142
    FORLOC:  cpu time    0.0010: real time    0.0010
    FORNL :  cpu time    0.5308: real time    0.5308
    STRESS:  cpu time    0.9394: real time    0.9394
    FORCOR:  cpu time    0.0062: real time    0.0062
    FORHAR:  cpu time    0.0020: real time    0.0033
    MIXING:  cpu time    0.0004: real time    0.0004

  FORCE on cell =-STRESS in cart. coord.  units (eV):
  Direction    XX          YY          ZZ          XY          YZ          ZX
  --------------------------------------------------------------------------------------
  Alpha Z   367.90494   367.90494   367.90494
  Ewald   -1309.55151 -1303.53337 -1309.55151    -0.00000     0.00000     0.00000
  Hartree   137.25578   153.16852   144.01932    -0.00000    -0.00000    -0.00000
  E(xc)    -212.96201  -213.03793  -213.00783     0.00000     0.00000    -0.00000
  Local     268.35851   250.12597   265.15012     0.00000     0.00000    -0.00000
  n-local    32.62677    35.10998    33.81671     4.56115    10.28862     5.10182
  augment   255.76812   254.41507   255.04836     0.00000     0.00000    -0.00000
  Kinetic   519.22820   516.84938   516.72417     0.20639     0.88668     0.65664
  Fock        0.00000     0.00000     0.00000     0.00000     0.00000     0.00000
  -------------------------------------------------------------------------------------
  Total      58.62881    61.00256    60.10429     0.00000     0.00000     0.00000
  in kB    2444.65972  2543.63852  2506.18313     0.00000     0.00000     0.00000
  external pressure =     2498.16 kB  Pullay stress =        0.00 kB


 VOLUME and BASIS-vectors are now :
 -----------------------------------------------------------------------------
  energy-cutoff  :      270.00
  volume of cell :       38.42
      direct lattice vectors                 reciprocal lattice vectors
     3.374435082  0.000000000  0.000000000     0.296345900  0.000000000  0.000000000
     0.000000000  3.374435082  0.000000000     0.000000000  0.296345900  0.000000000
     0.000000000  0.000000000  3.374435082     0.000000000  0.000000000  0.296345900

  length of vectors
     3.374435082  3.374435082  3.374435082     0.296345900  0.296345900  0.296345900


 FORCES acting on ions
    electron-ion (+dipol)            ewald-force                    non-local-force                 convergence-correction
 -----------------------------------------------------------------------------------------------
   -.616E-13 -.253E-13 -.404E-13   -.270E-13 -.625E-14 -.132E-14   -.185E-22 0.409E-23 -.341E-22   -.214E-13 -.359E-14 0.110E-13
   0.389E-13 0.760E-13 -.372E-13   -.128E-13 -.162E-14 -.414E-14   -.174E-22 -.228E-23 0.556E-23   -.171E-14 -.505E-16 0.677E-14
   0.717E-13 -.227E-13 0.129E-12   0.352E-13 0.183E-14 0.255E-14   0.473E-23 -.976E-23 0.246E-23   -.234E-14 -.105E-13 -.815E-14
   -.119E-12 0.643E-12 0.628E-12   0.472E-14 0.664E-14 0.325E-14   -.204E-23 0.639E-23 -.308E-22   -.104E-12 -.190E-13 -.637E-13
 -----------------------------------------------------------------------------------------------
   -.696E-13 0.671E-12 0.680E-12   0.135E-15 0.608E-15 0.340E-15   -.333E-22 -.157E-23 -.568E-22   -.130E-12 -.331E-13 -.541E-13
 
 
 POSITION                                       TOTAL-FORCE (eV/Angst)
 -----------------------------------------------------------------------------------
      0.00000      0.00000      0.00000         0.000000      0.000000     -0.000000
      1.68722      1.68722      0.00000         0.000000      0.000000     -0.000000
      1.68722      0.00000      1.68722        -0.000000      0.000000      0.000000
      0.00000      1.68722      1.68722        -0.000000     -0.000000      0.000000
 -----------------------------------------------------------------------------------
    total drift:                               -0.000000      0.000000      0.000000


--------------------------------------------------------------------------------------------------------



  FREE ENERGIE OF THE ION-ELECTRON SYSTEM (eV)
  ---------------------------------------------------
  free  energy   TOTEN  =       -13.31601601 eV

  energy  without entropy=      -13.31720144  energy(sigma->0) =      -13.31641116
 


--------------------------------------------------------------------------------------------------------


    POTLOK:  cpu time    0.0094: real time    0.0094


--------------------------------------------------------------------------------------------------------


 writing wavefunctions
     LOOP+:  cpu time   33.8354: real time   33.8406
    4ORBIT:  cpu time    0.0000: real time    0.0000

 total amount of memory used by VASP MPI-rank0   130799. kBytes
=======================================================================

   base      :      30000. kBytes
   nonl-proj :      49916. kBytes
   grid      :       1781. kBytes
   one-center:         62. kBytes
   wavefun   :      49040. kBytes
 
  
  
 General timing and accounting informations for this job:
 ========================================================
  
                  Total CPU time used (sec):       34.298
                            User time (sec):       34.202
                          System time (sec):        0.096
                         Elapsed time (sec):       34.292
  
                   Maximum memory used (kb):      140056.
                   Average memory used (kb):          N/A
  
                          Minor page faults:        28548
                          Major page faults:            0
                 Voluntary context switches:           29
