<?xml version="1.0" encoding="ISO-8859-1"?>
<modeling>
 <generator>
  <i name="program" type="string">vasp </i>
  <i name="version" type="string">6.2.0  </i>
  <i name="subversion" type="string">18Jan21 (build Mar 17 2021 09:06:54) complex                          serial </i>
  <i name="platform" type="string">LinuxIFC </i>
  <i name="date" type="string">2021 06 11 </i>
  <i name="time" type="string">11:33:21 </i>
 </generator>
 <incar>
  <i type="string" name="PREC">normal</i>
  <i type="int" name="ICHARG">     1</i>
  <i type="int" name="IBRION">     1</i>
  <i name="EDIFF">      0.00000100</i>
  <i type="int" name="NSW">     0</i>
  <i type="int" name="ISIF">     2</i>
  <i name="ENCUT">    270.00000000</i>
  <i type="int" name="NBANDS">    30</i>
  <i type="int" name="ISMEAR">     1</i>
  <i name="SIGMA">      0.20000000</i>
  <i type="logical" name="LCHARG"> T  </i>
  <i type="int" name="KPAR">     1</i>
  <i type="int" name="NCORE">     1</i>
  <i type="string" name="GGA">PE</i>
 </incar>
 <primitive_cell>
  <structure name="primitive_cell" >
   <crystal>
    <varray name="basis" >
     <v>       3.37443508       0.00000000       0.00000000 </v>
     <v>       0.00000000       3.37443508       0.00000000 </v>
     <v>       0.00000000       0.00000000       3.37443508 </v>
    </varray>
    <i name="volume">     38.42405830 </i>
    <varray name="rec_basis" >
     <v>       0.29634590       0.00000000       0.00000000 </v>
     <v>       0.00000000       0.29634590       0.00000000 </v>
     <v>       0.00000000       0.00000000       0.29634590 </v>
    </varray>
   </crystal>
   <varray name="positions" >
    <v>       0.00000000       0.00000000       0.00000000 </v>
    <v>       0.50000000       0.50000000       0.00000000 </v>
    <v>       0.50000000       0.00000000       0.50000000 </v>
    <v>       0.00000000       0.50000000       0.50000000 </v>
   </varray>
  </structure>
  <varray name="primitive_index" >
   <v type="int" >        1 </v>
   <v type="int" >        2 </v>
   <v type="int" >        3 </v>
   <v type="int" >        4 </v>
  </varray>
 </primitive_cell>
 <kpoints>
  <generation param="Monkhorst-Pack">
   <v type="int" name="divisions">      11       11       11 </v>
   <v name="usershift">      0.00000000       0.00000000       0.00000000 </v>
   <v name="genvec1">      0.09090909       0.00000000       0.00000000 </v>
   <v name="genvec2">      0.00000000       0.09090909       0.00000000 </v>
   <v name="genvec3">      0.00000000       0.00000000       0.09090909 </v>
   <v name="shift">      0.00000000       0.00000000       0.00000000 </v>
  </generation>
  <varray name="kpointlist" >
   <v>       0.00000000       0.00000000       0.00000000 </v>
   <v>       0.09090909       0.00000000       0.00000000 </v>
   <v>       0.00000000       0.09090909       0.00000000 </v>
   <v>       0.00000000       0.00000000       0.09090909 </v>
   <v>       0.18181818       0.00000000       0.00000000 </v>
   <v>       0.00000000       0.18181818       0.00000000 </v>
   <v>       0.00000000       0.00000000       0.18181818 </v>
   <v>       0.27272727       0.00000000       0.00000000 </v>
   <v>       0.00000000       0.27272727       0.00000000 </v>
   <v>       0.00000000       0.00000000       0.27272727 </v>
   <v>       0.36363636       0.00000000       0.00000000 </v>
   <v>       0.00000000       0.36363636       0.00000000 </v>
   <v>       0.00000000       0.00000000       0.36363636 </v>
   <v>       0.45454545       0.00000000       0.00000000 </v>
   <v>       0.00000000       0.45454545       0.00000000 </v>
   <v>       0.00000000       0.00000000       0.45454545 </v>
   <v>       0.09090909       0.09090909       0.00000000 </v>
   <v>       0.00000000       0.09090909       0.09090909 </v>
   <v>       0.09090909       0.00000000       0.09090909 </v>
   <v>       0.18181818       0.09090909       0.00000000 </v>
   <v>       0.00000000       0.18181818       0.09090909 </v>
   <v>       0.09090909       0.00000000       0.18181818 </v>
   <v>      -0.09090909       0.18181818       0.00000000 </v>
   <v>      -0.18181818       0.00000000       0.09090909 </v>
   <v>       0.00000000       0.09090909       0.18181818 </v>
   <v>       0.27272727       0.09090909       0.00000000 </v>
   <v>       0.00000000       0.27272727       0.09090909 </v>
   <v>       0.09090909       0.00000000       0.27272727 </v>
   <v>      -0.09090909       0.27272727       0.00000000 </v>
   <v>      -0.27272727       0.00000000       0.09090909 </v>
   <v>       0.00000000       0.09090909       0.27272727 </v>
   <v>       0.36363636       0.09090909       0.00000000 </v>
   <v>       0.00000000       0.36363636       0.09090909 </v>
   <v>       0.09090909       0.00000000       0.36363636 </v>
   <v>      -0.09090909       0.36363636       0.00000000 </v>
   <v>      -0.36363636       0.00000000       0.09090909 </v>
   <v>       0.00000000       0.09090909       0.36363636 </v>
   <v>       0.45454545       0.09090909       0.00000000 </v>
   <v>       0.00000000       0.45454545       0.09090909 </v>
   <v>       0.09090909       0.00000000       0.45454545 </v>
   <v>      -0.09090909       0.45454545       0.00000000 </v>
   <v>      -0.45454545       0.00000000       0.09090909 </v>
   <v>       0.00000000       0.09090909       0.45454545 </v>
   <v>       0.18181818       0.18181818       0.00000000 </v>
   <v>       0.00000000       0.18181818       0.18181818 </v>
   <v>       0.18181818       0.00000000       0.18181818 </v>
   <v>       0.27272727       0.18181818       0.00000000 </v>
   <v>       0.00000000       0.27272727       0.18181818 </v>
   <v>       0.18181818       0.00000000       0.27272727 </v>
   <v>      -0.18181818       0.27272727       0.00000000 </v>
   <v>      -0.27272727       0.00000000       0.18181818 </v>
   <v>       0.00000000       0.18181818       0.27272727 </v>
   <v>       0.36363636       0.18181818       0.00000000 </v>
   <v>       0.00000000       0.36363636       0.18181818 </v>
   <v>       0.18181818       0.00000000       0.36363636 </v>
   <v>      -0.18181818       0.36363636       0.00000000 </v>
   <v>      -0.36363636       0.00000000       0.18181818 </v>
   <v>       0.00000000       0.18181818       0.36363636 </v>
   <v>       0.45454545       0.18181818       0.00000000 </v>
   <v>       0.00000000       0.45454545       0.18181818 </v>
   <v>       0.18181818       0.00000000       0.45454545 </v>
   <v>      -0.18181818       0.45454545       0.00000000 </v>
   <v>      -0.45454545       0.00000000       0.18181818 </v>
   <v>       0.00000000       0.18181818       0.45454545 </v>
   <v>       0.27272727       0.27272727       0.00000000 </v>
   <v>       0.00000000       0.27272727       0.27272727 </v>
   <v>       0.27272727       0.00000000       0.27272727 </v>
   <v>       0.36363636       0.27272727       0.00000000 </v>
   <v>       0.00000000       0.36363636       0.27272727 </v>
   <v>       0.27272727       0.00000000       0.36363636 </v>
   <v>      -0.27272727       0.36363636       0.00000000 </v>
   <v>      -0.36363636       0.00000000       0.27272727 </v>
   <v>       0.00000000       0.27272727       0.36363636 </v>
   <v>       0.45454545       0.27272727       0.00000000 </v>
   <v>       0.00000000       0.45454545       0.27272727 </v>
   <v>       0.27272727       0.00000000       0.45454545 </v>
   <v>      -0.27272727       0.45454545       0.00000000 </v>
   <v>      -0.45454545       0.00000000       0.27272727 </v>
   <v>       0.00000000       0.27272727       0.45454545 </v>
   <v>       0.36363636       0.36363636       0.00000000 </v>
   <v>       0.00000000       0.36363636       0.36363636 </v>
   <v>       0.36363636       0.00000000       0.36363636 </v>
   <v>       0.45454545       0.36363636       0.00000000 </v>
   <v>       0.00000000       0.45454545       0.36363636 </v>
   <v>       0.36363636       0.00000000       0.45454545 </v>
   <v>      -0.36363636       0.45454545       0.00000000 </v>
   <v>      -0.45454545       0.00000000       0.36363636 </v>
   <v>       0.00000000       0.36363636       0.45454545 </v>
   <v>       0.45454545       0.45454545       0.00000000 </v>
   <v>       0.00000000       0.45454545       0.45454545 </v>
   <v>       0.45454545       0.00000000       0.45454545 </v>
   <v>       0.09090909       0.09090909       0.09090909 </v>
   <v>       0.18181818       0.09090909       0.09090909 </v>
   <v>       0.09090909       0.18181818       0.09090909 </v>
   <v>       0.09090909       0.09090909       0.18181818 </v>
   <v>       0.27272727       0.09090909       0.09090909 </v>
   <v>       0.09090909       0.27272727       0.09090909 </v>
   <v>       0.09090909       0.09090909       0.27272727 </v>
   <v>       0.36363636       0.09090909       0.09090909 </v>
   <v>       0.09090909       0.36363636       0.09090909 </v>
   <v>       0.09090909       0.09090909       0.36363636 </v>
   <v>       0.45454545       0.09090909       0.09090909 </v>
   <v>       0.09090909       0.45454545       0.09090909 </v>
   <v>       0.09090909       0.09090909       0.45454545 </v>
   <v>       0.18181818       0.18181818       0.09090909 </v>
   <v>       0.09090909       0.18181818       0.18181818 </v>
   <v>       0.18181818       0.09090909       0.18181818 </v>
   <v>       0.27272727       0.18181818       0.09090909 </v>
   <v>       0.09090909       0.27272727       0.18181818 </v>
   <v>       0.18181818       0.09090909       0.27272727 </v>
   <v>      -0.18181818       0.27272727       0.09090909 </v>
   <v>      -0.27272727       0.09090909       0.18181818 </v>
   <v>      -0.09090909       0.18181818       0.27272727 </v>
   <v>       0.36363636       0.18181818       0.09090909 </v>
   <v>       0.09090909       0.36363636       0.18181818 </v>
   <v>       0.18181818       0.09090909       0.36363636 </v>
   <v>      -0.18181818       0.36363636       0.09090909 </v>
   <v>      -0.36363636       0.09090909       0.18181818 </v>
   <v>      -0.09090909       0.18181818       0.36363636 </v>
   <v>       0.45454545       0.18181818       0.09090909 </v>
   <v>       0.09090909       0.45454545       0.18181818 </v>
   <v>       0.18181818       0.09090909       0.45454545 </v>
   <v>      -0.18181818       0.45454545       0.09090909 </v>
   <v>      -0.45454545       0.09090909       0.18181818 </v>
   <v>      -0.09090909       0.18181818       0.45454545 </v>
   <v>       0.27272727       0.27272727       0.09090909 </v>
   <v>       0.09090909       0.27272727       0.27272727 </v>
   <v>       0.27272727       0.09090909       0.27272727 </v>
   <v>       0.36363636       0.27272727       0.09090909 </v>
   <v>       0.09090909       0.36363636       0.27272727 </v>
   <v>       0.27272727       0.09090909       0.36363636 </v>
   <v>      -0.27272727       0.36363636       0.09090909 </v>
   <v>      -0.36363636       0.09090909       0.27272727 </v>
   <v>      -0.09090909       0.27272727       0.36363636 </v>
   <v>       0.45454545       0.27272727       0.09090909 </v>
   <v>       0.09090909       0.45454545       0.27272727 </v>
   <v>       0.27272727       0.09090909       0.45454545 </v>
   <v>      -0.27272727       0.45454545       0.09090909 </v>
   <v>      -0.45454545       0.09090909       0.27272727 </v>
   <v>      -0.09090909       0.27272727       0.45454545 </v>
   <v>       0.36363636       0.36363636       0.09090909 </v>
   <v>       0.09090909       0.36363636       0.36363636 </v>
   <v>       0.36363636       0.09090909       0.36363636 </v>
   <v>       0.45454545       0.36363636       0.09090909 </v>
   <v>       0.09090909       0.45454545       0.36363636 </v>
   <v>       0.36363636       0.09090909       0.45454545 </v>
   <v>      -0.36363636       0.45454545       0.09090909 </v>
   <v>      -0.45454545       0.09090909       0.36363636 </v>
   <v>      -0.09090909       0.36363636       0.45454545 </v>
   <v>       0.45454545       0.45454545       0.09090909 </v>
   <v>       0.09090909       0.45454545       0.45454545 </v>
   <v>       0.45454545       0.09090909       0.45454545 </v>
   <v>       0.18181818       0.18181818       0.18181818 </v>
   <v>       0.27272727       0.18181818       0.18181818 </v>
   <v>       0.18181818       0.27272727       0.18181818 </v>
   <v>       0.18181818       0.18181818       0.27272727 </v>
   <v>       0.36363636       0.18181818       0.18181818 </v>
   <v>       0.18181818       0.36363636       0.18181818 </v>
   <v>       0.18181818       0.18181818       0.36363636 </v>
   <v>       0.45454545       0.18181818       0.18181818 </v>
   <v>       0.18181818       0.45454545       0.18181818 </v>
   <v>       0.18181818       0.18181818       0.45454545 </v>
   <v>       0.27272727       0.27272727       0.18181818 </v>
   <v>       0.18181818       0.27272727       0.27272727 </v>
   <v>       0.27272727       0.18181818       0.27272727 </v>
   <v>       0.36363636       0.27272727       0.18181818 </v>
   <v>       0.18181818       0.36363636       0.27272727 </v>
   <v>       0.27272727       0.18181818       0.36363636 </v>
   <v>      -0.27272727       0.36363636       0.18181818 </v>
   <v>      -0.36363636       0.18181818       0.27272727 </v>
   <v>      -0.18181818       0.27272727       0.36363636 </v>
   <v>       0.45454545       0.27272727       0.18181818 </v>
   <v>       0.18181818       0.45454545       0.27272727 </v>
   <v>       0.27272727       0.18181818       0.45454545 </v>
   <v>      -0.27272727       0.45454545       0.18181818 </v>
   <v>      -0.45454545       0.18181818       0.27272727 </v>
   <v>      -0.18181818       0.27272727       0.45454545 </v>
   <v>       0.36363636       0.36363636       0.18181818 </v>
   <v>       0.18181818       0.36363636       0.36363636 </v>
   <v>       0.36363636       0.18181818       0.36363636 </v>
   <v>       0.45454545       0.36363636       0.18181818 </v>
   <v>       0.18181818       0.45454545       0.36363636 </v>
   <v>       0.36363636       0.18181818       0.45454545 </v>
   <v>      -0.36363636       0.45454545       0.18181818 </v>
   <v>      -0.45454545       0.18181818       0.36363636 </v>
   <v>      -0.18181818       0.36363636       0.45454545 </v>
   <v>       0.45454545       0.45454545       0.18181818 </v>
   <v>       0.18181818       0.45454545       0.45454545 </v>
   <v>       0.45454545       0.18181818       0.45454545 </v>
   <v>       0.27272727       0.27272727       0.27272727 </v>
   <v>       0.36363636       0.27272727       0.27272727 </v>
   <v>       0.27272727       0.36363636       0.27272727 </v>
   <v>       0.27272727       0.27272727       0.36363636 </v>
   <v>       0.45454545       0.27272727       0.27272727 </v>
   <v>       0.27272727       0.45454545       0.27272727 </v>
   <v>       0.27272727       0.27272727       0.45454545 </v>
   <v>       0.36363636       0.36363636       0.27272727 </v>
   <v>       0.27272727       0.36363636       0.36363636 </v>
   <v>       0.36363636       0.27272727       0.36363636 </v>
   <v>       0.45454545       0.36363636       0.27272727 </v>
   <v>       0.27272727       0.45454545       0.36363636 </v>
   <v>       0.36363636       0.27272727       0.45454545 </v>
   <v>      -0.36363636       0.45454545       0.27272727 </v>
   <v>      -0.45454545       0.27272727       0.36363636 </v>
   <v>      -0.27272727       0.36363636       0.45454545 </v>
   <v>       0.45454545       0.45454545       0.27272727 </v>
   <v>       0.27272727       0.45454545       0.45454545 </v>
   <v>       0.45454545       0.27272727       0.45454545 </v>
   <v>       0.36363636       0.36363636       0.36363636 </v>
   <v>       0.45454545       0.36363636       0.36363636 </v>
   <v>       0.36363636       0.45454545       0.36363636 </v>
   <v>       0.36363636       0.36363636       0.45454545 </v>
   <v>       0.45454545       0.45454545       0.36363636 </v>
   <v>       0.36363636       0.45454545       0.45454545 </v>
   <v>       0.45454545       0.36363636       0.45454545 </v>
   <v>       0.45454545       0.45454545       0.45454545 </v>
  </varray>
  <varray name="weights" >
   <v>       0.00075131 </v>
   <v>       0.00150263 </v>
   <v>       0.00150263 </v>
   <v>       0.00150263 </v>
   <v>       0.00150263 </v>
   <v>       0.00150263 </v>
   <v>       0.00150263 </v>
   <v>       0.00150263 </v>
   <v>       0.00150263 </v>
   <v>       0.00150263 </v>
   <v>       0.00150263 </v>
   <v>       0.00150263 </v>
   <v>       0.00150263 </v>
   <v>       0.00150263 </v>
   <v>       0.00150263 </v>
   <v>       0.00150263 </v>
   <v>       0.00300526 </v>
   <v>       0.00300526 </v>
   <v>       0.00300526 </v>
   <v>       0.00300526 </v>
   <v>       0.00300526 </v>
   <v>       0.00300526 </v>
   <v>       0.00300526 </v>
   <v>       0.00300526 </v>
   <v>       0.00300526 </v>
   <v>       0.00300526 </v>
   <v>       0.00300526 </v>
   <v>       0.00300526 </v>
   <v>       0.00300526 </v>
   <v>       0.00300526 </v>
   <v>       0.00300526 </v>
   <v>       0.00300526 </v>
   <v>       0.00300526 </v>
   <v>       0.00300526 </v>
   <v>       0.00300526 </v>
   <v>       0.00300526 </v>
   <v>       0.00300526 </v>
   <v>       0.00300526 </v>
   <v>       0.00300526 </v>
   <v>       0.00300526 </v>
   <v>       0.00300526 </v>
   <v>       0.00300526 </v>
   <v>       0.00300526 </v>
   <v>       0.00300526 </v>
   <v>       0.00300526 </v>
   <v>       0.00300526 </v>
   <v>       0.00300526 </v>
   <v>       0.00300526 </v>
   <v>       0.00300526 </v>
   <v>       0.00300526 </v>
   <v>       0.00300526 </v>
   <v>       0.00300526 </v>
   <v>       0.00300526 </v>
   <v>       0.00300526 </v>
   <v>       0.00300526 </v>
   <v>       0.00300526 </v>
   <v>       0.00300526 </v>
   <v>       0.00300526 </v>
   <v>       0.00300526 </v>
   <v>       0.00300526 </v>
   <v>       0.00300526 </v>
   <v>       0.00300526 </v>
   <v>       0.00300526 </v>
   <v>       0.00300526 </v>
   <v>       0.00300526 </v>
   <v>       0.00300526 </v>
   <v>       0.00300526 </v>
   <v>       0.00300526 </v>
   <v>       0.00300526 </v>
   <v>       0.00300526 </v>
   <v>       0.00300526 </v>
   <v>       0.00300526 </v>
   <v>       0.00300526 </v>
   <v>       0.00300526 </v>
   <v>       0.00300526 </v>
   <v>       0.00300526 </v>
   <v>       0.00300526 </v>
   <v>       0.00300526 </v>
   <v>       0.00300526 </v>
   <v>       0.00300526 </v>
   <v>       0.00300526 </v>
   <v>       0.00300526 </v>
   <v>       0.00300526 </v>
   <v>       0.00300526 </v>
   <v>       0.00300526 </v>
   <v>       0.00300526 </v>
   <v>       0.00300526 </v>
   <v>       0.00300526 </v>
   <v>       0.00300526 </v>
   <v>       0.00300526 </v>
   <v>       0.00300526 </v>
   <v>       0.00601052 </v>
   <v>       0.00601052 </v>
   <v>       0.00601052 </v>
   <v>       0.00601052 </v>
   <v>       0.00601052 </v>
   <v>       0.00601052 </v>
   <v>       0.00601052 </v>
   <v>       0.00601052 </v>
   <v>       0.00601052 </v>
   <v>       0.00601052 </v>
   <v>       0.00601052 </v>
   <v>       0.00601052 </v>
   <v>       0.00601052 </v>
   <v>       0.00601052 </v>
   <v>       0.00601052 </v>
   <v>       0.00601052 </v>
   <v>       0.00601052 </v>
   <v>       0.00601052 </v>
   <v>       0.00601052 </v>
   <v>       0.00601052 </v>
   <v>       0.00601052 </v>
   <v>       0.00601052 </v>
   <v>       0.00601052 </v>
   <v>       0.00601052 </v>
   <v>       0.00601052 </v>
   <v>       0.00601052 </v>
   <v>       0.00601052 </v>
   <v>       0.00601052 </v>
   <v>       0.00601052 </v>
   <v>       0.00601052 </v>
   <v>       0.00601052 </v>
   <v>       0.00601052 </v>
   <v>       0.00601052 </v>
   <v>       0.00601052 </v>
   <v>       0.00601052 </v>
   <v>       0.00601052 </v>
   <v>       0.00601052 </v>
   <v>       0.00601052 </v>
   <v>       0.00601052 </v>
   <v>       0.00601052 </v>
   <v>       0.00601052 </v>
   <v>       0.00601052 </v>
   <v>       0.00601052 </v>
   <v>       0.00601052 </v>
   <v>       0.00601052 </v>
   <v>       0.00601052 </v>
   <v>       0.00601052 </v>
   <v>       0.00601052 </v>
   <v>       0.00601052 </v>
   <v>       0.00601052 </v>
   <v>       0.00601052 </v>
   <v>       0.00601052 </v>
   <v>       0.00601052 </v>
   <v>       0.00601052 </v>
   <v>       0.00601052 </v>
   <v>       0.00601052 </v>
   <v>       0.00601052 </v>
   <v>       0.00601052 </v>
   <v>       0.00601052 </v>
   <v>       0.00601052 </v>
   <v>       0.00601052 </v>
   <v>       0.00601052 </v>
   <v>       0.00601052 </v>
   <v>       0.00601052 </v>
   <v>       0.00601052 </v>
   <v>       0.00601052 </v>
   <v>       0.00601052 </v>
   <v>       0.00601052 </v>
   <v>       0.00601052 </v>
   <v>       0.00601052 </v>
   <v>       0.00601052 </v>
   <v>       0.00601052 </v>
   <v>       0.00601052 </v>
   <v>       0.00601052 </v>
   <v>       0.00601052 </v>
   <v>       0.00601052 </v>
   <v>       0.00601052 </v>
   <v>       0.00601052 </v>
   <v>       0.00601052 </v>
   <v>       0.00601052 </v>
   <v>       0.00601052 </v>
   <v>       0.00601052 </v>
   <v>       0.00601052 </v>
   <v>       0.00601052 </v>
   <v>       0.00601052 </v>
   <v>       0.00601052 </v>
   <v>       0.00601052 </v>
   <v>       0.00601052 </v>
   <v>       0.00601052 </v>
   <v>       0.00601052 </v>
   <v>       0.00601052 </v>
   <v>       0.00601052 </v>
   <v>       0.00601052 </v>
   <v>       0.00601052 </v>
   <v>       0.00601052 </v>
   <v>       0.00601052 </v>
   <v>       0.00601052 </v>
   <v>       0.00601052 </v>
   <v>       0.00601052 </v>
   <v>       0.00601052 </v>
   <v>       0.00601052 </v>
   <v>       0.00601052 </v>
   <v>       0.00601052 </v>
   <v>       0.00601052 </v>
   <v>       0.00601052 </v>
   <v>       0.00601052 </v>
   <v>       0.00601052 </v>
   <v>       0.00601052 </v>
   <v>       0.00601052 </v>
   <v>       0.00601052 </v>
   <v>       0.00601052 </v>
   <v>       0.00601052 </v>
   <v>       0.00601052 </v>
   <v>       0.00601052 </v>
   <v>       0.00601052 </v>
   <v>       0.00601052 </v>
   <v>       0.00601052 </v>
   <v>       0.00601052 </v>
   <v>       0.00601052 </v>
   <v>       0.00601052 </v>
   <v>       0.00601052 </v>
   <v>       0.00601052 </v>
   <v>       0.00601052 </v>
   <v>       0.00601052 </v>
   <v>       0.00601052 </v>
  </varray>
 </kpoints>
 <parameters>
  <separator name="general" >
   <i type="string" name="SYSTEM">unknown system</i>
   <i type="logical" name="LCOMPAT"> F  </i>
  </separator>
  <separator name="electronic" >
   <i type="string" name="PREC">normal</i>
   <i name="ENMAX">    270.00000000</i>
   <i name="ENAUG">    586.98000000</i>
   <i name="EDIFF">      0.00000100</i>
   <i type="int" name="IALGO">    38</i>
   <i type="int" name="IWAVPR">     0</i>
   <i type="int" name="NBANDS">    30</i>
   <i type="int" name="NBANDSLOW">    -1</i>
   <i type="int" name="NBANDSHIGH">    -1</i>
   <i name="NELECT">     40.00000000</i>
   <i type="int" name="TURBO">     0</i>
   <i type="int" name="IRESTART">     0</i>
   <i type="int" name="NREBOOT">     0</i>
   <i type="int" name="NMIN">     0</i>
   <i name="EREF">      0.00000000</i>
   <separator name="electronic smearing" >
    <i type="int" name="ISMEAR">     1</i>
    <i name="SIGMA">      0.20000000</i>
    <i name="KSPACING">      0.50000000</i>
    <i type="logical" name="KGAMMA"> T  </i>
    <i type="logical" name="KBLOWUP"> T  </i>
   </separator>
   <separator name="electronic projectors" >
    <i type="logical" name="LREAL"> F  </i>
    <v name="ROPT">      0.00000000      0.00000000      0.00000000      0.00000000</v>
    <i type="int" name="LMAXPAW">  -100</i>
    <i type="int" name="LMAXMIX">     2</i>
    <i type="logical" name="NLSPLINE"> F  </i>
   </separator>
   <separator name="electronic startup" >
    <i type="int" name="ISTART">     0</i>
    <i type="int" name="ICHARG">     1</i>
    <i type="int" name="INIWAV">     1</i>
   </separator>
   <separator name="electronic spin" >
    <i type="int" name="ISPIN">     1</i>
    <i type="logical" name="LNONCOLLINEAR"> F  </i>
    <v name="MAGMOM">      1.00000000      1.00000000      1.00000000      1.00000000</v>
    <i name="NUPDOWN">     -1.00000000</i>
    <i type="logical" name="LSORBIT"> F  </i>
    <v name="SAXIS">      0.00000000      0.00000000      1.00000000</v>
    <i type="logical" name="LSPIRAL"> F  </i>
    <v name="QSPIRAL">      0.00000000      0.00000000      0.00000000</v>
    <i type="logical" name="LZEROZ"> F  </i>
   </separator>
   <separator name="electronic exchange-correlation" >
    <i type="logical" name="LASPH"> F  </i>
    <i type="logical" name="LMETAGGA"> F  </i>
   </separator>
   <separator name="electronic convergence" >
    <i type="int" name="NELM">    60</i>
    <i type="int" name="NELMDL">    -5</i>
    <i type="int" name="NELMIN">     2</i>
    <i name="ENINI">    270.00000000</i>
    <separator name="electronic convergence detail" >
     <i type="logical" name="LDIAG"> T  </i>
     <i type="logical" name="LSUBROT"> F  </i>
     <i name="WEIMIN">      0.00000000</i>
     <i name="EBREAK">      0.00000001</i>
     <i name="DEPER">      0.30000000</i>
     <i type="int" name="NRMM">     4</i>
     <i name="TIME">      0.40000000</i>
    </separator>
   </separator>
   <separator name="electronic mixer" >
    <i name="AMIX">      0.40000000</i>
    <i name="BMIX">      1.00000000</i>
    <i name="AMIN">      0.10000000</i>
    <i name="AMIX_MAG">      1.60000000</i>
    <i name="BMIX_MAG">      1.00000000</i>
    <separator name="electronic mixer details" >
     <i type="int" name="IMIX">     4</i>
     <i type="logical" name="MIXFIRST"> F  </i>
     <i type="int" name="MAXMIX">   -45</i>
     <i name="WC">    100.00000000</i>
     <i type="int" name="INIMIX">     1</i>
     <i type="int" name="MIXPRE">     1</i>
     <i type="int" name="MREMOVE">     5</i>
    </separator>
   </separator>
   <separator name="electronic dipolcorrection" >
    <i type="logical" name="LDIPOL"> F  </i>
    <i type="logical" name="LMONO"> F  </i>
    <i type="int" name="IDIPOL">     0</i>
    <i name="EPSILON">      1.00000000</i>
    <v name="DIPOL">   -100.00000000   -100.00000000   -100.00000000</v>
    <i name="EFIELD">      0.00000000</i>
   </separator>
  </separator>
  <separator name="grids" >
   <i type="int" name="NGX">    14</i>
   <i type="int" name="NGY">    14</i>
   <i type="int" name="NGZ">    14</i>
   <i type="int" name="NGXF">    28</i>
   <i type="int" name="NGYF">    28</i>
   <i type="int" name="NGZF">    28</i>
   <i type="logical" name="ADDGRID"> F  </i>
  </separator>
  <separator name="ionic" >
   <i type="int" name="NSW">     0</i>
   <i type="int" name="IBRION">    -1</i>
   <i type="int" name="MDALGO">     0</i>
   <i type="int" name="ISIF">     2</i>
   <i name="PSTRESS">      0.00000000</i>
   <i name="EDIFFG">      0.00001000</i>
   <i type="int" name="NFREE">     0</i>
   <i name="POTIM">      0.50000000</i>
   <i name="SMASS">     -3.00000000</i>
   <i name="SCALEE">      1.00000000</i>
  </separator>
  <separator name="ionic md" >
   <i name="TEBEG">      0.00010000</i>
   <i name="TEEND">      0.00010000</i>
   <i type="int" name="NBLOCK">     1</i>
   <i type="int" name="KBLOCK">     1</i>
   <i type="int" name="NPACO">   256</i>
   <i name="APACO">     16.00000000</i>
  </separator>
  <separator name="symmetry" >
   <i type="int" name="ISYM">     2</i>
   <i name="SYMPREC">      0.00001000</i>
  </separator>
  <separator name="dos" >
   <i type="int" name="LORBIT">     0</i>
   <v name="RWIGS">     -1.00000000     -1.00000000     -1.00000000     -1.00000000</v>
   <i type="int" name="NEDOS">   301</i>
   <i name="EMIN">     10.00000000</i>
   <i name="EMAX">    -10.00000000</i>
   <i name="EFERMI">      0.00000000</i>
  </separator>
  <separator name="writing" >
   <i type="int" name="NWRITE">     2</i>
   <i type="logical" name="LWAVE"> T  </i>
   <i type="logical" name="LDOWNSAMPLE"> F  </i>
   <i type="logical" name="LCHARG"> T  </i>
   <i type="logical" name="LPARD"> F  </i>
   <i type="logical" name="LVTOT"> F  </i>
   <i type="logical" name="LVHAR"> F  </i>
   <i type="logical" name="LELF"> F  </i>
   <i type="logical" name="LOPTICS"> F  </i>
   <v name="STM">      0.00000000      0.00000000      0.00000000      0.00000000      0.00000000      0.00000000      0.00000000</v>
  </separator>
  <separator name="performance" >
   <i type="int" name="NPAR">     1</i>
   <i type="int" name="NSIM">     4</i>
   <i type="int" name="NBLK">    -1</i>
   <i type="logical" name="LPLANE"> T  </i>
   <i type="logical" name="LSCALAPACK"> F  </i>
   <i type="logical" name="LSCAAWARE"> F  </i>
   <i type="logical" name="LSCALU"> F  </i>
   <i type="logical" name="LASYNC"> F  </i>
   <i type="logical" name="LORBITALREAL"> F  </i>
  </separator>
  <separator name="miscellaneous" >
   <i type="int" name="IDIOT">     3</i>
   <i type="int" name="PHON_NSTRUCT">    -1</i>
   <i type="logical" name="LMUSIC"> F  </i>
   <v name="POMASS">    106.42000000    192.22000000    195.08000000     63.54600000</v>
   <v name="DARWINR">      0.00000000      0.00000000      0.00000000      0.00000000</v>
   <v name="DARWINV">      1.00000000      1.00000000      1.00000000      1.00000000</v>
   <i type="logical" name="LCORR"> T  </i>
  </separator>
  <i type="logical" name="GGA_COMPAT"> T  </i>
  <i type="logical" name="LBERRY"> F  </i>
  <i type="int" name="ICORELEVEL">     0</i>
  <i type="logical" name="LDAU"> F  </i>
  <i type="int" name="I_CONSTRAINED_M">     0</i>
  <separator name="electronic exchange-correlation" >
   <i type="string" name="GGA">PE</i>
   <i type="int" name="VOSKOWN">     0</i>
   <i type="logical" name="LHFCALC"> F  </i>
   <i type="string" name="PRECFOCK"></i>
   <i type="logical" name="LSYMGRAD"> F  </i>
   <i type="logical" name="LHFONE"> F  </i>
   <i type="logical" name="LRHFCALC"> F  </i>
   <i type="logical" name="LTHOMAS"> F  </i>
   <i type="logical" name="LMODELHF"> F  </i>
   <i type="logical" name="LFOCKACE"> F  </i>
   <i name="ENCUT4O">     -1.00000000</i>
   <i type="int" name="EXXOEP">     0</i>
   <i type="int" name="FOURORBIT">     0</i>
   <i name="AEXX">      0.00000000</i>
   <i name="HFALPHA">      0.00000000</i>
   <i name="MCALPHA">      0.00000000</i>
   <i name="ALDAX">      1.00000000</i>
   <i name="AGGAX">      1.00000000</i>
   <i name="ALDAC">      1.00000000</i>
   <i name="AGGAC">      1.00000000</i>
   <i type="int" name="NKREDX">     1</i>
   <i type="int" name="NKREDY">     1</i>
   <i type="int" name="NKREDZ">     1</i>
   <i type="logical" name="SHIFTRED"> F  </i>
   <i type="logical" name="ODDONLY"> F  </i>
   <i type="logical" name="EVENONLY"> F  </i>
   <i type="int" name="LMAXFOCK">     0</i>
   <i type="int" name="NMAXFOCKAE">     0</i>
   <i type="logical" name="LFOCKAEDFT"> F  </i>
   <i name="HFSCREEN">      0.00000000</i>
   <i name="HFSCREENC">      0.00000000</i>
   <i type="int" name="NBANDSGWLOW">     0</i>
  </separator>
  <separator name="vdW DFT" >
   <i type="logical" name="LUSE_VDW"> F  </i>
   <i name="Zab_VDW">     -0.84910000</i>
   <i name="PARAM1">      0.12340000</i>
   <i name="PARAM2">      1.00000000</i>
   <i name="PARAM3">      0.00000000</i>
  </separator>
  <separator name="model GW" >
   <i type="int" name="MODEL_GW">     0</i>
   <i name="MODEL_EPS0">      5.76360874</i>
   <i name="MODEL_ALPHA">      1.00000000</i>
  </separator>
  <separator name="linear response parameters" >
   <i type="logical" name="LEPSILON"> F  </i>
   <i type="logical" name="LRPA"> F  </i>
   <i type="logical" name="LNABLA"> F  </i>
   <i type="logical" name="LVEL"> F  </i>
   <i type="int" name="KINTER">     0</i>
   <i name="CSHIFT">      0.10000000</i>
   <i name="OMEGAMAX">     -1.00000000</i>
   <i name="DEG_THRESHOLD">      0.00200000</i>
   <i name="RTIME">     -0.10000000</i>
   <i name="WPLASMAI">      0.00000000</i>
   <v name="DFIELD">      0.00000000      0.00000000      0.00000000</v>
   <v name="WPLASMA">      0.00000000      0.00000000      0.00000000      0.00000000      0.00000000      0.00000000      0.00000000      0.00000000      0.00000000</v>
  </separator>
  <separator name="orbital magnetization" >
   <i type="logical" name="NUCIND"> F  </i>
   <v name="MAGPOS">      0.00000000      0.00000000      0.00000000</v>
   <i type="logical" name="LNICSALL"> T  </i>
   <i type="logical" name="ORBITALMAG"> F  </i>
   <i type="logical" name="LMAGBLOCH"> F  </i>
   <i type="logical" name="LCHIMAG"> F  </i>
   <i type="logical" name="LGAUGE"> T  </i>
   <i type="int" name="MAGATOM">     0</i>
   <v name="MAGDIPOL">      0.00000000      0.00000000      0.00000000</v>
   <v name="AVECCONST">      0.00000000      0.00000000      0.00000000</v>
  </separator>
  <separator name="response functions" >
   <i type="logical" name="LFINITE_TEMPERATURE"> F  </i>
   <i type="logical" name="LADDER"> F  </i>
   <i type="logical" name="LRPAFORCE"> F  </i>
   <i type="logical" name="LFXC"> F  </i>
   <i type="logical" name="LHARTREE"> T  </i>
   <i type="int" name="IBSE">     0</i>
   <v type="int" name="KPOINT">    -1     0     0     0</v>
   <i type="logical" name="LTCTC"> F  </i>
   <i type="logical" name="LTCTE"> F  </i>
   <i type="logical" name="LTETE"> F  </i>
   <i type="logical" name="LTRIPLET"> F  </i>
   <i type="logical" name="LFXCEPS"> F  </i>
   <i type="logical" name="LFXHEG"> F  </i>
   <i type="int" name="NATURALO">     2</i>
   <i type="logical" name="LHOLEGF"> F  </i>
   <i type="logical" name="L2ORDER"> F  </i>
   <i type="logical" name="LDMP1"> F  </i>
   <i type="logical" name="LMP2LT"> F  </i>
   <i type="logical" name="LSMP2LT"> F  </i>
   <i type="logical" name="LGWLF"> F  </i>
   <i name="ENCUTGW">     -2.00000000</i>
   <i name="ENCUTGWSOFT">     -2.00000000</i>
   <i name="ENCUTLF">     -1.00000000</i>
   <i type="logical" name="LESF_SPLINES"> F  </i>
   <i type="int" name="LMAXMP2">    -1</i>
   <i name="SCISSOR">      0.00000000</i>
   <i type="int" name="NOMEGA">     0</i>
   <i type="int" name="NOMEGAR">     0</i>
   <i type="int" name="NBANDSGW">    -1</i>
   <i type="int" name="NBANDSO">    -1</i>
   <i type="int" name="NBANDSV">    -1</i>
   <i type="int" name="NELM">     1</i>
   <i type="int" name="NELMHF">     1</i>
   <i type="int" name="DIM">     3</i>
   <i type="int" name="IESPILON">     4</i>
   <i type="int" name="ANTIRES">     0</i>
   <i name="OMEGAMAX">    -30.00000000</i>
   <i name="OMEGAMIN">    -30.00000000</i>
   <i name="OMEGATL">   -200.00000000</i>
   <i type="int" name="OMEGAGRID">     0</i>
   <i name="CSHIFT">     -0.10000000</i>
   <i type="logical" name="LSELFENERGY"> F  </i>
   <i type="logical" name="LSPECTRAL"> F  </i>
   <i type="logical" name="LSPECTRALGW"> F  </i>
   <i type="logical" name="LSINGLES"> F  </i>
   <i type="logical" name="LFERMIGW"> F  </i>
   <i type="logical" name="ODDONLYGW"> F  </i>
   <i type="logical" name="EVENONLYGW"> F  </i>
   <i type="int" name="NKREDLFX">     1</i>
   <i type="int" name="NKREDLFY">     1</i>
   <i type="int" name="NKREDLFZ">     1</i>
   <i type="int" name="MAXMEM">  2800</i>
   <i type="int" name="TELESCOPE">     0</i>
   <i type="int" name="NTAUPAR">    -1</i>
   <i type="int" name="NOMEGAPAR">    -1</i>
   <i name="DAMP_NEWTON">      0.80000001</i>
   <i name="LAMBDA">      1.00000000</i>
  </separator>
  <separator name="External order field" >
   <i name="OFIELD_KAPPA">      0.00000000</i>
   <v name="OFIELD_K">      0.00000000      0.00000000      0.00000000</v>
   <i name="OFIELD_Q6_NEAR">      0.00000000</i>
   <i name="OFIELD_Q6_FAR">      0.00000000</i>
   <i name="OFIELD_A">      0.00000000</i>
  </separator>
 </parameters>
 <atominfo>
  <atoms>       4 </atoms>
  <types>       4 </types>
  <array name="atoms" >
   <dimension dim="1">ion</dimension>
   <field type="string">element</field>
   <field type="int">atomtype</field>
   <set>
    <rc><c>Pd</c><c>   1</c></rc>
    <rc><c>Ir</c><c>   2</c></rc>
    <rc><c>Pt</c><c>   3</c></rc>
    <rc><c>Cu</c><c>   4</c></rc>
   </set>
  </array>
  <array name="atomtypes" >
   <dimension dim="1">type</dimension>
   <field type="int">atomspertype</field>
   <field type="string">element</field>
   <field>mass</field>
   <field>valence</field>
   <field type="string">pseudopotential</field>
   <set>
    <rc><c>   1</c><c>Pd</c><c>    106.42000000</c><c>     10.00000000</c><c>  PAW_PBE Pd 04Jan2005                  </c></rc>
    <rc><c>   1</c><c>Ir</c><c>    192.22000000</c><c>      9.00000000</c><c>  PAW_PBE Ir 06Sep2000                  </c></rc>
    <rc><c>   1</c><c>Pt</c><c>    195.08000000</c><c>     10.00000000</c><c>  PAW_PBE Pt 04Feb2005                  </c></rc>
    <rc><c>   1</c><c>Cu</c><c>     63.54600000</c><c>     11.00000000</c><c>  PAW_PBE Cu 22Jun2005                  </c></rc>
   </set>
  </array>
 </atominfo>
 <structure name="initialpos" >
  <crystal>
   <varray name="basis" >
    <v>       3.37443508       0.00000000       0.00000000 </v>
    <v>       0.00000000       3.37443508       0.00000000 </v>
    <v>       0.00000000       0.00000000       3.37443508 </v>
   </varray>
   <i name="volume">     38.42405830 </i>
   <varray name="rec_basis" >
    <v>       0.29634590       0.00000000       0.00000000 </v>
    <v>       0.00000000       0.29634590       0.00000000 </v>
    <v>       0.00000000       0.00000000       0.29634590 </v>
   </varray>
  </crystal>
  <varray name="positions" >
   <v>       0.00000000       0.00000000       0.00000000 </v>
   <v>       0.50000000       0.50000000       0.00000000 </v>
   <v>       0.50000000       0.00000000       0.50000000 </v>
   <v>       0.00000000       0.50000000       0.50000000 </v>
  </varray>
 </structure>
 <calculation>
  <scstep>
   <time name="dav">    1.85    1.85</time>
   <time name="total">    1.87    1.88</time>
   <energy>
    <i name="alphaZ">    367.90493731 </i>
    <i name="ewald">  -3922.63467022 </i>
    <i name="hartreedc">   -485.15484426 </i>
    <i name="XCdc">     10.64585982 </i>
    <i name="pawpsdc">   3282.45812088 </i>
    <i name="pawaedc">  -3257.47686163 </i>
    <i name="eentropy">     -0.00192465 </i>
    <i name="bandstr">    752.63201483 </i>
    <i name="atom">   3489.78669473 </i>
    <i name="e_fr_energy">    238.15932681 </i>
    <i name="e_wo_entrp">    238.16125145 </i>
    <i name="e_0_energy">    238.15996836 </i>
   </energy>
  </scstep>
  <scstep>
   <time name="dav">    1.79    1.79</time>
   <time name="total">    1.80    1.80</time>
   <energy>
    <i name="e_fr_energy">     -4.51495402 </i>
    <i name="e_wo_entrp">     -4.51557288 </i>
    <i name="e_0_energy">     -4.51516031 </i>
   </energy>
  </scstep>
  <scstep>
   <time name="dav">    1.87    1.87</time>
   <time name="total">    1.88    1.88</time>
   <energy>
    <i name="e_fr_energy">    -15.32726792 </i>
    <i name="e_wo_entrp">    -15.32472977 </i>
    <i name="e_0_energy">    -15.32642187 </i>
   </energy>
  </scstep>
  <scstep>
   <time name="dav">    2.00    2.00</time>
   <time name="total">    2.02    2.02</time>
   <energy>
    <i name="e_fr_energy">    -15.58883015 </i>
    <i name="e_wo_entrp">    -15.58612290 </i>
    <i name="e_0_energy">    -15.58792773 </i>
   </energy>
  </scstep>
  <scstep>
   <time name="dav">    2.52    2.52</time>
   <time name="total">    2.65    2.66</time>
   <energy>
    <i name="e_fr_energy">    -15.59968814 </i>
    <i name="e_wo_entrp">    -15.59698075 </i>
    <i name="e_0_energy">    -15.59878567 </i>
   </energy>
  </scstep>
  <scstep>
   <time name="dav">    2.18    2.18</time>
   <time name="total">    2.31    2.31</time>
   <energy>
    <i name="e_fr_energy">    -15.23242251 </i>
    <i name="e_wo_entrp">    -15.23175860 </i>
    <i name="e_0_energy">    -15.23220120 </i>
   </energy>
  </scstep>
  <scstep>
   <time name="dav">    2.04    2.04</time>
   <time name="total">    2.18    2.18</time>
   <energy>
    <i name="e_fr_energy">    -14.71501626 </i>
    <i name="e_wo_entrp">    -14.71480055 </i>
    <i name="e_0_energy">    -14.71494436 </i>
   </energy>
  </scstep>
  <scstep>
   <time name="dav">    1.96    1.96</time>
   <time name="total">    2.10    2.10</time>
   <energy>
    <i name="e_fr_energy">    -13.50506182 </i>
    <i name="e_wo_entrp">    -13.50782931 </i>
    <i name="e_0_energy">    -13.50598432 </i>
   </energy>
  </scstep>
  <scstep>
   <time name="dav">    2.36    2.36</time>
   <time name="total">    2.49    2.49</time>
   <energy>
    <i name="e_fr_energy">    -13.34589395 </i>
    <i name="e_wo_entrp">    -13.34688797 </i>
    <i name="e_0_energy">    -13.34622529 </i>
   </energy>
  </scstep>
  <scstep>
   <time name="dav">    2.26    2.26</time>
   <time name="total">    2.40    2.40</time>
   <energy>
    <i name="e_fr_energy">    -13.31659621 </i>
    <i name="e_wo_entrp">    -13.31775248 </i>
    <i name="e_0_energy">    -13.31698163 </i>
   </energy>
  </scstep>
  <scstep>
   <time name="dav">    1.96    1.96</time>
   <time name="total">    2.10    2.10</time>
   <energy>
    <i name="e_fr_energy">    -13.31643558 </i>
    <i name="e_wo_entrp">    -13.31762369 </i>
    <i name="e_0_energy">    -13.31683162 </i>
   </energy>
  </scstep>
  <scstep>
   <time name="dav">    2.07    2.07</time>
   <time name="total">    2.21    2.21</time>
   <energy>
    <i name="e_fr_energy">    -13.31629371 </i>
    <i name="e_wo_entrp">    -13.31745447 </i>
    <i name="e_0_energy">    -13.31668063 </i>
   </energy>
  </scstep>
  <scstep>
   <time name="dav">    2.02    2.02</time>
   <time name="total">    2.16    2.16</time>
   <energy>
    <i name="e_fr_energy">    -13.31601789 </i>
    <i name="e_wo_entrp">    -13.31719675 </i>
    <i name="e_0_energy">    -13.31641085 </i>
   </energy>
  </scstep>
  <scstep>
   <time name="dav">    2.34    2.34</time>
   <time name="total">    2.48    2.48</time>
   <energy>
    <i name="e_fr_energy">    -13.31601688 </i>
    <i name="e_wo_entrp">    -13.31720267 </i>
    <i name="e_0_energy">    -13.31641214 </i>
   </energy>
  </scstep>
  <scstep>
   <time name="dav">    1.46    1.46</time>
   <time name="total">    1.49    1.49</time>
   <energy>
    <i name="alphaZ">    367.90493731 </i>
    <i name="ewald">  -3922.63467022 </i>
    <i name="hartreedc">   -434.43596182 </i>
    <i name="XCdc">      8.92536807 </i>
    <i name="pawpsdc">   5921.44824476 </i>
    <i name="pawaedc">  -5922.77753725 </i>
    <i name="eentropy">      0.00118543 </i>
    <i name="bandstr">    478.46572298 </i>
    <i name="atom">   3489.78669473 </i>
    <i name="e_fr_energy">    -13.31601601 </i>
    <i name="e_wo_entrp">    -13.31720144 </i>
    <i name="e_0_energy">    -13.31641116 </i>
   </energy>
  </scstep>
  <structure>
   <crystal>
    <varray name="basis" >
     <v>       3.37443508       0.00000000       0.00000000 </v>
     <v>       0.00000000       3.37443508       0.00000000 </v>
     <v>       0.00000000       0.00000000       3.37443508 </v>
    </varray>
    <i name="volume">     38.42405830 </i>
    <varray name="rec_basis" >
     <v>       0.29634590       0.00000000       0.00000000 </v>
     <v>       0.00000000       0.29634590       0.00000000 </v>
     <v>       0.00000000       0.00000000       0.29634590 </v>
    </varray>
   </crystal>
   <varray name="positions" >
    <v>       0.00000000       0.00000000       0.00000000 </v>
    <v>       0.50000000       0.50000000       0.00000000 </v>
    <v>       0.50000000       0.00000000       0.50000000 </v>
    <v>       0.00000000       0.50000000       0.50000000 </v>
   </varray>
  </structure>
  <varray name="forces" >
   <v>       0.00000000       0.00000000      -0.00000000 </v>
   <v>       0.00000000       0.00000000      -0.00000000 </v>
   <v>      -0.00000000       0.00000000       0.00000000 </v>
   <v>      -0.00000000      -0.00000000       0.00000000 </v>
  </varray>
  <varray name="stress" >
   <v>    2444.65972128       0.00000000       0.00000000 </v>
   <v>       0.00000000    2543.63851650       0.00000000 </v>
   <v>       0.00000000       0.00000000    2506.18312638 </v>
  </varray>
  <energy>
   <i name="e_fr_energy">    -13.31601601 </i>
   <i name="e_wo_entrp">    -13.31720144 </i>
   <i name="e_0_energy">    -13.31641116 </i>
  </energy>
  <time name="totalsc">   33.84   33.84</time>
  <eigenvalues>
   <array>
    <dimension dim="1">band</dimension>
    <dimension dim="2">kpoint</dimension>
    <dimension dim="3">spin</dimension>
    <field>eigene</field>
    <field>occ</field>
    <set>
     <set comment="spin 1">
      <set comment="kpoint 1">
       <r>    3.9723    1.0000 </r>
       <r>    5.3841    1.0000 </r>
       <r>    7.0662    1.0000 </r>
       <r>    7.1296    1.0000 </r>
       <r>    7.1748    1.0000 </r>
       <r>    7.3614    1.0000 </r>
       <r>    7.4471    1.0000 </r>
       <r>   11.8570    1.0000 </r>
       <r>   11.8789    1.0000 </r>
       <r>   12.0716    1.0000 </r>
       <r>   14.2309    1.0000 </r>
       <r>   14.4857    1.0000 </r>
       <r>   15.8058    1.0000 </r>
       <r>   16.1613    1.0000 </r>
       <r>   16.4033    1.0000 </r>
       <r>   17.5453    0.2227 </r>
       <r>   17.9305   -0.0030 </r>
       <r>   18.3715   -0.0000 </r>
       <r>   18.7828   -0.0000 </r>
       <r>   19.3455   -0.0000 </r>
       <r>   19.3733   -0.0000 </r>
       <r>   19.4294   -0.0000 </r>
       <r>   19.6560   -0.0000 </r>
       <r>   20.8055   -0.0000 </r>
       <r>   29.6927    0.0000 </r>
       <r>   30.2701    0.0000 </r>
       <r>   30.6096    0.0000 </r>
       <r>   31.3394    0.0000 </r>
       <r>   31.5269    0.0000 </r>
       <r>   33.3890    0.0000 </r>
      </set>
      <set comment="kpoint 2">
       <r>    4.1195    1.0000 </r>
       <r>    5.5016    1.0000 </r>
       <r>    7.1554    1.0000 </r>
       <r>    7.1885    1.0000 </r>
       <r>    7.2877    1.0000 </r>
       <r>    7.4708    1.0000 </r>
       <r>    7.5682    1.0000 </r>
       <r>   11.7733    1.0000 </r>
       <r>   11.9194    1.0000 </r>
       <r>   12.1347    1.0000 </r>
       <r>   14.2372    1.0000 </r>
       <r>   14.3978    1.0000 </r>
       <r>   15.7990    1.0000 </r>
       <r>   15.8927    1.0000 </r>
       <r>   15.9619    1.0000 </r>
       <r>   16.6706    1.0000 </r>
       <r>   17.8507   -0.0116 </r>
       <r>   17.9371   -0.0026 </r>
       <r>   18.5658   -0.0000 </r>
       <r>   18.6140   -0.0000 </r>
       <r>   18.9696   -0.0000 </r>
       <r>   20.5790   -0.0000 </r>
       <r>   20.7232   -0.0000 </r>
       <r>   20.8050   -0.0000 </r>
       <r>   29.3390    0.0000 </r>
       <r>   30.4928    0.0000 </r>
       <r>   30.7916    0.0000 </r>
       <r>   31.2715    0.0000 </r>
       <r>   32.0117    0.0000 </r>
       <r>   33.5137    0.0000 </r>
      </set>
      <set comment="kpoint 3">
       <r>    4.1389    1.0000 </r>
       <r>    5.5111    1.0000 </r>
       <r>    7.1391    1.0000 </r>
       <r>    7.2314    1.0000 </r>
       <r>    7.2534    1.0000 </r>
       <r>    7.4724    1.0000 </r>
       <r>    7.5685    1.0000 </r>
       <r>   11.9247    1.0000 </r>
       <r>   11.9438    1.0000 </r>
       <r>   11.9769    1.0000 </r>
       <r>   14.1540    1.0000 </r>
       <r>   14.5041    1.0000 </r>
       <r>   15.4828    1.0000 </r>
       <r>   15.9711    1.0000 </r>
       <r>   16.1172    1.0000 </r>
       <r>   17.5186    0.3212 </r>
       <r>   17.5660    0.1561 </r>
       <r>   18.3655   -0.0000 </r>
       <r>   18.3726   -0.0000 </r>
       <r>   18.5451   -0.0000 </r>
       <r>   18.8239   -0.0000 </r>
       <r>   19.0019   -0.0000 </r>
       <r>   20.9035   -0.0000 </r>
       <r>   21.4691   -0.0000 </r>
       <r>   29.7274    0.0000 </r>
       <r>   29.9592    0.0000 </r>
       <r>   30.4993    0.0000 </r>
       <r>   31.6981    0.0000 </r>
       <r>   32.1290    0.0000 </r>
       <r>   33.2659    0.0000 </r>
      </set>
      <set comment="kpoint 4">
       <r>    4.1414    1.0000 </r>
       <r>    5.5140    1.0000 </r>
       <r>    7.1958    1.0000 </r>
       <r>    7.2545    1.0000 </r>
       <r>    7.2903    1.0000 </r>
       <r>    7.4266    1.0000 </r>
       <r>    7.5040    1.0000 </r>
       <r>   11.7482    1.0000 </r>
       <r>   11.9382    1.0000 </r>
       <r>   12.1346    1.0000 </r>
       <r>   14.1853    1.0000 </r>
       <r>   14.4632    1.0000 </r>
       <r>   15.4588    1.0000 </r>
       <r>   16.0266    1.0000 </r>
       <r>   16.3891    1.0000 </r>
       <r>   16.8288    1.0000 </r>
       <r>   17.6443   -0.0008 </r>
       <r>   17.7678   -0.0293 </r>
       <r>   18.4539   -0.0000 </r>
       <r>   18.8463   -0.0000 </r>
       <r>   19.0840   -0.0000 </r>
       <r>   19.6481   -0.0000 </r>
       <r>   20.6565   -0.0000 </r>
       <r>   21.3940   -0.0000 </r>
       <r>   29.4073    0.0000 </r>
       <r>   29.9711    0.0000 </r>
       <r>   30.8252    0.0000 </r>
       <r>   31.6880    0.0000 </r>
       <r>   32.2136    0.0000 </r>
       <r>   33.1861    0.0000 </r>
      </set>
      <set comment="kpoint 5">
       <r>    4.5401    1.0000 </r>
       <r>    5.8399    1.0000 </r>
       <r>    7.3596    1.0000 </r>
       <r>    7.3932    1.0000 </r>
       <r>    7.6231    1.0000 </r>
       <r>    7.7943    1.0000 </r>
       <r>    7.9303    1.0000 </r>
       <r>   11.4781    1.0000 </r>
       <r>   12.1020    1.0000 </r>
       <r>   12.3252    1.0000 </r>
       <r>   14.0749    1.0000 </r>
       <r>   14.3277    1.0000 </r>
       <r>   14.8127    1.0000 </r>
       <r>   15.1974    1.0000 </r>
       <r>   15.4073    1.0000 </r>
       <r>   15.7818    1.0000 </r>
       <r>   17.3026    1.0044 </r>
       <r>   17.3559    0.9186 </r>
       <r>   17.7646   -0.0299 </r>
       <r>   17.8212   -0.0173 </r>
       <r>   18.3873   -0.0000 </r>
       <r>   20.8040   -0.0000 </r>
       <r>   22.2328   -0.0000 </r>
       <r>   22.2922   -0.0000 </r>
       <r>   28.6478    0.0000 </r>
       <r>   30.8858    0.0000 </r>
       <r>   31.0176    0.0000 </r>
       <r>   31.0350    0.0000 </r>
       <r>   32.8609    0.0000 </r>
       <r>   33.1675    0.0000 </r>
      </set>
      <set comment="kpoint 6">
       <r>    4.6210    1.0000 </r>
       <r>    5.8773    1.0000 </r>
       <r>    7.3262    1.0000 </r>
       <r>    7.3945    1.0000 </r>
       <r>    7.6167    1.0000 </r>
       <r>    7.7991    1.0000 </r>
       <r>    7.9404    1.0000 </r>
       <r>   11.7106    1.0000 </r>
       <r>   12.1315    1.0000 </r>
       <r>   12.1443    1.0000 </r>
       <r>   13.9294    1.0000 </r>
       <r>   14.5603    1.0000 </r>
       <r>   14.6839    1.0000 </r>
       <r>   14.9631    1.0000 </r>
       <r>   15.9548    1.0000 </r>
       <r>   16.6321    1.0000 </r>
       <r>   17.3550    0.9205 </r>
       <r>   17.4504    0.6043 </r>
       <r>   17.7490   -0.0329 </r>
       <r>   17.8739   -0.0082 </r>
       <r>   18.1078   -0.0000 </r>
       <r>   18.3520   -0.0000 </r>
       <r>   22.4747   -0.0000 </r>
       <r>   22.6900   -0.0000 </r>
       <r>   28.7522    0.0000 </r>
       <r>   30.5086    0.0000 </r>
       <r>   30.7913    0.0000 </r>
       <r>   31.7982    0.0000 </r>
       <r>   32.5769    0.0000 </r>
       <r>   33.1093    0.0000 </r>
      </set>
      <set comment="kpoint 7">
       <r>    4.6328    1.0000 </r>
       <r>    5.8916    1.0000 </r>
       <r>    7.5572    1.0000 </r>
       <r>    7.6183    1.0000 </r>
       <r>    7.6222    1.0000 </r>
       <r>    7.6334    1.0000 </r>
       <r>    7.6702    1.0000 </r>
       <r>   11.4396    1.0000 </r>
       <r>   12.1155    1.0000 </r>
       <r>   12.3265    1.0000 </r>
       <r>   13.9781    1.0000 </r>
       <r>   14.4747    1.0000 </r>
       <r>   14.6258    1.0000 </r>
       <r>   15.3288    1.0000 </r>
       <r>   15.5777    1.0000 </r>
       <r>   16.3536    1.0000 </r>
       <r>   16.9825    1.0014 </r>
       <r>   17.3565    0.9172 </r>
       <r>   17.4726    0.5112 </r>
       <r>   17.8706   -0.0086 </r>
       <r>   18.3273   -0.0000 </r>
       <r>   19.6287   -0.0000 </r>
       <r>   22.4206   -0.0000 </r>
       <r>   22.5755   -0.0000 </r>
       <r>   28.3628    0.0000 </r>
       <r>   30.5850    0.0000 </r>
       <r>   31.0338    0.0000 </r>
       <r>   32.0186    0.0000 </r>
       <r>   32.5975    0.0000 </r>
       <r>   33.0121    0.0000 </r>
      </set>
      <set comment="kpoint 8">
       <r>    5.1635    1.0000 </r>
       <r>    6.3524    1.0000 </r>
       <r>    7.6231    1.0000 </r>
       <r>    7.7282    1.0000 </r>
       <r>    8.1697    1.0000 </r>
       <r>    8.3166    1.0000 </r>
       <r>    8.4979    1.0000 </r>
       <r>   11.0553    1.0000 </r>
       <r>   12.3520    1.0000 </r>
       <r>   12.6341    1.0000 </r>
       <r>   13.6639    1.0000 </r>
       <r>   13.6676    1.0000 </r>
       <r>   13.7379    1.0000 </r>
       <r>   14.3861    1.0000 </r>
       <r>   14.6420    1.0000 </r>
       <r>   15.7618    1.0000 </r>
       <r>   15.9484    1.0000 </r>
       <r>   16.5170    1.0000 </r>
       <r>   16.8331    1.0000 </r>
       <r>   17.1719    1.0269 </r>
       <r>   18.0479   -0.0002 </r>
       <r>   20.8032   -0.0000 </r>
       <r>   23.8889    0.0000 </r>
       <r>   24.0746    0.0000 </r>
       <r>   28.0165    0.0000 </r>
       <r>   30.5994    0.0000 </r>
       <r>   30.7712    0.0000 </r>
       <r>   30.8630    0.0000 </r>
       <r>   32.1339    0.0000 </r>
       <r>   34.2918    0.0000 </r>
      </set>
      <set comment="kpoint 9">
       <r>    5.3593    1.0000 </r>
       <r>    6.4291    1.0000 </r>
       <r>    7.5646    1.0000 </r>
       <r>    7.6411    1.0000 </r>
       <r>    8.1975    1.0000 </r>
       <r>    8.3228    1.0000 </r>
       <r>    8.5343    1.0000 </r>
       <r>   11.3268    1.0000 </r>
       <r>   12.4770    1.0000 </r>
       <r>   12.4843    1.0000 </r>
       <r>   13.5998    1.0000 </r>
       <r>   13.6665    1.0000 </r>
       <r>   13.7808    1.0000 </r>
       <r>   14.6249    1.0000 </r>
       <r>   15.1895    1.0000 </r>
       <r>   15.9031    1.0000 </r>
       <r>   16.3346    1.0000 </r>
       <r>   16.5753    1.0000 </r>
       <r>   16.7998    1.0000 </r>
       <r>   17.0963    1.0111 </r>
       <r>   17.3690    0.8866 </r>
       <r>   18.3392   -0.0000 </r>
       <r>   24.1014    0.0000 </r>
       <r>   24.1494    0.0000 </r>
       <r>   28.0443    0.0000 </r>
       <r>   30.5360    0.0000 </r>
       <r>   30.6922    0.0000 </r>
       <r>   31.5386    0.0000 </r>
       <r>   32.6887    0.0000 </r>
       <r>   33.0660    0.0000 </r>
      </set>
      <set comment="kpoint 10">
       <r>    5.3922    1.0000 </r>
       <r>    6.4710    1.0000 </r>
       <r>    7.8401    1.0000 </r>
       <r>    7.9224    1.0000 </r>
       <r>    8.1485    1.0000 </r>
       <r>    8.1942    1.0000 </r>
       <r>    8.2160    1.0000 </r>
       <r>   10.9825    1.0000 </r>
       <r>   12.3646    1.0000 </r>
       <r>   12.6415    1.0000 </r>
       <r>   13.6115    1.0000 </r>
       <r>   13.6349    1.0000 </r>
       <r>   13.8346    1.0000 </r>
       <r>   14.5437    1.0000 </r>
       <r>   14.8281    1.0000 </r>
       <r>   15.9710    1.0000 </r>
       <r>   16.1928    1.0000 </r>
       <r>   16.3127    1.0000 </r>
       <r>   16.7624    1.0000 </r>
       <r>   16.9347    1.0004 </r>
       <r>   17.5201    0.3154 </r>
       <r>   19.6070   -0.0000 </r>
       <r>   23.9839    0.0000 </r>
       <r>   24.2350    0.0000 </r>
       <r>   27.5945    0.0000 </r>
       <r>   30.6616    0.0000 </r>
       <r>   30.8865    0.0000 </r>
       <r>   32.0173    0.0000 </r>
       <r>   32.0960    0.0000 </r>
       <r>   33.5085    0.0000 </r>
      </set>
      <set comment="kpoint 11">
       <r>    5.8378    1.0000 </r>
       <r>    6.9317    1.0000 </r>
       <r>    7.9310    1.0000 </r>
       <r>    8.0953    1.0000 </r>
       <r>    8.9045    1.0000 </r>
       <r>    9.0054    1.0000 </r>
       <r>    9.1399    1.0000 </r>
       <r>   10.6005    1.0000 </r>
       <r>   12.1184    1.0000 </r>
       <r>   12.3747    1.0000 </r>
       <r>   13.0416    1.0000 </r>
       <r>   13.1358    1.0000 </r>
       <r>   13.2019    1.0000 </r>
       <r>   13.9058    1.0000 </r>
       <r>   14.4116    1.0000 </r>
       <r>   14.5505    1.0000 </r>
       <r>   15.7293    1.0000 </r>
       <r>   15.7463    1.0000 </r>
       <r>   15.9373    1.0000 </r>
       <r>   16.3886    1.0000 </r>
       <r>   17.8878   -0.0065 </r>
       <r>   20.8023   -0.0000 </r>
       <r>   25.5774    0.0000 </r>
       <r>   25.8295    0.0000 </r>
       <r>   27.5759    0.0000 </r>
       <r>   29.9921    0.0000 </r>
       <r>   30.1118    0.0000 </r>
       <r>   30.2324    0.0000 </r>
       <r>   31.7632    0.0000 </r>
       <r>   34.9327    0.0000 </r>
      </set>
      <set comment="kpoint 12">
       <r>    6.2220    1.0000 </r>
       <r>    7.0475    1.0000 </r>
       <r>    7.7696    1.0000 </r>
       <r>    7.9197    1.0000 </r>
       <r>    8.9405    1.0000 </r>
       <r>    8.9964    1.0000 </r>
       <r>    9.2342    1.0000 </r>
       <r>   10.9222    1.0000 </r>
       <r>   12.5908    1.0000 </r>
       <r>   12.6046    1.0000 </r>
       <r>   12.9762    1.0000 </r>
       <r>   12.9851    1.0000 </r>
       <r>   13.2359    1.0000 </r>
       <r>   13.9801    1.0000 </r>
       <r>   14.5684    1.0000 </r>
       <r>   15.3507    1.0000 </r>
       <r>   15.4567    1.0000 </r>
       <r>   15.5016    1.0000 </r>
       <r>   15.7103    1.0000 </r>
       <r>   16.3502    1.0000 </r>
       <r>   17.2988    1.0082 </r>
       <r>   18.3306   -0.0000 </r>
       <r>   25.5887    0.0000 </r>
       <r>   25.8482    0.0000 </r>
       <r>   27.5998    0.0000 </r>
       <r>   29.7226    0.0000 </r>
       <r>   30.1201    0.0000 </r>
       <r>   31.2896    0.0000 </r>
       <r>   32.5500    0.0000 </r>
       <r>   33.1593    0.0000 </r>
      </set>
      <set comment="kpoint 13">
       <r>    6.3055    1.0000 </r>
       <r>    7.1394    1.0000 </r>
       <r>    7.9782    1.0000 </r>
       <r>    8.3045    1.0000 </r>
       <r>    8.7712    1.0000 </r>
       <r>    8.9537    1.0000 </r>
       <r>    8.9993    1.0000 </r>
       <r>   10.4608    1.0000 </r>
       <r>   12.1395    1.0000 </r>
       <r>   12.4227    1.0000 </r>
       <r>   13.0866    1.0000 </r>
       <r>   13.1667    1.0000 </r>
       <r>   13.1770    1.0000 </r>
       <r>   14.0209    1.0000 </r>
       <r>   14.4700    1.0000 </r>
       <r>   14.7105    1.0000 </r>
       <r>   15.3839    1.0000 </r>
       <r>   15.7066    1.0000 </r>
       <r>   16.1463    1.0000 </r>
       <r>   16.2785    1.0000 </r>
       <r>   17.1139    1.0142 </r>
       <r>   19.5879   -0.0000 </r>
       <r>   25.4778    0.0000 </r>
       <r>   26.0286    0.0000 </r>
       <r>   27.1128    0.0000 </r>
       <r>   29.7775    0.0000 </r>
       <r>   30.3837    0.0000 </r>
       <r>   31.6973    0.0000 </r>
       <r>   31.9335    0.0000 </r>
       <r>   33.7918    0.0000 </r>
      </set>
      <set comment="kpoint 14">
       <r>    6.3031    1.0000 </r>
       <r>    7.3602    1.0000 </r>
       <r>    8.1708    1.0000 </r>
       <r>    8.3744    1.0000 </r>
       <r>    9.6117    1.0000 </r>
       <r>    9.7378    1.0000 </r>
       <r>    9.7487    1.0000 </r>
       <r>   10.2748    1.0000 </r>
       <r>   11.2330    1.0000 </r>
       <r>   11.2453    1.0000 </r>
       <r>   12.9228    1.0000 </r>
       <r>   13.2654    1.0000 </r>
       <r>   13.4090    1.0000 </r>
       <r>   13.4119    1.0000 </r>
       <r>   13.6619    1.0000 </r>
       <r>   14.5260    1.0000 </r>
       <r>   15.1432    1.0000 </r>
       <r>   15.2863    1.0000 </r>
       <r>   15.7379    1.0000 </r>
       <r>   15.8040    1.0000 </r>
       <r>   17.8161   -0.0184 </r>
       <r>   20.8019   -0.0000 </r>
       <r>   27.1664    0.0000 </r>
       <r>   27.3548    0.0000 </r>
       <r>   27.4107    0.0000 </r>
       <r>   28.8473    0.0000 </r>
       <r>   29.1936    0.0000 </r>
       <r>   29.8207    0.0000 </r>
       <r>   31.6155    0.0000 </r>
       <r>   35.1714    0.0000 </r>
      </set>
      <set comment="kpoint 15">
       <r>    6.9214    1.0000 </r>
       <r>    7.5070    1.0000 </r>
       <r>    7.8325    1.0000 </r>
       <r>    8.1249    1.0000 </r>
       <r>    9.6570    1.0000 </r>
       <r>    9.6735    1.0000 </r>
       <r>    9.7853    1.0000 </r>
       <r>   10.6426    1.0000 </r>
       <r>   11.6889    1.0000 </r>
       <r>   11.7087    1.0000 </r>
       <r>   12.8942    1.0000 </r>
       <r>   13.2310    1.0000 </r>
       <r>   13.5691    1.0000 </r>
       <r>   13.5972    1.0000 </r>
       <r>   14.2873    1.0000 </r>
       <r>   14.4912    1.0000 </r>
       <r>   14.4980    1.0000 </r>
       <r>   14.8494    1.0000 </r>
       <r>   15.4703    1.0000 </r>
       <r>   16.0104    1.0000 </r>
       <r>   17.2597    1.0314 </r>
       <r>   18.3264   -0.0000 </r>
       <r>   27.0360    0.0000 </r>
       <r>   27.3875    0.0000 </r>
       <r>   27.4824    0.0000 </r>
       <r>   28.5836    0.0000 </r>
       <r>   28.9862    0.0000 </r>
       <r>   31.1672    0.0000 </r>
       <r>   32.4376    0.0000 </r>
       <r>   33.2108    0.0000 </r>
      </set>
      <set comment="kpoint 16">
       <r>    7.1572    1.0000 </r>
       <r>    7.5664    1.0000 </r>
       <r>    7.9595    1.0000 </r>
       <r>    8.6524    1.0000 </r>
       <r>    9.2256    1.0000 </r>
       <r>    9.8469    1.0000 </r>
       <r>    9.8842    1.0000 </r>
       <r>   10.0307    1.0000 </r>
       <r>   11.1929    1.0000 </r>
       <r>   11.2160    1.0000 </r>
       <r>   12.8567    1.0000 </r>
       <r>   13.2577    1.0000 </r>
       <r>   13.5401    1.0000 </r>
       <r>   13.5492    1.0000 </r>
       <r>   13.7744    1.0000 </r>
       <r>   14.7169    1.0000 </r>
       <r>   14.7767    1.0000 </r>
       <r>   14.8908    1.0000 </r>
       <r>   15.4615    1.0000 </r>
       <r>   16.2597    1.0000 </r>
       <r>   16.9796    1.0013 </r>
       <r>   19.5775   -0.0000 </r>
       <r>   26.8837    0.0000 </r>
       <r>   26.9092    0.0000 </r>
       <r>   27.7156    0.0000 </r>
       <r>   28.6284    0.0000 </r>
       <r>   29.2664    0.0000 </r>
       <r>   31.5233    0.0000 </r>
       <r>   31.8415    0.0000 </r>
       <r>   33.9099    0.0000 </r>
      </set>
      <set comment="kpoint 17">
       <r>    4.2834    1.0000 </r>
       <r>    5.6270    1.0000 </r>
       <r>    7.2347    1.0000 </r>
       <r>    7.2913    1.0000 </r>
       <r>    7.3641    1.0000 </r>
       <r>    7.5393    1.0000 </r>
       <r>    7.7221    1.0000 </r>
       <r>   11.7743    1.0000 </r>
       <r>   11.9805    1.0000 </r>
       <r>   12.1078    1.0000 </r>
       <r>   14.1589    1.0000 </r>
       <r>   14.4187    1.0000 </r>
       <r>   15.3916    1.0000 </r>
       <r>   15.5185    1.0000 </r>
       <r>   15.9425    1.0000 </r>
       <r>   16.8104    1.0000 </r>
       <r>   17.4042    0.7807 </r>
       <r>   17.6528   -0.0093 </r>
       <r>   17.8934   -0.0059 </r>
       <r>   18.3913   -0.0000 </r>
       <r>   19.5490   -0.0000 </r>
       <r>   19.7347   -0.0000 </r>
       <r>   20.8115   -0.0000 </r>
       <r>   21.8561   -0.0000 </r>
       <r>   29.3597    0.0000 </r>
       <r>   30.1047    0.0000 </r>
       <r>   30.7609    0.0000 </r>
       <r>   32.0289    0.0000 </r>
       <r>   32.1516    0.0000 </r>
       <r>   32.9129    0.0000 </r>
      </set>
      <set comment="kpoint 18">
       <r>    4.3011    1.0000 </r>
       <r>    5.6397    1.0000 </r>
       <r>    7.2375    1.0000 </r>
       <r>    7.3367    1.0000 </r>
       <r>    7.3957    1.0000 </r>
       <r>    7.5460    1.0000 </r>
       <r>    7.6388    1.0000 </r>
       <r>   11.7547    1.0000 </r>
       <r>   11.9978    1.0000 </r>
       <r>   12.1045    1.0000 </r>
       <r>   14.1244    1.0000 </r>
       <r>   14.4681    1.0000 </r>
       <r>   15.1592    1.0000 </r>
       <r>   15.7911    1.0000 </r>
       <r>   16.0281    1.0000 </r>
       <r>   17.0496    1.0052 </r>
       <r>   17.4044    0.7798 </r>
       <r>   17.5916    0.0882 </r>
       <r>   17.7789   -0.0268 </r>
       <r>   18.3120   -0.0000 </r>
       <r>   19.0120   -0.0000 </r>
       <r>   19.6105   -0.0000 </r>
       <r>   21.5131   -0.0000 </r>
       <r>   21.5777   -0.0000 </r>
       <r>   29.4982    0.0000 </r>
       <r>   30.0619    0.0000 </r>
       <r>   30.2553    0.0000 </r>
       <r>   32.0118    0.0000 </r>
       <r>   32.6549    0.0000 </r>
       <r>   32.9285    0.0000 </r>
      </set>
      <set comment="kpoint 19">
       <r>    4.2854    1.0000 </r>
       <r>    5.6301    1.0000 </r>
       <r>    7.2501    1.0000 </r>
       <r>    7.3057    1.0000 </r>
       <r>    7.4290    1.0000 </r>
       <r>    7.5426    1.0000 </r>
       <r>    7.6324    1.0000 </r>
       <r>   11.6793    1.0000 </r>
       <r>   11.9681    1.0000 </r>
       <r>   12.1917    1.0000 </r>
       <r>   14.2034    1.0000 </r>
       <r>   14.3669    1.0000 </r>
       <r>   15.3016    1.0000 </r>
       <r>   15.8464    1.0000 </r>
       <r>   16.0968    1.0000 </r>
       <r>   16.3693    1.0000 </r>
       <r>   16.6722    1.0000 </r>
       <r>   17.7339   -0.0348 </r>
       <r>   18.4803   -0.0000 </r>
       <r>   18.5056   -0.0000 </r>
       <r>   19.8643   -0.0000 </r>
       <r>   19.9902   -0.0000 </r>
       <r>   20.3207   -0.0000 </r>
       <r>   21.8163   -0.0000 </r>
       <r>   29.2569    0.0000 </r>
       <r>   29.9619    0.0000 </r>
       <r>   31.0621    0.0000 </r>
       <r>   31.8920    0.0000 </r>
       <r>   32.3313    0.0000 </r>
       <r>   32.9111    0.0000 </r>
      </set>
      <set comment="kpoint 20">
       <r>    4.6974    1.0000 </r>
       <r>    5.9612    1.0000 </r>
       <r>    7.4619    1.0000 </r>
       <r>    7.4856    1.0000 </r>
       <r>    7.6952    1.0000 </r>
       <r>    7.8057    1.0000 </r>
       <r>    8.1149    1.0000 </r>
       <r>   11.4605    1.0000 </r>
       <r>   12.1350    1.0000 </r>
       <r>   12.3181    1.0000 </r>
       <r>   14.0506    1.0000 </r>
       <r>   14.2510    1.0000 </r>
       <r>   14.5763    1.0000 </r>
       <r>   14.8178    1.0000 </r>
       <r>   15.4199    1.0000 </r>
       <r>   15.9798    1.0000 </r>
       <r>   16.3542    1.0000 </r>
       <r>   17.2742    1.0257 </r>
       <r>   17.4351    0.6662 </r>
       <r>   17.9452   -0.0022 </r>
       <r>   19.2512   -0.0000 </r>
       <r>   20.0114   -0.0000 </r>
       <r>   21.8431   -0.0000 </r>
       <r>   23.0210    0.0000 </r>
       <r>   28.6093    0.0000 </r>
       <r>   30.2840    0.0000 </r>
       <r>   31.2577    0.0000 </r>
       <r>   31.3043    0.0000 </r>
       <r>   32.8848    0.0000 </r>
       <r>   33.3893    0.0000 </r>
      </set>
      <set comment="kpoint 21">
       <r>    4.7644    1.0000 </r>
       <r>    6.0012    1.0000 </r>
       <r>    7.4138    1.0000 </r>
       <r>    7.4878    1.0000 </r>
       <r>    7.7258    1.0000 </r>
       <r>    7.8777    1.0000 </r>
       <r>    8.0493    1.0000 </r>
       <r>   11.6122    1.0000 </r>
       <r>   12.1719    1.0000 </r>
       <r>   12.1884    1.0000 </r>
       <r>   13.9211    1.0000 </r>
       <r>   14.3251    1.0000 </r>
       <r>   14.6433    1.0000 </r>
       <r>   14.7809    1.0000 </r>
       <r>   15.9024    1.0000 </r>
       <r>   16.2349    1.0000 </r>
       <r>   16.8492    1.0000 </r>
       <r>   16.9748    1.0011 </r>
       <r>   17.3863    0.8381 </r>
       <r>   17.7090   -0.0349 </r>
       <r>   18.3784   -0.0000 </r>
       <r>   19.1435   -0.0000 </r>
       <r>   22.4643   -0.0000 </r>
       <r>   22.9174   -0.0000 </r>
       <r>   28.6719    0.0000 </r>
       <r>   30.0843    0.0000 </r>
       <r>   30.8512    0.0000 </r>
       <r>   32.0411    0.0000 </r>
       <r>   32.4984    0.0000 </r>
       <r>   33.5396    0.0000 </r>
      </set>
      <set comment="kpoint 22">
       <r>    4.7678    1.0000 </r>
       <r>    6.0034    1.0000 </r>
       <r>    7.5412    1.0000 </r>
       <r>    7.6168    1.0000 </r>
       <r>    7.7619    1.0000 </r>
       <r>    7.7858    1.0000 </r>
       <r>    7.8702    1.0000 </r>
       <r>   11.3832    1.0000 </r>
       <r>   12.1381    1.0000 </r>
       <r>   12.3576    1.0000 </r>
       <r>   13.9920    1.0000 </r>
       <r>   14.3617    1.0000 </r>
       <r>   14.4891    1.0000 </r>
       <r>   15.0958    1.0000 </r>
       <r>   15.4674    1.0000 </r>
       <r>   15.6980    1.0000 </r>
       <r>   16.1632    1.0000 </r>
       <r>   17.3836    0.8461 </r>
       <r>   17.8344   -0.0146 </r>
       <r>   18.0247   -0.0004 </r>
       <r>   18.9623   -0.0000 </r>
       <r>   19.3670   -0.0000 </r>
       <r>   21.9247   -0.0000 </r>
       <r>   23.0286    0.0000 </r>
       <r>   28.3550    0.0000 </r>
       <r>   30.3464    0.0000 </r>
       <r>   31.3887    0.0000 </r>
       <r>   31.9676    0.0000 </r>
       <r>   32.4346    0.0000 </r>
       <r>   33.1064    0.0000 </r>
      </set>
      <set comment="kpoint 23">
       <r>    4.7585    1.0000 </r>
       <r>    5.9885    1.0000 </r>
       <r>    7.4311    1.0000 </r>
       <r>    7.4831    1.0000 </r>
       <r>    7.6938    1.0000 </r>
       <r>    7.8139    1.0000 </r>
       <r>    8.1218    1.0000 </r>
       <r>   11.6206    1.0000 </r>
       <r>   12.1598    1.0000 </r>
       <r>   12.1982    1.0000 </r>
       <r>   13.9340    1.0000 </r>
       <r>   14.3703    1.0000 </r>
       <r>   14.5625    1.0000 </r>
       <r>   14.7831    1.0000 </r>
       <r>   15.7746    1.0000 </r>
       <r>   16.0803    1.0000 </r>
       <r>   16.8781    1.0001 </r>
       <r>   17.0295    1.0036 </r>
       <r>   17.6819   -0.0283 </r>
       <r>   17.8246   -0.0165 </r>
       <r>   18.5455   -0.0000 </r>
       <r>   19.0009   -0.0000 </r>
       <r>   22.0757   -0.0000 </r>
       <r>   23.1102    0.0000 </r>
       <r>   28.6024    0.0000 </r>
       <r>   30.3140    0.0000 </r>
       <r>   31.1378    0.0000 </r>
       <r>   32.0526    0.0000 </r>
       <r>   32.4451    0.0000 </r>
       <r>   32.8988    0.0000 </r>
      </set>
      <set comment="kpoint 24">
       <r>    4.6978    1.0000 </r>
       <r>    5.9648    1.0000 </r>
       <r>    7.4620    1.0000 </r>
       <r>    7.4658    1.0000 </r>
       <r>    7.7502    1.0000 </r>
       <r>    7.8716    1.0000 </r>
       <r>    8.0262    1.0000 </r>
       <r>   11.4098    1.0000 </r>
       <r>   12.1295    1.0000 </r>
       <r>   12.3564    1.0000 </r>
       <r>   14.0827    1.0000 </r>
       <r>   14.2473    1.0000 </r>
       <r>   14.5902    1.0000 </r>
       <r>   14.9268    1.0000 </r>
       <r>   15.3539    1.0000 </r>
       <r>   15.8133    1.0000 </r>
       <r>   15.8936    1.0000 </r>
       <r>   17.4961    0.4121 </r>
       <r>   17.7140   -0.0353 </r>
       <r>   18.2230   -0.0000 </r>
       <r>   19.0956   -0.0000 </r>
       <r>   20.0693   -0.0000 </r>
       <r>   21.7758   -0.0000 </r>
       <r>   22.9428    0.0000 </r>
       <r>   28.6119    0.0000 </r>
       <r>   30.2084    0.0000 </r>
       <r>   31.2804    0.0000 </r>
       <r>   31.4117    0.0000 </r>
       <r>   32.8175    0.0000 </r>
       <r>   33.4246    0.0000 </r>
      </set>
      <set comment="kpoint 25">
       <r>    4.7734    1.0000 </r>
       <r>    6.0125    1.0000 </r>
       <r>    7.5554    1.0000 </r>
       <r>    7.6185    1.0000 </r>
       <r>    7.6993    1.0000 </r>
       <r>    7.7923    1.0000 </r>
       <r>    7.9086    1.0000 </r>
       <r>   11.4255    1.0000 </r>
       <r>   12.1479    1.0000 </r>
       <r>   12.3173    1.0000 </r>
       <r>   13.9587    1.0000 </r>
       <r>   14.2941    1.0000 </r>
       <r>   14.5482    1.0000 </r>
       <r>   14.9656    1.0000 </r>
       <r>   15.6275    1.0000 </r>
       <r>   16.3862    1.0000 </r>
       <r>   16.4414    1.0000 </r>
       <r>   16.9930    1.0017 </r>
       <r>   17.2009    1.0328 </r>
       <r>   17.6332    0.0126 </r>
       <r>   19.2029   -0.0000 </r>
       <r>   19.2291   -0.0000 </r>
       <r>   22.3776   -0.0000 </r>
       <r>   22.9188   -0.0000 </r>
       <r>   28.3975    0.0000 </r>
       <r>   30.2613    0.0000 </r>
       <r>   30.9217    0.0000 </r>
       <r>   31.8814    0.0000 </r>
       <r>   32.6744    0.0000 </r>
       <r>   33.7987    0.0000 </r>
      </set>
      <set comment="kpoint 26">
       <r>    5.3139    1.0000 </r>
       <r>    6.4691    1.0000 </r>
       <r>    7.7260    1.0000 </r>
       <r>    7.8287    1.0000 </r>
       <r>    8.2352    1.0000 </r>
       <r>    8.2890    1.0000 </r>
       <r>    8.6815    1.0000 </r>
       <r>   11.0377    1.0000 </r>
       <r>   12.3102    1.0000 </r>
       <r>   12.6315    1.0000 </r>
       <r>   13.4219    1.0000 </r>
       <r>   13.6210    1.0000 </r>
       <r>   13.6877    1.0000 </r>
       <r>   14.3194    1.0000 </r>
       <r>   14.6959    1.0000 </r>
       <r>   15.2258    1.0000 </r>
       <r>   15.7250    1.0000 </r>
       <r>   16.5333    1.0000 </r>
       <r>   16.7975    1.0000 </r>
       <r>   17.5125    0.3453 </r>
       <r>   18.3461   -0.0000 </r>
       <r>   20.1691   -0.0000 </r>
       <r>   23.3367    0.0000 </r>
       <r>   24.5997    0.0000 </r>
       <r>   27.9152    0.0000 </r>
       <r>   29.7794    0.0000 </r>
       <r>   30.8229    0.0000 </r>
       <r>   31.2868    0.0000 </r>
       <r>   33.2617    0.0000 </r>
       <r>   34.4550    0.0000 </r>
      </set>
      <set comment="kpoint 27">
       <r>    5.4787    1.0000 </r>
       <r>    6.5466    1.0000 </r>
       <r>    7.6598    1.0000 </r>
       <r>    7.7291    1.0000 </r>
       <r>    8.2429    1.0000 </r>
       <r>    8.3951    1.0000 </r>
       <r>    8.6795    1.0000 </r>
       <r>   11.2716    1.0000 </r>
       <r>   12.4454    1.0000 </r>
       <r>   12.4963    1.0000 </r>
       <r>   13.4282    1.0000 </r>
       <r>   13.6644    1.0000 </r>
       <r>   13.6701    1.0000 </r>
       <r>   14.6457    1.0000 </r>
       <r>   14.7570    1.0000 </r>
       <r>   15.7921    1.0000 </r>
       <r>   15.8889    1.0000 </r>
       <r>   16.2366    1.0000 </r>
       <r>   16.8348    1.0000 </r>
       <r>   17.2806    1.0221 </r>
       <r>   18.0743   -0.0001 </r>
       <r>   18.1592   -0.0000 </r>
       <r>   23.7043    0.0000 </r>
       <r>   24.4938    0.0000 </r>
       <r>   27.8996    0.0000 </r>
       <r>   29.7195    0.0000 </r>
       <r>   31.0508    0.0000 </r>
       <r>   32.0610    0.0000 </r>
       <r>   32.6835    0.0000 </r>
       <r>   33.7679    0.0000 </r>
      </set>
      <set comment="kpoint 28">
       <r>    5.5145    1.0000 </r>
       <r>    6.5779    1.0000 </r>
       <r>    7.9182    1.0000 </r>
       <r>    7.9757    1.0000 </r>
       <r>    8.1184    1.0000 </r>
       <r>    8.3175    1.0000 </r>
       <r>    8.4411    1.0000 </r>
       <r>   10.9378    1.0000 </r>
       <r>   12.3878    1.0000 </r>
       <r>   12.6073    1.0000 </r>
       <r>   13.4740    1.0000 </r>
       <r>   13.5621    1.0000 </r>
       <r>   13.7087    1.0000 </r>
       <r>   14.4424    1.0000 </r>
       <r>   14.6929    1.0000 </r>
       <r>   14.9874    1.0000 </r>
       <r>   16.1505    1.0000 </r>
       <r>   16.7916    1.0000 </r>
       <r>   16.8062    1.0000 </r>
       <r>   17.4363    0.6611 </r>
       <r>   17.6010    0.0674 </r>
       <r>   19.2337   -0.0000 </r>
       <r>   23.6266    0.0000 </r>
       <r>   24.3953    0.0000 </r>
       <r>   27.6033    0.0000 </r>
       <r>   30.1577    0.0000 </r>
       <r>   31.0539    0.0000 </r>
       <r>   31.9662    0.0000 </r>
       <r>   32.7034    0.0000 </r>
       <r>   33.6198    0.0000 </r>
      </set>
      <set comment="kpoint 29">
       <r>    5.4879    1.0000 </r>
       <r>    6.5351    1.0000 </r>
       <r>    7.6763    1.0000 </r>
       <r>    7.7330    1.0000 </r>
       <r>    8.2636    1.0000 </r>
       <r>    8.3047    1.0000 </r>
       <r>    8.7133    1.0000 </r>
       <r>   11.2767    1.0000 </r>
       <r>   12.4380    1.0000 </r>
       <r>   12.5043    1.0000 </r>
       <r>   13.4423    1.0000 </r>
       <r>   13.5831    1.0000 </r>
       <r>   13.7014    1.0000 </r>
       <r>   14.6207    1.0000 </r>
       <r>   14.8029    1.0000 </r>
       <r>   15.4406    1.0000 </r>
       <r>   16.2373    1.0000 </r>
       <r>   16.4185    1.0000 </r>
       <r>   17.0054    1.0022 </r>
       <r>   17.2888    1.0166 </r>
       <r>   17.7804   -0.0265 </r>
       <r>   18.1442   -0.0000 </r>
       <r>   23.6155    0.0000 </r>
       <r>   24.4874    0.0000 </r>
       <r>   27.8874    0.0000 </r>
       <r>   30.0495    0.0000 </r>
       <r>   30.9075    0.0000 </r>
       <r>   32.3093    0.0000 </r>
       <r>   32.5060    0.0000 </r>
       <r>   33.2577    0.0000 </r>
      </set>
      <set comment="kpoint 30">
       <r>    5.3122    1.0000 </r>
       <r>    6.4728    1.0000 </r>
       <r>    7.7241    1.0000 </r>
       <r>    7.8031    1.0000 </r>
       <r>    8.2292    1.0000 </r>
       <r>    8.3916    1.0000 </r>
       <r>    8.6316    1.0000 </r>
       <r>   11.0024    1.0000 </r>
       <r>   12.3772    1.0000 </r>
       <r>   12.5989    1.0000 </r>
       <r>   13.4507    1.0000 </r>
       <r>   13.5807    1.0000 </r>
       <r>   13.7056    1.0000 </r>
       <r>   14.2961    1.0000 </r>
       <r>   14.6255    1.0000 </r>
       <r>   15.0006    1.0000 </r>
       <r>   15.7279    1.0000 </r>
       <r>   16.7951    1.0000 </r>
       <r>   16.9867    1.0015 </r>
       <r>   17.6453   -0.0018 </r>
       <r>   18.0886   -0.0001 </r>
       <r>   20.1621   -0.0000 </r>
       <r>   23.4352    0.0000 </r>
       <r>   24.4318    0.0000 </r>
       <r>   27.9559    0.0000 </r>
       <r>   29.8060    0.0000 </r>
       <r>   30.8416    0.0000 </r>
       <r>   31.2075    0.0000 </r>
       <r>   33.2496    0.0000 </r>
       <r>   34.2882    0.0000 </r>
      </set>
      <set comment="kpoint 31">
       <r>    5.5075    1.0000 </r>
       <r>    6.5849    1.0000 </r>
       <r>    7.9407    1.0000 </r>
       <r>    7.9703    1.0000 </r>
       <r>    8.0869    1.0000 </r>
       <r>    8.2956    1.0000 </r>
       <r>    8.4735    1.0000 </r>
       <r>   10.9675    1.0000 </r>
       <r>   12.3243    1.0000 </r>
       <r>   12.6378    1.0000 </r>
       <r>   13.4169    1.0000 </r>
       <r>   13.6494    1.0000 </r>
       <r>   13.6955    1.0000 </r>
       <r>   14.4882    1.0000 </r>
       <r>   14.8674    1.0000 </r>
       <r>   15.1781    1.0000 </r>
       <r>   15.9847    1.0000 </r>
       <r>   16.5006    1.0000 </r>
       <r>   16.6576    1.0000 </r>
       <r>   16.9006    1.0002 </r>
       <r>   18.2554   -0.0000 </r>
       <r>   19.2450   -0.0000 </r>
       <r>   23.5967    0.0000 </r>
       <r>   24.5885    0.0000 </r>
       <r>   27.5887    0.0000 </r>
       <r>   29.7671    0.0000 </r>
       <r>   31.2575    0.0000 </r>
       <r>   31.8842    0.0000 </r>
       <r>   32.8274    0.0000 </r>
       <r>   34.2089    0.0000 </r>
      </set>
      <set comment="kpoint 32">
       <r>    5.9874    1.0000 </r>
       <r>    7.0493    1.0000 </r>
       <r>    8.0357    1.0000 </r>
       <r>    8.1902    1.0000 </r>
       <r>    8.9348    1.0000 </r>
       <r>    8.9571    1.0000 </r>
[...]
       <r>   17.7521   -0.0323 </r>
       <r>   18.1240   -0.0000 </r>
       <r>   18.3843   -0.0000 </r>
       <r>   19.5579   -0.0000 </r>
       <r>   19.8623   -0.0000 </r>
       <r>   27.2231    0.0000 </r>
       <r>   27.4738    0.0000 </r>
       <r>   28.0164    0.0000 </r>
       <r>   29.7602    0.0000 </r>
       <r>   33.5611    0.0000 </r>
       <r>   33.7115    0.0000 </r>
      </set>
      <set comment="kpoint 214">
       <r>    6.4683    1.0000 </r>
       <r>    7.0228    1.0000 </r>
       <r>    7.1373    1.0000 </r>
       <r>    7.6923    1.0000 </r>
       <r>   10.8482    1.0000 </r>
       <r>   11.1920    1.0000 </r>
       <r>   11.2624    1.0000 </r>
       <r>   11.5436    1.0000 </r>
       <r>   11.6091    1.0000 </r>
       <r>   12.0508    1.0000 </r>
       <r>   12.2061    1.0000 </r>
       <r>   12.4928    1.0000 </r>
       <r>   14.0856    1.0000 </r>
       <r>   14.2812    1.0000 </r>
       <r>   14.3761    1.0000 </r>
       <r>   14.8352    1.0000 </r>
       <r>   15.9460    1.0000 </r>
       <r>   16.7252    1.0000 </r>
       <r>   17.0656    1.0068 </r>
       <r>   17.4446    0.6280 </r>
       <r>   18.0405   -0.0002 </r>
       <r>   18.3283   -0.0000 </r>
       <r>   19.8409   -0.0000 </r>
       <r>   20.2508   -0.0000 </r>
       <r>   27.0479    0.0000 </r>
       <r>   27.4936    0.0000 </r>
       <r>   28.0061    0.0000 </r>
       <r>   29.4187    0.0000 </r>
       <r>   33.5259    0.0000 </r>
       <r>   33.7040    0.0000 </r>
      </set>
      <set comment="kpoint 215">
       <r>    6.4627    1.0000 </r>
       <r>    7.0005    1.0000 </r>
       <r>    7.2593    1.0000 </r>
       <r>    7.6305    1.0000 </r>
       <r>   10.7791    1.0000 </r>
       <r>   11.0114    1.0000 </r>
       <r>   11.4443    1.0000 </r>
       <r>   11.6612    1.0000 </r>
       <r>   11.7611    1.0000 </r>
       <r>   12.0692    1.0000 </r>
       <r>   12.2393    1.0000 </r>
       <r>   12.3114    1.0000 </r>
       <r>   14.0912    1.0000 </r>
       <r>   14.2104    1.0000 </r>
       <r>   14.3830    1.0000 </r>
       <r>   15.0878    1.0000 </r>
       <r>   15.9303    1.0000 </r>
       <r>   16.5030    1.0000 </r>
       <r>   16.6773    1.0000 </r>
       <r>   17.9315   -0.0029 </r>
       <r>   18.5860   -0.0000 </r>
       <r>   18.6307   -0.0000 </r>
       <r>   19.1526   -0.0000 </r>
       <r>   19.5919   -0.0000 </r>
       <r>   27.1398    0.0000 </r>
       <r>   27.6294    0.0000 </r>
       <r>   27.9647    0.0000 </r>
       <r>   29.7701    0.0000 </r>
       <r>   33.4743    0.0000 </r>
       <r>   33.6832    0.0000 </r>
      </set>
      <set comment="kpoint 216">
       <r>    6.2404    1.0000 </r>
       <r>    6.8797    1.0000 </r>
       <r>    6.9696    1.0000 </r>
       <r>    7.4425    1.0000 </r>
       <r>   10.9489    1.0000 </r>
       <r>   11.1487    1.0000 </r>
       <r>   11.4223    1.0000 </r>
       <r>   11.4910    1.0000 </r>
       <r>   11.5798    1.0000 </r>
       <r>   12.1036    1.0000 </r>
       <r>   12.1411    1.0000 </r>
       <r>   12.3708    1.0000 </r>
       <r>   14.9322    1.0000 </r>
       <r>   15.0965    1.0000 </r>
       <r>   15.2879    1.0000 </r>
       <r>   15.8555    1.0000 </r>
       <r>   16.0083    1.0000 </r>
       <r>   16.5819    1.0000 </r>
       <r>   16.6490    1.0000 </r>
       <r>   17.6236    0.0263 </r>
       <r>   17.8257   -0.0163 </r>
       <r>   18.5810   -0.0000 </r>
       <r>   18.8419   -0.0000 </r>
       <r>   19.2049   -0.0000 </r>
       <r>   27.1618    0.0000 </r>
       <r>   27.2695    0.0000 </r>
       <r>   27.5425    0.0000 </r>
       <r>   29.5633    0.0000 </r>
       <r>   33.0609    0.0000 </r>
       <r>   33.1428    0.0000 </r>
      </set>
     </set>
    </set>
   </array>
  </eigenvalues>
  <separator name="orbital magnetization" >
   <v name="MAGDIPOLOUT">      0.00000000      0.00000000      0.00000000</v>
  </separator>
  <dos>
   <i name="efermi">     17.47521721 </i>
   <total>
    <array>
     <dimension dim="1">gridpoints</dimension>
     <dimension dim="2">spin</dimension>
     <field>energy</field>
     <field>total</field>
     <field>integrated</field>
     <set>
      <set comment="spin 1">
       <r>     1.9723     0.0000     0.0000 </r>
       <r>     2.0907     0.0000     0.0000 </r>
       <r>     2.2091     0.0000     0.0000 </r>
       <r>     2.3275    -0.0000    -0.0000 </r>
       <r>     2.4458    -0.0000    -0.0000 </r>
       <r>     2.5642    -0.0000    -0.0000 </r>
       <r>     2.6826    -0.0000    -0.0000 </r>
       <r>     2.8010    -0.0000    -0.0000 </r>
       <r>     2.9194    -0.0000    -0.0000 </r>
       <r>     3.0377    -0.0000    -0.0000 </r>
       <r>     3.1561    -0.0000    -0.0000 </r>
       <r>     3.2745    -0.0000    -0.0000 </r>
       <r>     3.3929    -0.0000    -0.0000 </r>
       <r>     3.5113    -0.0000    -0.0000 </r>
       <r>     3.6296    -0.0003    -0.0000 </r>
       <r>     3.7480    -0.0010    -0.0001 </r>
       <r>     3.8664    -0.0007    -0.0002 </r>
       <r>     3.9848     0.0067     0.0006 </r>
       <r>     4.1031     0.0312     0.0043 </r>
       <r>     4.2215     0.0711     0.0127 </r>
       <r>     4.3399     0.0991     0.0244 </r>
       <r>     4.4583     0.0886     0.0349 </r>
       <r>     4.5767     0.0755     0.0438 </r>
       <r>     4.6950     0.1323     0.0595 </r>
       <r>     4.8134     0.2224     0.0858 </r>
       <r>     4.9318     0.2052     0.1101 </r>
       <r>     5.0502     0.1048     0.1225 </r>
       <r>     5.1685     0.1207     0.1368 </r>
       <r>     5.2869     0.2376     0.1649 </r>
       <r>     5.4053     0.2863     0.1988 </r>
       <r>     5.5237     0.3094     0.2355 </r>
       <r>     5.6421     0.3395     0.2757 </r>
       <r>     5.7604     0.3717     0.3197 </r>
       <r>     5.8788     0.5094     0.3800 </r>
       <r>     5.9972     0.6226     0.4537 </r>
       <r>     6.1156     0.5399     0.5176 </r>
       <r>     6.2340     0.4017     0.5651 </r>
       <r>     6.3523     0.6633     0.6437 </r>
       <r>     6.4707     1.1819     0.7836 </r>
       <r>     6.5891     1.1830     0.9236 </r>
       <r>     6.7075     0.9357     1.0344 </r>
       <r>     6.8258     1.1570     1.1713 </r>
       <r>     6.9442     1.8933     1.3955 </r>
       <r>     7.0626     2.3231     1.6705 </r>
       <r>     7.1810     2.1697     1.9273 </r>
       <r>     7.2994     2.2340     2.1918 </r>
       <r>     7.4177     2.8293     2.5267 </r>
       <r>     7.5361     3.4198     2.9315 </r>
       <r>     7.6545     3.6951     3.3689 </r>
       <r>     7.7729     3.9227     3.8333 </r>
       <r>     7.8912     4.0287     4.3102 </r>
       <r>     8.0096     3.9500     4.7778 </r>
       <r>     8.1280     3.9047     5.2400 </r>
       <r>     8.2464     4.2774     5.7464 </r>
       <r>     8.3648     4.8474     6.3202 </r>
       <r>     8.4831     4.7778     6.8858 </r>
       <r>     8.6015     4.0221     7.3619 </r>
       <r>     8.7199     3.6963     7.7995 </r>
       <r>     8.8383     3.8255     8.2523 </r>
       <r>     8.9567     3.9519     8.7201 </r>
       <r>     9.0750     3.9748     9.1907 </r>
       <r>     9.1934     3.5438     9.6102 </r>
       <r>     9.3118     3.0743     9.9741 </r>
       <r>     9.4302     3.1624    10.3485 </r>
       <r>     9.5485     3.1801    10.7249 </r>
       <r>     9.6669     2.6438    11.0379 </r>
       <r>     9.7853     2.2614    11.3056 </r>
       <r>     9.9037     2.4991    11.6014 </r>
       <r>    10.0221     2.7634    11.9286 </r>
       <r>    10.1404     2.6387    12.2409 </r>
       <r>    10.2588     2.5925    12.5478 </r>
       <r>    10.3772     3.0324    12.9068 </r>
       <r>    10.4956     3.6439    13.3382 </r>
       <r>    10.6140     3.6792    13.7737 </r>
       <r>    10.7323     3.3365    14.1687 </r>
       <r>    10.8507     3.4736    14.5799 </r>
       <r>    10.9691     3.9342    15.0456 </r>
       <r>    11.0875     3.9464    15.5128 </r>
       <r>    11.2058     3.4594    15.9223 </r>
       <r>    11.3242     3.0600    16.2845 </r>
       <r>    11.4426     3.2186    16.6655 </r>
       <r>    11.5610     3.7334    17.1075 </r>
       <r>    11.6794     3.9327    17.5730 </r>
       <r>    11.7977     3.6980    18.0108 </r>
       <r>    11.9161     3.8653    18.4683 </r>
       <r>    12.0345     4.8891    19.0471 </r>
       <r>    12.1529     5.9961    19.7569 </r>
       <r>    12.2712     6.6809    20.5478 </r>
       <r>    12.3896     7.1146    21.3900 </r>
       <r>    12.5080     6.9327    22.2107 </r>
       <r>    12.6264     5.9437    22.9143 </r>
       <r>    12.7448     4.9506    23.5003 </r>
       <r>    12.8631     4.5401    24.0378 </r>
       <r>    12.9815     4.4397    24.5633 </r>
       <r>    13.0999     4.2129    25.0621 </r>
       <r>    13.2183     4.2248    25.5622 </r>
       <r>    13.3367     4.7692    26.1268 </r>
       <r>    13.4550     5.0114    26.7200 </r>
       <r>    13.5734     4.8949    27.2994 </r>
       <r>    13.6918     5.0901    27.9020 </r>
       <r>    13.8102     4.9723    28.4906 </r>
       <r>    13.9285     4.1060    28.9767 </r>
       <r>    14.0469     3.1109    29.3449 </r>
       <r>    14.1653     2.7684    29.6726 </r>
       <r>    14.2837     3.1109    30.0409 </r>
       <r>    14.4021     3.4966    30.4548 </r>
       <r>    14.5204     3.1951    30.8331 </r>
       <r>    14.6388     2.5307    31.1326 </r>
       <r>    14.7572     2.3576    31.4117 </r>
       <r>    14.8756     2.3526    31.6902 </r>
       <r>    14.9940     2.1678    31.9468 </r>
       <r>    15.1123     2.1937    32.2065 </r>
       <r>    15.2307     2.3393    32.4834 </r>
       <r>    15.3491     2.5203    32.7818 </r>
       <r>    15.4675     2.9430    33.1302 </r>
       <r>    15.5858     3.5007    33.5446 </r>
       <r>    15.7042     4.2099    34.0430 </r>
       <r>    15.8226     4.6865    34.5977 </r>
       <r>    15.9410     4.4034    35.1190 </r>
       <r>    16.0594     3.6814    35.5548 </r>
       <r>    16.1777     3.3663    35.9533 </r>
       <r>    16.2961     3.5364    36.3719 </r>
       <r>    16.4145     3.6464    36.8036 </r>
       <r>    16.5329     3.2698    37.1907 </r>
       <r>    16.6512     2.7790    37.5196 </r>
       <r>    16.7696     2.9206    37.8654 </r>
       <r>    16.8880     3.4500    38.2738 </r>
       <r>    17.0064     3.7771    38.7209 </r>
       <r>    17.1248     3.6042    39.1476 </r>
       <r>    17.2431     2.9015    39.4910 </r>
       <r>    17.3615     2.2488    39.7573 </r>
       <r>    17.4799     2.1370    40.0102 </r>
       <r>    17.5983     2.2308    40.2743 </r>
       <r>    17.7167     2.2839    40.5447 </r>
       <r>    17.8350     2.3194    40.8192 </r>
       <r>    17.9534     2.2733    41.0884 </r>
       <r>    18.0718     2.0762    41.3341 </r>
       <r>    18.1902     1.8962    41.5586 </r>
       <r>    18.3085     1.9722    41.7921 </r>
       <r>    18.4269     2.1825    42.0504 </r>
       <r>    18.5453     2.0934    42.2982 </r>
       <r>    18.6637     1.7447    42.5048 </r>
       <r>    18.7821     1.4965    42.6819 </r>
       <r>    18.9004     1.4360    42.8519 </r>
       <r>    19.0188     1.3219    43.0084 </r>
       <r>    19.1372     1.1803    43.1481 </r>
       <r>    19.2556     1.1647    43.2860 </r>
       <r>    19.3739     0.9708    43.4009 </r>
       <r>    19.4923     0.6930    43.4830 </r>
       <r>    19.6107     0.6829    43.5638 </r>
       <r>    19.7291     0.8925    43.6695 </r>
       <r>    19.8475     0.9295    43.7795 </r>
       <r>    19.9658     0.5964    43.8501 </r>
       <r>    20.0842     0.3247    43.8885 </r>
       <r>    20.2026     0.4633    43.9434 </r>
       <r>    20.3210     0.6909    44.0251 </r>
       <r>    20.4394     0.6365    44.1005 </r>
       <r>    20.5577     0.4559    44.1545 </r>
       <r>    20.6761     0.4275    44.2051 </r>
       <r>    20.7945     0.5216    44.2668 </r>
       <r>    20.9129     0.5116    44.3274 </r>
       <r>    21.0312     0.4397    44.3794 </r>
       <r>    21.1496     0.4952    44.4380 </r>
       <r>    21.2680     0.4699    44.4937 </r>
       <r>    21.3864     0.4171    44.5430 </r>
       <r>    21.5048     0.6021    44.6143 </r>
       <r>    21.6231     0.8073    44.7099 </r>
       <r>    21.7415     0.7881    44.8032 </r>
       <r>    21.8599     0.6107    44.8755 </r>
       <r>    21.9783     0.5517    44.9408 </r>
       <r>    22.0967     0.7706    45.0320 </r>
       <r>    22.2150     0.9602    45.1457 </r>
       <r>    22.3334     1.0256    45.2671 </r>
       <r>    22.4518     1.0427    45.3905 </r>
       <r>    22.5702     0.9247    45.5000 </r>
       <r>    22.6885     0.8951    45.6059 </r>
       <r>    22.8069     1.1010    45.7363 </r>
       <r>    22.9253     1.2658    45.8861 </r>
       <r>    23.0437     1.0753    46.0134 </r>
       <r>    23.1621     0.7058    46.0970 </r>
       <r>    23.2804     0.4921    46.1552 </r>
       <r>    23.3988     0.5211    46.2169 </r>
       <r>    23.5172     0.7137    46.3014 </r>
       <r>    23.6356     0.8384    46.4006 </r>
       <r>    23.7539     0.8174    46.4974 </r>
       <r>    23.8723     0.9193    46.6062 </r>
       <r>    23.9907     1.1479    46.7421 </r>
       <r>    24.1091     1.0754    46.8694 </r>
       <r>    24.2275     0.6261    46.9435 </r>
       <r>    24.3458     0.2916    46.9780 </r>
       <r>    24.4642     0.2741    47.0105 </r>
       <r>    24.5826     0.4744    47.0667 </r>
       <r>    24.7010     0.8124    47.1628 </r>
       <r>    24.8194     0.9677    47.2774 </r>
       <r>    24.9377     0.6767    47.3575 </r>
       <r>    25.0561     0.3258    47.3961 </r>
       <r>    25.1745     0.2174    47.4218 </r>
       <r>    25.2929     0.2502    47.4514 </r>
       <r>    25.4112     0.4370    47.5031 </r>
       <r>    25.5296     0.5700    47.5706 </r>
       <r>    25.6480     0.5051    47.6304 </r>
       <r>    25.7664     0.5320    47.6934 </r>
       <r>    25.8848     0.6068    47.7652 </r>
       <r>    26.0031     0.5286    47.8278 </r>
       <r>    26.1215     0.4921    47.8861 </r>
       <r>    26.2399     0.5737    47.9540 </r>
       <r>    26.3583     0.6624    48.0324 </r>
       <r>    26.4766     0.7499    48.1212 </r>
       <r>    26.5950     0.8721    48.2244 </r>
       <r>    26.7134     0.9882    48.3414 </r>
       <r>    26.8318     0.9967    48.4594 </r>
       <r>    26.9502     1.0791    48.5871 </r>
       <r>    27.0685     1.3176    48.7431 </r>
       <r>    27.1869     1.4412    48.9137 </r>
       <r>    27.3053     1.3548    49.0741 </r>
       <r>    27.4237     1.2944    49.2273 </r>
       <r>    27.5421     1.2169    49.3713 </r>
       <r>    27.6604     1.0669    49.4976 </r>
       <r>    27.7788     1.0195    49.6183 </r>
       <r>    27.8972     1.0790    49.7461 </r>
       <r>    28.0156     1.2013    49.8883 </r>
       <r>    28.1339     1.1099    50.0197 </r>
       <r>    28.2523     0.8925    50.1253 </r>
       <r>    28.3707     0.9388    50.2364 </r>
       <r>    28.4891     1.0864    50.3650 </r>
       <r>    28.6075     1.1073    50.4961 </r>
       <r>    28.7258     1.1648    50.6340 </r>
       <r>    28.8442     1.1329    50.7681 </r>
       <r>    28.9626     1.0275    50.8897 </r>
       <r>    29.0810     0.9094    50.9974 </r>
       <r>    29.1994     0.7751    51.0892 </r>
       <r>    29.3177     0.8334    51.1878 </r>
       <r>    29.4361     1.1294    51.3215 </r>
       <r>    29.5545     1.4904    51.4979 </r>
       <r>    29.6729     1.7586    51.7061 </r>
       <r>    29.7912     1.5695    51.8919 </r>
       <r>    29.9096     1.0407    52.0151 </r>
       <r>    30.0280     0.8746    52.1186 </r>
       <r>    30.1464     1.0879    52.2474 </r>
       <r>    30.2648     1.2067    52.3903 </r>
       <r>    30.3831     1.1425    52.5255 </r>
       <r>    30.5015     1.1083    52.6567 </r>
       <r>    30.6199     1.1651    52.7947 </r>
       <r>    30.7383     1.2331    52.9406 </r>
       <r>    30.8566     1.3364    53.0988 </r>
       <r>    30.9750     1.4310    53.2682 </r>
       <r>    31.0934     1.3616    53.4294 </r>
       <r>    31.2118     1.3269    53.5865 </r>
       <r>    31.3302     1.4340    53.7562 </r>
       <r>    31.4485     1.4297    53.9255 </r>
       <r>    31.5669     1.3821    54.0891 </r>
       <r>    31.6853     1.3746    54.2518 </r>
       <r>    31.8037     1.4713    54.4260 </r>
       <r>    31.9221     1.5734    54.6122 </r>
       <r>    32.0404     1.4938    54.7891 </r>
       <r>    32.1588     1.3911    54.9537 </r>
       <r>    32.2772     1.4734    55.1282 </r>
       <r>    32.3956     1.6752    55.3265 </r>
       <r>    32.5139     1.7385    55.5323 </r>
       <r>    32.6323     1.7427    55.7386 </r>
       <r>    32.7507     1.9758    55.9724 </r>
       <r>    32.8691     1.9016    56.1976 </r>
       <r>    32.9875     1.3740    56.3602 </r>
       <r>    33.1058     1.1782    56.4997 </r>
       <r>    33.2242     1.3895    56.6642 </r>
       <r>    33.3426     1.5851    56.8518 </r>
       <r>    33.4610     1.7763    57.0621 </r>
       <r>    33.5794     1.9765    57.2961 </r>
       <r>    33.6977     1.9537    57.5273 </r>
       <r>    33.8161     1.8766    57.7495 </r>
       <r>    33.9345     1.7265    57.9539 </r>
       <r>    34.0529     1.6345    58.1474 </r>
       <r>    34.1712     1.7715    58.3571 </r>
       <r>    34.2896     1.9144    58.5837 </r>
       <r>    34.4080     2.0275    58.8237 </r>
       <r>    34.5264     2.0134    59.0620 </r>
       <r>    34.6448     1.8048    59.2757 </r>
       <r>    34.7631     1.5840    59.4632 </r>
       <r>    34.8815     1.2453    59.6106 </r>
       <r>    34.9999     0.9235    59.7200 </r>
       <r>    35.1183     0.7960    59.8142 </r>
       <r>    35.2366     0.7389    59.9016 </r>
       <r>    35.3550     0.5521    59.9670 </r>
       <r>    35.4734     0.2491    59.9965 </r>
       <r>    35.5918     0.0478    60.0022 </r>
       <r>    35.7102    -0.0083    60.0012 </r>
       <r>    35.8285    -0.0077    60.0003 </r>
       <r>    35.9469    -0.0020    60.0000 </r>
       <r>    36.0653    -0.0002    60.0000 </r>
       <r>    36.1837    -0.0000    60.0000 </r>
       <r>    36.3021    -0.0000    60.0000 </r>
       <r>    36.4204    -0.0000    60.0000 </r>
       <r>    36.5388    -0.0000    60.0000 </r>
       <r>    36.6572    -0.0000    60.0000 </r>
       <r>    36.7756    -0.0000    60.0000 </r>
       <r>    36.8939     0.0000    60.0000 </r>
       <r>    37.0123     0.0000    60.0000 </r>
       <r>    37.1307     0.0000    60.0000 </r>
       <r>    37.2491     0.0000    60.0000 </r>
       <r>    37.3675     0.0000    60.0000 </r>
       <r>    37.4858     0.0000    60.0000 </r>
      </set>
     </set>
    </array>
   </total>
  </dos>
 </calculation>
 <structure name="finalpos" >
  <crystal>
   <varray name="basis" >
    <v>       3.37443508       0.00000000       0.00000000 </v>
    <v>       0.00000000       3.37443508       0.00000000 </v>
    <v>       0.00000000       0.00000000       3.37443508 </v>
   </varray>
   <i name="volume">     38.42405830 </i>
   <varray name="rec_basis" >
    <v>       0.29634590       0.00000000       0.00000000 </v>
    <v>       0.00000000       0.29634590       0.00000000 </v>
    <v>       0.00000000       0.00000000       0.29634590 </v>
   </varray>
  </crystal>
  <varray name="positions" >
   <v>       0.00000000       0.00000000       0.00000000 </v>
   <v>       0.50000000       0.50000000       0.00000000 </v>
   <v>       0.50000000       0.00000000       0.50000000 </v>
   <v>       0.00000000       0.50000000       0.50000000 </v>
  </varray>
 </structure>
</modeling>
