unknown system                          
   1.00000000000000     
     3.635000    0.000000    0.000000
     0.000000    3.635000    0.000000
     0.000000    0.000000    3.635000
   Cu
     4
Direct
  0.000000  0.000000  0.000000
  0.500000  0.500000  0.000000
  0.500000  0.000000  0.500000
  0.000000  0.500000  0.500000
 
   20   20   20
 0.29727199909E+03 0.26632118067E+03 0.19311011542E+03 0.11952856612E+03 0.72843423065E+02
 0.48027850216E+02 0.28508731448E+02 0.15243397798E+02 0.12536446309E+02 0.16756001985E+02
 0.19599591574E+02 0.16756001985E+02 0.12536446309E+02 0.15243397798E+02 0.28508731448E+02
 0.48027850216E+02 0.72843423065E+02 0.11952856612E+03 0.19311011542E+03 0.26632118067E+03
 0.26632118067E+03 0.23986915685E+03 0.17702241076E+03 0.11320292304E+03 0.71527559435E+02
 0.47464032795E+02 0.27600142100E+02 0.14360053561E+02 0.11189250213E+02 0.14436851864E+02
 0.16756001985E+02 0.14436851864E+02 0.11189250213E+02 0.14360053561E+02 0.27600142100E+02
 0.47464032795E+02 0.71527559435E+02 0.11320292304E+03 0.17702241076E+03 0.23986915685E+03
 0.19311011542E+03 0.17702241076E+03 0.13808944657E+03 0.96736353802E+02 0.66340450619E+02
 0.43803759974E+02 0.24322795296E+02 0.12537488617E+02 0.94618246634E+01 0.11189250213E+02
 0.12536446309E+02 0.11189250213E+02 0.94618246634E+01 0.12537488617E+02 0.24322795296E+02
 0.43803759974E+02 0.66340450619E+02 0.96736353802E+02 0.13808944657E+03 0.17702241076E+03
 0.11952856612E+03 0.11320292304E+03 0.96736353802E+02 0.76092516773E+02 0.55391604490E+02
 0.34807289245E+02 0.19349987910E+02 0.12709002562E+02 0.12537488617E+02 0.14360053561E+02
 0.15243397798E+02 0.14360053561E+02 0.12537488617E+02 0.12709002562E+02 0.19349987910E+02
 0.34807289245E+02 0.55391604490E+02 0.76092516773E+02 0.96736353802E+02 0.11320292304E+03
 0.72843423065E+02 0.71527559435E+02 0.66340450619E+02 0.55391604490E+02 0.39053054266E+02
 0.23908422174E+02 0.17329596428E+02 0.19349987910E+02 0.24322795296E+02 0.27600142100E+02
 0.28508731448E+02 0.27600142100E+02 0.24322795296E+02 0.19349987910E+02 0.17329596428E+02
 0.23908422174E+02 0.39053054266E+02 0.55391604490E+02 0.66340450619E+02 0.71527559435E+02
 0.48027850216E+02 0.47464032795E+02 0.43803759974E+02 0.34807289245E+02 0.23908422174E+02
 0.18890724905E+02 0.23908422174E+02 0.34807289245E+02 0.43803759974E+02 0.47464032795E+02
 0.48027850216E+02 0.47464032795E+02 0.43803759974E+02 0.34807289245E+02 0.23908422174E+02
 0.18890724905E+02 0.23908422174E+02 0.34807289245E+02 0.43803759974E+02 0.47464032795E+02
 0.28508731448E+02 0.27600142100E+02 0.24322795296E+02 0.19349987910E+02 0.17329596428E+02
 0.23908422174E+02 0.39053054266E+02 0.55391604490E+02 0.66340450619E+02 0.71527559435E+02
 0.72843423065E+02 0.71527559435E+02 0.66340450619E+02 0.55391604490E+02 0.39053054266E+02
 0.23908422174E+02 0.17329596428E+02 0.19349987910E+02 0.24322795296E+02 0.27600142100E+02
 0.15243397798E+02 0.14360053561E+02 0.12537488617E+02 0.12709002562E+02 0.19349987910E+02
 0.34807289245E+02 0.55391604490E+02 0.76092516773E+02 0.96736353802E+02 0.11320292304E+03
 0.11952856612E+03 0.11320292304E+03 0.96736353802E+02 0.76092516773E+02 0.55391604490E+02
 0.34807289245E+02 0.19349987910E+02 0.12709002562E+02 0.12537488617E+02 0.14360053561E+02
 0.12536446309E+02 0.11189250213E+02 0.94618246634E+01 0.12537488617E+02 0.24322795296E+02
 0.43803759974E+02 0.66340450619E+02 0.96736353802E+02 0.13808944657E+03 0.17702241076E+03
 0.19311011542E+03 0.17702241076E+03 0.13808944657E+03 0.96736353802E+02 0.66340450619E+02
 0.43803759974E+02 0.24322795296E+02 0.12537488617E+02 0.94618246634E+01 0.11189250213E+02
 0.16756001985E+02 0.14436851864E+02 0.11189250213E+02 0.14360053561E+02 0.27600142100E+02
 0.47464032795E+02 0.71527559435E+02 0.11320292304E+03 0.17702241076E+03 0.23986915685E+03
 0.26632118067E+03 0.23986915685E+03 0.17702241076E+03 0.11320292304E+03 0.71527559435E+02
 0.47464032795E+02 0.27600142100E+02 0.14360053561E+02 0.11189250213E+02 0.14436851864E+02
 0.19599591574E+02 0.16756001985E+02 0.12536446309E+02 0.15243397798E+02 0.28508731448E+02
 0.48027850216E+02 0.72843423065E+02 0.11952856612E+03 0.19311011542E+03 0.26632118067E+03
 0.29727199909E+03 0.26632118067E+03 0.19311011542E+03 0.11952856612E+03 0.72843423065E+02
 0.48027850216E+02 0.28508731448E+02 0.15243397798E+02 0.12536446309E+02 0.16756001985E+02
 0.16756001985E+02 0.14436851864E+02 0.11189250213E+02 0.14360053561E+02 0.27600142100E+02
 0.47464032795E+02 0.71527559435E+02 0.11320292304E+03 0.17702241076E+03 0.23986915685E+03
 0.26632118067E+03 0.23986915685E+03 0.17702241076E+03 0.11320292304E+03 0.71527559435E+02
 0.47464032795E+02 0.27600142100E+02 0.14360053561E+02 0.11189250213E+02 0.14436851864E+02
 0.12536446309E+02 0.11189250213E+02 0.94618246634E+01 0.12537488617E+02 0.24322795296E+02
 0.43803759974E+02 0.66340450619E+02 0.96736353802E+02 0.13808944657E+03 0.17702241076E+03
 0.19311011542E+03 0.17702241076E+03 0.13808944657E+03 0.96736353802E+02 0.66340450619E+02
 0.43803759974E+02 0.24322795296E+02 0.12537488617E+02 0.94618246634E+01 0.11189250213E+02
 0.15243397798E+02 0.14360053561E+02 0.12537488617E+02 0.12709002562E+02 0.19349987910E+02
 0.34807289245E+02 0.55391604490E+02 0.76092516773E+02 0.96736353802E+02 0.11320292304E+03
 0.11952856612E+03 0.11320292304E+03 0.96736353802E+02 0.76092516773E+02 0.55391604490E+02
 0.34807289245E+02 0.19349987910E+02 0.12709002562E+02 0.12537488617E+02 0.14360053561E+02
 0.28508731448E+02 0.27600142100E+02 0.24322795296E+02 0.19349987910E+02 0.17329596428E+02
 0.23908422174E+02 0.39053054266E+02 0.55391604490E+02 0.66340450619E+02 0.71527559435E+02
 0.72843423065E+02 0.71527559435E+02 0.66340450619E+02 0.55391604490E+02 0.39053054266E+02
 0.23908422174E+02 0.17329596428E+02 0.19349987910E+02 0.24322795296E+02 0.27600142100E+02
 0.48027850216E+02 0.47464032795E+02 0.43803759974E+02 0.34807289245E+02 0.23908422174E+02
 0.18890724905E+02 0.23908422174E+02 0.34807289245E+02 0.43803759974E+02 0.47464032795E+02
 0.48027850216E+02 0.47464032795E+02 0.43803759974E+02 0.34807289245E+02 0.23908422174E+02
 0.18890724905E+02 0.23908422174E+02 0.34807289245E+02 0.43803759974E+02 0.47464032795E+02
 0.72843423065E+02 0.71527559435E+02 0.66340450619E+02 0.55391604490E+02 0.39053054266E+02
 0.23908422174E+02 0.17329596428E+02 0.19349987910E+02 0.24322795296E+02 0.27600142100E+02
 0.28508731448E+02 0.27600142100E+02 0.24322795296E+02 0.19349987910E+02 0.17329596428E+02
 0.23908422174E+02 0.39053054266E+02 0.55391604490E+02 0.66340450619E+02 0.71527559435E+02
 0.11952856612E+03 0.11320292304E+03 0.96736353802E+02 0.76092516773E+02 0.55391604490E+02
 0.34807289245E+02 0.19349987910E+02 0.12709002562E+02 0.12537488617E+02 0.14360053561E+02
 0.15243397798E+02 0.14360053561E+02 0.12537488617E+02 0.12709002562E+02 0.19349987910E+02
 0.34807289245E+02 0.55391604490E+02 0.76092516773E+02 0.96736353802E+02 0.11320292304E+03
 0.19311011542E+03 0.17702241076E+03 0.13808944657E+03 0.96736353802E+02 0.66340450619E+02
 0.43803759974E+02 0.24322795296E+02 0.12537488617E+02 0.94618246634E+01 0.11189250213E+02
 0.12536446309E+02 0.11189250213E+02 0.94618246634E+01 0.12537488617E+02 0.24322795296E+02
 0.43803759974E+02 0.66340450619E+02 0.96736353802E+02 0.13808944657E+03 0.17702241076E+03
 0.26632118067E+03 0.23986915685E+03 0.17702241076E+03 0.11320292304E+03 0.71527559435E+02
 0.47464032795E+02 0.27600142100E+02 0.14360053561E+02 0.11189250213E+02 0.14436851864E+02
 0.16756001985E+02 0.14436851864E+02 0.11189250213E+02 0.14360053561E+02 0.27600142100E+02
 0.47464032795E+02 0.71527559435E+02 0.11320292304E+03 0.17702241076E+03 0.23986915685E+03
 0.26632118067E+03 0.23986915685E+03 0.17702241076E+03 0.11320292304E+03 0.71527559435E+02
 0.47464032795E+02 0.27600142100E+02 0.14360053561E+02 0.11189250213E+02 0.14436851864E+02
 0.16756001985E+02 0.14436851864E+02 0.11189250213E+02 0.14360053561E+02 0.27600142100E+02
 0.47464032795E+02 0.71527559435E+02 0.11320292304E+03 0.17702241076E+03 0.23986915685E+03
 0.23986915685E+03 0.21712544903E+03 0.16286092665E+03 0.10720215660E+03 0.69826737949E+02
 0.46608998798E+02 0.26899844984E+02 0.13979793931E+02 0.10413048161E+02 0.12661474712E+02
 0.14436851864E+02 0.12661474712E+02 0.10413048161E+02 0.13979793931E+02 0.26899844984E+02
 0.46608998798E+02 0.69826737949E+02 0.10720215660E+03 0.16286092665E+03 0.21712544903E+03
 0.17702241076E+03 0.16286092665E+03 0.12846998471E+03 0.91605462384E+02 0.63838704281E+02
 0.42359910475E+02 0.24080803793E+02 0.13133755965E+02 0.97405750097E+01 0.10413048161E+02
 0.11189250213E+02 0.10413048161E+02 0.97405750097E+01 0.13133755965E+02 0.24080803793E+02
 0.42359910475E+02 0.63838704281E+02 0.91605462384E+02 0.12846998471E+03 0.16286092665E+03
 0.11320292304E+03 0.10720215660E+03 0.91605462384E+02 0.72035612041E+02 0.52318542301E+02
 0.33073264910E+02 0.19361583557E+02 0.13650514213E+02 0.13133755965E+02 0.13979793931E+02
 0.14360053561E+02 0.13979793931E+02 0.13133755965E+02 0.13650514213E+02 0.19361583557E+02
 0.33073264910E+02 0.52318542301E+02 0.72035612041E+02 0.91605462384E+02 0.10720215660E+03
 0.71527559435E+02 0.69826737949E+02 0.63838704281E+02 0.52318542301E+02 0.36227484382E+02
 0.22296245068E+02 0.16898048918E+02 0.19361583557E+02 0.24080803793E+02 0.26899844984E+02
 0.27600142100E+02 0.26899844984E+02 0.24080803793E+02 0.19361583557E+02 0.16898048918E+02
 0.22296245068E+02 0.36227484382E+02 0.52318542301E+02 0.63838704281E+02 0.69826737949E+02
 0.47464032795E+02 0.46608998798E+02 0.42359910475E+02 0.33073264910E+02 0.22296245068E+02
 0.17409271990E+02 0.22296245068E+02 0.33073264910E+02 0.42359910475E+02 0.46608998798E+02
 0.47464032795E+02 0.46608998798E+02 0.42359910475E+02 0.33073264910E+02 0.22296245068E+02
 0.17409271990E+02 0.22296245068E+02 0.33073264910E+02 0.42359910475E+02 0.46608998798E+02
 0.27600142100E+02 0.26899844984E+02 0.24080803793E+02 0.19361583557E+02 0.16898048918E+02
 0.22296245068E+02 0.36227484382E+02 0.52318542301E+02 0.63838704281E+02 0.69826737949E+02
 0.71527559435E+02 0.69826737949E+02 0.63838704281E+02 0.52318542301E+02 0.36227484382E+02
 0.22296245068E+02 0.16898048918E+02 0.19361583557E+02 0.24080803793E+02 0.26899844984E+02
 0.14360053561E+02 0.13979793931E+02 0.13133755965E+02 0.13650514213E+02 0.19361583557E+02
 0.33073264910E+02 0.52318542301E+02 0.72035612041E+02 0.91605462384E+02 0.10720215660E+03
 0.11320292304E+03 0.10720215660E+03 0.91605462384E+02 0.72035612041E+02 0.52318542301E+02
 0.33073264910E+02 0.19361583557E+02 0.13650514213E+02 0.13133755965E+02 0.13979793931E+02
 0.11189250213E+02 0.10413048161E+02 0.97405750097E+01 0.13133755965E+02 0.24080803793E+02
 0.42359910475E+02 0.63838704281E+02 0.91605462384E+02 0.12846998471E+03 0.16286092665E+03
 0.17702241076E+03 0.16286092665E+03 0.12846998471E+03 0.91605462384E+02 0.63838704281E+02
 0.42359910475E+02 0.24080803793E+02 0.13133755965E+02 0.97405750097E+01 0.10413048161E+02
 0.14436851864E+02 0.12661474712E+02 0.10413048161E+02 0.13979793931E+02 0.26899844984E+02
 0.46608998798E+02 0.69826737949E+02 0.10720215660E+03 0.16286092665E+03 0.21712544903E+03
 0.23986915685E+03 0.21712544903E+03 0.16286092665E+03 0.10720215660E+03 0.69826737949E+02
 0.46608998798E+02 0.26899844984E+02 0.13979793931E+02 0.10413048161E+02 0.12661474712E+02
 0.16756001985E+02 0.14436851864E+02 0.11189250213E+02 0.14360053561E+02 0.27600142100E+02
 0.47464032795E+02 0.71527559435E+02 0.11320292304E+03 0.17702241076E+03 0.23986915685E+03
 0.26632118067E+03 0.23986915685E+03 0.17702241076E+03 0.11320292304E+03 0.71527559435E+02
 0.47464032795E+02 0.27600142100E+02 0.14360053561E+02 0.11189250213E+02 0.14436851864E+02
 0.14436851864E+02 0.12661474712E+02 0.10413048161E+02 0.13979793931E+02 0.26899844984E+02
 0.46608998798E+02 0.69826737949E+02 0.10720215660E+03 0.16286092665E+03 0.21712544903E+03
 0.23986915685E+03 0.21712544903E+03 0.16286092665E+03 0.10720215660E+03 0.69826737949E+02
 0.46608998798E+02 0.26899844984E+02 0.13979793931E+02 0.10413048161E+02 0.12661474712E+02
 0.11189250213E+02 0.10413048161E+02 0.97405750097E+01 0.13133755965E+02 0.24080803793E+02
 0.42359910475E+02 0.63838704281E+02 0.91605462384E+02 0.12846998471E+03 0.16286092665E+03
 0.17702241076E+03 0.16286092665E+03 0.12846998471E+03 0.91605462384E+02 0.63838704281E+02
 0.42359910475E+02 0.24080803793E+02 0.13133755965E+02 0.97405750097E+01 0.10413048161E+02
 0.14360053561E+02 0.13979793931E+02 0.13133755965E+02 0.13650514213E+02 0.19361583557E+02
 0.33073264910E+02 0.52318542301E+02 0.72035612041E+02 0.91605462384E+02 0.10720215660E+03
 0.11320292304E+03 0.10720215660E+03 0.91605462384E+02 0.72035612041E+02 0.52318542301E+02
 0.33073264910E+02 0.19361583557E+02 0.13650514213E+02 0.13133755965E+02 0.13979793931E+02
 0.27600142100E+02 0.26899844984E+02 0.24080803793E+02 0.19361583557E+02 0.16898048918E+02
 0.22296245068E+02 0.36227484382E+02 0.52318542301E+02 0.63838704281E+02 0.69826737949E+02
 0.71527559435E+02 0.69826737949E+02 0.63838704281E+02 0.52318542301E+02 0.36227484382E+02
 0.22296245068E+02 0.16898048918E+02 0.19361583557E+02 0.24080803793E+02 0.26899844984E+02
 0.47464032795E+02 0.46608998798E+02 0.42359910475E+02 0.33073264910E+02 0.22296245068E+02
 0.17409271990E+02 0.22296245068E+02 0.33073264910E+02 0.42359910475E+02 0.46608998798E+02
 0.47464032795E+02 0.46608998798E+02 0.42359910475E+02 0.33073264910E+02 0.22296245068E+02
 0.17409271990E+02 0.22296245068E+02 0.33073264910E+02 0.42359910475E+02 0.46608998798E+02
 0.71527559435E+02 0.69826737949E+02 0.63838704281E+02 0.52318542301E+02 0.36227484382E+02
 0.22296245068E+02 0.16898048918E+02 0.19361583557E+02 0.24080803793E+02 0.26899844984E+02
 0.27600142100E+02 0.26899844984E+02 0.24080803793E+02 0.19361583557E+02 0.16898048918E+02
 0.22296245068E+02 0.36227484382E+02 0.52318542301E+02 0.63838704281E+02 0.69826737949E+02
 0.11320292304E+03 0.10720215660E+03 0.91605462384E+02 0.72035612041E+02 0.52318542301E+02
 0.33073264910E+02 0.19361583557E+02 0.13650514213E+02 0.13133755965E+02 0.13979793931E+02
 0.14360053561E+02 0.13979793931E+02 0.13133755965E+02 0.13650514213E+02 0.19361583557E+02
 0.33073264910E+02 0.52318542301E+02 0.72035612041E+02 0.91605462384E+02 0.10720215660E+03
 0.17702241076E+03 0.16286092665E+03 0.12846998471E+03 0.91605462384E+02 0.63838704281E+02
 0.42359910475E+02 0.24080803793E+02 0.13133755965E+02 0.97405750097E+01 0.10413048161E+02
 0.11189250213E+02 0.10413048161E+02 0.97405750097E+01 0.13133755965E+02 0.24080803793E+02
 0.42359910475E+02 0.63838704281E+02 0.91605462384E+02 0.12846998471E+03 0.16286092665E+03
 0.23986915685E+03 0.21712544903E+03 0.16286092665E+03 0.10720215660E+03 0.69826737949E+02
 0.46608998798E+02 0.26899844984E+02 0.13979793931E+02 0.10413048161E+02 0.12661474712E+02
 0.14436851864E+02 0.12661474712E+02 0.10413048161E+02 0.13979793931E+02 0.26899844984E+02
 0.46608998798E+02 0.69826737949E+02 0.10720215660E+03 0.16286092665E+03 0.21712544903E+03
 0.19311011542E+03 0.17702241076E+03 0.13808944657E+03 0.96736353802E+02 0.66340450619E+02
 0.43803759974E+02 0.24322795296E+02 0.12537488617E+02 0.94618246634E+01 0.11189250213E+02
 0.12536446309E+02 0.11189250213E+02 0.94618246634E+01 0.12537488617E+02 0.24322795296E+02
 0.43803759974E+02 0.66340450619E+02 0.96736353802E+02 0.13808944657E+03 0.17702241076E+03
 0.17702241076E+03 0.16286092665E+03 0.12846998471E+03 0.91605462384E+02 0.63838704281E+02
 0.42359910475E+02 0.24080803793E+02 0.13133755965E+02 0.97405750097E+01 0.10413048161E+02
 0.11189250213E+02 0.10413048161E+02 0.97405750097E+01 0.13133755965E+02 0.24080803793E+02
 0.42359910475E+02 0.63838704281E+02 0.91605462384E+02 0.12846998471E+03 0.16286092665E+03
 0.13808944657E+03 0.12846998471E+03 0.10476159154E+03 0.78299691204E+02 0.56315280401E+02
 0.37291153509E+02 0.22468272102E+02 0.14197866747E+02 0.10849691899E+02 0.97405750097E+01
 0.94618246634E+01 0.97405750097E+01 0.10849691899E+02 0.14197866747E+02 0.22468272102E+02
 0.37291153509E+02 0.56315280401E+02 0.78299691204E+02 0.10476159154E+03 0.12846998471E+03
 0.96736353802E+02 0.91605462384E+02 0.78299691204E+02 0.61451969134E+02 0.44069211861E+02
 0.28448405538E+02 0.18929786796E+02 0.15349168056E+02 0.14197866747E+02 0.13133755965E+02
 0.12537488617E+02 0.13133755965E+02 0.14197866747E+02 0.15349168056E+02 0.18929786796E+02
 0.28448405538E+02 0.44069211861E+02 0.61451969134E+02 0.78299691204E+02 0.91605462384E+02
 0.66340450619E+02 0.63838704281E+02 0.56315280401E+02 0.44069211861E+02 0.29717177636E+02
 0.19209295731E+02 0.16238314378E+02 0.18929786796E+02 0.22468272102E+02 0.24080803793E+02
 0.24322795296E+02 0.24080803793E+02 0.22468272102E+02 0.18929786796E+02 0.16238314378E+02
 0.19209295731E+02 0.29717177636E+02 0.44069211861E+02 0.56315280401E+02 0.63838704281E+02
 0.43803759974E+02 0.42359910475E+02 0.37291153509E+02 0.28448405538E+02 0.19209295731E+02
 0.15188026430E+02 0.19209295731E+02 0.28448405538E+02 0.37291153509E+02 0.42359910475E+02
 0.43803759974E+02 0.42359910475E+02 0.37291153509E+02 0.28448405538E+02 0.19209295731E+02
 0.15188026430E+02 0.19209295731E+02 0.28448405538E+02 0.37291153509E+02 0.42359910475E+02
 0.24322795296E+02 0.24080803793E+02 0.22468272102E+02 0.18929786796E+02 0.16238314378E+02
 0.19209295731E+02 0.29717177636E+02 0.44069211861E+02 0.56315280401E+02 0.63838704281E+02
 0.66340450619E+02 0.63838704281E+02 0.56315280401E+02 0.44069211861E+02 0.29717177636E+02
 0.19209295731E+02 0.16238314378E+02 0.18929786796E+02 0.22468272102E+02 0.24080803793E+02
 0.12537488617E+02 0.13133755965E+02 0.14197866747E+02 0.15349168056E+02 0.18929786796E+02
 0.28448405538E+02 0.44069211861E+02 0.61451969134E+02 0.78299691204E+02 0.91605462384E+02
 0.96736353802E+02 0.91605462384E+02 0.78299691204E+02 0.61451969134E+02 0.44069211861E+02
 0.28448405538E+02 0.18929786796E+02 0.15349168056E+02 0.14197866747E+02 0.13133755965E+02
 0.94618246634E+01 0.97405750097E+01 0.10849691899E+02 0.14197866747E+02 0.22468272102E+02
 0.37291153509E+02 0.56315280401E+02 0.78299691204E+02 0.10476159154E+03 0.12846998471E+03
 0.13808944657E+03 0.12846998471E+03 0.10476159154E+03 0.78299691204E+02 0.56315280401E+02
 0.37291153509E+02 0.22468272102E+02 0.14197866747E+02 0.10849691899E+02 0.97405750097E+01
 0.11189250213E+02 0.10413048161E+02 0.97405750097E+01 0.13133755965E+02 0.24080803793E+02
 0.42359910475E+02 0.63838704281E+02 0.91605462384E+02 0.12846998471E+03 0.16286092665E+03
 0.17702241076E+03 0.16286092665E+03 0.12846998471E+03 0.91605462384E+02 0.63838704281E+02
 0.42359910475E+02 0.24080803793E+02 0.13133755965E+02 0.97405750097E+01 0.10413048161E+02
 0.12536446309E+02 0.11189250213E+02 0.94618246634E+01 0.12537488617E+02 0.24322795296E+02
 0.43803759974E+02 0.66340450619E+02 0.96736353802E+02 0.13808944657E+03 0.17702241076E+03
 0.19311011542E+03 0.17702241076E+03 0.13808944657E+03 0.96736353802E+02 0.66340450619E+02
 0.43803759974E+02 0.24322795296E+02 0.12537488617E+02 0.94618246634E+01 0.11189250213E+02
 0.11189250213E+02 0.10413048161E+02 0.97405750097E+01 0.13133755965E+02 0.24080803793E+02
 0.42359910475E+02 0.63838704281E+02 0.91605462384E+02 0.12846998471E+03 0.16286092665E+03
 0.17702241076E+03 0.16286092665E+03 0.12846998471E+03 0.91605462384E+02 0.63838704281E+02
 0.42359910475E+02 0.24080803793E+02 0.13133755965E+02 0.97405750097E+01 0.10413048161E+02
 0.94618246634E+01 0.97405750097E+01 0.10849691899E+02 0.14197866747E+02 0.22468272102E+02
 0.37291153509E+02 0.56315280401E+02 0.78299691204E+02 0.10476159154E+03 0.12846998471E+03
 0.13808944657E+03 0.12846998471E+03 0.10476159154E+03 0.78299691204E+02 0.56315280401E+02
 0.37291153509E+02 0.22468272102E+02 0.14197866747E+02 0.10849691899E+02 0.97405750097E+01
 0.12537488617E+02 0.13133755965E+02 0.14197866747E+02 0.15349168056E+02 0.18929786796E+02
 0.28448405538E+02 0.44069211861E+02 0.61451969134E+02 0.78299691204E+02 0.91605462384E+02
 0.96736353802E+02 0.91605462384E+02 0.78299691204E+02 0.61451969134E+02 0.44069211861E+02
 0.28448405538E+02 0.18929786796E+02 0.15349168056E+02 0.14197866747E+02 0.13133755965E+02
 0.24322795296E+02 0.24080803793E+02 0.22468272102E+02 0.18929786796E+02 0.16238314378E+02
 0.19209295731E+02 0.29717177636E+02 0.44069211861E+02 0.56315280401E+02 0.63838704281E+02
 0.66340450619E+02 0.63838704281E+02 0.56315280401E+02 0.44069211861E+02 0.29717177636E+02
 0.19209295731E+02 0.16238314378E+02 0.18929786796E+02 0.22468272102E+02 0.24080803793E+02
 0.43803759974E+02 0.42359910475E+02 0.37291153509E+02 0.28448405538E+02 0.19209295731E+02
 0.15188026430E+02 0.19209295731E+02 0.28448405538E+02 0.37291153509E+02 0.42359910475E+02
 0.43803759974E+02 0.42359910475E+02 0.37291153509E+02 0.28448405538E+02 0.19209295731E+02
 0.15188026430E+02 0.19209295731E+02 0.28448405538E+02 0.37291153509E+02 0.42359910475E+02
 0.66340450619E+02 0.63838704281E+02 0.56315280401E+02 0.44069211861E+02 0.29717177636E+02
 0.19209295731E+02 0.16238314378E+02 0.18929786796E+02 0.22468272102E+02 0.24080803793E+02
 0.24322795296E+02 0.24080803793E+02 0.22468272102E+02 0.18929786796E+02 0.16238314378E+02
 0.19209295731E+02 0.29717177636E+02 0.44069211861E+02 0.56315280401E+02 0.63838704281E+02
 0.96736353802E+02 0.91605462384E+02 0.78299691204E+02 0.61451969134E+02 0.44069211861E+02
 0.28448405538E+02 0.18929786796E+02 0.15349168056E+02 0.14197866747E+02 0.13133755965E+02
 0.12537488617E+02 0.13133755965E+02 0.14197866747E+02 0.15349168056E+02 0.18929786796E+02
 0.28448405538E+02 0.44069211861E+02 0.61451969134E+02 0.78299691204E+02 0.91605462384E+02
 0.13808944657E+03 0.12846998471E+03 0.10476159154E+03 0.78299691204E+02 0.56315280401E+02
 0.37291153509E+02 0.22468272102E+02 0.14197866747E+02 0.10849691899E+02 0.97405750097E+01
 0.94618246634E+01 0.97405750097E+01 0.10849691899E+02 0.14197866747E+02 0.22468272102E+02
 0.37291153509E+02 0.56315280401E+02 0.78299691204E+02 0.10476159154E+03 0.12846998471E+03
 0.17702241076E+03 0.16286092665E+03 0.12846998471E+03 0.91605462384E+02 0.63838704281E+02
 0.42359910475E+02 0.24080803793E+02 0.13133755965E+02 0.97405750097E+01 0.10413048161E+02
 0.11189250213E+02 0.10413048161E+02 0.97405750097E+01 0.13133755965E+02 0.24080803793E+02
 0.42359910475E+02 0.63838704281E+02 0.91605462384E+02 0.12846998471E+03 0.16286092665E+03
 0.11952856612E+03 0.11320292304E+03 0.96736353802E+02 0.76092516773E+02 0.55391604490E+02
 0.34807289245E+02 0.19349987910E+02 0.12709002562E+02 0.12537488617E+02 0.14360053561E+02
 0.15243397798E+02 0.14360053561E+02 0.12537488617E+02 0.12709002562E+02 0.19349987910E+02
 0.34807289245E+02 0.55391604490E+02 0.76092516773E+02 0.96736353802E+02 0.11320292304E+03
 0.11320292304E+03 0.10720215660E+03 0.91605462384E+02 0.72035612041E+02 0.52318542301E+02
 0.33073264910E+02 0.19361583557E+02 0.13650514213E+02 0.13133755965E+02 0.13979793931E+02
 0.14360053561E+02 0.13979793931E+02 0.13133755965E+02 0.13650514213E+02 0.19361583557E+02
 0.33073264910E+02 0.52318542301E+02 0.72035612041E+02 0.91605462384E+02 0.10720215660E+03
 0.96736353802E+02 0.91605462384E+02 0.78299691204E+02 0.61451969134E+02 0.44069211861E+02
 0.28448405538E+02 0.18929786796E+02 0.15349168056E+02 0.14197866747E+02 0.13133755965E+02
 0.12537488617E+02 0.13133755965E+02 0.14197866747E+02 0.15349168056E+02 0.18929786796E+02
 0.28448405538E+02 0.44069211861E+02 0.61451969134E+02 0.78299691204E+02 0.91605462384E+02
 0.76092516773E+02 0.72035612041E+02 0.61451969134E+02 0.47588708043E+02 0.33246162981E+02
 0.22561515520E+02 0.17579506618E+02 0.16299251751E+02 0.15349168056E+02 0.13650514213E+02
 0.12709002562E+02 0.13650514213E+02 0.15349168056E+02 0.16299251751E+02 0.17579506618E+02
 0.22561515520E+02 0.33246162981E+02 0.47588708043E+02 0.61451969134E+02 0.72035612041E+02
 0.55391604490E+02 0.52318542301E+02 0.44069211861E+02 0.33246162981E+02 0.23469302570E+02
 0.17661186754E+02 0.16337936521E+02 0.17579506618E+02 0.18929786796E+02 0.19361583557E+02
 0.19349987910E+02 0.19361583557E+02 0.18929786796E+02 0.17579506618E+02 0.16337936521E+02
 0.17661186754E+02 0.23469302570E+02 0.33246162981E+02 0.44069211861E+02 0.52318542301E+02
 0.34807289245E+02 0.33073264910E+02 0.28448405538E+02 0.22561515520E+02 0.17661186754E+02
 0.15756912970E+02 0.17661186754E+02 0.22561515520E+02 0.28448405538E+02 0.33073264910E+02
 0.34807289245E+02 0.33073264910E+02 0.28448405538E+02 0.22561515520E+02 0.17661186754E+02
 0.15756912970E+02 0.17661186754E+02 0.22561515520E+02 0.28448405538E+02 0.33073264910E+02
 0.19349987910E+02 0.19361583557E+02 0.18929786796E+02 0.17579506618E+02 0.16337936521E+02
 0.17661186754E+02 0.23469302570E+02 0.33246162981E+02 0.44069211861E+02 0.52318542301E+02
 0.55391604490E+02 0.52318542301E+02 0.44069211861E+02 0.33246162981E+02 0.23469302570E+02
 0.17661186754E+02 0.16337936521E+02 0.17579506618E+02 0.18929786796E+02 0.19361583557E+02
 0.12709002562E+02 0.13650514213E+02 0.15349168056E+02 0.16299251751E+02 0.17579506618E+02
 0.22561515520E+02 0.33246162981E+02 0.47588708043E+02 0.61451969134E+02 0.72035612041E+02
 0.76092516773E+02 0.72035612041E+02 0.61451969134E+02 0.47588708043E+02 0.33246162981E+02
 0.22561515520E+02 0.17579506618E+02 0.16299251751E+02 0.15349168056E+02 0.13650514213E+02
 0.12537488617E+02 0.13133755965E+02 0.14197866747E+02 0.15349168056E+02 0.18929786796E+02
 0.28448405538E+02 0.44069211861E+02 0.61451969134E+02 0.78299691204E+02 0.91605462384E+02
 0.96736353802E+02 0.91605462384E+02 0.78299691204E+02 0.61451969134E+02 0.44069211861E+02
 0.28448405538E+02 0.18929786796E+02 0.15349168056E+02 0.14197866747E+02 0.13133755965E+02
 0.14360053561E+02 0.13979793931E+02 0.13133755965E+02 0.13650514213E+02 0.19361583557E+02
 0.33073264910E+02 0.52318542301E+02 0.72035612041E+02 0.91605462384E+02 0.10720215660E+03
 0.11320292304E+03 0.10720215660E+03 0.91605462384E+02 0.72035612041E+02 0.52318542301E+02
 0.33073264910E+02 0.19361583557E+02 0.13650514213E+02 0.13133755965E+02 0.13979793931E+02
 0.15243397798E+02 0.14360053561E+02 0.12537488617E+02 0.12709002562E+02 0.19349987910E+02
 0.34807289245E+02 0.55391604490E+02 0.76092516773E+02 0.96736353802E+02 0.11320292304E+03
 0.11952856612E+03 0.11320292304E+03 0.96736353802E+02 0.76092516773E+02 0.55391604490E+02
 0.34807289245E+02 0.19349987910E+02 0.12709002562E+02 0.12537488617E+02 0.14360053561E+02
 0.14360053561E+02 0.13979793931E+02 0.13133755965E+02 0.13650514213E+02 0.19361583557E+02
 0.33073264910E+02 0.52318542301E+02 0.72035612041E+02 0.91605462384E+02 0.10720215660E+03
 0.11320292304E+03 0.10720215660E+03 0.91605462384E+02 0.72035612041E+02 0.52318542301E+02
 0.33073264910E+02 0.19361583557E+02 0.13650514213E+02 0.13133755965E+02 0.13979793931E+02
 0.12537488617E+02 0.13133755965E+02 0.14197866747E+02 0.15349168056E+02 0.18929786796E+02
 0.28448405538E+02 0.44069211861E+02 0.61451969134E+02 0.78299691204E+02 0.91605462384E+02
 0.96736353802E+02 0.91605462384E+02 0.78299691204E+02 0.61451969134E+02 0.44069211861E+02
 0.28448405538E+02 0.18929786796E+02 0.15349168056E+02 0.14197866747E+02 0.13133755965E+02
 0.12709002562E+02 0.13650514213E+02 0.15349168056E+02 0.16299251751E+02 0.17579506618E+02
 0.22561515520E+02 0.33246162981E+02 0.47588708043E+02 0.61451969134E+02 0.72035612041E+02
 0.76092516773E+02 0.72035612041E+02 0.61451969134E+02 0.47588708043E+02 0.33246162981E+02
 0.22561515520E+02 0.17579506618E+02 0.16299251751E+02 0.15349168056E+02 0.13650514213E+02
 0.19349987910E+02 0.19361583557E+02 0.18929786796E+02 0.17579506618E+02 0.16337936521E+02
 0.17661186754E+02 0.23469302570E+02 0.33246162981E+02 0.44069211861E+02 0.52318542301E+02
 0.55391604490E+02 0.52318542301E+02 0.44069211861E+02 0.33246162981E+02 0.23469302570E+02
 0.17661186754E+02 0.16337936521E+02 0.17579506618E+02 0.18929786796E+02 0.19361583557E+02
 0.34807289245E+02 0.33073264910E+02 0.28448405538E+02 0.22561515520E+02 0.17661186754E+02
 0.15756912970E+02 0.17661186754E+02 0.22561515520E+02 0.28448405538E+02 0.33073264910E+02
 0.34807289245E+02 0.33073264910E+02 0.28448405538E+02 0.22561515520E+02 0.17661186754E+02
 0.15756912970E+02 0.17661186754E+02 0.22561515520E+02 0.28448405538E+02 0.33073264910E+02
 0.55391604490E+02 0.52318542301E+02 0.44069211861E+02 0.33246162981E+02 0.23469302570E+02
 0.17661186754E+02 0.16337936521E+02 0.17579506618E+02 0.18929786796E+02 0.19361583557E+02
 0.19349987910E+02 0.19361583557E+02 0.18929786796E+02 0.17579506618E+02 0.16337936521E+02
 0.17661186754E+02 0.23469302570E+02 0.33246162981E+02 0.44069211861E+02 0.52318542301E+02
 0.76092516773E+02 0.72035612041E+02 0.61451969134E+02 0.47588708043E+02 0.33246162981E+02
 0.22561515520E+02 0.17579506618E+02 0.16299251751E+02 0.15349168056E+02 0.13650514213E+02
 0.12709002562E+02 0.13650514213E+02 0.15349168056E+02 0.16299251751E+02 0.17579506618E+02
 0.22561515520E+02 0.33246162981E+02 0.47588708043E+02 0.61451969134E+02 0.72035612041E+02
 0.96736353802E+02 0.91605462384E+02 0.78299691204E+02 0.61451969134E+02 0.44069211861E+02
 0.28448405538E+02 0.18929786796E+02 0.15349168056E+02 0.14197866747E+02 0.13133755965E+02
 0.12537488617E+02 0.13133755965E+02 0.14197866747E+02 0.15349168056E+02 0.18929786796E+02
 0.28448405538E+02 0.44069211861E+02 0.61451969134E+02 0.78299691204E+02 0.91605462384E+02
 0.11320292304E+03 0.10720215660E+03 0.91605462384E+02 0.72035612041E+02 0.52318542301E+02
 0.33073264910E+02 0.19361583557E+02 0.13650514213E+02 0.13133755965E+02 0.13979793931E+02
 0.14360053561E+02 0.13979793931E+02 0.13133755965E+02 0.13650514213E+02 0.19361583557E+02
 0.33073264910E+02 0.52318542301E+02 0.72035612041E+02 0.91605462384E+02 0.10720215660E+03
 0.72843423065E+02 0.71527559435E+02 0.66340450619E+02 0.55391604490E+02 0.39053054266E+02
 0.23908422174E+02 0.17329596428E+02 0.19349987910E+02 0.24322795296E+02 0.27600142100E+02
 0.28508731448E+02 0.27600142100E+02 0.24322795296E+02 0.19349987910E+02 0.17329596428E+02
 0.23908422174E+02 0.39053054266E+02 0.55391604490E+02 0.66340450619E+02 0.71527559435E+02
 0.71527559435E+02 0.69826737949E+02 0.63838704281E+02 0.52318542301E+02 0.36227484382E+02