   4   4   0   0
  0.1200752E+02  0.3635000E-09  0.3635000E-09  0.3635000E-09  0.5000000E-15
  1.000000000000000E-004
  CAR 
 unknown system                          
     26.77327754    -13.05717895  301     12.36244620      1.00000000
    -13.057  0.0000E+00  0.0000E+00
    -12.924  0.0000E+00  0.0000E+00
    -12.792  0.0000E+00  0.0000E+00
    -12.659 -0.9150E-27 -0.1215E-27
    -12.526 -0.2239E-22 -0.2973E-23
    -12.393 -0.2252E-18 -0.2990E-19
    -12.261 -0.9286E-15 -0.1233E-15
    -12.128 -0.1513E-11 -0.2010E-12
    -11.995 -0.1029E-08 -0.1368E-09
    -11.862 -0.2823E-06 -0.3761E-07
    -11.729 -0.3076E-04 -0.4121E-05
    -11.597 -0.1292E-02 -0.1757E-03
    -11.464 -0.1937E-01 -0.2747E-02
    -11.331 -0.7420E-01 -0.1260E-01
    -11.198  0.2047E+00  0.1458E-01
    -11.066  0.1233E+01  0.1782E+00
    -10.933  0.1346E+01  0.3569E+00
    -10.800  0.3052E+00  0.3974E+00
    -10.667 -0.7389E-01  0.3876E+00
    -10.535 -0.2517E-01  0.3843E+00
    -10.402 -0.1939E-02  0.3840E+00
    -10.269 -0.5233E-04  0.3840E+00
    -10.136 -0.5412E-06  0.3840E+00
    -10.004 -0.2218E-08  0.3840E+00
     -9.871 -0.3661E-11  0.3840E+00
     -9.738 -0.2567E-11  0.3840E+00
     -9.605 -0.1355E-08  0.3840E+00
     -9.472 -0.2876E-06  0.3840E+00
     -9.340 -0.2411E-04  0.3840E+00
     -9.207 -0.7683E-03  0.3839E+00
     -9.074 -0.8349E-02  0.3828E+00
     -8.941 -0.1631E-01  0.3806E+00
     -8.809  0.1113E+00  0.3954E+00
     -8.676  0.3622E+00  0.4435E+00
     -8.543  0.2676E+00  0.4790E+00
     -8.410  0.6405E-02  0.4799E+00
     -8.278 -0.9196E-01  0.4677E+00
     -8.145  0.2147E+00  0.4962E+00
     -8.012  0.1199E+01  0.6554E+00
     -7.879  0.1192E+01  0.8136E+00
     -7.746  0.1006E+01  0.9472E+00
     -7.614  0.2654E+01  0.1300E+01
     -7.481  0.2318E+01  0.1607E+01
     -7.348  0.3648E+00  0.1656E+01
     -7.215 -0.1403E+00  0.1637E+01
     -7.083 -0.3634E-01  0.1632E+01
     -6.950 -0.2474E-02  0.1632E+01
     -6.817 -0.7865E-04  0.1632E+01
     -6.684 -0.8395E-03  0.1632E+01
     -6.552 -0.1451E-01  0.1630E+01
     -6.419 -0.7004E-01  0.1621E+01
     -6.286  0.1195E+00  0.1637E+01
     -6.153  0.1099E+01  0.1782E+01
     -6.020  0.1436E+01  0.1973E+01
     -5.888  0.4048E+00  0.2027E+01
     -5.755 -0.1434E+00  0.2008E+01
     -5.622  0.1723E+00  0.2031E+01
     -5.489  0.1261E+01  0.2198E+01
     -5.357  0.1404E+01  0.2384E+01
     -5.224  0.3097E+00  0.2426E+01
     -5.091 -0.5631E-01  0.2418E+01
     -4.958  0.3664E+00  0.2467E+01
     -4.826  0.7515E+00  0.2566E+01
     -4.693  0.4518E+00  0.2626E+01
     -4.560  0.5563E+00  0.2700E+01
     -4.427  0.1657E+01  0.2920E+01
     -4.294  0.1820E+01  0.3162E+01
     -4.162  0.8830E+00  0.3279E+01
     -4.029  0.3946E+00  0.3332E+01
     -3.896  0.7160E-02  0.3333E+01
     -3.763  0.6256E-02  0.3333E+01
     -3.631  0.1582E+01  0.3543E+01
     -3.498  0.3187E+01  0.3967E+01
     -3.365  0.1915E+01  0.4221E+01
     -3.232  0.1690E+01  0.4445E+01
     -3.100  0.3232E+01  0.4874E+01
     -2.967  0.3260E+01  0.5307E+01
     -2.834  0.2363E+01  0.5621E+01
     -2.701  0.1274E+01  0.5790E+01
     -2.568  0.1092E+01  0.5935E+01
     -2.436  0.3461E+01  0.6395E+01
     -2.303  0.4550E+01  0.6999E+01
     -2.170  0.3756E+01  0.7497E+01
     -2.037  0.3263E+01  0.7931E+01
     -1.905  0.2658E+01  0.8283E+01
     -1.772  0.2448E+01  0.8608E+01
     -1.639  0.3044E+01  0.9013E+01
     -1.506  0.2937E+01  0.9403E+01
     -1.374  0.1922E+01  0.9658E+01
     -1.241  0.1711E+01  0.9885E+01
     -1.108  0.1557E+01  0.1009E+02
     -0.975  0.1311E+01  0.1027E+02
     -0.843  0.2402E+01  0.1058E+02
     -0.710  0.2923E+01  0.1097E+02
     -0.577  0.2789E+01  0.1134E+02
     -0.444  0.4429E+01  0.1193E+02
     -0.311  0.5084E+01  0.1261E+02
     -0.179  0.2939E+01  0.1300E+02
     -0.046  0.1096E+01  0.1314E+02
      0.087  0.2065E+01  0.1342E+02
      0.220  0.2986E+01  0.1381E+02
      0.352  0.2508E+01  0.1415E+02
      0.485  0.3143E+01  0.1456E+02
      0.618  0.2243E+01  0.1486E+02
      0.751  0.4123E+00  0.1492E+02
      0.883  0.1502E+01  0.1511E+02
      1.016  0.3872E+01  0.1563E+02
      1.149  0.3133E+01  0.1604E+02
      1.282  0.1006E+01  0.1618E+02
      1.415  0.1561E+01  0.1639E+02
      1.547  0.3282E+01  0.1682E+02
      1.680  0.2894E+01  0.1721E+02
      1.813  0.2654E+01  0.1756E+02
      1.946  0.4129E+01  0.1811E+02
      2.078  0.5573E+01  0.1885E+02
      2.211  0.3370E+01  0.1929E+02
      2.344  0.6866E+00  0.1938E+02
      2.477  0.1222E+01  0.1955E+02
      2.609  0.1658E+01  0.1977E+02
      2.742  0.2191E+01  0.2006E+02
      2.875  0.4710E+01  0.2068E+02
      3.008  0.5166E+01  0.2137E+02
      3.141  0.4833E+01  0.2201E+02
      3.273  0.3295E+01  0.2245E+02
      3.406  0.5998E+00  0.2253E+02
      3.539 -0.2744E+00  0.2249E+02
      3.672  0.3145E-01  0.2250E+02
      3.804  0.1210E+01  0.2266E+02
      3.937  0.2415E+01  0.2298E+02
      4.070  0.2597E+01  0.2332E+02
      4.203  0.1902E+01  0.2357E+02
      4.335  0.7729E+00  0.2368E+02
      4.468  0.4145E+00  0.2373E+02
      4.601  0.1631E+01  0.2395E+02
      4.734  0.5445E+01  0.2467E+02
      4.867  0.7538E+01  0.2567E+02
      4.999  0.5136E+01  0.2635E+02
      5.132  0.1511E+01  0.2655E+02
      5.265  0.1254E+01  0.2672E+02
      5.398  0.4780E+01  0.2736E+02
      5.530  0.5308E+01  0.2806E+02
      5.663  0.2315E+01  0.2837E+02
      5.796  0.1269E+01  0.2854E+02
      5.929  0.8691E+00  0.2865E+02
      6.061  0.8206E+00  0.2876E+02
      6.194  0.3140E+01  0.2918E+02
      6.327  0.4746E+01  0.2981E+02
      6.460  0.3161E+01  0.3023E+02
      6.593  0.1809E+01  0.3047E+02
      6.725  0.2557E+01  0.3081E+02
      6.858  0.3010E+01  0.3121E+02
      6.991  0.3857E+01  0.3172E+02
      7.124  0.5095E+01  0.3239E+02
      7.256  0.3315E+01  0.3283E+02
      7.389  0.5425E+00  0.3291E+02
      7.522  0.2686E+00  0.3294E+02
      7.655  0.1932E+01  0.3320E+02
      7.787  0.5188E+01  0.3389E+02
      7.920  0.6577E+01  0.3476E+02
      8.053  0.2941E+01  0.3515E+02
      8.186  0.1452E+01  0.3534E+02
      8.318  0.1702E+01  0.3557E+02
      8.451  0.7465E+00  0.3567E+02
      8.584  0.1021E+01  0.3581E+02
      8.717  0.1266E+01  0.3597E+02
      8.850  0.4427E+00  0.3603E+02
      8.982  0.1597E+01  0.3624E+02
      9.115  0.2919E+01  0.3663E+02
      9.248  0.1917E+01  0.3689E+02
      9.381  0.2263E+01  0.3719E+02
      9.513  0.3009E+01  0.3759E+02
      9.646  0.2784E+01  0.3796E+02
      9.779  0.2134E+01  0.3824E+02
      9.912  0.1957E+01  0.3850E+02
     10.044  0.3692E+01  0.3899E+02
     10.177  0.2960E+01  0.3938E+02
     10.310  0.1563E+01  0.3959E+02
     10.443  0.2804E+01  0.3996E+02
     10.576  0.4726E+01  0.4059E+02
     10.708  0.4362E+01  0.4117E+02
     10.841  0.3940E+01  0.4169E+02
     10.974  0.4677E+01  0.4231E+02
     11.107  0.2944E+01  0.4270E+02
     11.239  0.3197E+00  0.4275E+02
     11.372  0.6482E-01  0.4275E+02
     11.505  0.6346E+00  0.4284E+02
     11.638  0.5624E+00  0.4291E+02
     11.770  0.1045E+01  0.4305E+02
     11.903  0.1389E+01  0.4324E+02
     12.036  0.3657E+00  0.4328E+02
     12.169  0.4031E+00  0.4334E+02
     12.302  0.2836E+01  0.4371E+02
     12.434  0.4664E+01  0.4433E+02
     12.567  0.3468E+01  0.4479E+02
     12.700  0.3010E+01  0.4519E+02
     12.833  0.1681E+01  0.4542E+02
     12.965 -0.4150E-01  0.4541E+02
     13.098 -0.1886E+00  0.4539E+02
     13.231  0.1373E+01  0.4557E+02
     13.364  0.3560E+01  0.4604E+02
     13.496  0.2883E+01  0.4642E+02
     13.629  0.9359E+00  0.4655E+02
     13.762 -0.1895E-02  0.4655E+02
     13.895  0.5073E+00  0.4662E+02
     14.028  0.2192E+01  0.4691E+02
     14.160  0.3553E+01  0.4738E+02
     14.293  0.4162E+01  0.4793E+02
     14.426  0.2457E+01  0.4826E+02
     14.559  0.5952E+00  0.4834E+02
     14.691  0.9011E+00  0.4846E+02
     14.824  0.2223E+01  0.4875E+02
     14.957  0.2463E+01  0.4908E+02
     15.090  0.1709E+01  0.4931E+02
     15.222  0.1559E+01  0.4951E+02
     15.355  0.1614E+01  0.4973E+02
     15.488  0.1222E+01  0.4989E+02
     15.621  0.1172E+00  0.4990E+02
     15.754  0.4205E+00  0.4996E+02
     15.886  0.3088E+01  0.5037E+02
     16.019  0.5243E+01  0.5107E+02
     16.152  0.4508E+01  0.5166E+02
     16.285  0.4287E+01  0.5223E+02
     16.417  0.4082E+01  0.5278E+02
     16.550  0.2295E+01  0.5308E+02
     16.683  0.2092E+01  0.5336E+02
     16.816  0.2033E+01  0.5363E+02
     16.948  0.1897E+01  0.5388E+02
     17.081  0.3710E+01  0.5437E+02
     17.214  0.5111E+01  0.5505E+02
     17.347  0.2662E+01  0.5540E+02
     17.480  0.1909E+01  0.5566E+02
     17.612  0.3877E+01  0.5617E+02
     17.745  0.3401E+01  0.5662E+02
     17.878  0.3204E+01  0.5705E+02
     18.011  0.2903E+01  0.5743E+02
     18.143  0.7411E+00  0.5753E+02
     18.276 -0.1517E+00  0.5751E+02
     18.409 -0.6371E-01  0.5750E+02
     18.542 -0.6165E-02  0.5750E+02
     18.674 -0.8835E-02  0.5750E+02
     18.807 -0.4654E-01  0.5750E+02
     18.940  0.3889E-01  0.5750E+02
     19.073  0.5952E+00  0.5758E+02
     19.205  0.1140E+01  0.5773E+02
     19.338  0.1919E+01  0.5799E+02
     19.471  0.2366E+01  0.5830E+02
     19.604  0.1200E+01  0.5846E+02
     19.737  0.6567E+00  0.5855E+02
     19.869  0.5719E+00  0.5862E+02
     20.002  0.4037E+00  0.5868E+02
     20.135  0.3640E+00  0.5873E+02
     20.268  0.1926E+00  0.5875E+02
     20.400  0.4676E+00  0.5881E+02
     20.533  0.7418E+00  0.5891E+02
     20.666  0.2911E+00  0.5895E+02
     20.799 -0.2362E-01  0.5895E+02
     20.931 -0.2094E-01  0.5894E+02
     21.064 -0.2278E-02  0.5894E+02
     21.197 -0.8205E-04  0.5894E+02
     21.330 -0.3784E-05  0.5894E+02
     21.463 -0.1112E-03  0.5894E+02
     21.595 -0.1651E-02  0.5894E+02
     21.728 -0.6389E-02  0.5894E+02
     21.861  0.1314E-01  0.5894E+02
     21.994  0.6962E-01  0.5895E+02
     22.126  0.9859E-01  0.5897E+02
     22.259  0.4913E+00  0.5903E+02
     22.392  0.1058E+01  0.5917E+02
     22.525  0.7949E+00  0.5928E+02
     22.657  0.3268E+00  0.5932E+02
     22.790  0.4311E+00  0.5938E+02
     22.923  0.7072E+00  0.5947E+02
     23.056  0.8708E+00  0.5959E+02
     23.189  0.7027E+00  0.5968E+02
     23.321  0.1630E+00  0.5970E+02
     23.454 -0.3899E-01  0.5970E+02
     23.587 -0.1476E-01  0.5970E+02
     23.720 -0.4766E-02  0.5970E+02
     23.852 -0.2414E-01  0.5969E+02
     23.985 -0.6896E-02  0.5969E+02
     24.118  0.3563E+00  0.5974E+02
     24.251  0.8022E+00  0.5985E+02
     24.383  0.4569E+00  0.5991E+02
     24.516 -0.2967E-02  0.5991E+02
     24.649  0.4515E-01  0.5991E+02
     24.782  0.3315E+00  0.5996E+02
     24.915  0.3079E+00  0.6000E+02
     25.047  0.5117E-01  0.6000E+02
     25.180 -0.1855E-01  0.6000E+02
     25.313 -0.4842E-02  0.6000E+02
     25.446 -0.3231E-03  0.6000E+02
     25.578 -0.7690E-05  0.6000E+02
     25.711 -0.7057E-07  0.6000E+02
     25.844 -0.2573E-09  0.6000E+02
     25.977 -0.3783E-12  0.6000E+02
     26.109 -0.1606E-15  0.6000E+02
     26.242  0.0000E+00  0.6000E+02
     26.375  0.0000E+00  0.6000E+02
     26.508  0.0000E+00  0.6000E+02
     26.641  0.0000E+00  0.6000E+02
     26.773  0.0000E+00  0.6000E+02
