    4    4    1    1
  0.1200752E+02  0.3635000E-09  0.3635000E-09  0.3635000E-09  0.5000000E-15
  1.000000000000000E-004
  CAR 
 unknown system                          
     44     10     30
 
  0.0000000E+00  0.0000000E+00  0.0000000E+00  0.8000000E-02
    1       -5.422194   1.000000
    2        0.749919   1.000000
    3        0.749919   1.000000
    4        0.749919   1.000000
    5        4.653956   1.000000
    6        4.653956   1.000000
    7        4.653956   1.000000
    8        6.220750   1.000000
    9        6.220750   1.000000
   10        6.220750   1.000000
   11       15.780642  -0.000000
   12       15.780642  -0.000000
   13       15.780642  -0.000000
   14       15.780642  -0.000000
   15       15.780642  -0.000000
   16       15.780642  -0.000000
   17       20.006028   0.000000
   18       20.006028   0.000000
   19       20.006028   0.000000
   20       20.006028   0.000000
   21       20.006028   0.000000
   22       20.006028   0.000000
   23       20.143556   0.000000
   24       20.143556   0.000000
   25       22.000804   0.000000
   26       22.000804   0.000000
   27       22.312422   0.000000
   28       22.312422   0.000000
   29       22.312422   0.000000
   30       24.098081   0.000000
 
  0.2000000E+00  0.0000000E+00  0.0000000E+00  0.4800000E-01
    1       -4.943523   1.000000
    2       -3.106932   1.000000
    3        0.554190   1.000000
    4        1.207546   1.000000
    5        2.588184   1.000000
    6        2.588184   1.000000
    7        2.887653   1.000000
    8        4.755000   1.000000
    9        4.755000   1.000000
   10        6.684453   1.000000
   11        6.684453   1.000000
   12        6.875345   1.000000
   13        6.875345   1.000000
   14        7.746186   1.000000
   15        7.746186   1.000000
   16        9.298771   1.000000
   17        9.298771   1.000000
   18        9.975910   1.000000
   19       13.534917  -0.000000
   20       13.534917  -0.000000
   21       13.975698  -0.000000
   22       13.975698  -0.000000
   23       16.255068  -0.000000
   24       16.255068  -0.000000
   25       22.325932   0.000000
   26       22.325932   0.000000
   27       22.492718   0.000000
   28       22.768355   0.000000
   29       22.889329   0.000000
   30       24.773278   0.000000
 
  0.4000000E+00  0.0000000E+00  0.0000000E+00  0.4800000E-01
    1       -8.704461   1.000000
    2       -3.660230   1.000000
    3       -2.552791   1.000000
    4       -1.987794   1.000000
    5       -1.693007   1.000000
    6       -1.357892   1.000000
    7       -1.357892   1.000000
    8       -0.978385   1.000000
    9        4.427732   1.000000
   10        4.427732   1.000000
   11        4.711518   1.000000
   12        4.711518   1.000000
   13        6.180772   1.000000
   14        6.180772   1.000000
   15        6.968421   1.000000
   16        6.968421   1.000000
   17        7.091771   1.000000
   18        7.091771   1.000000
   19        8.135419   1.000000
   20        8.135419   1.000000
   21        9.352136   1.000000
   22        9.352136   1.000000
   23       10.461916   1.000000
   24       10.461916   1.000000
   25       12.210724   0.978687
   26       12.210724   0.978687
   27       14.838932  -0.000000
   28       17.444609  -0.000000
   29       17.444609  -0.000000
   30       19.318444   0.000000
 
  0.2000000E+00  0.2000000E+00  0.0000000E+00  0.9600000E-01
    1       -4.512542   1.000000
    2        0.180199   1.000000
    3        0.180199   1.000000
    4        0.181480   1.000000
    5        1.654400   1.000000
    6        1.654400   1.000000
    7        5.343057   1.000000
    8        5.508309   1.000000
    9        5.508309   1.000000
   10        6.321581   1.000000
   11        6.804603   1.000000
   12        6.804603   1.000000
   13        7.197122   1.000000
   14        7.843413   1.000000
   15        7.843413   1.000000
   16        9.685011   1.000000
   17        9.984600   1.000000
   18        9.984600   1.000000
   19       10.567017   1.000000
   20       11.463590   1.000000
   21       14.006289  -0.000000
   22       14.006289  -0.000000
   23       14.821609  -0.000000
   24       14.821609  -0.000000
   25       16.664175  -0.000000
   26       19.450635   0.000000
   27       19.722167   0.000000
   28       20.447175   0.000000
   29       23.073556   0.000000
   30       24.202948   0.000000
 
  0.4000000E+00  0.2000000E+00  0.0000000E+00  0.1920000E+00
    1       -5.480984   1.000000
    2       -3.231583   1.000000
    3       -2.468866   1.000000
    4       -1.897703   1.000000
    5       -1.196273   1.000000
    6        1.469384   1.000000
    7        1.825839   1.000000
    8        2.466362   1.000000
    9        2.837599   1.000000
   10        3.129976   1.000000
   11        3.970917   1.000000
   12        4.905358   1.000000
   13        6.361953   1.000000
   14        6.614663   1.000000
   15        7.595614   1.000000
   16        8.608668   1.000000
   17        9.030428   1.000000
   18        9.436010   1.000000
   19        9.679819   1.000000
   20       10.932917   1.000000
   21       13.348709  -0.000000
   22       14.191610  -0.000000
   23       14.217322  -0.000000
   24       15.364495  -0.000000
   25       15.902239  -0.000000
   26       16.419684  -0.000000
   27       17.575778  -0.000000
   28       17.581403  -0.000000
   29       17.917808   0.000000
   30       19.367411   0.000000
 
  0.4000000E+00  0.4000000E+00  0.0000000E+00  0.9600000E-01
    1       -7.607540   1.000000
    2       -7.607540   1.000000
    3       -6.127420   1.000000
    4       -6.127420   1.000000
    5       -2.000316   1.000000
    6       -1.467707   1.000000
    7       -0.796174   1.000000
    8       -0.539722   1.000000
    9        0.043838   1.000000
   10        0.043838   1.000000
   11        1.073319   1.000000
   12        1.073319   1.000000
   13        1.845723   1.000000
   14        3.020239   1.000000
   15        5.453769   1.000000
   16        5.453769   1.000000
   17        7.766617   1.000000
   18        9.521470   1.000000
   19       10.019613   1.000000
   20       10.983645   1.000000
   21       10.983645   1.000000
   22       12.336485   0.608831
   23       12.336485   0.608831
   24       13.363992  -0.000000
   25       14.628769  -0.000000
   26       14.899200  -0.000000
   27       17.200449  -0.000000
   28       17.200449  -0.000000
   29       17.585339  -0.000000
   30       17.788779  -0.000000
 
  0.2000000E+00  0.2000000E+00  0.2000000E+00  0.6400000E-01
    1       -7.650099   1.000000
    2       -7.650099   1.000000
    3       -7.650099   1.000000
    4       -4.130782   1.000000
    5       -0.253911   1.000000
    6       -0.253911   1.000000
    7       -0.253911   1.000000
    8        2.106365   1.000000
    9        2.106365   1.000000
   10        2.106365   1.000000
   11        4.130923   1.000000
   12        4.130923   1.000000
   13        4.130923   1.000000
   14        5.779029   1.000000
   15        5.779029   1.000000
   16        5.779029   1.000000
   17        7.843385   1.000000
   18        7.843385   1.000000
   19        9.042198   1.000000
   20        9.042198   1.000000
   21        9.042198   1.000000
   22       11.805579   1.000296
   23       11.805579   1.000296
   24       11.805579   1.000296
   25       12.391969   0.376577
   26       12.391969   0.376577
   27       12.391969   0.376577
   28       15.973599  -0.000000
   29       17.068008  -0.000000
   30       17.068008  -0.000000
 
  0.4000000E+00  0.2000000E+00  0.2000000E+00  0.1920000E+00
    1      -11.057179   1.000000
    2       -2.987186   1.000000
    3       -2.817507   1.000000
    4       -2.391888   1.000000
    5       -2.391888   1.000000
    6       -2.171301   1.000000
    7       -2.171301   1.000000
    8       -0.716872   1.000000
    9        0.951216   1.000000
   10        0.951216   1.000000
   11        2.838761   1.000000
   12        2.838761   1.000000
   13        3.819432   1.000000
   14        4.830923   1.000000
   15        4.830923   1.000000
   16        4.994575   1.000000
   17        6.141525   1.000000
   18        7.062940   1.000000
   19        7.062940   1.000000
   20       10.700067   1.000000
   21       10.798421   1.000000
   22       12.653660  -0.029558
   23       12.653660  -0.029558
   24       13.274312  -0.000000
   25       15.118832  -0.000000
   26       16.284661  -0.000000
   27       16.284661  -0.000000
   28       16.899632  -0.000000
   29       17.137020  -0.000000
   30       17.137020  -0.000000
 
  0.4000000E+00  0.4000000E+00  0.2000000E+00  0.1920000E+00
    1       -8.006851   1.000000
    2       -4.384438   1.000000
    3       -3.549524   1.000000
    4       -3.549524   1.000000
    5       -3.119640   1.000000
    6       -1.699075   1.000000
    7       -1.594075   1.000000
    8       -0.883296   1.000000
    9       -0.468924   1.000000
   10       -0.468924   1.000000
   11        0.450223   1.000000
   12        0.450223   1.000000
   13        2.001965   1.000000
   14        3.060531   1.000000
   15        4.696352   1.000000
   16        4.696352   1.000000
   17        5.366625   1.000000
   18        6.270983   1.000000
   19        7.851092   1.000000
   20        7.851092   1.000000
   21       10.048334   1.000000
   22       10.304773   1.000000
   23       10.532285   1.000000
   24       10.532285   1.000000
   25       14.324588  -0.000000
   26       15.892510  -0.000000
   27       16.049739  -0.000000
   28       16.049739  -0.000000
   29       16.665603  -0.000000
   30       17.880070   0.000000
 
  0.4000000E+00  0.4000000E+00  0.4000000E+00  0.6400000E-01
    1       -4.834507   1.000000
    2       -0.390921   1.000000
    3       -0.335635   1.000000
    4       -0.335635   1.000000
    5       -0.335635   1.000000
    6        1.479517   1.000000
    7        1.479517   1.000000
    8        1.479517   1.000000
    9        2.006577   1.000000
   10        2.006577   1.000000
   11        2.039949   1.000000
   12        2.039949   1.000000
   13        2.039949   1.000000
   14        3.181663   1.000000
   15        3.181663   1.000000
   16        3.181663   1.000000
   17        5.357269   1.000000
   18        5.357269   1.000000
   19        5.357269   1.000000
   20        7.184720   1.000000
   21        8.237782   1.000000
   22        8.237782   1.000000
   23        8.237782   1.000000
   24       10.940412   1.000000
   25       10.940412   1.000000
   26       12.382071   0.417403
   27       12.382071   0.417403
   28       12.382071   0.417403
   29       19.105103   0.000000
   30       19.105103   0.000000
