 vasp.6.2.0 18Jan21 (build Mar 17 2021 09:06:54) complex                        
  
 executed on             LinuxIFC date 2021.08.03  10:14:58
 serial version


--------------------------------------------------------------------------------------------------------


 INCAR:
   ENCUT = 100.000000
   SIGMA = 0.200000
   EDIFF = 1.00e-06
   GGA = PE
   PREC = normal
   IBRION = -1
   ICHARG = 1
   ISMEAR = 1
   KPAR = 1
   NBANDS = 30
   NSW = 0
   NCORE = 1
   LCHARG = .TRUE.

 POTCAR:    PAW_PBE Cu 22Jun2005                  
 POTCAR:    PAW_PBE Cu 22Jun2005                  
   SHA256 =  0e71e558f37a4e8407882b4609ceaae59938afaad9ced71dfe8490308a0ab630 Cu/POTCAR             
   COPYR  = (c) Copyright 22Jun2005 Georg Kresse                                                    
   COPYR  = This file is part of the software VASP. Any use, copying, and all other rights are regul
   COPYR  = If you do not have a valid VASP license, you may not use, copy or distribute this file. 
   VRHFIN =Cu: d10 p1                                                                               
   LEXCH  = PE                                                                                      
   EATOM  =  1390.9808 eV,  102.2342 Ry                                                             
                                                                                                    
   TITEL  = PAW_PBE Cu 22Jun2005                                                                    
   LULTRA =        F    use ultrasoft PP ?                                                          
   IUNSCR =        1    unscreen: 0-lin 1-nonlin 2-no                                               
   RPACOR =    2.000    partial core radius                                                         
   POMASS =   63.546; ZVAL   =   11.000    mass and valenz                                          
   RCORE  =    2.300    outmost cutoff radius                                                       
   RWIGS  =    2.200; RWIGS  =    1.164    wigner-seitz radius (au A)                               
   ENMAX  =  295.446; ENMIN  =  221.585 eV                                                          
   ICORE  =        3    local potential                                                             
   LCOR   =        T    correct aug charges                                                         
   LPAW   =        T    paw PP                                                                      
   EAUG   =  586.980                                                                                
   DEXC   =    0.000                                                                                
   RMAX   =    2.344    core radius for proj-oper                                                   
   RAUG   =    1.300    factor for augmentation sphere                                              
   RDEP   =    2.302    radius for radial grids                                                     
   RDEPT  =    1.771    core radius for aug-charge                                                  
                                                                                                    
   Atomic configuration                                                                             
    9 entries                                                                                       
     n  l   j            E        occ.                                                              
     1  0  0.50     -8850.2468   2.0000                                                             
     2  0  0.50     -1062.3498   2.0000                                                             
     2  1  1.50      -916.8226   6.0000                                                             
     3  0  0.50      -114.6929   2.0000                                                             
     3  1  1.50       -72.1325   6.0000                                                             
     3  2  2.50        -5.0394  10.0000                                                             
     4  0  0.50        -4.6097   1.0000                                                             
     4  1  0.50        -4.0817   0.0000                                                             
     4  3  2.50        -1.3606   0.0000                                                             
   Description                                                                                      
     l       E           TYP  RCUT    TYP  RCUT                                                     
     2     -5.0393973     23  2.200                                                                 
     2     10.8846608     23  2.200                                                                 
     0     -4.6097109     23  2.200                                                                 
     0      8.2520465     23  2.200                                                                 
     1     -2.7211652     23  2.200                                                                 
     1     21.7055443     23  2.200                                                                 
     3      2.7211652     23  2.300                                                                 
  local pseudopotential read in
  partial core-charges read in
  partial kinetic energy density read in
  atomic valenz-charges read in
  non local Contribution for L=           2  read in
    real space projection operators read in
  non local Contribution for L=           2  read in
    real space projection operators read in
  non local Contribution for L=           0  read in
    real space projection operators read in
  non local Contribution for L=           0  read in
    real space projection operators read in
  non local Contribution for L=           1  read in
    real space projection operators read in
  non local Contribution for L=           1  read in
    real space projection operators read in
    PAW grid and wavefunctions read in
 
   number of l-projection  operators is LMAX  =           6
   number of lm-projection operators is LMMAX =          18
 
  PAW_PBE Cu 22Jun2005                  :
 energy of atom  1       EATOM=-1390.9808
 kinetic energy error for atom=   35.0474 (will be added to EATOM!!)
 
 
 POSCAR: Cu
  positions in cartesian coordinates
  No initial velocities read in
 exchange correlation table for  LEXCH =        8
   RHO(1)=    0.500       N(1)  =     2000
   RHO(2)=  100.500       N(2)  =     4000
 


--------------------------------------------------------------------------------------------------------


 ion  position               nearest neighbor table
   1  0.000  0.000  0.000-   2 2.57   3 2.57   4 2.57   3 2.57   4 2.57   2 2.57   4 2.57   4 2.57
                             2 2.57   3 2.57   3 2.57   2 2.57
   2  0.500  0.500  0.000-   1 2.57   3 2.57   4 2.57   3 2.57   4 2.57   1 2.57   3 2.57   3 2.57
                             1 2.57   4 2.57   4 2.57   1 2.57
   3  0.500  0.000  0.500-   1 2.57   2 2.57   4 2.57   1 2.57   2 2.57   2 2.57   4 2.57   2 2.57
                             1 2.57   4 2.57   1 2.57   4 2.57
   4  0.000  0.500  0.500-   1 2.57   2 2.57   3 2.57   1 2.57   2 2.57   1 2.57   3 2.57   1 2.57
                             2 2.57   3 2.57   2 2.57   3 2.57
 
  LATTYP: Found a simple cubic cell.
 ALAT       =     3.6350000000
  
  Lattice vectors:
  
 A1 = (   3.6350000000,   0.0000000000,   0.0000000000)
 A2 = (   0.0000000000,   3.6350000000,   0.0000000000)
 A3 = (   0.0000000000,   0.0000000000,   3.6350000000)


Analysis of symmetry for initial positions (statically):
=====================================================================
 Subroutine PRICEL returns following result:
 
  LATTYP: Found a face centered cubic cell.
 ALAT       =     3.6350000000
  
  Lattice vectors:
  
 A1 = (   1.8175000000,  -1.8175000000,   0.0000000000)
 A2 = (   1.8175000000,   0.0000000000,   1.8175000000)
 A3 = (   0.0000000000,  -1.8175000000,   1.8175000000)
 
   4 primitive cells build up your supercell.
 

 Routine SETGRP: Setting up the symmetry group for a 
 simple cubic supercell.


 Subroutine GETGRP returns: Found 48 space group operations
 (whereof 48 operations were pure point group operations)
 out of a pool of 48 trial point group operations.


The static configuration has the point symmetry O_h .


Analysis of symmetry for dynamics (positions and initial velocities):
=====================================================================
 Subroutine PRICEL returns following result:
 
  LATTYP: Found a face centered cubic cell.
 ALAT       =     3.6350000000
  
  Lattice vectors:
  
 A1 = (   1.8175000000,  -1.8175000000,   0.0000000000)
 A2 = (   1.8175000000,   0.0000000000,   1.8175000000)
 A3 = (   0.0000000000,  -1.8175000000,   1.8175000000)
 
   4 primitive cells build up your supercell.
 

 Routine SETGRP: Setting up the symmetry group for a 
 simple cubic supercell.


 Subroutine GETGRP returns: Found 48 space group operations
 (whereof 48 operations were pure point group operations)
 out of a pool of 48 trial point group operations.


The dynamic configuration has the point symmetry O_h .


 Subroutine INISYM returns: Found 48 space group operations
 (whereof 48 operations are pure point group operations),
 and found     4 'primitive' translations


----------------------------------------------------------------------------------------

                                     Primitive cell                                     

  volume of cell :      12.0075

  direct lattice vectors                    reciprocal lattice vectors
     1.817500000 -1.817500000  0.000000000     0.275103164 -0.275103164 -0.275103164
     1.817500000  0.000000000  1.817500000     0.275103164  0.275103164  0.275103164
     0.000000000 -1.817500000  1.817500000    -0.275103164 -0.275103164  0.275103164

  length of vectors
     2.570333150  2.570333150  2.570333150     0.476492657  0.476492657  0.476492657

  position of ions in fractional coordinates (direct lattice)
     0.000000000  0.000000000  0.000000000

  ion indices of the primitive-cell ions
   primitive index   ion index
                 1           1

----------------------------------------------------------------------------------------

 
 
 KPOINTS: KPOINTS created by Atomic Simulation Env

Automatic generation of k-mesh.
 Grid dimensions read from file:
 generate k-points for:    5    5    5

 Generating k-lattice:

  Cartesian coordinates                     Fractional coordinates (reciprocal lattice)
     0.055020633  0.000000000  0.000000000     0.200000000  0.000000000  0.000000000
     0.000000000  0.055020633  0.000000000     0.000000000  0.200000000  0.000000000
     0.000000000  0.000000000  0.055020633     0.000000000  0.000000000  0.200000000

  Length of vectors
     0.055020633  0.055020633  0.055020633

  Shift w.r.t. Gamma in fractional coordinates (k-lattice)
     0.000000000  0.000000000  0.000000000

 
 Subroutine IBZKPT returns following result:
 ===========================================
 
 Found     10 irreducible k-points:
 
 Following reciprocal coordinates:
            Coordinates               Weight
  0.000000  0.000000  0.000000      1.000000
  0.200000  0.000000  0.000000      6.000000
  0.400000  0.000000  0.000000      6.000000
  0.200000  0.200000  0.000000     12.000000
  0.400000  0.200000  0.000000     24.000000
  0.400000  0.400000  0.000000     12.000000
  0.200000  0.200000  0.200000      8.000000
  0.400000  0.200000  0.200000     24.000000
  0.400000  0.400000  0.200000     24.000000
  0.400000  0.400000  0.400000      8.000000
 
 Following cartesian coordinates:
            Coordinates               Weight
  0.000000  0.000000  0.000000      1.000000
  0.055021  0.000000  0.000000      6.000000
  0.110041  0.000000  0.000000      6.000000
  0.055021  0.055021  0.000000     12.000000
  0.110041  0.055021  0.000000     24.000000
  0.110041  0.110041  0.000000     12.000000
  0.055021  0.055021  0.055021      8.000000
  0.110041  0.055021  0.055021     24.000000
  0.110041  0.110041  0.055021     24.000000
  0.110041  0.110041  0.110041      8.000000
 


--------------------------------------------------------------------------------------------------------




 Dimension of arrays:
   k-points           NKPTS =     10   k-points in BZ     NKDIM =     10   number of bands    NBANDS=     30
   number of dos      NEDOS =    301   number of ions     NIONS =      4
   non local maximal  LDIM  =      6   non local SUM 2l+1 LMDIM =     18
   total plane-waves  NPLWV =   1000
   max r-space proj   IRMAX =      1   max aug-charges    IRDMAX=    803
   dimension x,y,z NGX =    10 NGY =   10 NGZ =   10
   dimension x,y,z NGXF=    20 NGYF=   20 NGZF=   20
   support grid    NGXF=    20 NGYF=   20 NGZF=   20
   ions per type =               4
   NGX,Y,Z   is equivalent  to a cutoff of   4.57,  4.57,  4.57 a.u.
   NGXF,Y,Z  is equivalent  to a cutoff of   9.15,  9.15,  9.15 a.u.

 SYSTEM =  unknown system                          
 POSCAR =  Cu                                      

 Startparameter for this run:
   NWRITE =      2    write-flag & timer
   PREC   = normal    normal or accurate (medium, high low for compatibility)
   ISTART =      1    job   : 0-new  1-cont  2-samecut
   ICHARG =      1    charge: 1-file 2-atom 10-const
   ISPIN  =      1    spin polarized calculation?
   LNONCOLLINEAR =      F non collinear calculations
   LSORBIT =      F    spin-orbit coupling
   INIWAV =      1    electr: 0-lowe 1-rand  2-diag
   LASPH  =      F    aspherical Exc in radial PAW
   METAGGA=      F    non-selfconsistent MetaGGA calc.

 Electronic Relaxation 1
   ENCUT  =  100.0 eV   7.35 Ry    2.71 a.u.   2.96  2.96  2.96*2*pi/ulx,y,z
   ENINI  =  100.0     initial cutoff
   ENAUG  =  587.0 eV  augmentation charge cutoff
   NELM   =     60;   NELMIN=  2; NELMDL=  0     # of ELM steps 
   EDIFF  = 0.1E-05   stopping-criterion for ELM
   LREAL  =      F    real-space projection
   NLSPLINE    = F    spline interpolate recip. space projectors
   LCOMPAT=      F    compatible to vasp.4.4
   GGA_COMPAT  = T    GGA compatible to vasp.4.4-vasp.4.6
   LMAXPAW     = -100 max onsite density
   LMAXMIX     =    2 max onsite mixed and CHGCAR
   VOSKOWN=      0    Vosko Wilk Nusair interpolation
   ROPT   =    0.00000
 Ionic relaxation
   EDIFFG = 0.1E-04   stopping-criterion for IOM
   NSW    =      0    number of steps for IOM
   NBLOCK =      1;   KBLOCK =      1    inner block; outer block 
   IBRION =     -1    ionic relax: 0-MD 1-quasi-New 2-CG
   NFREE  =      0    steps in history (QN), initial steepest desc. (CG)
   ISIF   =      2    stress and relaxation
   IWAVPR =      0    prediction:  0-non 1-charg 2-wave 3-comb
   ISYM   =      2    0-nonsym 1-usesym 2-fastsym
   LCORR  =      T    Harris-Foulkes like correction to forces

   POTIM  = 0.5000    time-step for ionic-motion
   TEIN   =    0.0    initial temperature
   TEBEG  =    0.0;   TEEND  =   0.0 temperature during run
   SMASS  =  -3.00    Nose mass-parameter (am)
   estimated Nose-frequenzy (Omega)   =  0.10E-29 period in steps = 0.13E+47 mass=  -0.302E-27a.u.
   SCALEE = 1.0000    scale energy and forces
   NPACO  =    256;   APACO  = 16.0  distance and # of slots for P.C.
   PSTRESS=    0.0 pullay stress

  Mass of Ions in am
   POMASS =  63.55
  Ionic Valenz
   ZVAL   =  11.00
  Atomic Wigner-Seitz radii
   RWIGS  =  -1.00
  virtual crystal weights 
   VCA    =   1.00
   NELECT =      44.0000    total number of electrons
   NUPDOWN=      -1.0000    fix difference up-down

 DOS related values:
   EMIN   =  10.00;   EMAX   =-10.00  energy-range for DOS
   EFERMI =   0.00
   ISMEAR =     1;   SIGMA  =   0.20  broadening in eV -4-tet -1-fermi 0-gaus

 Electronic relaxation 2 (details)
   IALGO  =     38    algorithm
   LDIAG  =      T    sub-space diagonalisation (order eigenvalues)
   LSUBROT=      F    optimize rotation matrix (better conditioning)
   TURBO    =      0    0=normal 1=particle mesh
   IRESTART =      0    0=no restart 2=restart with 2 vectors
   NREBOOT  =      0    no. of reboots
   NMIN     =      0    reboot dimension
   EREF     =   0.00    reference energy to select bands
   IMIX   =      4    mixing-type and parameters
     AMIX     =   0.40;   BMIX     =  1.00
     AMIX_MAG =   1.60;   BMIX_MAG =  1.00
     AMIN     =   0.10
     WC   =   100.;   INIMIX=   1;  MIXPRE=   1;  MAXMIX= -45

 Intra band minimization:
   WEIMIN = 0.0000     energy-eigenvalue tresh-hold
   EBREAK =  0.83E-08  absolut break condition
   DEPER  =   0.30     relativ break condition  

   TIME   =   0.40     timestep for ELM

  volume/ion in A,a.u.               =      12.01        81.03
  Fermi-wavevector in a.u.,A,eV,Ry     =   1.589967  3.004601 34.395439  2.527993
  Thomas-Fermi vector in A             =   2.688734
 
 Write flags
   LWAVE        =      T    write WAVECAR
   LDOWNSAMPLE  =      F    k-point downsampling of WAVECAR
   LCHARG       =      T    write CHGCAR
   LVTOT        =      F    write LOCPOT, total local potential
   LVHAR        =      F    write LOCPOT, Hartree potential only
   LELF         =      F    write electronic localiz. function (ELF)
   LORBIT       =      0    0 simple, 1 ext, 2 COOP (PROOUT), +10 PAW based schemes


 Dipole corrections
   LMONO  =      F    monopole corrections only (constant potential shift)
   LDIPOL =      F    correct potential (dipole corrections)
   IDIPOL =      0    1-x, 2-y, 3-z, 4-all directions 
   EPSILON=  1.0000000 bulk dielectric constant

 Exchange correlation treatment:
   GGA     =    PE    GGA type
   LEXCH   =     8    internal setting for exchange type
   VOSKOWN=      0    Vosko Wilk Nusair interpolation
   LHFCALC =     F    Hartree Fock is set to
   LHFONE  =     F    Hartree Fock one center treatment
   AEXX    =    0.0000 exact exchange contribution

 Linear response parameters
   LEPSILON=     F    determine dielectric tensor
   LRPA    =     F    only Hartree local field effects (RPA)
   LNABLA  =     F    use nabla operator in PAW spheres
   LVEL    =     F    velocity operator in full k-point grid
   LINTERFAST=   F  fast interpolation
   KINTER  =     0    interpolate to denser k-point grid
   CSHIFT  =0.1000    complex shift for real part using Kramers Kronig
   OMEGAMAX=  -1.0    maximum frequency
   DEG_THRESHOLD= 0.2000000E-02 threshold for treating states as degnerate
   RTIME   =   -0.100 relaxation time in fs
  (WPLASMAI=    0.000 imaginary part of plasma frequency in eV, 0.658/RTIME)
   DFIELD  = 0.0000000 0.0000000 0.0000000 field for delta impulse in time
 
 Orbital magnetization related:
   ORBITALMAG=     F  switch on orbital magnetization
   LCHIMAG   =     F  perturbation theory with respect to B field
   DQ        =  0.001000  dq finite difference perturbation B field
   LLRAUG    =     F  two centre corrections for induced B field



--------------------------------------------------------------------------------------------------------


 Static calculation
 charge density and potential will be updated during run
 non-spin polarized calculation
 Variant of blocked Davidson
 Davidson routine will perform the subspace rotation
 perform sub-space diagonalisation
    after iterative eigenvector-optimisation
 modified Broyden-mixing scheme, WC =      100.0
 initial mixing is a Kerker type mixing with AMIX =  0.4000 and BMIX =      1.0000
 Hartree-type preconditioning will be used
 using additional bands            8
 reciprocal scheme for non local part
 use partial core corrections
 calculate Harris-corrections to forces 
   (improved forces if not selfconsistent)
 use gradient corrections 
 use of overlap-Matrix (Vanderbilt PP)
 Methfessel and Paxton  Order N= 1 SIGMA  =   0.20


--------------------------------------------------------------------------------------------------------


  energy-cutoff  :      100.00
  volume of cell :       48.03
      direct lattice vectors                 reciprocal lattice vectors
     3.635000000  0.000000000  0.000000000     0.275103164  0.000000000  0.000000000
     0.000000000  3.635000000  0.000000000     0.000000000  0.275103164  0.000000000
     0.000000000  0.000000000  3.635000000     0.000000000  0.000000000  0.275103164

  length of vectors
     3.635000000  3.635000000  3.635000000     0.275103164  0.275103164  0.275103164


 
 old parameters found on file WAVECAR:
  energy-cutoff  :      100.00
  volume of cell :       48.03
      direct lattice vectors                 reciprocal lattice vectors
     3.635000000  0.000000000  0.000000000     0.275103164  0.000000000  0.000000000
     0.000000000  3.635000000  0.000000000     0.000000000  0.275103164  0.000000000
     0.000000000  0.000000000  3.635000000     0.000000000  0.000000000  0.275103164

  length of vectors

 
 k-points in units of 2pi/SCALE and weight: KPOINTS created by Atomic Simulation Env
   0.00000000  0.00000000  0.00000000       0.008
   0.05502063  0.00000000  0.00000000       0.048
   0.11004127  0.00000000  0.00000000       0.048
   0.05502063  0.05502063  0.00000000       0.096
   0.11004127  0.05502063  0.00000000       0.192
   0.11004127  0.11004127  0.00000000       0.096
   0.05502063  0.05502063  0.05502063       0.064
   0.11004127  0.05502063  0.05502063       0.192
   0.11004127  0.11004127  0.05502063       0.192
   0.11004127  0.11004127  0.11004127       0.064
 
 k-points in reciprocal lattice and weights: KPOINTS created by Atomic Simulation Env
   0.00000000  0.00000000  0.00000000       0.008
   0.20000000  0.00000000  0.00000000       0.048
   0.40000000  0.00000000  0.00000000       0.048
   0.20000000  0.20000000  0.00000000       0.096
   0.40000000  0.20000000  0.00000000       0.192
   0.40000000  0.40000000  0.00000000       0.096
   0.20000000  0.20000000  0.20000000       0.064
   0.40000000  0.20000000  0.20000000       0.192
   0.40000000  0.40000000  0.20000000       0.192
   0.40000000  0.40000000  0.40000000       0.064
 
 position of ions in fractional coordinates (direct lattice) 
   0.00000000  0.00000000  0.00000000
   0.50000000  0.50000000  0.00000000
   0.50000000  0.00000000  0.50000000
   0.00000000  0.50000000  0.50000000
 
 position of ions in cartesian coordinates  (Angst):
   0.00000000  0.00000000  0.00000000
   1.81750000  1.81750000  0.00000000
   1.81750000  0.00000000  1.81750000
   0.00000000  1.81750000  1.81750000
 


--------------------------------------------------------------------------------------------------------


 k-point   1 :   0.0000 0.0000 0.0000  plane waves:      93
 k-point   2 :   0.2000 0.0000 0.0000  plane waves:     102
 k-point   3 :   0.4000 0.0000 0.0000  plane waves:     110
 k-point   4 :   0.2000 0.2000 0.0000  plane waves:     102
 k-point   5 :   0.4000 0.2000 0.0000  plane waves:     106
 k-point   6 :   0.4000 0.4000 0.0000  plane waves:     112
 k-point   7 :   0.2000 0.2000 0.2000  plane waves:     111
 k-point   8 :   0.4000 0.2000 0.2000  plane waves:     110
 k-point   9 :   0.4000 0.4000 0.2000  plane waves:     113
 k-point  10 :   0.4000 0.4000 0.4000  plane waves:     112

 maximum number of plane-waves:       113
 maximum index in each direction: 
   IXMAX=    2   IYMAX=    2   IZMAX=    2
   IXMIN=   -3   IYMIN=   -3   IZMIN=   -3


 total amount of memory used by VASP MPI-rank0    31570. kBytes
=======================================================================

   base      :      30000. kBytes
   nonl-proj :        169. kBytes
   grid      :        451. kBytes
   one-center:         62. kBytes
   wavefun   :        888. kBytes
 
     INWAV:  cpu time    0.0020: real time    0.0020
 Broyden mixing: mesh for mixing (old mesh)
   NGX =  5   NGY =  5   NGZ =  5
  (NGX  = 20   NGY  = 20   NGZ  = 20)
  gives a total of    125 points

 initial charge density was supplied:
 number of electron      44.0004996 magnetization 
 keeping initial charge density in first step


--------------------------------------------------------------------------------------------------------


 Maximum index for augmentation-charges          587 (set IRDMAX)


--------------------------------------------------------------------------------------------------------


 First call to EWALD:  gamma=   0.488
 Maximum number of real-space cells 3x 3x 3
 Maximum number of reciprocal cells 3x 3x 3

    FEWALD:  cpu time    0.0009: real time    0.0009


--------------------------------------- Iteration      1(   1)  ---------------------------------------


    POTLOK:  cpu time    0.0021: real time    0.0027
    SETDIJ:  cpu time    0.0036: real time    0.0046
     EDDAV:  cpu time    0.0498: real time    0.0757
       DOS:  cpu time    0.0009: real time    0.0012
    CHARGE:  cpu time    0.0037: real time    0.0037
    MIXING:  cpu time    0.0001: real time    0.0002
    --------------------------------------------
      LOOP:  cpu time    0.0602: real time    0.0881

 eigenvalue-minimisations  :   584
 total energy-change (2. order) : 0.1079217E+04  (-0.6675697E-06)
 number of electron      44.0004995 magnetization 
 augmentation part        6.8886394 magnetization 

 Broyden mixing:
  rms(total) = 0.42786E-03    rms(broyden)= 0.34251E-03
  rms(prec ) = 0.79243E-03
  weight for this iteration     100.00
  WARNING: grid for Broyden might be to small

 Free energy of the ion-electron system (eV)
  ---------------------------------------------------
  alpha Z        PSCENC =       243.62337785
  Ewald energy   TEWEN  =     -4395.34838493
  -Hartree energ DENC   =      -336.47176006
  -exchange      EXHF   =         0.00000000
  -V(xc)+E(xc)   XCENC  =       125.98806864
  PAW double counting   =     62770.81696775   -62895.27776663
  entropy T*S    EENTRO =        -0.02212509
  eigenvalues    EBANDS =       142.17559056
  atomic energy  EATOM  =      5423.73341339
  Solvation  Ediel_sol  =         0.00000000
  ---------------------------------------------------
  free energy    TOTEN  =      1079.21738147 eV

  energy without entropy =     1079.23950656  energy(sigma->0) =     1079.22475650


--------------------------------------------------------------------------------------------------------




--------------------------------------- Iteration      1(   2)  ---------------------------------------


    POTLOK:  cpu time    0.0019: real time    0.0019
    SETDIJ:  cpu time    0.0035: real time    0.0035
     EDDAV:  cpu time    0.0349: real time    0.0349
       DOS:  cpu time    0.0008: real time    0.0008
    CHARGE:  cpu time    0.0035: real time    0.0035
    MIXING:  cpu time    0.0002: real time    0.0006
    --------------------------------------------
      LOOP:  cpu time    0.0447: real time    0.0452

 eigenvalue-minimisations  :   598
 total energy-change (2. order) : 0.1476192E-02  (-0.6835726E-06)
 number of electron      44.0004996 magnetization 
 augmentation part        6.8874210 magnetization 

 Broyden mixing:
  rms(total) = 0.54593E-03    rms(broyden)= 0.49665E-03
  rms(prec ) = 0.10079E-02
  weight for this iteration     100.00

 eigenvalues of (default mixing * dielectric matrix)
  average eigenvalue GAMMA=   0.4001
  0.4001

 Free energy of the ion-electron system (eV)
  ---------------------------------------------------
  alpha Z        PSCENC =       243.62337785
  Ewald energy   TEWEN  =     -4395.34838493
  -Hartree energ DENC   =      -336.48408946
  -exchange      EXHF   =         0.00000000
  -V(xc)+E(xc)   XCENC  =       125.98868200
  PAW double counting   =     62771.49873780   -62895.96095504
  entropy T*S    EENTRO =        -0.02199172
  eigenvalues    EBANDS =       142.19006778
  atomic energy  EATOM  =      5423.73341339
  Solvation  Ediel_sol  =         0.00000000
  ---------------------------------------------------
  free energy    TOTEN  =      1079.21885767 eV

  energy without entropy =     1079.24084938  energy(sigma->0) =     1079.22618824


--------------------------------------------------------------------------------------------------------




--------------------------------------- Iteration      1(   3)  ---------------------------------------


    POTLOK:  cpu time    0.0019: real time    0.0019
    SETDIJ:  cpu time    0.0033: real time    0.0033
     EDDAV:  cpu time    0.0222: real time    0.0222
       DOS:  cpu time    0.0008: real time    0.0008
    --------------------------------------------
      LOOP:  cpu time    0.0283: real time    0.0283

 eigenvalue-minimisations  :   300
 total energy-change (2. order) : 0.5392485E-07  (-0.1799225E-07)
 number of electron      44.0004996 magnetization 
 augmentation part        6.8874210 magnetization 

 Free energy of the ion-electron system (eV)
  ---------------------------------------------------
  alpha Z        PSCENC =       243.62337785
  Ewald energy   TEWEN  =     -4395.34838493
  -Hartree energ DENC   =      -336.47720552
  -exchange      EXHF   =         0.00000000
  -V(xc)+E(xc)   XCENC  =       125.98833244
  PAW double counting   =     62770.75503848   -62895.21688277
  entropy T*S    EENTRO =        -0.02199912
  eigenvalues    EBANDS =       142.18316791
  atomic energy  EATOM  =      5423.73341339
  Solvation  Ediel_sol  =         0.00000000
  ---------------------------------------------------
  free energy    TOTEN  =      1079.21885772 eV

  energy without entropy =     1079.24085684  energy(sigma->0) =     1079.22619076


--------------------------------------------------------------------------------------------------------




 average (electrostatic) potential at core
  the test charge radii are     0.9430
  (the norm of the test charge is              1.0001)
       1-113.4305       2-113.4305       3-113.4305       4-113.4305
 
 
 
 E-fermi :  12.3624     XC(G=0): -14.4006     alpha+bet :-13.2037

 Fermi energy:        12.3624461967

 k-point     1 :       0.0000    0.0000    0.0000
  band No.  band energies     occupation 
      1      -5.4222      2.00000
      2       0.7499      2.00000
      3       0.7499      2.00000
      4       0.7499      2.00000
      5       4.6540      2.00000
      6       4.6540      2.00000
      7       4.6540      2.00000
      8       6.2208      2.00000
      9       6.2208      2.00000
     10       6.2208      2.00000
     11      15.7806     -0.00000
     12      15.7806     -0.00000
     13      15.7806     -0.00000
     14      15.7806     -0.00000
     15      15.7806     -0.00000
     16      15.7806     -0.00000
     17      20.0060      0.00000
     18      20.0060      0.00000
     19      20.0060      0.00000
     20      20.0060      0.00000
     21      20.0060      0.00000
     22      20.0060      0.00000
     23      20.1436      0.00000
     24      20.1436      0.00000
     25      22.0008      0.00000
     26      22.0008      0.00000
     27      22.3124      0.00000
     28      22.3124      0.00000
     29      22.3124      0.00000
     30      24.0981      0.00000

 k-point     2 :       0.2000    0.0000    0.0000
  band No.  band energies     occupation 
      1      -4.9435      2.00000
      2      -3.1069      2.00000
      3       0.5542      2.00000
      4       1.2075      2.00000
      5       2.5882      2.00000
      6       2.5882      2.00000
      7       2.8877      2.00000
      8       4.7550      2.00000
      9       4.7550      2.00000
     10       6.6845      2.00000
     11       6.6845      2.00000
     12       6.8753      2.00000
     13       6.8753      2.00000
     14       7.7462      2.00000
     15       7.7462      2.00000
     16       9.2988      2.00000
     17       9.2988      2.00000
     18       9.9759      2.00000
     19      13.5349     -0.00000
     20      13.5349     -0.00000
     21      13.9757     -0.00000
     22      13.9757     -0.00000
     23      16.2551     -0.00000
     24      16.2551     -0.00000
     25      22.3259      0.00000
     26      22.3259      0.00000
     27      22.4927      0.00000
     28      22.7684      0.00000
     29      22.8893      0.00000
     30      24.7733      0.00000

 k-point     3 :       0.4000    0.0000    0.0000
  band No.  band energies     occupation 
      1      -8.7045      2.00000
      2      -3.6602      2.00000
      3      -2.5528      2.00000
      4      -1.9878      2.00000
      5      -1.6930      2.00000
      6      -1.3579      2.00000
      7      -1.3579      2.00000
      8      -0.9784      2.00000
      9       4.4277      2.00000
     10       4.4277      2.00000
     11       4.7115      2.00000
     12       4.7115      2.00000
     13       6.1808      2.00000
     14       6.1808      2.00000
     15       6.9684      2.00000
     16       6.9684      2.00000
     17       7.0918      2.00000
     18       7.0918      2.00000
     19       8.1354      2.00000
     20       8.1354      2.00000
     21       9.3521      2.00000
     22       9.3521      2.00000
     23      10.4619      2.00000
     24      10.4619      2.00000
     25      12.2107      1.95737
     26      12.2107      1.95737
     27      14.8389     -0.00000
     28      17.4446     -0.00000
     29      17.4446     -0.00000
     30      19.3184      0.00000

 k-point     4 :       0.2000    0.2000    0.0000
  band No.  band energies     occupation 
      1      -4.5125      2.00000
      2       0.1802      2.00000
      3       0.1802      2.00000
      4       0.1815      2.00000
      5       1.6544      2.00000
      6       1.6544      2.00000
      7       5.3431      2.00000
      8       5.5083      2.00000
      9       5.5083      2.00000
     10       6.3216      2.00000
     11       6.8046      2.00000
     12       6.8046      2.00000
     13       7.1971      2.00000
     14       7.8434      2.00000
     15       7.8434      2.00000
     16       9.6850      2.00000
     17       9.9846      2.00000
     18       9.9846      2.00000
     19      10.5670      2.00000
     20      11.4636      2.00000
     21      14.0063     -0.00000
     22      14.0063     -0.00000
     23      14.8216     -0.00000
     24      14.8216     -0.00000
     25      16.6642     -0.00000
     26      19.4506      0.00000
     27      19.7222      0.00000
     28      20.4472      0.00000
     29      23.0736      0.00000
     30      24.2029      0.00000

 k-point     5 :       0.4000    0.2000    0.0000
  band No.  band energies     occupation 
      1      -5.4810      2.00000
      2      -3.2316      2.00000
      3      -2.4689      2.00000
      4      -1.8977      2.00000
      5      -1.1963      2.00000
      6       1.4694      2.00000
      7       1.8258      2.00000
      8       2.4664      2.00000
      9       2.8376      2.00000
     10       3.1300      2.00000
     11       3.9709      2.00000
     12       4.9054      2.00000
     13       6.3620      2.00000
     14       6.6147      2.00000
     15       7.5956      2.00000
     16       8.6087      2.00000
     17       9.0304      2.00000
     18       9.4360      2.00000
     19       9.6798      2.00000
     20      10.9329      2.00000
     21      13.3487     -0.00000
     22      14.1916     -0.00000
     23      14.2173     -0.00000
     24      15.3645     -0.00000
     25      15.9022     -0.00000
     26      16.4197     -0.00000
     27      17.5758     -0.00000
     28      17.5814     -0.00000
     29      17.9178      0.00000
     30      19.3674      0.00000

 k-point     6 :       0.4000    0.4000    0.0000
  band No.  band energies     occupation 
      1      -7.6075      2.00000
      2      -7.6075      2.00000
      3      -6.1274      2.00000
      4      -6.1274      2.00000
      5      -2.0003      2.00000
      6      -1.4677      2.00000
      7      -0.7962      2.00000
      8      -0.5397      2.00000
      9       0.0438      2.00000
     10       0.0438      2.00000
     11       1.0733      2.00000
     12       1.0733      2.00000
     13       1.8457      2.00000
     14       3.0202      2.00000
     15       5.4538      2.00000
     16       5.4538      2.00000
     17       7.7666      2.00000
     18       9.5215      2.00000
     19      10.0196      2.00000
     20      10.9836      2.00000
     21      10.9836      2.00000
     22      12.3365      1.21766
     23      12.3365      1.21766
     24      13.3640     -0.00000
     25      14.6288     -0.00000
     26      14.8992     -0.00000
     27      17.2004     -0.00000
     28      17.2004     -0.00000
     29      17.5853     -0.00000
     30      17.7888     -0.00000

 k-point     7 :       0.2000    0.2000    0.2000
  band No.  band energies     occupation 
      1      -7.6501      2.00000
      2      -7.6501      2.00000
      3      -7.6501      2.00000
      4      -4.1308      2.00000
      5      -0.2539      2.00000
      6      -0.2539      2.00000
      7      -0.2539      2.00000
      8       2.1064      2.00000
      9       2.1064      2.00000
     10       2.1064      2.00000
     11       4.1309      2.00000
     12       4.1309      2.00000
     13       4.1309      2.00000
     14       5.7790      2.00000
     15       5.7790      2.00000
     16       5.7790      2.00000
     17       7.8434      2.00000
     18       7.8434      2.00000
     19       9.0422      2.00000
     20       9.0422      2.00000
     21       9.0422      2.00000
     22      11.8056      2.00059
     23      11.8056      2.00059
     24      11.8056      2.00059
     25      12.3920      0.75315
     26      12.3920      0.75315
     27      12.3920      0.75315
     28      15.9736     -0.00000
     29      17.0680     -0.00000
     30      17.0680     -0.00000

 k-point     8 :       0.4000    0.2000    0.2000
  band No.  band energies     occupation 
      1     -11.0572      2.00000
      2      -2.9872      2.00000
      3      -2.8175      2.00000
      4      -2.3919      2.00000
      5      -2.3919      2.00000
      6      -2.1713      2.00000
      7      -2.1713      2.00000
      8      -0.7169      2.00000
      9       0.9512      2.00000
     10       0.9512      2.00000
     11       2.8388      2.00000
     12       2.8388      2.00000
     13       3.8194      2.00000
     14       4.8309      2.00000
     15       4.8309      2.00000
     16       4.9946      2.00000
     17       6.1415      2.00000
     18       7.0629      2.00000
     19       7.0629      2.00000
     20      10.7001      2.00000
     21      10.7984      2.00000
     22      12.6537     -0.05912
     23      12.6537     -0.05912
     24      13.2743     -0.00000
     25      15.1188     -0.00000
     26      16.2847     -0.00000
     27      16.2847     -0.00000
     28      16.8996     -0.00000
     29      17.1370     -0.00000
     30      17.1370     -0.00000

 k-point     9 :       0.4000    0.4000    0.2000
  band No.  band energies     occupation 
      1      -8.0069      2.00000
      2      -4.3844      2.00000
      3      -3.5495      2.00000
      4      -3.5495      2.00000
      5      -3.1196      2.00000
      6      -1.6991      2.00000
      7      -1.5941      2.00000
      8      -0.8833      2.00000
      9      -0.4689      2.00000
     10      -0.4689      2.00000
     11       0.4502      2.00000
     12       0.4502      2.00000
     13       2.0020      2.00000
     14       3.0605      2.00000
     15       4.6964      2.00000
     16       4.6964      2.00000
     17       5.3666      2.00000
     18       6.2710      2.00000
     19       7.8511      2.00000
     20       7.8511      2.00000
     21      10.0483      2.00000
     22      10.3048      2.00000
     23      10.5323      2.00000
     24      10.5323      2.00000
     25      14.3246     -0.00000
     26      15.8925     -0.00000
     27      16.0497     -0.00000
     28      16.0497     -0.00000
     29      16.6656     -0.00000
     30      17.8801      0.00000

 k-point    10 :       0.4000    0.4000    0.4000
  band No.  band energies     occupation 
      1      -4.8345      2.00000
      2      -0.3909      2.00000
      3      -0.3356      2.00000
      4      -0.3356      2.00000
      5      -0.3356      2.00000
      6       1.4795      2.00000
      7       1.4795      2.00000
      8       1.4795      2.00000
      9       2.0066      2.00000
     10       2.0066      2.00000
     11       2.0399      2.00000
     12       2.0399      2.00000
     13       2.0399      2.00000
     14       3.1817      2.00000
     15       3.1817      2.00000
     16       3.1817      2.00000
     17       5.3573      2.00000
     18       5.3573      2.00000
     19       5.3573      2.00000
     20       7.1847      2.00000
     21       8.2378      2.00000
     22       8.2378      2.00000
     23       8.2378      2.00000
     24      10.9404      2.00000
     25      10.9404      2.00000
     26      12.3821      0.83481
     27      12.3821      0.83481
     28      12.3821      0.83481
     29      19.1051      0.00000
     30      19.1051      0.00000


--------------------------------------------------------------------------------------------------------


 soft charge-density along one line, spin component           1
         0         1         2         3         4         5         6         7         8         9
x    37.1131    0.0000   -0.0000   -0.0000    4.0809    0.0000    0.0000    0.0000   -0.5819    0.0000
x     0.0000    0.0000
y    37.1131    0.0000   -0.0000   -0.0000    4.0809    0.0000    0.0000    0.0000   -0.5819    0.0000
y     0.0000    0.0000
z    37.1131    0.0000   -0.0000   -0.0000    4.0809    0.0000    0.0000    0.0000   -0.5819    0.0000
z     0.0000    0.0000
 total charge-density along one line
x    44.0005    0.0000    0.0000    0.0000    8.5263    0.0000    0.0000   -0.0000    0.3832    0.0000
x     0.0000   -0.0000   -0.0329    0.0000   -0.0000    0.0000    0.0018    0.0000   -0.0000    0.0000
x    -0.0030    0.0000
y    44.0005    0.0000   -0.0000   -0.0000    8.5263    0.0000   -0.0000   -0.0000    0.3832    0.0000
y     0.0000    0.0000   -0.0329   -0.0000   -0.0000    0.0000    0.0018   -0.0000   -0.0000   -0.0000
y    -0.0030   -0.0000
z    44.0005    0.0000   -0.0000    0.0000    8.5263    0.0000   -0.0000    0.0000    0.3832    0.0000
z     0.0000    0.0000   -0.0329   -0.0000   -0.0000    0.0000    0.0018    0.0000    0.0000    0.0000
z    -0.0030   -0.0000
 
 pseudopotential strength for first ion, spin component:           1
-44.298  -0.000   0.000   0.000   0.000  28.376   0.000  -0.000
 -0.000 -44.298   0.000  -0.000  -0.000   0.000  28.376  -0.000
  0.000   0.000 -44.304  -0.000  -0.000  -0.000  -0.000  28.381
  0.000  -0.000  -0.000 -44.298  -0.000  -0.000   0.000   0.000
  0.000  -0.000  -0.000  -0.000 -44.304  -0.000   0.000   0.000
 28.376   0.000  -0.000  -0.000  -0.000 -15.684  -0.000   0.000
  0.000  28.376  -0.000   0.000   0.000  -0.000 -15.684   0.000
 -0.000  -0.000  28.381   0.000   0.000   0.000   0.000 -15.690
 -0.000   0.000   0.000  28.376   0.000   0.000  -0.000  -0.000
 -0.000   0.000   0.000   0.000  28.381   0.000  -0.000  -0.000
  0.000  -0.000   0.000   0.000  -0.000   0.000  -0.000   0.000
  0.000  -0.000   0.000   0.000  -0.000   0.000  -0.000   0.000
  0.000  -0.000  -0.000  -0.000  -0.000  -0.000   0.000  -0.000
 -0.000   0.000  -0.000   0.000   0.000  -0.000  -0.000  -0.000
  0.000  -0.000  -0.000  -0.000   0.000   0.000  -0.000   0.000
  0.000  -0.000  -0.000   0.000  -0.000   0.000  -0.000  -0.000
  0.000   0.000  -0.000   0.000  -0.000  -0.000  -0.000  -0.000
  0.000   0.000  -0.000  -0.000   0.000   0.000  -0.000   0.000
 total augmentation occupancy for first ion, spin component:           1
  1.939  -0.000   0.000   0.000  -0.000   0.911  -0.000  -0.000  -0.000  -0.000  -0.000   0.000  -0.000   0.000   0.000   0.000
  0.000   1.939  -0.000   0.000  -0.000   0.000   0.911  -0.000  -0.000  -0.000  -0.000   0.000   0.000   0.000  -0.000  -0.000
 -0.000  -0.000   1.783   0.000   0.000  -0.000   0.000   0.795  -0.000  -0.000  -0.000  -0.000   0.000   0.000  -0.000   0.000
  0.000  -0.000   0.000   1.939   0.000  -0.000   0.000  -0.000   0.911   0.000  -0.000   0.000   0.000   0.000  -0.000   0.000
 -0.000  -0.000   0.000   0.000   1.783   0.000   0.000  -0.000   0.000   0.795  -0.000  -0.000   0.000   0.000   0.000   0.000
  0.911   0.000   0.000  -0.000  -0.000   0.487   0.000   0.000   0.000  -0.000   0.000  -0.000   0.000   0.000  -0.000   0.000
 -0.000   0.911   0.000   0.000  -0.000   0.000   0.487  -0.000   0.000   0.000   0.000   0.000   0.000   0.000   0.000  -0.000
 -0.000  -0.000   0.795  -0.000  -0.000  -0.000   0.000   0.389  -0.000  -0.000   0.000   0.000   0.000  -0.000  -0.000   0.000
 -0.000  -0.000   0.000   0.911   0.000   0.000   0.000   0.000   0.487  -0.000  -0.000   0.000   0.000   0.000   0.000   0.000
  0.000  -0.000  -0.000   0.000   0.795   0.000  -0.000   0.000  -0.000   0.389  -0.000   0.000   0.000  -0.000  -0.000   0.000
  0.000   0.000   0.000  -0.000  -0.000   0.000  -0.000  -0.000   0.000   0.000  95.157 -62.528   0.000   0.000   0.000   0.000
  0.000   0.000  -0.000  -0.000   0.000  -0.000  -0.000   0.000   0.000   0.000 -62.528  41.769   0.000   0.000   0.000   0.000
 -0.000   0.000  -0.000   0.000   0.000   0.000   0.000  -0.000   0.000  -0.000   0.000   0.000   4.127   0.000   0.000  -3.041
  0.000   0.000  -0.000   0.000   0.000   0.000   0.000   0.000   0.000   0.000   0.000   0.000   0.000   4.127  -0.000   0.000
  0.000  -0.000   0.000  -0.000  -0.000  -0.000   0.000   0.000   0.000   0.000   0.000   0.000   0.000   0.000   4.127  -0.000
  0.000  -0.000  -0.000   0.000   0.000   0.000  -0.000   0.000   0.000   0.000   0.000   0.000  -3.041   0.000  -0.000   2.682
  0.000  -0.000   0.000   0.000  -0.000   0.000  -0.000   0.000  -0.000   0.000   0.000   0.000  -0.000  -3.041  -0.000  -0.000
  0.000   0.000   0.000   0.000  -0.000   0.000  -0.000  -0.000  -0.000   0.000   0.000   0.000  -0.000   0.000  -3.041   0.000


------------------------ aborting loop because EDIFF is reached ----------------------------------------


    CHARGE:  cpu time    0.0115: real time    0.0115
    FORLOC:  cpu time    0.0006: real time    0.0006
    FORNL :  cpu time    0.0183: real time    0.0183
    STRESS:  cpu time    0.0169: real time    0.0169
    FORCOR:  cpu time    0.0019: real time    0.0019
    FORHAR:  cpu time    0.0004: real time    0.0004
    MIXING:  cpu time    0.0002: real time    0.0002

  FORCE on cell =-STRESS in cart. coord.  units (eV):
  Direction    XX          YY          ZZ          XY          YZ          ZX
  --------------------------------------------------------------------------------------
  Alpha Z   243.62338   243.62338   243.62338
  Ewald   -1465.11677 -1465.11677 -1465.11677     0.00000     0.00000     0.00000
  Hartree   112.14950   112.14950   112.14950    -0.00000    -0.00000    -0.00000
  E(xc)    -201.04353  -201.04353  -201.04353    -0.00000     0.00000    -0.00000
  Local      -2.13308    -2.13308    -2.13308     0.00000     0.00000    -0.00000
  n-local -3453.86988 -3132.90896 -2715.12337  -125.02751    68.45448    -6.20862
  augment   209.39844   209.39844   209.39844     0.00000     0.00000    -0.00000
  Kinetic  1148.47842  1056.60991   964.82080    33.17262   -12.47360     6.27458
  Fock        0.00000     0.00000     0.00000     0.00000     0.00000     0.00000
  -------------------------------------------------------------------------------------
  Total   -3147.11977 -3147.11977 -3147.11977     0.00000    -0.00000     0.00000
  in kB  ************************************     0.00000    -0.00000     0.00000
  external pressure =  -104980.98 kB  Pullay stress =        0.00 kB


 VOLUME and BASIS-vectors are now :
 -----------------------------------------------------------------------------
  energy-cutoff  :      100.00
  volume of cell :       48.03
      direct lattice vectors                 reciprocal lattice vectors
     3.635000000  0.000000000  0.000000000     0.275103164  0.000000000  0.000000000
     0.000000000  3.635000000  0.000000000     0.000000000  0.275103164  0.000000000
     0.000000000  0.000000000  3.635000000     0.000000000  0.000000000  0.275103164

  length of vectors
     3.635000000  3.635000000  3.635000000     0.275103164  0.275103164  0.275103164


 FORCES acting on ions
    electron-ion (+dipol)            ewald-force                    non-local-force                 convergence-correction
 -----------------------------------------------------------------------------------------------
   -.338E-13 0.147E-13 0.134E-13   0.103E-13 0.597E-14 -.166E-13   -.224E-22 -.333E-22 -.780E-22   -.275E-13 -.114E-13 0.213E-13
   -.155E-13 0.536E-13 0.139E-13   0.175E-13 0.141E-13 -.168E-13   -.978E-22 0.865E-23 -.787E-22   0.189E-13 0.389E-13 0.551E-14
   -.230E-13 0.122E-13 0.336E-13   -.529E-14 -.138E-13 0.159E-13   -.277E-22 -.231E-22 -.862E-22   0.317E-13 0.162E-13 0.873E-13
   -.343E-13 0.457E-13 0.288E-13   -.204E-13 -.566E-14 0.157E-13   0.722E-22 -.279E-22 0.839E-22   -.725E-14 0.318E-13 0.905E-13
 -----------------------------------------------------------------------------------------------
   -.106E-12 0.126E-12 0.897E-13   0.207E-14 0.619E-15 -.180E-14   -.757E-22 -.756E-22 -.159E-21   0.158E-13 0.755E-13 0.205E-12
 
 
 POSITION                                       TOTAL-FORCE (eV/Angst)
 -----------------------------------------------------------------------------------
      0.00000      0.00000      0.00000         0.000000      0.000000      0.000000
      1.81750      1.81750      0.00000        -0.000000     -0.000000      0.000000
      1.81750      0.00000      1.81750         0.000000     -0.000000      0.000000
      0.00000      1.81750      1.81750        -0.000000      0.000000     -0.000000
 -----------------------------------------------------------------------------------
    total drift:                               -0.000000      0.000000      0.000000


--------------------------------------------------------------------------------------------------------



  FREE ENERGIE OF THE ION-ELECTRON SYSTEM (eV)
  ---------------------------------------------------
  free  energy   TOTEN  =      1079.21885772 eV

  energy  without entropy=     1079.24085684  energy(sigma->0) =     1079.22619076
 


--------------------------------------------------------------------------------------------------------


    POTLOK:  cpu time    0.0053: real time    0.0053


--------------------------------------------------------------------------------------------------------


 writing wavefunctions
     LOOP+:  cpu time    0.2003: real time    0.2301
    4ORBIT:  cpu time    0.0000: real time    0.0002

 total amount of memory used by VASP MPI-rank0    31570. kBytes
=======================================================================

   base      :      30000. kBytes
   nonl-proj :        169. kBytes
   grid      :        451. kBytes
   one-center:         62. kBytes
   wavefun   :        888. kBytes
 
  
  
 General timing and accounting informations for this job:
 ========================================================
  
                  Total CPU time used (sec):        0.298
                            User time (sec):        0.254
                          System time (sec):        0.044
                         Elapsed time (sec):        0.354
  
                   Maximum memory used (kb):       35176.
                   Average memory used (kb):          N/A
  
                          Minor page faults:         2226
                          Major page faults:          365
                 Voluntary context switches:          313
