<?xml version="1.0" encoding="ISO-8859-1"?>
<modeling>
 <generator>
  <i name="program" type="string">vasp </i>
  <i name="version" type="string">6.2.0  </i>
  <i name="subversion" type="string">18Jan21 (build Mar 17 2021 09:06:54) complex                          serial </i>
  <i name="platform" type="string">LinuxIFC </i>
  <i name="date" type="string">2021 08 03 </i>
  <i name="time" type="string">10:14:58 </i>
 </generator>
 <incar>
  <i type="string" name="PREC">normal</i>
  <i type="int" name="ICHARG">     1</i>
  <i type="int" name="IBRION">    -1</i>
  <i name="EDIFF">      0.00000100</i>
  <i type="int" name="NSW">     0</i>
  <i name="ENCUT">    100.00000000</i>
  <i type="int" name="NBANDS">    30</i>
  <i type="int" name="ISMEAR">     1</i>
  <i name="SIGMA">      0.20000000</i>
  <i type="logical" name="LCHARG"> T  </i>
  <i type="int" name="KPAR">     1</i>
  <i type="int" name="NCORE">     1</i>
  <i type="string" name="GGA">PE</i>
 </incar>
 <primitive_cell>
  <structure name="primitive_cell" >
   <crystal>
    <varray name="basis" >
     <v>       1.81750000      -1.81750000       0.00000000 </v>
     <v>       1.81750000       0.00000000       1.81750000 </v>
     <v>       0.00000000      -1.81750000       1.81750000 </v>
    </varray>
    <i name="volume">     12.00751822 </i>
    <varray name="rec_basis" >
     <v>       0.27510316      -0.27510316      -0.27510316 </v>
     <v>       0.27510316       0.27510316       0.27510316 </v>
     <v>      -0.27510316      -0.27510316       0.27510316 </v>
    </varray>
   </crystal>
   <varray name="positions" >
    <v>       0.00000000       0.00000000       0.00000000 </v>
   </varray>
  </structure>
  <varray name="primitive_index" >
   <v type="int" >        1 </v>
  </varray>
 </primitive_cell>
 <kpoints>
  <generation param="Monkhorst-Pack">
   <v type="int" name="divisions">       5        5        5 </v>
   <v name="usershift">      0.00000000       0.00000000       0.00000000 </v>
   <v name="genvec1">      0.20000000       0.00000000       0.00000000 </v>
   <v name="genvec2">      0.00000000       0.20000000       0.00000000 </v>
   <v name="genvec3">      0.00000000       0.00000000       0.20000000 </v>
   <v name="shift">      0.00000000       0.00000000       0.00000000 </v>
  </generation>
  <varray name="kpointlist" >
   <v>       0.00000000       0.00000000       0.00000000 </v>
   <v>       0.20000000       0.00000000       0.00000000 </v>
   <v>       0.40000000       0.00000000       0.00000000 </v>
   <v>       0.20000000       0.20000000       0.00000000 </v>
   <v>       0.40000000       0.20000000       0.00000000 </v>
   <v>       0.40000000       0.40000000       0.00000000 </v>
   <v>       0.20000000       0.20000000       0.20000000 </v>
   <v>       0.40000000       0.20000000       0.20000000 </v>
   <v>       0.40000000       0.40000000       0.20000000 </v>
   <v>       0.40000000       0.40000000       0.40000000 </v>
  </varray>
  <varray name="weights" >
   <v>       0.00800000 </v>
   <v>       0.04800000 </v>
   <v>       0.04800000 </v>
   <v>       0.09600000 </v>
   <v>       0.19200000 </v>
   <v>       0.09600000 </v>
   <v>       0.06400000 </v>
   <v>       0.19200000 </v>
   <v>       0.19200000 </v>
   <v>       0.06400000 </v>
  </varray>
 </kpoints>
 <parameters>
  <separator name="general" >
   <i type="string" name="SYSTEM">unknown system</i>
   <i type="logical" name="LCOMPAT"> F  </i>
  </separator>
  <separator name="electronic" >
   <i type="string" name="PREC">normal</i>
   <i name="ENMAX">    100.00000000</i>
   <i name="ENAUG">    586.98000000</i>
   <i name="EDIFF">      0.00000100</i>
   <i type="int" name="IALGO">    38</i>
   <i type="int" name="IWAVPR">     0</i>
   <i type="int" name="NBANDS">    30</i>
   <i type="int" name="NBANDSLOW">    -1</i>
   <i type="int" name="NBANDSHIGH">    -1</i>
   <i name="NELECT">     44.00000000</i>
   <i type="int" name="TURBO">     0</i>
   <i type="int" name="IRESTART">     0</i>
   <i type="int" name="NREBOOT">     0</i>
   <i type="int" name="NMIN">     0</i>
   <i name="EREF">      0.00000000</i>
   <separator name="electronic smearing" >
    <i type="int" name="ISMEAR">     1</i>
    <i name="SIGMA">      0.20000000</i>
    <i name="KSPACING">      0.50000000</i>
    <i type="logical" name="KGAMMA"> T  </i>
    <i type="logical" name="KBLOWUP"> T  </i>
   </separator>
   <separator name="electronic projectors" >
    <i type="logical" name="LREAL"> F  </i>
    <v name="ROPT">      0.00000000</v>
    <i type="int" name="LMAXPAW">  -100</i>
    <i type="int" name="LMAXMIX">     2</i>
    <i type="logical" name="NLSPLINE"> F  </i>
   </separator>
   <separator name="electronic startup" >
    <i type="int" name="ISTART">     1</i>
    <i type="int" name="ICHARG">     1</i>
    <i type="int" name="INIWAV">     1</i>
   </separator>
   <separator name="electronic spin" >
    <i type="int" name="ISPIN">     1</i>
    <i type="logical" name="LNONCOLLINEAR"> F  </i>
    <v name="MAGMOM">      1.00000000      1.00000000      1.00000000      1.00000000</v>
    <i name="NUPDOWN">     -1.00000000</i>
    <i type="logical" name="LSORBIT"> F  </i>
    <v name="SAXIS">      0.00000000      0.00000000      1.00000000</v>
    <i type="logical" name="LSPIRAL"> F  </i>
    <v name="QSPIRAL">      0.00000000      0.00000000      0.00000000</v>
    <i type="logical" name="LZEROZ"> F  </i>
   </separator>
   <separator name="electronic exchange-correlation" >
    <i type="logical" name="LASPH"> F  </i>
    <i type="logical" name="LMETAGGA"> F  </i>
   </separator>
   <separator name="electronic convergence" >
    <i type="int" name="NELM">    60</i>
    <i type="int" name="NELMDL">     0</i>
    <i type="int" name="NELMIN">     2</i>
    <i name="ENINI">    100.00000000</i>
    <separator name="electronic convergence detail" >
     <i type="logical" name="LDIAG"> T  </i>
     <i type="logical" name="LSUBROT"> F  </i>
     <i name="WEIMIN">      0.00000000</i>
     <i name="EBREAK">      0.00000001</i>
     <i name="DEPER">      0.30000000</i>
     <i type="int" name="NRMM">     4</i>
     <i name="TIME">      0.40000000</i>
    </separator>
   </separator>
   <separator name="electronic mixer" >
    <i name="AMIX">      0.40000000</i>
    <i name="BMIX">      1.00000000</i>
    <i name="AMIN">      0.10000000</i>
    <i name="AMIX_MAG">      1.60000000</i>
    <i name="BMIX_MAG">      1.00000000</i>
    <separator name="electronic mixer details" >
     <i type="int" name="IMIX">     4</i>
     <i type="logical" name="MIXFIRST"> F  </i>
     <i type="int" name="MAXMIX">   -45</i>
     <i name="WC">    100.00000000</i>
     <i type="int" name="INIMIX">     1</i>
     <i type="int" name="MIXPRE">     1</i>
     <i type="int" name="MREMOVE">     5</i>
    </separator>
   </separator>
   <separator name="electronic dipolcorrection" >
    <i type="logical" name="LDIPOL"> F  </i>
    <i type="logical" name="LMONO"> F  </i>
    <i type="int" name="IDIPOL">     0</i>
    <i name="EPSILON">      1.00000000</i>
    <v name="DIPOL">   -100.00000000   -100.00000000   -100.00000000</v>
    <i name="EFIELD">      0.00000000</i>
   </separator>
  </separator>
  <separator name="grids" >
   <i type="int" name="NGX">    10</i>
   <i type="int" name="NGY">    10</i>
   <i type="int" name="NGZ">    10</i>
   <i type="int" name="NGXF">    20</i>
   <i type="int" name="NGYF">    20</i>
   <i type="int" name="NGZF">    20</i>
   <i type="logical" name="ADDGRID"> F  </i>
  </separator>
  <separator name="ionic" >
   <i type="int" name="NSW">     0</i>
   <i type="int" name="IBRION">    -1</i>
   <i type="int" name="MDALGO">     0</i>
   <i type="int" name="ISIF">     2</i>
   <i name="PSTRESS">      0.00000000</i>
   <i name="EDIFFG">      0.00001000</i>
   <i type="int" name="NFREE">     0</i>
   <i name="POTIM">      0.50000000</i>
   <i name="SMASS">     -3.00000000</i>
   <i name="SCALEE">      1.00000000</i>
  </separator>
  <separator name="ionic md" >
   <i name="TEBEG">      0.00010000</i>
   <i name="TEEND">      0.00010000</i>
   <i type="int" name="NBLOCK">     1</i>
   <i type="int" name="KBLOCK">     1</i>
   <i type="int" name="NPACO">   256</i>
   <i name="APACO">     16.00000000</i>
  </separator>
  <separator name="symmetry" >
   <i type="int" name="ISYM">     2</i>
   <i name="SYMPREC">      0.00001000</i>
  </separator>
  <separator name="dos" >
   <i type="int" name="LORBIT">     0</i>
   <v name="RWIGS">     -1.00000000</v>
   <i type="int" name="NEDOS">   301</i>
   <i name="EMIN">     10.00000000</i>
   <i name="EMAX">    -10.00000000</i>
   <i name="EFERMI">      0.00000000</i>
  </separator>
  <separator name="writing" >
   <i type="int" name="NWRITE">     2</i>
   <i type="logical" name="LWAVE"> T  </i>
   <i type="logical" name="LDOWNSAMPLE"> F  </i>
   <i type="logical" name="LCHARG"> T  </i>
   <i type="logical" name="LPARD"> F  </i>
   <i type="logical" name="LVTOT"> F  </i>
   <i type="logical" name="LVHAR"> F  </i>
   <i type="logical" name="LELF"> F  </i>
   <i type="logical" name="LOPTICS"> F  </i>
   <v name="STM">      0.00000000      0.00000000      0.00000000      0.00000000      0.00000000      0.00000000      0.00000000</v>
  </separator>
  <separator name="performance" >
   <i type="int" name="NPAR">     1</i>
   <i type="int" name="NSIM">     4</i>
   <i type="int" name="NBLK">    -1</i>
   <i type="logical" name="LPLANE"> T  </i>
   <i type="logical" name="LSCALAPACK"> F  </i>
   <i type="logical" name="LSCAAWARE"> F  </i>
   <i type="logical" name="LSCALU"> F  </i>
   <i type="logical" name="LASYNC"> F  </i>
   <i type="logical" name="LORBITALREAL"> F  </i>
  </separator>
  <separator name="miscellaneous" >
   <i type="int" name="IDIOT">     3</i>
   <i type="int" name="PHON_NSTRUCT">    -1</i>
   <i type="logical" name="LMUSIC"> F  </i>
   <v name="POMASS">     63.54600000</v>
   <v name="DARWINR">      0.00000000</v>
   <v name="DARWINV">      1.00000000</v>
   <i type="logical" name="LCORR"> T  </i>
  </separator>
  <i type="logical" name="GGA_COMPAT"> T  </i>
  <i type="logical" name="LBERRY"> F  </i>
  <i type="int" name="ICORELEVEL">     0</i>
  <i type="logical" name="LDAU"> F  </i>
  <i type="int" name="I_CONSTRAINED_M">     0</i>
  <separator name="electronic exchange-correlation" >
   <i type="string" name="GGA">PE</i>
   <i type="int" name="VOSKOWN">     0</i>
   <i type="logical" name="LHFCALC"> F  </i>
   <i type="string" name="PRECFOCK"></i>
   <i type="logical" name="LSYMGRAD"> F  </i>
   <i type="logical" name="LHFONE"> F  </i>
   <i type="logical" name="LRHFCALC"> F  </i>
   <i type="logical" name="LTHOMAS"> F  </i>
   <i type="logical" name="LMODELHF"> F  </i>
   <i type="logical" name="LFOCKACE"> F  </i>
   <i name="ENCUT4O">     -1.00000000</i>
   <i type="int" name="EXXOEP">     0</i>
   <i type="int" name="FOURORBIT">     0</i>
   <i name="AEXX">      0.00000000</i>
   <i name="HFALPHA">      0.00000000</i>
   <i name="MCALPHA">      0.00000000</i>
   <i name="ALDAX">      1.00000000</i>
   <i name="AGGAX">      1.00000000</i>
   <i name="ALDAC">      1.00000000</i>
   <i name="AGGAC">      1.00000000</i>
   <i type="int" name="NKREDX">     1</i>
   <i type="int" name="NKREDY">     1</i>
   <i type="int" name="NKREDZ">     1</i>
   <i type="logical" name="SHIFTRED"> F  </i>
   <i type="logical" name="ODDONLY"> F  </i>
   <i type="logical" name="EVENONLY"> F  </i>
   <i type="int" name="LMAXFOCK">     0</i>
   <i type="int" name="NMAXFOCKAE">     0</i>
   <i type="logical" name="LFOCKAEDFT"> F  </i>
   <i name="HFSCREEN">      0.00000000</i>
   <i name="HFSCREENC">      0.00000000</i>
   <i type="int" name="NBANDSGWLOW">     0</i>
  </separator>
  <separator name="vdW DFT" >
   <i type="logical" name="LUSE_VDW"> F  </i>
   <i name="Zab_VDW">     -0.84910000</i>
   <i name="PARAM1">      0.12340000</i>
   <i name="PARAM2">      1.00000000</i>
   <i name="PARAM3">      0.00000000</i>
  </separator>
  <separator name="model GW" >
   <i type="int" name="MODEL_GW">     0</i>
   <i name="MODEL_EPS0">      7.20451093</i>
   <i name="MODEL_ALPHA">      1.00000000</i>
  </separator>
  <separator name="linear response parameters" >
   <i type="logical" name="LEPSILON"> F  </i>
   <i type="logical" name="LRPA"> F  </i>
   <i type="logical" name="LNABLA"> F  </i>
   <i type="logical" name="LVEL"> F  </i>
   <i type="int" name="KINTER">     0</i>
   <i name="CSHIFT">      0.10000000</i>
   <i name="OMEGAMAX">     -1.00000000</i>
   <i name="DEG_THRESHOLD">      0.00200000</i>
   <i name="RTIME">     -0.10000000</i>
   <i name="WPLASMAI">      0.00000000</i>
   <v name="DFIELD">      0.00000000      0.00000000      0.00000000</v>
   <v name="WPLASMA">      0.00000000      0.00000000      0.00000000      0.00000000      0.00000000      0.00000000      0.00000000      0.00000000      0.00000000</v>
  </separator>
  <separator name="orbital magnetization" >
   <i type="logical" name="NUCIND"> F  </i>
   <v name="MAGPOS">      0.00000000      0.00000000      0.00000000</v>
   <i type="logical" name="LNICSALL"> T  </i>
   <i type="logical" name="ORBITALMAG"> F  </i>
   <i type="logical" name="LMAGBLOCH"> F  </i>
   <i type="logical" name="LCHIMAG"> F  </i>
   <i type="logical" name="LGAUGE"> T  </i>
   <i type="int" name="MAGATOM">     0</i>
   <v name="MAGDIPOL">      0.00000000      0.00000000      0.00000000</v>
   <v name="AVECCONST">      0.00000000      0.00000000      0.00000000</v>
  </separator>
  <separator name="response functions" >
   <i type="logical" name="LFINITE_TEMPERATURE"> F  </i>
   <i type="logical" name="LADDER"> F  </i>
   <i type="logical" name="LRPAFORCE"> F  </i>
   <i type="logical" name="LFXC"> F  </i>
   <i type="logical" name="LHARTREE"> T  </i>
   <i type="int" name="IBSE">     0</i>
   <v type="int" name="KPOINT">    -1     0     0     0</v>
   <i type="logical" name="LTCTC"> F  </i>
   <i type="logical" name="LTCTE"> F  </i>
   <i type="logical" name="LTETE"> F  </i>
   <i type="logical" name="LTRIPLET"> F  </i>
   <i type="logical" name="LFXCEPS"> F  </i>
   <i type="logical" name="LFXHEG"> F  </i>
   <i type="int" name="NATURALO">     2</i>
   <i type="logical" name="LHOLEGF"> F  </i>
   <i type="logical" name="L2ORDER"> F  </i>
   <i type="logical" name="LDMP1"> F  </i>
   <i type="logical" name="LMP2LT"> F  </i>
   <i type="logical" name="LSMP2LT"> F  </i>
   <i type="logical" name="LGWLF"> F  </i>
   <i name="ENCUTGW">     -2.00000000</i>
   <i name="ENCUTGWSOFT">     -2.00000000</i>
   <i name="ENCUTLF">     -1.00000000</i>
   <i type="logical" name="LESF_SPLINES"> F  </i>
   <i type="int" name="LMAXMP2">    -1</i>
   <i name="SCISSOR">      0.00000000</i>
   <i type="int" name="NOMEGA">     0</i>
   <i type="int" name="NOMEGAR">     0</i>
   <i type="int" name="NBANDSGW">    -1</i>
   <i type="int" name="NBANDSO">    -1</i>
   <i type="int" name="NBANDSV">    -1</i>
   <i type="int" name="NELM">     1</i>
   <i type="int" name="NELMHF">     1</i>
   <i type="int" name="DIM">     3</i>
   <i type="int" name="IESPILON">     4</i>
   <i type="int" name="ANTIRES">     0</i>
   <i name="OMEGAMAX">    -30.00000000</i>
   <i name="OMEGAMIN">    -30.00000000</i>
   <i name="OMEGATL">   -200.00000000</i>
   <i type="int" name="OMEGAGRID">     0</i>
   <i name="CSHIFT">     -0.10000000</i>
   <i type="logical" name="LSELFENERGY"> F  </i>
   <i type="logical" name="LSPECTRAL"> F  </i>
   <i type="logical" name="LSPECTRALGW"> F  </i>
   <i type="logical" name="LSINGLES"> F  </i>
   <i type="logical" name="LFERMIGW"> F  </i>
   <i type="logical" name="ODDONLYGW"> F  </i>
   <i type="logical" name="EVENONLYGW"> F  </i>
   <i type="int" name="NKREDLFX">     1</i>
   <i type="int" name="NKREDLFY">     1</i>
   <i type="int" name="NKREDLFZ">     1</i>
   <i type="int" name="MAXMEM">  2800</i>
   <i type="int" name="TELESCOPE">     0</i>
   <i type="int" name="NTAUPAR">    -1</i>
   <i type="int" name="NOMEGAPAR">    -1</i>
   <i name="DAMP_NEWTON">      0.80000001</i>
   <i name="LAMBDA">      1.00000000</i>
  </separator>
  <separator name="External order field" >
   <i name="OFIELD_KAPPA">      0.00000000</i>
   <v name="OFIELD_K">      0.00000000      0.00000000      0.00000000</v>
   <i name="OFIELD_Q6_NEAR">      0.00000000</i>
   <i name="OFIELD_Q6_FAR">      0.00000000</i>
   <i name="OFIELD_A">      0.00000000</i>
  </separator>
 </parameters>
 <atominfo>
  <atoms>       4 </atoms>
  <types>       1 </types>
  <array name="atoms" >
   <dimension dim="1">ion</dimension>
   <field type="string">element</field>
   <field type="int">atomtype</field>
   <set>
    <rc><c>Cu</c><c>   1</c></rc>
    <rc><c>Cu</c><c>   1</c></rc>
    <rc><c>Cu</c><c>   1</c></rc>
    <rc><c>Cu</c><c>   1</c></rc>
   </set>
  </array>
  <array name="atomtypes" >
   <dimension dim="1">type</dimension>
   <field type="int">atomspertype</field>
   <field type="string">element</field>
   <field>mass</field>
   <field>valence</field>
   <field type="string">pseudopotential</field>
   <set>
    <rc><c>   4</c><c>Cu</c><c>     63.54600000</c><c>     11.00000000</c><c>  PAW_PBE Cu 22Jun2005                  </c></rc>
   </set>
  </array>
 </atominfo>
 <structure name="initialpos" >
  <crystal>
   <varray name="basis" >
    <v>       3.63500000       0.00000000       0.00000000 </v>
    <v>       0.00000000       3.63500000       0.00000000 </v>
    <v>       0.00000000       0.00000000       3.63500000 </v>
   </varray>
   <i name="volume">     48.03007287 </i>
   <varray name="rec_basis" >
    <v>       0.27510316       0.00000000       0.00000000 </v>
    <v>       0.00000000       0.27510316       0.00000000 </v>
    <v>       0.00000000       0.00000000       0.27510316 </v>
   </varray>
  </crystal>
  <varray name="positions" >
   <v>       0.00000000       0.00000000       0.00000000 </v>
   <v>       0.50000000       0.50000000       0.00000000 </v>
   <v>       0.50000000       0.00000000       0.50000000 </v>
   <v>       0.00000000       0.50000000       0.50000000 </v>
  </varray>
 </structure>
 <calculation>
  <scstep>
   <time name="dav">    0.05    0.08</time>
   <time name="total">    0.06    0.09</time>
   <energy>
    <i name="alphaZ">    243.62337785 </i>
    <i name="ewald">  -4395.34838493 </i>
    <i name="hartreedc">   -336.47176006 </i>
    <i name="XCdc">    125.98806864 </i>
    <i name="pawpsdc">  62770.81696775 </i>
    <i name="pawaedc"> -62895.27776663 </i>
    <i name="eentropy">     -0.02212509 </i>
    <i name="bandstr">    142.17559056 </i>
    <i name="atom">   5423.73341339 </i>
    <i name="e_fr_energy">   1079.21738147 </i>
    <i name="e_wo_entrp">   1079.23950656 </i>
    <i name="e_0_energy">   1079.22475650 </i>
   </energy>
  </scstep>
  <scstep>
   <time name="dav">    0.03    0.03</time>
   <time name="total">    0.04    0.05</time>
   <energy>
    <i name="e_fr_energy">   1079.21885767 </i>
    <i name="e_wo_entrp">   1079.24084938 </i>
    <i name="e_0_energy">   1079.22618824 </i>
   </energy>
  </scstep>
  <scstep>
   <time name="dav">    0.02    0.02</time>
   <time name="total">    0.03    0.03</time>
   <energy>
    <i name="alphaZ">    243.62337785 </i>
    <i name="ewald">  -4395.34838493 </i>
    <i name="hartreedc">   -336.47720552 </i>
    <i name="XCdc">    125.98833244 </i>
    <i name="pawpsdc">  62770.75503848 </i>
    <i name="pawaedc"> -62895.21688277 </i>
    <i name="eentropy">     -0.02199912 </i>
    <i name="bandstr">    142.18316791 </i>
    <i name="atom">   5423.73341339 </i>
    <i name="e_fr_energy">   1079.21885772 </i>
    <i name="e_wo_entrp">   1079.24085684 </i>
    <i name="e_0_energy">   1079.22619076 </i>
   </energy>
  </scstep>
  <structure>
   <crystal>
    <varray name="basis" >
     <v>       3.63500000       0.00000000       0.00000000 </v>
     <v>       0.00000000       3.63500000       0.00000000 </v>
     <v>       0.00000000       0.00000000       3.63500000 </v>
    </varray>
    <i name="volume">     48.03007287 </i>
    <varray name="rec_basis" >
     <v>       0.27510316       0.00000000       0.00000000 </v>
     <v>       0.00000000       0.27510316       0.00000000 </v>
     <v>       0.00000000       0.00000000       0.27510316 </v>
    </varray>
   </crystal>
   <varray name="positions" >
    <v>       0.00000000       0.00000000       0.00000000 </v>
    <v>       0.50000000       0.50000000       0.00000000 </v>
    <v>       0.50000000       0.00000000       0.50000000 </v>
    <v>       0.00000000       0.50000000       0.50000000 </v>
   </varray>
  </structure>
  <varray name="forces" >
   <v>       0.00000000       0.00000000       0.00000000 </v>
   <v>      -0.00000000      -0.00000000       0.00000000 </v>
   <v>       0.00000000      -0.00000000       0.00000000 </v>
   <v>      -0.00000000       0.00000000      -0.00000000 </v>
  </varray>
  <varray name="stress" >
   <v> -104980.97635564      -0.00000000       0.00000000 </v>
   <v>       0.00000000 -104980.97635564       0.00000000 </v>
   <v>      -0.00000000      -0.00000000 -104980.97635564 </v>
  </varray>
  <energy>
   <i name="e_fr_energy">   1079.21885772 </i>
   <i name="e_wo_entrp">   1079.24085684 </i>
   <i name="e_0_energy">   1079.22619076 </i>
  </energy>
  <time name="totalsc">    0.20    0.23</time>
  <eigenvalues>
   <array>
    <dimension dim="1">band</dimension>
    <dimension dim="2">kpoint</dimension>
    <dimension dim="3">spin</dimension>
    <field>eigene</field>
    <field>occ</field>
    <set>
     <set comment="spin 1">
      <set comment="kpoint 1">
       <r>   -5.4222    1.0000 </r>
       <r>    0.7499    1.0000 </r>
       <r>    0.7499    1.0000 </r>
       <r>    0.7499    1.0000 </r>
       <r>    4.6540    1.0000 </r>
       <r>    4.6540    1.0000 </r>
       <r>    4.6540    1.0000 </r>
       <r>    6.2208    1.0000 </r>
       <r>    6.2208    1.0000 </r>
       <r>    6.2208    1.0000 </r>
       <r>   15.7806   -0.0000 </r>
       <r>   15.7806   -0.0000 </r>
       <r>   15.7806   -0.0000 </r>
       <r>   15.7806   -0.0000 </r>
       <r>   15.7806   -0.0000 </r>
       <r>   15.7806   -0.0000 </r>
       <r>   20.0060    0.0000 </r>
       <r>   20.0060    0.0000 </r>
       <r>   20.0060    0.0000 </r>
       <r>   20.0060    0.0000 </r>
       <r>   20.0060    0.0000 </r>
       <r>   20.0060    0.0000 </r>
       <r>   20.1436    0.0000 </r>
       <r>   20.1436    0.0000 </r>
       <r>   22.0008    0.0000 </r>
       <r>   22.0008    0.0000 </r>
       <r>   22.3124    0.0000 </r>
       <r>   22.3124    0.0000 </r>
       <r>   22.3124    0.0000 </r>
       <r>   24.0981    0.0000 </r>
      </set>
      <set comment="kpoint 2">
       <r>   -4.9435    1.0000 </r>
       <r>   -3.1069    1.0000 </r>
       <r>    0.5542    1.0000 </r>
       <r>    1.2075    1.0000 </r>
       <r>    2.5882    1.0000 </r>
       <r>    2.5882    1.0000 </r>
       <r>    2.8877    1.0000 </r>
       <r>    4.7550    1.0000 </r>
       <r>    4.7550    1.0000 </r>
       <r>    6.6845    1.0000 </r>
       <r>    6.6845    1.0000 </r>
       <r>    6.8753    1.0000 </r>
       <r>    6.8753    1.0000 </r>
       <r>    7.7462    1.0000 </r>
       <r>    7.7462    1.0000 </r>
       <r>    9.2988    1.0000 </r>
       <r>    9.2988    1.0000 </r>
       <r>    9.9759    1.0000 </r>
       <r>   13.5349   -0.0000 </r>
       <r>   13.5349   -0.0000 </r>
       <r>   13.9757   -0.0000 </r>
       <r>   13.9757   -0.0000 </r>
       <r>   16.2551   -0.0000 </r>
       <r>   16.2551   -0.0000 </r>
       <r>   22.3259    0.0000 </r>
       <r>   22.3259    0.0000 </r>
       <r>   22.4927    0.0000 </r>
       <r>   22.7684    0.0000 </r>
       <r>   22.8893    0.0000 </r>
       <r>   24.7733    0.0000 </r>
      </set>
      <set comment="kpoint 3">
       <r>   -8.7045    1.0000 </r>
       <r>   -3.6602    1.0000 </r>
       <r>   -2.5528    1.0000 </r>
       <r>   -1.9878    1.0000 </r>
       <r>   -1.6930    1.0000 </r>
       <r>   -1.3579    1.0000 </r>
       <r>   -1.3579    1.0000 </r>
       <r>   -0.9784    1.0000 </r>
       <r>    4.4277    1.0000 </r>
       <r>    4.4277    1.0000 </r>
       <r>    4.7115    1.0000 </r>
       <r>    4.7115    1.0000 </r>
       <r>    6.1808    1.0000 </r>
       <r>    6.1808    1.0000 </r>
       <r>    6.9684    1.0000 </r>
       <r>    6.9684    1.0000 </r>
       <r>    7.0918    1.0000 </r>
       <r>    7.0918    1.0000 </r>
       <r>    8.1354    1.0000 </r>
       <r>    8.1354    1.0000 </r>
       <r>    9.3521    1.0000 </r>
       <r>    9.3521    1.0000 </r>
       <r>   10.4619    1.0000 </r>
       <r>   10.4619    1.0000 </r>
       <r>   12.2107    0.9787 </r>
       <r>   12.2107    0.9787 </r>
       <r>   14.8389   -0.0000 </r>
       <r>   17.4446   -0.0000 </r>
       <r>   17.4446   -0.0000 </r>
       <r>   19.3184    0.0000 </r>
      </set>
      <set comment="kpoint 4">
       <r>   -4.5125    1.0000 </r>
       <r>    0.1802    1.0000 </r>
       <r>    0.1802    1.0000 </r>
       <r>    0.1815    1.0000 </r>
       <r>    1.6544    1.0000 </r>
       <r>    1.6544    1.0000 </r>
       <r>    5.3431    1.0000 </r>
       <r>    5.5083    1.0000 </r>
       <r>    5.5083    1.0000 </r>
       <r>    6.3216    1.0000 </r>
       <r>    6.8046    1.0000 </r>
       <r>    6.8046    1.0000 </r>
       <r>    7.1971    1.0000 </r>
       <r>    7.8434    1.0000 </r>
       <r>    7.8434    1.0000 </r>
       <r>    9.6850    1.0000 </r>
       <r>    9.9846    1.0000 </r>
       <r>    9.9846    1.0000 </r>
       <r>   10.5670    1.0000 </r>
       <r>   11.4636    1.0000 </r>
       <r>   14.0063   -0.0000 </r>
       <r>   14.0063   -0.0000 </r>
       <r>   14.8216   -0.0000 </r>
       <r>   14.8216   -0.0000 </r>
       <r>   16.6642   -0.0000 </r>
       <r>   19.4506    0.0000 </r>
       <r>   19.7222    0.0000 </r>
       <r>   20.4472    0.0000 </r>
       <r>   23.0736    0.0000 </r>
       <r>   24.2029    0.0000 </r>
      </set>
      <set comment="kpoint 5">
       <r>   -5.4810    1.0000 </r>
       <r>   -3.2316    1.0000 </r>
       <r>   -2.4689    1.0000 </r>
       <r>   -1.8977    1.0000 </r>
       <r>   -1.1963    1.0000 </r>
       <r>    1.4694    1.0000 </r>
       <r>    1.8258    1.0000 </r>
       <r>    2.4664    1.0000 </r>
       <r>    2.8376    1.0000 </r>
       <r>    3.1300    1.0000 </r>
       <r>    3.9709    1.0000 </r>
       <r>    4.9054    1.0000 </r>
       <r>    6.3620    1.0000 </r>
       <r>    6.6147    1.0000 </r>
       <r>    7.5956    1.0000 </r>
       <r>    8.6087    1.0000 </r>
       <r>    9.0304    1.0000 </r>
       <r>    9.4360    1.0000 </r>
       <r>    9.6798    1.0000 </r>
       <r>   10.9329    1.0000 </r>
       <r>   13.3487   -0.0000 </r>
       <r>   14.1916   -0.0000 </r>
       <r>   14.2173   -0.0000 </r>
       <r>   15.3645   -0.0000 </r>
       <r>   15.9022   -0.0000 </r>
       <r>   16.4197   -0.0000 </r>
       <r>   17.5758   -0.0000 </r>
       <r>   17.5814   -0.0000 </r>
       <r>   17.9178    0.0000 </r>
       <r>   19.3674    0.0000 </r>
      </set>
      <set comment="kpoint 6">
       <r>   -7.6075    1.0000 </r>
       <r>   -7.6075    1.0000 </r>
       <r>   -6.1274    1.0000 </r>
       <r>   -6.1274    1.0000 </r>
       <r>   -2.0003    1.0000 </r>
       <r>   -1.4677    1.0000 </r>
       <r>   -0.7962    1.0000 </r>
       <r>   -0.5397    1.0000 </r>
       <r>    0.0438    1.0000 </r>
       <r>    0.0438    1.0000 </r>
       <r>    1.0733    1.0000 </r>
       <r>    1.0733    1.0000 </r>
       <r>    1.8457    1.0000 </r>
       <r>    3.0202    1.0000 </r>
       <r>    5.4538    1.0000 </r>
       <r>    5.4538    1.0000 </r>
       <r>    7.7666    1.0000 </r>
       <r>    9.5215    1.0000 </r>
       <r>   10.0196    1.0000 </r>
       <r>   10.9836    1.0000 </r>
       <r>   10.9836    1.0000 </r>
       <r>   12.3365    0.6088 </r>
       <r>   12.3365    0.6088 </r>
       <r>   13.3640   -0.0000 </r>
       <r>   14.6288   -0.0000 </r>
       <r>   14.8992   -0.0000 </r>
       <r>   17.2004   -0.0000 </r>
       <r>   17.2004   -0.0000 </r>
       <r>   17.5853   -0.0000 </r>
       <r>   17.7888   -0.0000 </r>
      </set>
      <set comment="kpoint 7">
       <r>   -7.6501    1.0000 </r>
       <r>   -7.6501    1.0000 </r>
       <r>   -7.6501    1.0000 </r>
       <r>   -4.1308    1.0000 </r>
       <r>   -0.2539    1.0000 </r>
       <r>   -0.2539    1.0000 </r>
       <r>   -0.2539    1.0000 </r>
       <r>    2.1064    1.0000 </r>
       <r>    2.1064    1.0000 </r>
       <r>    2.1064    1.0000 </r>
       <r>    4.1309    1.0000 </r>
       <r>    4.1309    1.0000 </r>
       <r>    4.1309    1.0000 </r>
       <r>    5.7790    1.0000 </r>
       <r>    5.7790    1.0000 </r>
       <r>    5.7790    1.0000 </r>
       <r>    7.8434    1.0000 </r>
       <r>    7.8434    1.0000 </r>
       <r>    9.0422    1.0000 </r>
       <r>    9.0422    1.0000 </r>
       <r>    9.0422    1.0000 </r>
       <r>   11.8056    1.0003 </r>
       <r>   11.8056    1.0003 </r>
       <r>   11.8056    1.0003 </r>
       <r>   12.3920    0.3766 </r>
       <r>   12.3920    0.3766 </r>
       <r>   12.3920    0.3766 </r>
       <r>   15.9736   -0.0000 </r>
       <r>   17.0680   -0.0000 </r>
       <r>   17.0680   -0.0000 </r>
      </set>
      <set comment="kpoint 8">
       <r>  -11.0572    1.0000 </r>
       <r>   -2.9872    1.0000 </r>
       <r>   -2.8175    1.0000 </r>
       <r>   -2.3919    1.0000 </r>
       <r>   -2.3919    1.0000 </r>
       <r>   -2.1713    1.0000 </r>
       <r>   -2.1713    1.0000 </r>
       <r>   -0.7169    1.0000 </r>
       <r>    0.9512    1.0000 </r>
       <r>    0.9512    1.0000 </r>
       <r>    2.8388    1.0000 </r>
       <r>    2.8388    1.0000 </r>
       <r>    3.8194    1.0000 </r>
       <r>    4.8309    1.0000 </r>
       <r>    4.8309    1.0000 </r>
       <r>    4.9946    1.0000 </r>
       <r>    6.1415    1.0000 </r>
       <r>    7.0629    1.0000 </r>
       <r>    7.0629    1.0000 </r>
       <r>   10.7001    1.0000 </r>
       <r>   10.7984    1.0000 </r>
       <r>   12.6537   -0.0296 </r>
       <r>   12.6537   -0.0296 </r>
       <r>   13.2743   -0.0000 </r>
       <r>   15.1188   -0.0000 </r>
       <r>   16.2847   -0.0000 </r>
       <r>   16.2847   -0.0000 </r>
       <r>   16.8996   -0.0000 </r>
       <r>   17.1370   -0.0000 </r>
       <r>   17.1370   -0.0000 </r>
      </set>
      <set comment="kpoint 9">
       <r>   -8.0069    1.0000 </r>
       <r>   -4.3844    1.0000 </r>
       <r>   -3.5495    1.0000 </r>
       <r>   -3.5495    1.0000 </r>
       <r>   -3.1196    1.0000 </r>
       <r>   -1.6991    1.0000 </r>
       <r>   -1.5941    1.0000 </r>
       <r>   -0.8833    1.0000 </r>
       <r>   -0.4689    1.0000 </r>
       <r>   -0.4689    1.0000 </r>
       <r>    0.4502    1.0000 </r>
       <r>    0.4502    1.0000 </r>
       <r>    2.0020    1.0000 </r>
       <r>    3.0605    1.0000 </r>
       <r>    4.6964    1.0000 </r>
       <r>    4.6964    1.0000 </r>
       <r>    5.3666    1.0000 </r>
       <r>    6.2710    1.0000 </r>
       <r>    7.8511    1.0000 </r>
       <r>    7.8511    1.0000 </r>
       <r>   10.0483    1.0000 </r>
       <r>   10.3048    1.0000 </r>
       <r>   10.5323    1.0000 </r>
       <r>   10.5323    1.0000 </r>
       <r>   14.3246   -0.0000 </r>
       <r>   15.8925   -0.0000 </r>
       <r>   16.0497   -0.0000 </r>
       <r>   16.0497   -0.0000 </r>
       <r>   16.6656   -0.0000 </r>
       <r>   17.8801    0.0000 </r>
      </set>
      <set comment="kpoint 10">
       <r>   -4.8345    1.0000 </r>
       <r>   -0.3909    1.0000 </r>
       <r>   -0.3356    1.0000 </r>
       <r>   -0.3356    1.0000 </r>
       <r>   -0.3356    1.0000 </r>
       <r>    1.4795    1.0000 </r>
       <r>    1.4795    1.0000 </r>
       <r>    1.4795    1.0000 </r>
       <r>    2.0066    1.0000 </r>
       <r>    2.0066    1.0000 </r>
       <r>    2.0399    1.0000 </r>
       <r>    2.0399    1.0000 </r>
       <r>    2.0399    1.0000 </r>
       <r>    3.1817    1.0000 </r>
       <r>    3.1817    1.0000 </r>
       <r>    3.1817    1.0000 </r>
       <r>    5.3573    1.0000 </r>
       <r>    5.3573    1.0000 </r>
       <r>    5.3573    1.0000 </r>
       <r>    7.1847    1.0000 </r>
       <r>    8.2378    1.0000 </r>
       <r>    8.2378    1.0000 </r>
       <r>    8.2378    1.0000 </r>
       <r>   10.9404    1.0000 </r>
       <r>   10.9404    1.0000 </r>
       <r>   12.3821    0.4174 </r>
       <r>   12.3821    0.4174 </r>
       <r>   12.3821    0.4174 </r>
       <r>   19.1051    0.0000 </r>
       <r>   19.1051    0.0000 </r>
      </set>
     </set>
    </set>
   </array>
  </eigenvalues>
  <separator name="orbital magnetization" >
   <v name="MAGDIPOLOUT">      0.00000000      0.00000000      0.00000000</v>
  </separator>
  <dos>
   <i name="efermi">     12.36244620 </i>
   <total>
    <array>
     <dimension dim="1">gridpoints</dimension>
     <dimension dim="2">spin</dimension>
     <field>energy</field>
     <field>total</field>
     <field>integrated</field>
     <set>
      <set comment="spin 1">
       <r>   -13.0572     0.0000     0.0000 </r>
       <r>   -12.9244     0.0000     0.0000 </r>
       <r>   -12.7916     0.0000     0.0000 </r>
       <r>   -12.6589    -0.0000    -0.0000 </r>
       <r>   -12.5261    -0.0000    -0.0000 </r>
       <r>   -12.3933    -0.0000    -0.0000 </r>
       <r>   -12.2606    -0.0000    -0.0000 </r>
       <r>   -12.1278    -0.0000    -0.0000 </r>
       <r>   -11.9950    -0.0000    -0.0000 </r>
       <r>   -11.8623    -0.0000    -0.0000 </r>
       <r>   -11.7295    -0.0000    -0.0000 </r>
       <r>   -11.5967    -0.0013    -0.0002 </r>
       <r>   -11.4640    -0.0194    -0.0027 </r>
       <r>   -11.3312    -0.0742    -0.0126 </r>
       <r>   -11.1984     0.2047     0.0146 </r>
       <r>   -11.0657     1.2327     0.1782 </r>
       <r>   -10.9329     1.3456     0.3569 </r>
       <r>   -10.8001     0.3052     0.3974 </r>
       <r>   -10.6674    -0.0739     0.3876 </r>
       <r>   -10.5346    -0.0252     0.3843 </r>
       <r>   -10.4018    -0.0019     0.3840 </r>
       <r>   -10.2690    -0.0001     0.3840 </r>
       <r>   -10.1363    -0.0000     0.3840 </r>
       <r>   -10.0035    -0.0000     0.3840 </r>
       <r>    -9.8707    -0.0000     0.3840 </r>
       <r>    -9.7380    -0.0000     0.3840 </r>
       <r>    -9.6052    -0.0000     0.3840 </r>
       <r>    -9.4724    -0.0000     0.3840 </r>
       <r>    -9.3397    -0.0000     0.3840 </r>
       <r>    -9.2069    -0.0008     0.3839 </r>
       <r>    -9.0741    -0.0083     0.3828 </r>
       <r>    -8.9414    -0.0163     0.3806 </r>
       <r>    -8.8086     0.1113     0.3954 </r>
       <r>    -8.6758     0.3622     0.4435 </r>
       <r>    -8.5431     0.2676     0.4790 </r>
       <r>    -8.4103     0.0064     0.4799 </r>
       <r>    -8.2775    -0.0920     0.4677 </r>
       <r>    -8.1448     0.2147     0.4962 </r>
       <r>    -8.0120     1.1993     0.6554 </r>
       <r>    -7.8792     1.1918     0.8136 </r>
       <r>    -7.7465     1.0063     0.9472 </r>
       <r>    -7.6137     2.6536     1.2995 </r>
       <r>    -7.4809     2.3185     1.6074 </r>
       <r>    -7.3481     0.3648     1.6558 </r>
       <r>    -7.2154    -0.1403     1.6372 </r>
       <r>    -7.0826    -0.0363     1.6323 </r>
       <r>    -6.9498    -0.0025     1.6320 </r>
       <r>    -6.8171    -0.0001     1.6320 </r>
       <r>    -6.6843    -0.0008     1.6319 </r>
       <r>    -6.5515    -0.0145     1.6300 </r>
       <r>    -6.4188    -0.0700     1.6207 </r>
       <r>    -6.2860     0.1195     1.6365 </r>
       <r>    -6.1532     1.0990     1.7824 </r>
       <r>    -6.0205     1.4356     1.9730 </r>
       <r>    -5.8877     0.4048     2.0268 </r>
       <r>    -5.7549    -0.1434     2.0077 </r>
       <r>    -5.6222     0.1723     2.0306 </r>
       <r>    -5.4894     1.2610     2.1980 </r>
       <r>    -5.3566     1.4038     2.3844 </r>
       <r>    -5.2239     0.3097     2.4255 </r>
       <r>    -5.0911    -0.0563     2.4181 </r>
       <r>    -4.9583     0.3664     2.4667 </r>
       <r>    -4.8256     0.7515     2.5665 </r>
       <r>    -4.6928     0.4518     2.6265 </r>
       <r>    -4.5600     0.5563     2.7003 </r>
       <r>    -4.4272     1.6569     2.9203 </r>
       <r>    -4.2945     1.8201     3.1620 </r>
       <r>    -4.1617     0.8830     3.2792 </r>
       <r>    -4.0289     0.3946     3.3316 </r>
       <r>    -3.8962     0.0072     3.3325 </r>
       <r>    -3.7634     0.0063     3.3334 </r>
       <r>    -3.6306     1.5819     3.5434 </r>
       <r>    -3.4979     3.1874     3.9666 </r>
       <r>    -3.3651     1.9151     4.2208 </r>
       <r>    -3.2323     1.6904     4.4453 </r>
       <r>    -3.0996     3.2319     4.8744 </r>
       <r>    -2.9668     3.2596     5.3071 </r>
       <r>    -2.8340     2.3631     5.6209 </r>
       <r>    -2.7013     1.2740     5.7900 </r>
       <r>    -2.5685     1.0922     5.9350 </r>
       <r>    -2.4357     3.4614     6.3946 </r>
       <r>    -2.3030     4.5499     6.9987 </r>
       <r>    -2.1702     3.7560     7.4974 </r>
       <r>    -2.0374     3.2625     7.9305 </r>
       <r>    -1.9047     2.6576     8.2834 </r>
       <r>    -1.7719     2.4484     8.6084 </r>
       <r>    -1.6391     3.0441     9.0126 </r>
       <r>    -1.5063     2.9370     9.4025 </r>
       <r>    -1.3736     1.9223     9.6578 </r>
       <r>    -1.2408     1.7111     9.8849 </r>
       <r>    -1.1080     1.5573    10.0917 </r>
       <r>    -0.9753     1.3113    10.2658 </r>
       <r>    -0.8425     2.4016    10.5846 </r>
       <r>    -0.7097     2.9234    10.9728 </r>
       <r>    -0.5770     2.7887    11.3430 </r>
       <r>    -0.4442     4.4292    11.9311 </r>
       <r>    -0.3114     5.0843    12.6061 </r>
       <r>    -0.1787     2.9391    12.9963 </r>
       <r>    -0.0459     1.0958    13.1418 </r>
       <r>     0.0869     2.0647    13.4160 </r>
       <r>     0.2196     2.9864    13.8125 </r>
       <r>     0.3524     2.5079    14.1454 </r>
       <r>     0.4852     3.1430    14.5627 </r>
       <r>     0.6179     2.2430    14.8605 </r>
       <r>     0.7507     0.4123    14.9153 </r>
       <r>     0.8835     1.5022    15.1147 </r>
       <r>     1.0162     3.8717    15.6288 </r>
       <r>     1.1490     3.1331    16.0447 </r>
       <r>     1.2818     1.0056    16.1782 </r>
       <r>     1.4146     1.5606    16.3854 </r>
       <r>     1.5473     3.2822    16.8212 </r>
       <r>     1.6801     2.8936    17.2054 </r>
       <r>     1.8129     2.6537    17.5577 </r>
       <r>     1.9456     4.1292    18.1059 </r>
       <r>     2.0784     5.5734    18.8459 </r>
       <r>     2.2112     3.3699    19.2933 </r>
       <r>     2.3439     0.6866    19.3845 </r>
       <r>     2.4767     1.2219    19.5467 </r>
       <r>     2.6095     1.6579    19.7668 </r>
       <r>     2.7422     2.1905    20.0577 </r>
       <r>     2.8750     4.7104    20.6831 </r>
       <r>     3.0078     5.1659    21.3689 </r>
       <r>     3.1405     4.8328    22.0106 </r>
       <r>     3.2733     3.2954    22.4481 </r>
       <r>     3.4061     0.5998    22.5277 </r>
       <r>     3.5388    -0.2744    22.4913 </r>
       <r>     3.6716     0.0315    22.4955 </r>
       <r>     3.8044     1.2102    22.6561 </r>
       <r>     3.9371     2.4145    22.9767 </r>
       <r>     4.0699     2.5971    23.3215 </r>
       <r>     4.2027     1.9022    23.5741 </r>
       <r>     4.3355     0.7729    23.6767 </r>
       <r>     4.4682     0.4145    23.7317 </r>
       <r>     4.6010     1.6306    23.9482 </r>
       <r>     4.7338     5.4450    24.6711 </r>
       <r>     4.8665     7.5378    25.6719 </r>
       <r>     4.9993     5.1358    26.3538 </r>
       <r>     5.1321     1.5106    26.5544 </r>
       <r>     5.2648     1.2543    26.7209 </r>
       <r>     5.3976     4.7803    27.3556 </r>
       <r>     5.5304     5.3079    28.0603 </r>
       <r>     5.6631     2.3152    28.3677 </r>
       <r>     5.7959     1.2685    28.5361 </r>
       <r>     5.9287     0.8691    28.6515 </r>
       <r>     6.0614     0.8206    28.7604 </r>
       <r>     6.1942     3.1399    29.1773 </r>
       <r>     6.3270     4.7461    29.8074 </r>
       <r>     6.4597     3.1610    30.2271 </r>
       <r>     6.5925     1.8090    30.4673 </r>
       <r>     6.7253     2.5570    30.8068 </r>
       <r>     6.8580     3.0097    31.2064 </r>
       <r>     6.9908     3.8566    31.7184 </r>
       <r>     7.1236     5.0948    32.3948 </r>
       <r>     7.2564     3.3149    32.8349 </r>
       <r>     7.3891     0.5425    32.9070 </r>
       <r>     7.5219     0.2686    32.9426 </r>
       <r>     7.6547     1.9317    33.1991 </r>
       <r>     7.7874     5.1884    33.8880 </r>
       <r>     7.9202     6.5775    34.7612 </r>
       <r>     8.0530     2.9410    35.1517 </r>
       <r>     8.1857     1.4524    35.3445 </r>
       <r>     8.3185     1.7016    35.5705 </r>
       <r>     8.4513     0.7465    35.6696 </r>
       <r>     8.5840     1.0211    35.8051 </r>
       <r>     8.7168     1.2664    35.9733 </r>
       <r>     8.8496     0.4427    36.0320 </r>
       <r>     8.9823     1.5967    36.2440 </r>
       <r>     9.1151     2.9193    36.6316 </r>
       <r>     9.2479     1.9166    36.8861 </r>
       <r>     9.3806     2.2627    37.1865 </r>
       <r>     9.5134     3.0088    37.5860 </r>
       <r>     9.6462     2.7843    37.9556 </r>
       <r>     9.7789     2.1344    38.2390 </r>
       <r>     9.9117     1.9566    38.4988 </r>
       <r>    10.0445     3.6918    38.9889 </r>
       <r>    10.1773     2.9603    39.3820 </r>
       <r>    10.3100     1.5627    39.5895 </r>
       <r>    10.4428     2.8037    39.9617 </r>
       <r>    10.5756     4.7262    40.5892 </r>
       <r>    10.7083     4.3620    41.1683 </r>
       <r>    10.8411     3.9404    41.6915 </r>
       <r>    10.9739     4.6771    42.3124 </r>
       <r>    11.1066     2.9443    42.7033 </r>
       <r>    11.2394     0.3197    42.7458 </r>
       <r>    11.3722     0.0648    42.7544 </r>
       <r>    11.5049     0.6346    42.8387 </r>
       <r>    11.6377     0.5624    42.9133 </r>
       <r>    11.7705     1.0447    43.0520 </r>
       <r>    11.9032     1.3887    43.2364 </r>
       <r>    12.0360     0.3657    43.2850 </r>
       <r>    12.1688     0.4031    43.3385 </r>
       <r>    12.3015     2.8358    43.7150 </r>
       <r>    12.4343     4.6637    44.3342 </r>
       <r>    12.5671     3.4675    44.7946 </r>
       <r>    12.6998     3.0104    45.1942 </r>
       <r>    12.8326     1.6809    45.4174 </r>
       <r>    12.9654    -0.0415    45.4119 </r>
       <r>    13.0982    -0.1886    45.3869 </r>
       <r>    13.2309     1.3726    45.5691 </r>
       <r>    13.3637     3.5605    46.0418 </r>
       <r>    13.4965     2.8828    46.4245 </r>
       <r>    13.6292     0.9359    46.5488 </r>
       <r>    13.7620    -0.0019    46.5485 </r>
       <r>    13.8948     0.5073    46.6159 </r>
       <r>    14.0275     2.1915    46.9069 </r>
       <r>    14.1603     3.5528    47.3786 </r>
       <r>    14.2931     4.1623    47.9312 </r>
       <r>    14.4258     2.4573    48.2574 </r>
       <r>    14.5586     0.5952    48.3365 </r>
       <r>    14.6914     0.9011    48.4561 </r>
       <r>    14.8241     2.2229    48.7512 </r>
       <r>    14.9569     2.4633    49.0783 </r>
       <r>    15.0897     1.7093    49.3052 </r>
       <r>    15.2224     1.5591    49.5122 </r>
       <r>    15.3552     1.6135    49.7264 </r>
       <r>    15.4880     1.2219    49.8887 </r>
       <r>    15.6207     0.1172    49.9042 </r>
       <r>    15.7535     0.4205    49.9601 </r>
       <r>    15.8863     3.0880    50.3700 </r>
       <r>    16.0191     5.2432    51.0662 </r>
       <r>    16.1518     4.5078    51.6647 </r>
       <r>    16.2846     4.2865    52.2338 </r>
       <r>    16.4174     4.0819    52.7757 </r>
       <r>    16.5501     2.2949    53.0804 </r>
       <r>    16.6829     2.0922    53.3582 </r>
       <r>    16.8157     2.0326    53.6281 </r>
       <r>    16.9484     1.8967    53.8799 </r>
       <r>    17.0812     3.7099    54.3724 </r>
       <r>    17.2140     5.1109    55.0510 </r>
       <r>    17.3467     2.6618    55.4044 </r>
       <r>    17.4795     1.9095    55.6579 </r>
       <r>    17.6123     3.8772    56.1727 </r>
       <r>    17.7450     3.4012    56.6243 </r>
       <r>    17.8778     3.2036    57.0496 </r>
       <r>    18.0106     2.9026    57.4350 </r>
       <r>    18.1433     0.7411    57.5334 </r>
       <r>    18.2761    -0.1517    57.5132 </r>
       <r>    18.4089    -0.0637    57.5048 </r>
       <r>    18.5416    -0.0062    57.5040 </r>
       <r>    18.6744    -0.0088    57.5028 </r>
       <r>    18.8072    -0.0465    57.4966 </r>
       <r>    18.9400     0.0389    57.5018 </r>
       <r>    19.0727     0.5952    57.5808 </r>
       <r>    19.2055     1.1404    57.7322 </r>
       <r>    19.3383     1.9185    57.9869 </r>
       <r>    19.4710     2.3655    58.3010 </r>
       <r>    19.6038     1.2005    58.4604 </r>
       <r>    19.7366     0.6567    58.5476 </r>
       <r>    19.8693     0.5719    58.6235 </r>
       <r>    20.0021     0.4037    58.6771 </r>
       <r>    20.1349     0.3640    58.7254 </r>
       <r>    20.2676     0.1926    58.7510 </r>
       <r>    20.4004     0.4676    58.8131 </r>
       <r>    20.5332     0.7418    58.9116 </r>
       <r>    20.6659     0.2911    58.9502 </r>
       <r>    20.7987    -0.0236    58.9471 </r>
       <r>    20.9315    -0.0209    58.9443 </r>
       <r>    21.0642    -0.0023    58.9440 </r>
       <r>    21.1970    -0.0001    58.9440 </r>
       <r>    21.3298    -0.0000    58.9440 </r>
       <r>    21.4626    -0.0001    58.9440 </r>
       <r>    21.5953    -0.0017    58.9438 </r>
       <r>    21.7281    -0.0064    58.9429 </r>
       <r>    21.8609     0.0131    58.9447 </r>
       <r>    21.9936     0.0696    58.9539 </r>
       <r>    22.1264     0.0986    58.9670 </r>
       <r>    22.2592     0.4913    59.0322 </r>
       <r>    22.3919     1.0579    59.1727 </r>
       <r>    22.5247     0.7949    59.2782 </r>
       <r>    22.6575     0.3268    59.3216 </r>
       <r>    22.7902     0.4311    59.3788 </r>
       <r>    22.9230     0.7072    59.4727 </r>
       <r>    23.0558     0.8708    59.5883 </r>
       <r>    23.1885     0.7027    59.6816 </r>
       <r>    23.3213     0.1630    59.7033 </r>
       <r>    23.4541    -0.0390    59.6981 </r>
       <r>    23.5868    -0.0148    59.6961 </r>
       <r>    23.7196    -0.0048    59.6955 </r>
       <r>    23.8524    -0.0241    59.6923 </r>
       <r>    23.9851    -0.0069    59.6914 </r>
       <r>    24.1179     0.3563    59.7387 </r>
       <r>    24.2507     0.8022    59.8452 </r>
       <r>    24.3835     0.4569    59.9059 </r>
       <r>    24.5162    -0.0030    59.9055 </r>
       <r>    24.6490     0.0452    59.9115 </r>
       <r>    24.7818     0.3315    59.9555 </r>
       <r>    24.9145     0.3079    59.9964 </r>
       <r>    25.0473     0.0512    60.0031 </r>
       <r>    25.1801    -0.0185    60.0007 </r>
       <r>    25.3128    -0.0048    60.0000 </r>
       <r>    25.4456    -0.0003    60.0000 </r>
       <r>    25.5784    -0.0000    60.0000 </r>
       <r>    25.7111    -0.0000    60.0000 </r>
       <r>    25.8439    -0.0000    60.0000 </r>
       <r>    25.9767    -0.0000    60.0000 </r>
       <r>    26.1094    -0.0000    60.0000 </r>
       <r>    26.2422     0.0000    60.0000 </r>
       <r>    26.3750     0.0000    60.0000 </r>
       <r>    26.5077     0.0000    60.0000 </r>
       <r>    26.6405     0.0000    60.0000 </r>
       <r>    26.7733     0.0000    60.0000 </r>
      </set>
     </set>
    </array>
   </total>
  </dos>
 </calculation>
 <structure name="finalpos" >
  <crystal>
   <varray name="basis" >
    <v>       3.63500000       0.00000000       0.00000000 </v>
    <v>       0.00000000       3.63500000       0.00000000 </v>
    <v>       0.00000000       0.00000000       3.63500000 </v>
   </varray>
   <i name="volume">     48.03007287 </i>
   <varray name="rec_basis" >
    <v>       0.27510316       0.00000000       0.00000000 </v>
    <v>       0.00000000       0.27510316       0.00000000 </v>
    <v>       0.00000000       0.00000000       0.27510316 </v>
   </varray>
  </crystal>
  <varray name="positions" >
   <v>       0.00000000       0.00000000       0.00000000 </v>
   <v>       0.50000000       0.50000000       0.00000000 </v>
   <v>       0.50000000       0.00000000       0.50000000 </v>
   <v>       0.00000000       0.50000000       0.50000000 </v>
  </varray>
 </structure>
</modeling>
