unknown system                          
   1.00000000000000     
     3.509554    0.000000    0.000000
     0.000000    3.509554    0.000000
     0.000000    0.000000    3.509554
   Cu
     4
Direct
  0.000000  0.000000  0.000000
  0.500000  0.500000  0.000000
  0.500000  0.000000  0.500000
  0.000000  0.500000  0.500000
 
   32   32   32
 0.75840689674E+03 0.71765298815E+03 0.60755042141E+03 0.45853897661E+03 0.30584682103E+03
 0.17747842621E+03 0.88455756508E+02 0.40035898740E+02 0.21639760567E+02 0.15897821606E+02
 0.12281208765E+02 0.10016731420E+02 0.87136880006E+01 0.80194674715E+01 0.75995326824E+01
 0.72824602177E+01 0.71466863341E+01 0.72824602177E+01 0.75995326824E+01 0.80194674715E+01
 0.87136880006E+01 0.10016731420E+02 0.12281208765E+02 0.15897821606E+02 0.21639760567E+02
 0.40035898740E+02 0.88455756508E+02 0.17747842621E+03 0.30584682103E+03 0.45853897661E+03
 0.60755042141E+03 0.71765298815E+03 0.71765298815E+03 0.67893754382E+03 0.57433893950E+03
 0.43281150665E+03 0.28795781275E+03 0.16655475857E+03 0.82901007107E+02 0.37938380460E+02
 0.21152727505E+02 0.15715918075E+02 0.12212259810E+02 0.10030467346E+02 0.87788675856E+01
 0.81130637588E+01 0.77118886582E+01 0.74109223215E+01 0.72824602177E+01 0.74109223215E+01
 0.77118886582E+01 0.81130637588E+01 0.87788675856E+01 0.10030467346E+02 0.12212259810E+02
 0.15715918075E+02 0.21152727505E+02 0.37938380460E+02 0.82901007107E+02 0.16655475857E+03
 0.28795781275E+03 0.43281150665E+03 0.57433893950E+03 0.67893754382E+03 0.60755042141E+03
 0.57433893950E+03 0.48463071180E+03 0.36341903173E+03 0.23991469054E+03 0.13749757676E+03
 0.68400796473E+02 0.32654707771E+02 0.19956600998E+02 0.15208158305E+02 0.12024154249E+02
 0.10065658842E+02 0.89445719483E+01 0.83428163850E+01 0.79791787159E+01 0.77118886582E+01
 0.75995326824E+01 0.77118886582E+01 0.79791787159E+01 0.83428163850E+01 0.89445719483E+01
 0.10065658842E+02 0.12024154249E+02 0.15208158305E+02 0.19956600998E+02 0.32654707771E+02
 0.68400796473E+02 0.13749757676E+03 0.23991469054E+03 0.36341903173E+03 0.48463071180E+03
 0.57433893950E+03 0.45853897661E+03 0.43281150665E+03 0.36341903173E+03 0.27007682215E+03
 0.17599029315E+03 0.99689863251E+02 0.50319262978E+02 0.26555128998E+02 0.18532206019E+02
 0.14482373958E+02 0.11778214568E+02 0.10136073868E+02 0.91898220304E+01 0.86659736467E+01
 0.83428163850E+01 0.81130637588E+01 0.80194674715E+01 0.81130637588E+01 0.83428163850E+01
 0.86659736467E+01 0.91898220304E+01 0.10136073868E+02 0.11778214568E+02 0.14482373958E+02
 0.18532206019E+02 0.26555128998E+02 0.50319262978E+02 0.99689863251E+02 0.17599029315E+03
 0.27007682215E+03 0.36341903173E+03 0.43281150665E+03 0.30584682103E+03 0.28795781275E+03
 0.23991469054E+03 0.17599029315E+03 0.11297542443E+03 0.63958406245E+02 0.34495229379E+02
 0.21810313022E+02 0.16986666230E+02 0.13695734528E+02 0.11577670292E+02 0.10315850262E+02
 0.95928358301E+01 0.91898220304E+01 0.89445719483E+01 0.87788675856E+01 0.87136880006E+01
 0.87788675856E+01 0.89445719483E+01 0.91898220304E+01 0.95928358301E+01 0.10315850262E+02
 0.11577670292E+02 0.13695734528E+02 0.16986666230E+02 0.21810313022E+02 0.34495229379E+02
 0.63958406245E+02 0.11297542443E+03 0.17599029315E+03 0.23991469054E+03 0.28795781275E+03
 0.17747842621E+03 0.16655475857E+03 0.13749757676E+03 0.99689863251E+02 0.63958406245E+02
 0.38151924624E+02 0.24403390218E+02 0.18866206435E+02 0.15436573573E+02 0.13022577981E+02
 0.11549703637E+02 0.10730536885E+02 0.10315850262E+02 0.10136073868E+02 0.10065658842E+02
 0.10030467346E+02 0.10016731420E+02 0.10030467346E+02 0.10065658842E+02 0.10136073868E+02
 0.10315850262E+02 0.10730536885E+02 0.11549703637E+02 0.13022577981E+02 0.15436573573E+02
 0.18866206435E+02 0.24403390218E+02 0.38151924624E+02 0.63958406245E+02 0.99689863251E+02
 0.13749757676E+03 0.16655475857E+03 0.88455756508E+02 0.82901007107E+02 0.68400796473E+02
 0.50319262978E+02 0.34495229379E+02 0.24403390218E+02 0.19560297338E+02 0.16488189054E+02
 0.14134522193E+02 0.12628657918E+02 0.11838789986E+02 0.11549703637E+02 0.11577670292E+02
 0.11778214568E+02 0.12024154249E+02 0.12212259810E+02 0.12281208765E+02 0.12212259810E+02
 0.12024154249E+02 0.11778214568E+02 0.11577670292E+02 0.11549703637E+02 0.11838789986E+02
 0.12628657918E+02 0.14134522193E+02 0.16488189054E+02 0.19560297338E+02 0.24403390218E+02
 0.34495229379E+02 0.50319262978E+02 0.68400796473E+02 0.82901007107E+02 0.40035898740E+02
 0.37938380460E+02 0.32654707771E+02 0.26555128998E+02 0.21810313022E+02 0.18866206435E+02
 0.16488189054E+02 0.14558240763E+02 0.13277617371E+02 0.12666755930E+02 0.12628657918E+02
 0.13022577981E+02 0.13695734528E+02 0.14482373958E+02 0.15208158305E+02 0.15715918075E+02
 0.15897821606E+02 0.15715918075E+02 0.15208158305E+02 0.14482373958E+02 0.13695734528E+02
 0.13022577981E+02 0.12628657918E+02 0.12666755930E+02 0.13277617371E+02 0.14558240763E+02
 0.16488189054E+02 0.18866206435E+02 0.21810313022E+02 0.26555128998E+02 0.32654707771E+02
 0.37938380460E+02 0.21639760567E+02 0.21152727505E+02 0.19956600998E+02 0.18532206019E+02
 0.16986666230E+02 0.15436573573E+02 0.14134522193E+02 0.13277617371E+02 0.12980082067E+02
 0.13277617371E+02 0.14134522193E+02 0.15436573573E+02 0.16986666230E+02 0.18532206019E+02
 0.19956600998E+02 0.21152727505E+02 0.21639760567E+02 0.21152727505E+02 0.19956600998E+02
 0.18532206019E+02 0.16986666230E+02 0.15436573573E+02 0.14134522193E+02 0.13277617371E+02
 0.12980082067E+02 0.13277617371E+02 0.14134522193E+02 0.15436573573E+02 0.16986666230E+02
 0.18532206019E+02 0.19956600998E+02 0.21152727505E+02 0.15897821606E+02 0.15715918075E+02
 0.15208158305E+02 0.14482373958E+02 0.13695734528E+02 0.13022577981E+02 0.12628657918E+02
 0.12666755930E+02 0.13277617371E+02 0.14558240763E+02 0.16488189054E+02 0.18866206435E+02
 0.21810313022E+02 0.26555128998E+02 0.32654707771E+02 0.37938380460E+02 0.40035898740E+02
 0.37938380460E+02 0.32654707771E+02 0.26555128998E+02 0.21810313022E+02 0.18866206435E+02
 0.16488189054E+02 0.14558240763E+02 0.13277617371E+02 0.12666755930E+02 0.12628657918E+02
 0.13022577981E+02 0.13695734528E+02 0.14482373958E+02 0.15208158305E+02 0.15715918075E+02
 0.12281208765E+02 0.12212259810E+02 0.12024154249E+02 0.11778214568E+02 0.11577670292E+02
 0.11549703637E+02 0.11838789986E+02 0.12628657918E+02 0.14134522193E+02 0.16488189054E+02
 0.19560297338E+02 0.24403390218E+02 0.34495229379E+02 0.50319262978E+02 0.68400796473E+02
 0.82901007107E+02 0.88455756508E+02 0.82901007107E+02 0.68400796473E+02 0.50319262978E+02
 0.34495229379E+02 0.24403390218E+02 0.19560297338E+02 0.16488189054E+02 0.14134522193E+02
 0.12628657918E+02 0.11838789986E+02 0.11549703637E+02 0.11577670292E+02 0.11778214568E+02
 0.12024154249E+02 0.12212259810E+02 0.10016731420E+02 0.10030467346E+02 0.10065658842E+02
 0.10136073868E+02 0.10315850262E+02 0.10730536885E+02 0.11549703637E+02 0.13022577981E+02
 0.15436573573E+02 0.18866206435E+02 0.24403390218E+02 0.38151924624E+02 0.63958406245E+02
 0.99689863251E+02 0.13749757676E+03 0.16655475857E+03 0.17747842621E+03 0.16655475857E+03
 0.13749757676E+03 0.99689863251E+02 0.63958406245E+02 0.38151924624E+02 0.24403390218E+02
 0.18866206435E+02 0.15436573573E+02 0.13022577981E+02 0.11549703637E+02 0.10730536885E+02
 0.10315850262E+02 0.10136073868E+02 0.10065658842E+02 0.10030467346E+02 0.87136880006E+01
 0.87788675856E+01 0.89445719483E+01 0.91898220304E+01 0.95928358301E+01 0.10315850262E+02
 0.11577670292E+02 0.13695734528E+02 0.16986666230E+02 0.21810313022E+02 0.34495229379E+02
 0.63958406245E+02 0.11297542443E+03 0.17599029315E+03 0.23991469054E+03 0.28795781275E+03
 0.30584682103E+03 0.28795781275E+03 0.23991469054E+03 0.17599029315E+03 0.11297542443E+03
 0.63958406245E+02 0.34495229379E+02 0.21810313022E+02 0.16986666230E+02 0.13695734528E+02
 0.11577670292E+02 0.10315850262E+02 0.95928358301E+01 0.91898220304E+01 0.89445719483E+01
 0.87788675856E+01 0.80194674715E+01 0.81130637588E+01 0.83428163850E+01 0.86659736467E+01
 0.91898220304E+01 0.10136073868E+02 0.11778214568E+02 0.14482373958E+02 0.18532206019E+02
 0.26555128998E+02 0.50319262978E+02 0.99689863251E+02 0.17599029315E+03 0.27007682215E+03
 0.36341903173E+03 0.43281150665E+03 0.45853897661E+03 0.43281150665E+03 0.36341903173E+03
 0.27007682215E+03 0.17599029315E+03 0.99689863251E+02 0.50319262978E+02 0.26555128998E+02
 0.18532206019E+02 0.14482373958E+02 0.11778214568E+02 0.10136073868E+02 0.91898220304E+01
 0.86659736467E+01 0.83428163850E+01 0.81130637588E+01 0.75995326824E+01 0.77118886582E+01
 0.79791787159E+01 0.83428163850E+01 0.89445719483E+01 0.10065658842E+02 0.12024154249E+02
 0.15208158305E+02 0.19956600998E+02 0.32654707771E+02 0.68400796473E+02 0.13749757676E+03
 0.23991469054E+03 0.36341903173E+03 0.48463071180E+03 0.57433893950E+03 0.60755042141E+03
 0.57433893950E+03 0.48463071180E+03 0.36341903173E+03 0.23991469054E+03 0.13749757676E+03
 0.68400796473E+02 0.32654707771E+02 0.19956600998E+02 0.15208158305E+02 0.12024154249E+02
 0.10065658842E+02 0.89445719483E+01 0.83428163850E+01 0.79791787159E+01 0.77118886582E+01
 0.72824602177E+01 0.74109223215E+01 0.77118886582E+01 0.81130637588E+01 0.87788675856E+01
 0.10030467346E+02 0.12212259810E+02 0.15715918075E+02 0.21152727505E+02 0.37938380460E+02
 0.82901007107E+02 0.16655475857E+03 0.28795781275E+03 0.43281150665E+03 0.57433893950E+03
 0.67893754382E+03 0.71765298815E+03 0.67893754382E+03 0.57433893950E+03 0.43281150665E+03
 0.28795781275E+03 0.16655475857E+03 0.82901007107E+02 0.37938380460E+02 0.21152727505E+02
 0.15715918075E+02 0.12212259810E+02 0.10030467346E+02 0.87788675856E+01 0.81130637588E+01
 0.77118886582E+01 0.74109223215E+01 0.71466863341E+01 0.72824602177E+01 0.75995326824E+01
 0.80194674715E+01 0.87136880006E+01 0.10016731420E+02 0.12281208765E+02 0.15897821606E+02
 0.21639760567E+02 0.40035898740E+02 0.88455756508E+02 0.17747842621E+03 0.30584682103E+03
 0.45853897661E+03 0.60755042141E+03 0.71765298815E+03 0.75840689674E+03 0.71765298815E+03
 0.60755042141E+03 0.45853897661E+03 0.30584682103E+03 0.17747842621E+03 0.88455756508E+02
 0.40035898740E+02 0.21639760567E+02 0.15897821606E+02 0.12281208765E+02 0.10016731420E+02
 0.87136880006E+01 0.80194674715E+01 0.75995326824E+01 0.72824602177E+01 0.72824602177E+01
 0.74109223215E+01 0.77118886582E+01 0.81130637588E+01 0.87788675856E+01 0.10030467346E+02
 0.12212259810E+02 0.15715918075E+02 0.21152727505E+02 0.37938380460E+02 0.82901007107E+02
 0.16655475857E+03 0.28795781275E+03 0.43281150665E+03 0.57433893950E+03 0.67893754382E+03
 0.71765298815E+03 0.67893754382E+03 0.57433893950E+03 0.43281150665E+03 0.28795781275E+03
 0.16655475857E+03 0.82901007107E+02 0.37938380460E+02 0.21152727505E+02 0.15715918075E+02
 0.12212259810E+02 0.10030467346E+02 0.87788675856E+01 0.81130637588E+01 0.77118886582E+01
 0.74109223215E+01 0.75995326824E+01 0.77118886582E+01 0.79791787159E+01 0.83428163850E+01
 0.89445719483E+01 0.10065658842E+02 0.12024154249E+02 0.15208158305E+02 0.19956600998E+02
 0.32654707771E+02 0.68400796473E+02 0.13749757676E+03 0.23991469054E+03 0.36341903173E+03
 0.48463071180E+03 0.57433893950E+03 0.60755042141E+03 0.57433893950E+03 0.48463071180E+03
 0.36341903173E+03 0.23991469054E+03 0.13749757676E+03 0.68400796473E+02 0.32654707771E+02
 0.19956600998E+02 0.15208158305E+02 0.12024154249E+02 0.10065658842E+02 0.89445719483E+01
 0.83428163850E+01 0.79791787159E+01 0.77118886582E+01 0.80194674715E+01 0.81130637588E+01
 0.83428163850E+01 0.86659736467E+01 0.91898220304E+01 0.10136073868E+02 0.11778214568E+02
 0.14482373958E+02 0.18532206019E+02 0.26555128998E+02 0.50319262978E+02 0.99689863251E+02
 0.17599029315E+03 0.27007682215E+03 0.36341903173E+03 0.43281150665E+03 0.45853897661E+03
 0.43281150665E+03 0.36341903173E+03 0.27007682215E+03 0.17599029315E+03 0.99689863251E+02
 0.50319262978E+02 0.26555128998E+02 0.18532206019E+02 0.14482373958E+02 0.11778214568E+02
 0.10136073868E+02 0.91898220304E+01 0.86659736467E+01 0.83428163850E+01 0.81130637588E+01
 0.87136880006E+01 0.87788675856E+01 0.89445719483E+01 0.91898220304E+01 0.95928358301E+01
 0.10315850262E+02 0.11577670292E+02 0.13695734528E+02 0.16986666230E+02 0.21810313022E+02
 0.34495229379E+02 0.63958406245E+02 0.11297542443E+03 0.17599029315E+03 0.23991469054E+03
 0.28795781275E+03 0.30584682103E+03 0.28795781275E+03 0.23991469054E+03 0.17599029315E+03
 0.11297542443E+03 0.63958406245E+02 0.34495229379E+02 0.21810313022E+02 0.16986666230E+02
 0.13695734528E+02 0.11577670292E+02 0.10315850262E+02 0.95928358301E+01 0.91898220304E+01
 0.89445719483E+01 0.87788675856E+01 0.10016731420E+02 0.10030467346E+02 0.10065658842E+02
 0.10136073868E+02 0.10315850262E+02 0.10730536885E+02 0.11549703637E+02 0.13022577981E+02
 0.15436573573E+02 0.18866206435E+02 0.24403390218E+02 0.38151924624E+02 0.63958406245E+02
 0.99689863251E+02 0.13749757676E+03 0.16655475857E+03 0.17747842621E+03 0.16655475857E+03
 0.13749757676E+03 0.99689863251E+02 0.63958406245E+02 0.38151924624E+02 0.24403390218E+02
 0.18866206435E+02 0.15436573573E+02 0.13022577981E+02 0.11549703637E+02 0.10730536885E+02
 0.10315850262E+02 0.10136073868E+02 0.10065658842E+02 0.10030467346E+02 0.12281208765E+02
 0.12212259810E+02 0.12024154249E+02 0.11778214568E+02 0.11577670292E+02 0.11549703637E+02
 0.11838789986E+02 0.12628657918E+02 0.14134522193E+02 0.16488189054E+02 0.19560297338E+02
 0.24403390218E+02 0.34495229379E+02 0.50319262978E+02 0.68400796473E+02 0.82901007107E+02
 0.88455756508E+02 0.82901007107E+02 0.68400796473E+02 0.50319262978E+02 0.34495229379E+02
 0.24403390218E+02 0.19560297338E+02 0.16488189054E+02 0.14134522193E+02 0.12628657918E+02
 0.11838789986E+02 0.11549703637E+02 0.11577670292E+02 0.11778214568E+02 0.12024154249E+02
 0.12212259810E+02 0.15897821606E+02 0.15715918075E+02 0.15208158305E+02 0.14482373958E+02
 0.13695734528E+02 0.13022577981E+02 0.12628657918E+02 0.12666755930E+02 0.13277617371E+02
 0.14558240763E+02 0.16488189054E+02 0.18866206435E+02 0.21810313022E+02 0.26555128998E+02
 0.32654707771E+02 0.37938380460E+02 0.40035898740E+02 0.37938380460E+02 0.32654707771E+02
 0.26555128998E+02 0.21810313022E+02 0.18866206435E+02 0.16488189054E+02 0.14558240763E+02
 0.13277617371E+02 0.12666755930E+02 0.12628657918E+02 0.13022577981E+02 0.13695734528E+02
 0.14482373958E+02 0.15208158305E+02 0.15715918075E+02 0.21639760567E+02 0.21152727505E+02
 0.19956600998E+02 0.18532206019E+02 0.16986666230E+02 0.15436573573E+02 0.14134522193E+02
 0.13277617371E+02 0.12980082067E+02 0.13277617371E+02 0.14134522193E+02 0.15436573573E+02
 0.16986666230E+02 0.18532206019E+02 0.19956600998E+02 0.21152727505E+02 0.21639760567E+02
 0.21152727505E+02 0.19956600998E+02 0.18532206019E+02 0.16986666230E+02 0.15436573573E+02
 0.14134522193E+02 0.13277617371E+02 0.12980082067E+02 0.13277617371E+02 0.14134522193E+02
 0.15436573573E+02 0.16986666230E+02 0.18532206019E+02 0.19956600998E+02 0.21152727505E+02
 0.40035898740E+02 0.37938380460E+02 0.32654707771E+02 0.26555128998E+02 0.21810313022E+02
 0.18866206435E+02 0.16488189054E+02 0.14558240763E+02 0.13277617371E+02 0.12666755930E+02
 0.12628657918E+02 0.13022577981E+02 0.13695734528E+02 0.14482373958E+02 0.15208158305E+02
 0.15715918075E+02 0.15897821606E+02 0.15715918075E+02 0.15208158305E+02 0.14482373958E+02
 0.13695734528E+02 0.13022577981E+02 0.12628657918E+02 0.12666755930E+02 0.13277617371E+02
 0.14558240763E+02 0.16488189054E+02 0.18866206435E+02 0.21810313022E+02 0.26555128998E+02
 0.32654707771E+02 0.37938380460E+02 0.88455756508E+02 0.82901007107E+02 0.68400796473E+02
 0.50319262978E+02 0.34495229379E+02 0.24403390218E+02 0.19560297338E+02 0.16488189054E+02
 0.14134522193E+02 0.12628657918E+02 0.11838789986E+02 0.11549703637E+02 0.11577670292E+02
 0.11778214568E+02 0.12024154249E+02 0.12212259810E+02 0.12281208765E+02 0.12212259810E+02
 0.12024154249E+02 0.11778214568E+02 0.11577670292E+02 0.11549703637E+02 0.11838789986E+02
 0.12628657918E+02 0.14134522193E+02 0.16488189054E+02 0.19560297338E+02 0.24403390218E+02
 0.34495229379E+02 0.50319262978E+02 0.68400796473E+02 0.82901007107E+02 0.17747842621E+03
 0.16655475857E+03 0.13749757676E+03 0.99689863251E+02 0.63958406245E+02 0.38151924624E+02
 0.24403390218E+02 0.18866206435E+02 0.15436573573E+02 0.13022577981E+02 0.11549703637E+02
 0.10730536885E+02 0.10315850262E+02 0.10136073868E+02 0.10065658842E+02 0.10030467346E+02
 0.10016731420E+02 0.10030467346E+02 0.10065658842E+02 0.10136073868E+02 0.10315850262E+02
 0.10730536885E+02 0.11549703637E+02 0.13022577981E+02 0.15436573573E+02 0.18866206435E+02
 0.24403390218E+02 0.38151924624E+02 0.63958406245E+02 0.99689863251E+02 0.13749757676E+03
 0.16655475857E+03 0.30584682103E+03 0.28795781275E+03 0.23991469054E+03 0.17599029315E+03
 0.11297542443E+03 0.63958406245E+02 0.34495229379E+02 0.21810313022E+02 0.16986666230E+02
 0.13695734528E+02 0.11577670292E+02 0.10315850262E+02 0.95928358301E+01 0.91898220304E+01
 0.89445719483E+01 0.87788675856E+01 0.87136880006E+01 0.87788675856E+01 0.89445719483E+01
 0.91898220304E+01 0.95928358301E+01 0.10315850262E+02 0.11577670292E+02 0.13695734528E+02
 0.16986666230E+02 0.21810313022E+02 0.34495229379E+02 0.63958406245E+02 0.11297542443E+03
 0.17599029315E+03 0.23991469054E+03 0.28795781275E+03 0.45853897661E+03 0.43281150665E+03
 0.36341903173E+03 0.27007682215E+03 0.17599029315E+03 0.99689863251E+02 0.50319262978E+02
 0.26555128998E+02 0.18532206019E+02 0.14482373958E+02 0.11778214568E+02 0.10136073868E+02
 0.91898220304E+01 0.86659736467E+01 0.83428163850E+01 0.81130637588E+01 0.80194674715E+01
 0.81130637588E+01 0.83428163850E+01 0.86659736467E+01 0.91898220304E+01 0.10136073868E+02
 0.11778214568E+02 0.14482373958E+02 0.18532206019E+02 0.26555128998E+02 0.50319262978E+02
 0.99689863251E+02 0.17599029315E+03 0.27007682215E+03 0.36341903173E+03 0.43281150665E+03
 0.60755042141E+03 0.57433893950E+03 0.48463071180E+03 0.36341903173E+03 0.23991469054E+03
 0.13749757676E+03 0.68400796473E+02 0.32654707771E+02 0.19956600998E+02 0.15208158305E+02
 0.12024154249E+02 0.10065658842E+02 0.89445719483E+01 0.83428163850E+01 0.79791787159E+01
 0.77118886582E+01 0.75995326824E+01 0.77118886582E+01 0.79791787159E+01 0.83428163850E+01
 0.89445719483E+01 0.10065658842E+02 0.12024154249E+02 0.15208158305E+02 0.19956600998E+02
 0.32654707771E+02 0.68400796473E+02 0.13749757676E+03 0.23991469054E+03 0.36341903173E+03
 0.48463071180E+03 0.57433893950E+03 0.71765298815E+03 0.67893754382E+03 0.57433893950E+03
 0.43281150665E+03 0.28795781275E+03 0.16655475857E+03 0.82901007107E+02 0.37938380460E+02
 0.21152727505E+02 0.15715918075E+02 0.12212259810E+02 0.10030467346E+02 0.87788675856E+01
 0.81130637588E+01 0.77118886582E+01 0.74109223215E+01 0.72824602177E+01 0.74109223215E+01
 0.77118886582E+01 0.81130637588E+01 0.87788675856E+01 0.10030467346E+02 0.12212259810E+02
 0.15715918075E+02 0.21152727505E+02 0.37938380460E+02 0.82901007107E+02 0.16655475857E+03
 0.28795781275E+03 0.43281150665E+03 0.57433893950E+03 0.67893754382E+03 0.71765298815E+03
 0.67893754382E+03 0.57433893950E+03 0.43281150665E+03 0.28795781275E+03 0.16655475857E+03
 0.82901007107E+02 0.37938380460E+02 0.21152727505E+02 0.15715918075E+02 0.12212259810E+02
 0.10030467346E+02 0.87788675856E+01 0.81130637588E+01 0.77118886582E+01 0.74109223215E+01
 0.72824602177E+01 0.74109223215E+01 0.77118886582E+01 0.81130637588E+01 0.87788675856E+01
 0.10030467346E+02 0.12212259810E+02 0.15715918075E+02 0.21152727505E+02 0.37938380460E+02
 0.82901007107E+02 0.16655475857E+03 0.28795781275E+03 0.43281150665E+03 0.57433893950E+03
 0.67893754382E+03 0.67893754382E+03 0.64215904300E+03 0.54279517000E+03 0.40839680303E+03
 0.27102072380E+03 0.15626291693E+03 0.77716048675E+02 0.36013475777E+02 0.20710317162E+02
 0.15537373972E+02 0.12144344533E+02 0.10042475027E+02 0.88402395330E+01 0.82015519575E+01
 0.78181792883E+01 0.75324628092E+01 0.74109223215E+01 0.75324628092E+01 0.78181792883E+01
 0.82015519575E+01 0.88402395331E+01 0.10042475027E+02 0.12144344533E+02 0.15537373972E+02
 0.20710317162E+02 0.36013475777E+02 0.77716048675E+02 0.15626291693E+03 0.27102072380E+03
 0.40839680303E+03 0.54279517000E+03 0.64215904300E+03 0.57433893950E+03 0.54279517000E+03
 0.45760525742E+03 0.34257158613E+03 0.22556810868E+03 0.12892019014E+03 0.64208031782E+02
 0.31179093460E+02 0.19615322214E+02 0.15039933136E+02 0.11959692627E+02 0.10073809606E+02
 0.89970382934E+01 0.84196522299E+01 0.80719868206E+01 0.78181792883E+01 0.77118886582E+01
 0.78181792883E+01 0.80719868206E+01 0.84196522299E+01 0.89970382934E+01 0.10073809606E+02
 0.11959692627E+02 0.15039933136E+02 0.19615322214E+02 0.31179093460E+02 0.64208031782E+02
 0.12892019014E+03 0.22556810868E+03 0.34257158613E+03 0.45760525742E+03 0.54279517000E+03
 0.43281150665E+03 0.40839680303E+03 0.34257158613E+03 0.25412720749E+03 0.16520124081E+03
 0.93444875609E+02 0.47438987921E+02 0.25630544883E+02 0.18267889237E+02 0.14331083217E+02
 0.11719274807E+02 0.10139402078E+02 0.92310032868E+01 0.87285396699E+01 0.84196522299E+01
 0.82015519575E+01 0.81130637588E+01 0.82015519575E+01 0.84196522299E+01 0.87285396699E+01
 0.92310032868E+01 0.10139402078E+02 0.11719274807E+02 0.14331083217E+02 0.18267889237E+02
 0.25630544883E+02 0.47438987921E+02 0.93444875609E+02 0.16520124081E+03 0.25412720749E+03
 0.34257158613E+03 0.40839680303E+03 0.28795781275E+03 0.27102072380E+03 0.22556810868E+03
 0.16520124081E+03 0.10590961328E+03 0.60097016909E+02 0.32879503965E+02 0.21332470104E+02
 0.16753881842E+02 0.13565309471E+02 0.11523395924E+02 0.10310735006E+02 0.96171742119E+01
 0.92310032868E+01 0.89970382934E+01 0.88402395331E+01 0.87788675856E+01 0.88402395330E+01
 0.89970382934E+01 0.92310032868E+01 0.96171742119E+01 0.10310735006E+02 0.11523395924E+02
 0.13565309471E+02 0.16753881842E+02 0.21332470104E+02 0.32879503965E+02 0.60097016909E+02
 0.10590961328E+03 0.16520124081E+03 0.22556810868E+03 0.27102072380E+03 0.16655475857E+03
 0.15626291693E+03 0.12892019014E+03 0.93444875609E+02 0.60097016909E+02 0.36235850372E+02
 0.23696498828E+02 0.18576986007E+02 0.15243238092E+02 0.12911678092E+02 0.11494243780E+02
 0.10707885694E+02 0.10310735006E+02 0.10139402078E+02 0.10073809606E+02 0.10042475027E+02
 0.10030467346E+02 0.10042475027E+02 0.10073809606E+02 0.10139402078E+02 0.10310735006E+02
 0.10707885694E+02 0.11494243780E+02 0.12911678092E+02 0.15243238092E+02 0.18576986007E+02
 0.23696498828E+02 0.36235850372E+02 0.60097016909E+02 0.93444875609E+02 0.12892019014E+03
 0.15626291693E+03 0.82901007107E+02 0.77716048675E+02 0.64208031782E+02 0.47438987921E+02
 0.32879503965E+02 0.23696498828E+02 0.19247790448E+02 0.16257511595E+02 0.13980108307E+02
 0.12529301690E+02 0.11770513386E+02 0.11494243780E+02 0.11523395924E+02 0.11719274807E+02
 0.11959692627E+02 0.12144344533E+02 0.12212259810E+02 0.12144344533E+02 0.11959692627E+02
 0.11719274807E+02 0.11523395924E+02 0.11494243780E+02 0.11770513386E+02 0.12529301690E+02
 0.13980108307E+02 0.16257511595E+02 0.19247790448E+02 0.23696498828E+02 0.32879503965E+02
 0.47438987921E+02 0.64208031782E+02 0.77716048675E+02 0.37938380460E+02 0.36013475777E+02
 0.31179093460E+02 0.25630544883E+02 0.21332470104E+02 0.18576986007E+02 0.16257511595E+02
 0.14387135416E+02 0.13151536770E+02 0.12564182717E+02 0.12529301690E+02 0.12911678092E+02
 0.13565309471E+02 0.14331083217E+02 0.15039933136E+02 0.15537373972E+02 0.15715918075E+02
 0.15537373972E+02 0.15039933136E+02 0.14331083217E+02 0.13565309471E+02 0.12911678092E+02
 0.12529301690E+02 0.12564182717E+02 0.13151536770E+02 0.14387135416E+02 0.16257511595E+02
 0.18576986007E+02 0.21332470104E+02 0.25630544883E+02 0.31179093460E+02 0.36013475777E+02
 0.21152727505E+02 0.20710317162E+02 0.19615322214E+02 0.18267889237E+02 0.16753881842E+02
 0.15243238092E+02 0.13980108307E+02 0.13151536770E+02 0.12864332655E+02 0.13151536770E+02
 0.13980108307E+02 0.15243238092E+02 0.16753881842E+02 0.18267889237E+02 0.19615322214E+02
 0.20710317162E+02 0.21152727505E+02 0.20710317162E+02 0.19615322214E+02 0.18267889237E+02
 0.16753881842E+02 0.15243238092E+02 0.13980108307E+02 0.13151536770E+02 0.12864332655E+02
 0.13151536770E+02 0.13980108307E+02 0.15243238092E+02 0.16753881842E+02 0.18267889237E+02
 0.19615322214E+02 0.20710317162E+02 0.15715918075E+02 0.15537373972E+02 0.15039933136E+02
 0.14331083217E+02 0.13565309471E+02 0.12911678092E+02 0.12529301690E+02 0.12564182717E+02
 0.13151536770E+02 0.14387135416E+02 0.16257511595E+02 0.18576986007E+02 0.21332470104E+02
 0.25630544883E+02 0.31179093460E+02 0.36013475777E+02 0.37938380460E+02 0.36013475777E+02
 0.31179093460E+02 0.25630544883E+02 0.21332470104E+02 0.18576986007E+02 0.16257511595E+02
 0.14387135416E+02 0.13151536770E+02 0.12564182717E+02 0.12529301690E+02 0.12911678092E+02
 0.13565309471E+02 0.14331083217E+02 0.15039933136E+02 0.15537373972E+02 0.12212259810E+02
 0.12144344533E+02 0.11959692627E+02 0.11719274807E+02 0.11523395924E+02 0.11494243780E+02
 0.11770513386E+02 0.12529301690E+02 0.13980108307E+02 0.16257511595E+02 0.19247790448E+02
 0.23696498828E+02 0.32879503965E+02 0.47438987921E+02 0.64208031782E+02 0.77716048675E+02
 0.82901007107E+02 0.77716048675E+02 0.64208031782E+02 0.47438987921E+02 0.32879503965E+02
 0.23696498828E+02 0.19247790448E+02 0.16257511595E+02 0.13980108307E+02 0.12529301690E+02
 0.11770513386E+02 0.11494243780E+02 0.11523395924E+02 0.11719274807E+02 0.11959692627E+02
 0.12144344533E+02 0.10030467346E+02 0.10042475027E+02 0.10073809606E+02 0.10139402078E+02
 0.10310735006E+02 0.10707885694E+02 0.11494243780E+02 0.12911678092E+02 0.15243238092E+02
 0.18576986007E+02 0.23696498828E+02 0.36235850372E+02 0.60097016909E+02 0.93444875609E+02
 0.12892019014E+03 0.15626291693E+03 0.16655475857E+03 0.15626291693E+03 0.12892019014E+03
 0.93444875609E+02 0.60097016909E+02 0.36235850372E+02 0.23696498828E+02 0.18576986007E+02
 0.15243238092E+02 0.12911678092E+02 0.11494243780E+02 0.10707885694E+02 0.10310735006E+02
 0.10139402078E+02 0.10073809606E+02 0.10042475027E+02 0.87788675856E+01 0.88402395331E+01
 0.89970382934E+01 0.92310032868E+01 0.96171742119E+01 0.10310735006E+02 0.11523395924E+02
 0.13565309471E+02 0.16753881842E+02 0.21332470104E+02 0.32879503965E+02 0.60097016909E+02
 0.10590961328E+03 0.16520124081E+03 0.22556810868E+03 0.27102072380E+03 0.28795781275E+03
 0.27102072380E+03 0.22556810868E+03 0.16520124081E+03 0.10590961328E+03 0.60097016909E+02
 0.32879503965E+02 0.21332470104E+02 0.16753881842E+02 0.13565309471E+02 0.11523395924E+02
 0.10310735006E+02 0.96171742119E+01 0.92310032868E+01 0.89970382934E+01 0.88402395331E+01
 0.81130637588E+01 0.82015519575E+01 0.84196522299E+01 0.87285396699E+01 0.92310032868E+01
 0.10139402078E+02 0.11719274807E+02 0.14331083217E+02 0.18267889237E+02 0.25630544883E+02
 0.47438987921E+02 0.93444875609E+02 0.16520124081E+03 0.25412720749E+03 0.34257158613E+03
 0.40839680303E+03 0.43281150665E+03 0.40839680303E+03 0.34257158613E+03 0.25412720749E+03
 0.16520124081E+03 0.93444875609E+02 0.47438987921E+02 0.25630544883E+02 0.18267889237E+02
 0.14331083217E+02 0.11719274807E+02 0.10139402078E+02 0.92310032868E+01 0.87285396699E+01
 0.84196522299E+01 0.82015519575E+01 0.77118886582E+01 0.78181792883E+01 0.80719868206E+01
 0.84196522299E+01 0.89970382934E+01 0.10073809606E+02 0.11959692627E+02 0.15039933136E+02
 0.19615322214E+02 0.31179093460E+02 0.64208031782E+02 0.12892019014E+03 0.22556810868E+03
 0.34257158613E+03 0.45760525742E+03 0.54279517000E+03 0.57433893950E+03 0.54279517000E+03
 0.45760525742E+03 0.34257158613E+03 0.22556810868E+03 0.12892019014E+03 0.64208031782E+02
 0.31179093460E+02 0.19615322214E+02 0.15039933136E+02 0.11959692627E+02 0.10073809606E+02
 0.89970382934E+01 0.84196522299E+01 0.80719868206E+01 0.78181792883E+01 0.74109223215E+01
 0.75324628092E+01 0.78181792883E+01 0.82015519575E+01 0.88402395331E+01 0.10042475027E+02
 0.12144344533E+02 0.15537373972E+02 0.20710317162E+02 0.36013475777E+02 0.77716048675E+02
 0.15626291693E+03 0.27102072380E+03 0.40839680303E+03 0.54279517000E+03 0.64215904300E+03
 0.67893754382E+03 0.64215904300E+03 0.54279517000E+03 0.40839680303E+03 0.27102072380E+03
 0.15626291693E+03 0.77716048675E+02 0.36013475777E+02 0.20710317162E+02 0.15537373972E+02
 0.12144344533E+02 0.10042475027E+02 0.88402395331E+01 0.82015519575E+01 0.78181792883E+01
 0.75324628092E+01 0.72824602177E+01 0.74109223215E+01 0.77118886582E+01 0.81130637588E+01
 0.87788675856E+01 0.10030467346E+02 0.12212259810E+02 0.15715918075E+02 0.21152727505E+02
 0.37938380460E+02 0.82901007107E+02 0.16655475857E+03 0.28795781275E+03 0.43281150665E+03
 0.57433893950E+03 0.67893754382E+03 0.71765298815E+03 0.67893754382E+03 0.57433893950E+03
 0.43281150665E+03 0.28795781275E+03 0.16655475857E+03 0.82901007107E+02 0.37938380460E+02
 0.21152727505E+02 0.15715918075E+02 0.12212259810E+02 0.10030467346E+02 0.87788675856E+01
 0.81130637588E+01 0.77118886582E+01 0.74109223215E+01 0.74109223215E+01 0.75324628092E+01
 0.78181792883E+01 0.82015519575E+01 0.88402395331E+01 0.10042475027E+02 0.12144344533E+02
 0.15537373972E+02 0.20710317162E+02 0.36013475777E+02 0.77716048675E+02 0.15626291693E+03
 0.27102072380E+03 0.40839680303E+03 0.54279517000E+03 0.64215904300E+03 0.67893754382E+03
 0.64215904300E+03 0.54279517000E+03 0.40839680303E+03 0.27102072380E+03 0.15626291693E+03
 0.77716048675E+02 0.36013475777E+02 0.20710317162E+02 0.15537373972E+02 0.12144344533E+02
 0.10042475027E+02 0.88402395330E+01 0.82015519575E+01 0.78181792883E+01 0.75324628092E+01
 0.77118886582E+01 0.78181792883E+01 0.80719868206E+01 0.84196522299E+01 0.89970382934E+01
 0.10073809606E+02 0.11959692627E+02 0.15039933136E+02 0.19615322214E+02 0.31179093460E+02
 0.64208031782E+02 0.12892019014E+03 0.22556810868E+03 0.34257158613E+03 0.45760525742E+03
 0.54279517000E+03 0.57433893950E+03 0.54279517000E+03 0.45760525742E+03 0.34257158613E+03
 0.22556810868E+03 0.12892019014E+03 0.64208031782E+02 0.31179093460E+02 0.19615322214E+02