unknown system                          
   1.00000000000000     
     3.635000    0.000000    0.000000
     0.000000    3.635000    0.000000
     0.000000    0.000000    3.635000
   Cu
     4
Direct
  0.000000  0.000000  0.000000
  0.500000  0.500000  0.000000
  0.500000  0.000000  0.500000
  0.000000  0.500000  0.500000
 
   24   24   24
  829.76      747.86      543.86      312.60      138.81      51.859      25.094      13.644      7.6798      7.2542    
  7.1963      5.0906      3.6422      5.0906      7.1963      7.2542      7.6798      13.644      25.094      51.859    
  138.81      312.60      543.86      747.86      747.86      673.42      488.28      279.26      123.58      47.144    
  24.025      13.239      7.8217      7.5948      7.8197      6.2442      5.0906      6.2442      7.8197      7.5948    
  7.8217      13.239      24.025      47.144      123.58      279.26      488.28      673.42      543.86      488.28    
  350.86      197.95      87.549      36.618      21.246      12.176      8.0792      8.0722      8.5441      7.8197    
  7.1963      7.8197      8.5441      8.0722      8.0792      12.176      21.246      36.618      87.549      197.95    
  350.86      488.28      312.60      279.26      197.95      110.47      51.452      27.010      17.380      10.795    
  8.1700      8.0039      8.0722      7.5948      7.2542      7.5948      8.0722      8.0039      8.1700      10.795    
  17.380      27.010      51.452      110.47      197.95      279.26      138.81      123.58      87.549      51.452    
  29.863      20.271      13.394      9.5171      8.2806      8.1700      8.0792      7.8217      7.6798      7.8217    
  8.0792      8.1700      8.2806      9.5171      13.394      20.271      29.863      51.452      87.549      123.58    
  51.859      47.144      36.618      27.010      20.271      14.316      10.400      9.0415      9.5171      10.795    
  12.176      13.239      13.644      13.239      12.176      10.795      9.5171      9.0415      10.400      14.316    
  20.271      27.010      36.618      47.144      25.094      24.025      21.246      17.380      13.394      10.400    
  9.2875      10.400      13.394      17.380      21.246      24.025      25.094      24.025      21.246      17.380    
  13.394      10.400      9.2875      10.400      13.394      17.380      21.246      24.025      13.644      13.239    
  12.176      10.795      9.5171      9.0415      10.400      14.316      20.271      27.010      36.618      47.144    
  51.859      47.144      36.618      27.010      20.271      14.316      10.400      9.0415      9.5171      10.795    
  12.176      13.239      7.6798      7.8217      8.0792      8.1700      8.2806      9.5171      13.394      20.271    
  29.863      51.452      87.549      123.58      138.81      123.58      87.549      51.452      29.863      20.271    
  13.394      9.5171      8.2806      8.1700      8.0792      7.8217      7.2542      7.5948      8.0722      8.0039    
  8.1700      10.795      17.380      27.010      51.452      110.47      197.95      279.26      312.60      279.26    
  197.95      110.47      51.452      27.010      17.380      10.795      8.1700      8.0039      8.0722      7.5948    
  7.1963      7.8197      8.5441      8.0722      8.0792      12.176      21.246      36.618      87.549      197.95    
  350.86      488.28      543.86      488.28      350.86      197.95      87.549      36.618      21.246      12.176    
  8.0792      8.0722      8.5441      7.8197      5.0906      6.2442      7.8197      7.5948      7.8217      13.239    
  24.025      47.144      123.58      279.26      488.28      673.42      747.86      673.42      488.28      279.26    
  123.58      47.144      24.025      13.239      7.8217      7.5948      7.8197      6.2442      3.6422      5.0906    
  7.1963      7.2542      7.6798      13.644      25.094      51.859      138.81      312.60      543.86      747.86    
  829.76      747.86      543.86      312.60      138.81      51.859      25.094      13.644      7.6798      7.2542    
  7.1963      5.0906      5.0906      6.2442      7.8197      7.5948      7.8217      13.239      24.025      47.144    
  123.58      279.26      488.28      673.42      747.86      673.42      488.28      279.26      123.58      47.144    
  24.025      13.239      7.8217      7.5948      7.8197      6.2442      7.1963      7.8197      8.5441      8.0722    
  8.0792      12.176      21.246      36.618      87.549      197.95      350.86      488.28      543.86      488.28    
  350.86      197.95      87.549      36.618      21.246      12.176      8.0792      8.0722      8.5441      7.8197    
  7.2542      7.5948      8.0722      8.0039      8.1700      10.795      17.380      27.010      51.452      110.47    
  197.95      279.26      312.60      279.26      197.95      110.47      51.452      27.010      17.380      10.795    
  8.1700      8.0039      8.0722      7.5948      7.6798      7.8217      8.0792      8.1700      8.2806      9.5171    
  13.394      20.271      29.863      51.452      87.549      123.58      138.81      123.58      87.549      51.452    
  29.863      20.271      13.394      9.5171      8.2806      8.1700      8.0792      7.8217      13.644      13.239    
  12.176      10.795      9.5171      9.0415      10.400      14.316      20.271      27.010      36.618      47.144    
  51.859      47.144      36.618      27.010      20.271      14.316      10.400      9.0415      9.5171      10.795    
  12.176      13.239      25.094      24.025      21.246      17.380      13.394      10.400      9.2875      10.400    
  13.394      17.380      21.246      24.025      25.094      24.025      21.246      17.380      13.394      10.400    
  9.2875      10.400      13.394      17.380      21.246      24.025      51.859      47.144      36.618      27.010    
  20.271      14.316      10.400      9.0415      9.5171      10.795      12.176      13.239      13.644      13.239    
  12.176      10.795      9.5171      9.0415      10.400      14.316      20.271      27.010      36.618      47.144    
  138.81      123.58      87.549      51.452      29.863      20.271      13.394      9.5171      8.2806      8.1700    
  8.0792      7.8217      7.6798      7.8217      8.0792      8.1700      8.2806      9.5171      13.394      20.271    
  29.863      51.452      87.549      123.58      312.60      279.26      197.95      110.47      51.452      27.010    
  17.380      10.795      8.1700      8.0039      8.0722      7.5948      7.2542      7.5948      8.0722      8.0039    
  8.1700      10.795      17.380      27.010      51.452      110.47      197.95      279.26      543.86      488.28    
  350.86      197.95      87.549      36.618      21.246      12.176      8.0792      8.0722      8.5441      7.8197    
  7.1963      7.8197      8.5441      8.0722      8.0792      12.176      21.246      36.618      87.549      197.95    
  350.86      488.28      747.86      673.42      488.28      279.26      123.58      47.144      24.025      13.239    
  7.8217      7.5948      7.8197      6.2442      5.0906      6.2442      7.8197      7.5948      7.8217      13.239    
  24.025      47.144      123.58      279.26      488.28      673.42      747.86      673.42      488.28      279.26    
  123.58      47.144      24.025      13.239      7.8217      7.5948      7.8197      6.2442      5.0906      6.2442    
  7.8197      7.5948      7.8217      13.239      24.025      47.144      123.58      279.26      488.28      673.42    
  673.42      605.80      437.92      249.22      110.04      43.072      23.048      12.864      7.9314      7.8445    
  8.2798      7.1462      6.2442      7.1462      8.2798      7.8445      7.9314      12.864      23.048      43.072    
  110.04      249.22      437.92      605.80      488.28      437.92      313.67      176.23      78.209      34.034    
  20.416      11.888      8.1361      8.1705      8.7320      8.2798      7.8197      8.2798      8.7320      8.1705    
  8.1361      11.888      20.416      34.034      78.209      176.23      313.67      437.92      279.26      249.22    
  176.23      98.372      46.732      25.771      16.762      10.629      8.2187      8.0595      8.1705      7.8445    
  7.5948      7.8445      8.1705      8.0595      8.2187      10.629      16.762      25.771      46.732      98.372    
  176.23      249.22      123.58      110.04      78.209      46.732      28.230      19.511      13.035      9.4673    
  8.3371      8.2187      8.1361      7.9314      7.8217      7.9314      8.1361      8.2187      8.3371      9.4673    
  13.035      19.511      28.230      46.732      78.209      110.04      47.144      43.072      34.034      25.771    
  19.511      13.889      10.262      9.0274      9.4673      10.629      11.888      12.864      13.239      12.864    
  11.888      10.629      9.4673      9.0274      10.262      13.889      19.511      25.771      34.034      43.072    
  24.025      23.048      20.416      16.762      13.035      10.262      9.2375      10.262      13.035      16.762    
  20.416      23.048      24.025      23.048      20.416      16.762      13.035      10.262      9.2375      10.262    
  13.035      16.762      20.416      23.048      13.239      12.864      11.888      10.629      9.4673      9.0274    
  10.262      13.889      19.511      25.771      34.034      43.072      47.144      43.072      34.034      25.771    
  19.511      13.889      10.262      9.0274      9.4673      10.629      11.888      12.864      7.8217      7.9314    
  8.1361      8.2187      8.3371      9.4673      13.035      19.511      28.230      46.732      78.209      110.04    
  123.58      110.04      78.209      46.732      28.230      19.511      13.035      9.4673      8.3371      8.2187    
  8.1361      7.9314      7.5948      7.8445      8.1705      8.0595      8.2187      10.629      16.762      25.771    
  46.732      98.372      176.23      249.22      279.26      249.22      176.23      98.372      46.732      25.771    
  16.762      10.629      8.2187      8.0595      8.1705      7.8445      7.8197      8.2798      8.7320      8.1705    
  8.1361      11.888      20.416      34.034      78.209      176.23      313.67      437.92      488.28      437.92    
  313.67      176.23      78.209      34.034      20.416      11.888      8.1361      8.1705      8.7320      8.2798    
  6.2442      7.1462      8.2798      7.8445      7.9314      12.864      23.048      43.072      110.04      249.22    
  437.92      605.80      673.42      605.80      437.92      249.22      110.04      43.072      23.048      12.864    
  7.9314      7.8445      8.2798      7.1462      5.0906      6.2442      7.8197      7.5948      7.8217      13.239    
  24.025      47.144      123.58      279.26      488.28      673.42      747.86      673.42      488.28      279.26    
  123.58      47.144      24.025      13.239      7.8217      7.5948      7.8197      6.2442      6.2442      7.1462    
  8.2798      7.8445      7.9314      12.864      23.048      43.072      110.04      249.22      437.92      605.80    
  673.42      605.80      437.92      249.22      110.04      43.072      23.048      12.864      7.9314      7.8445    
  8.2798      7.1462      7.8197      8.2798      8.7320      8.1705      8.1361      11.888      20.416      34.034    
  78.209      176.23      313.67      437.92      488.28      437.92      313.67      176.23      78.209      34.034    
  20.416      11.888      8.1361      8.1705      8.7320      8.2798      7.5948      7.8445      8.1705      8.0595    
  8.2187      10.629      16.762      25.771      46.732      98.372      176.23      249.22      279.26      249.22    
  176.23      98.372      46.732      25.771      16.762      10.629      8.2187      8.0595      8.1705      7.8445    
  7.8217      7.9314      8.1361      8.2187      8.3371      9.4673      13.035      19.511      28.230      46.732    
  78.209      110.04      123.58      110.04      78.209      46.732      28.230      19.511      13.035      9.4673    
  8.3371      8.2187      8.1361      7.9314      13.239      12.864      11.888      10.629      9.4673      9.0274    
  10.262      13.889      19.511      25.771      34.034      43.072      47.144      43.072      34.034      25.771    
  19.511      13.889      10.262      9.0274      9.4673      10.629      11.888      12.864      24.025      23.048    
  20.416      16.762      13.035      10.262      9.2375      10.262      13.035      16.762      20.416      23.048    
  24.025      23.048      20.416      16.762      13.035      10.262      9.2375      10.262      13.035      16.762    
  20.416      23.048      47.144      43.072      34.034      25.771      19.511      13.889      10.262      9.0274    
  9.4673      10.629      11.888      12.864      13.239      12.864      11.888      10.629      9.4673      9.0274    
  10.262      13.889      19.511      25.771      34.034      43.072      123.58      110.04      78.209      46.732    
  28.230      19.511      13.035      9.4673      8.3371      8.2187      8.1361      7.9314      7.8217      7.9314    
  8.1361      8.2187      8.3371      9.4673      13.035      19.511      28.230      46.732      78.209      110.04    
  279.26      249.22      176.23      98.372      46.732      25.771      16.762      10.629      8.2187      8.0595    
  8.1705      7.8445      7.5948      7.8445      8.1705      8.0595      8.2187      10.629      16.762      25.771    
  46.732      98.372      176.23      249.22      488.28      437.92      313.67      176.23      78.209      34.034    
  20.416      11.888      8.1361      8.1705      8.7320      8.2798      7.8197      8.2798      8.7320      8.1705    
  8.1361      11.888      20.416      34.034      78.209      176.23      313.67      437.92      673.42      605.80    
  437.92      249.22      110.04      43.072      23.048      12.864      7.9314      7.8445      8.2798      7.1462    
  6.2442      7.1462      8.2798      7.8445      7.9314      12.864      23.048      43.072      110.04      249.22    
  437.92      605.80      543.86      488.28      350.86      197.95      87.549      36.618      21.246      12.176    
  8.0792      8.0722      8.5441      7.8197      7.1963      7.8197      8.5441      8.0722      8.0792      12.176    
  21.246      36.618      87.549      197.95      350.86      488.28      488.28      437.92      313.67      176.23    
  78.209      34.034      20.416      11.888      8.1361      8.1705      8.7320      8.2798      7.8197      8.2798    
  8.7320      8.1705      8.1361      11.888      20.416      34.034      78.209      176.23      313.67      437.92    
  350.86      313.67      222.70      124.10      56.674      28.345      18.163      11.144      8.2578      8.2734    
  8.8014      8.7320      8.5441      8.7320      8.8014      8.2734      8.2578      11.144      18.163      28.345    
  56.674      124.10      222.70      313.67      197.95      176.23      124.10      70.118      36.242      22.827    
  15.118      10.194      8.3371      8.1664      8.2734      8.1705      8.0722      8.1705      8.2734      8.1664    
  8.3371      10.194      15.118      22.827      36.242      70.118      124.10      176.23      87.549      78.209    
  56.674      36.242      24.583      17.493      12.110      9.3216      8.4621      8.3371      8.2578      8.1361    
  8.0792      8.1361      8.2578      8.3371      8.4621      9.3216      12.110      17.493      24.583      36.242    
  56.674      78.209      36.618      34.034      28.345      22.827      17.493      12.813      9.9309      8.9848    
  9.3216      10.194      11.144      11.888      12.176      11.888      11.144      10.194      9.3216      8.9848    
  9.9309      12.813      17.493      22.827      28.345      34.034      21.246      20.416      18.163      15.118    
  12.110      9.9309      9.1385      9.9309      12.110      15.118      18.163      20.416      21.246      20.416    
  18.163      15.118      12.110      9.9309      9.1385      9.9309      12.110      15.118      18.163      20.416    
  12.176      11.888      11.144      10.194      9.3216      8.9848      9.9309      12.813      17.493      22.827    
  28.345      34.034      36.618      34.034      28.345      22.827      17.493      12.813      9.9309      8.9848    
  9.3216      10.194      11.144      11.888      8.0792      8.1361      8.2578      8.3371      8.4621      9.3216    
  12.110      17.493      24.583      36.242      56.674      78.209      87.549      78.209      56.674      36.242    
  24.583      17.493      12.110      9.3216      8.4621      8.3371      8.2578      8.1361      8.0722      8.1705    
  8.2734      8.1664      8.3371      10.194      15.118      22.827      36.242      70.118      124.10      176.23    
  197.95      176.23      124.10      70.118      36.242      22.827      15.118      10.194      8.3371      8.1664    
  8.2734      8.1705      8.5441      8.7320      8.8014      8.2734      8.2578      11.144      18.163      28.345    
  56.674      124.10      222.70      313.67      350.86      313.67      222.70      124.10      56.674      28.345    
  18.163      11.144      8.2578      8.2734      8.8014      8.7320      7.8197      8.2798      8.7320      8.1705    
  8.1361      11.888      20.416      34.034      78.209      176.23      313.67      437.92      488.28      437.92    
  313.67      176.23      78.209      34.034      20.416      11.888      8.1361      8.1705      8.7320      8.2798    
  7.1963      7.8197      8.5441      8.0722      8.0792      12.176      21.246      36.618      87.549      197.95    
  350.86      488.28      543.86      488.28      350.86      197.95      87.549      36.618      21.246      12.176    
  8.0792      8.0722      8.5441      7.8197      7.8197      8.2798      8.7320      8.1705      8.1361      11.888    
  20.416      34.034      78.209      176.23      313.67      437.92      488.28      437.92      313.67      176.23    
  78.209      34.034      20.416      11.888      8.1361      8.1705      8.7320      8.2798      8.5441      8.7320    
  8.8014      8.2734      8.2578      11.144      18.163      28.345      56.674      124.10      222.70      313.67    
  350.86      313.67      222.70      124.10      56.674      28.345      18.163      11.144      8.2578      8.2734    
  8.8014      8.7320      8.0722      8.1705      8.2734      8.1664      8.3371      10.194      15.118      22.827    
  36.242      70.118      124.10      176.23      197.95      176.23      124.10      70.118      36.242      22.827    
  15.118      10.194      8.3371      8.1664      8.2734      8.1705      8.0792      8.1361      8.2578      8.3371    
  8.4621      9.3216      12.110      17.493      24.583      36.242      56.674      78.209      87.549      78.209    
  56.674      36.242      24.583      17.493      12.110      9.3216      8.4621      8.3371      8.2578      8.1361    
  12.176      11.888      11.144      10.194      9.3216      8.9848      9.9309      12.813      17.493      22.827    
  28.345      34.034      36.618      34.034      28.345      22.827      17.493      12.813      9.9309      8.9848    
  9.3216      10.194      11.144      11.888      21.246      20.416      18.163      15.118      12.110      9.9309    
  9.1385      9.9309      12.110      15.118      18.163      20.416      21.246      20.416      18.163      15.118    
  12.110      9.9309      9.1385      9.9309      12.110      15.118      18.163      20.416      36.618      34.034    
  28.345      22.827      17.493      12.813      9.9309      8.9848      9.3216      10.194      11.144      11.888    
  12.176      11.888      11.144      10.194      9.3216      8.9848      9.9309      12.813      17.493      22.827    
  28.345      34.034      87.549      78.209      56.674      36.242      24.583      17.493      12.110      9.3216    
  8.4621      8.3371      8.2578      8.1361      8.0792      8.1361      8.2578      8.3371      8.4621      9.3216    
  12.110      17.493      24.583      36.242      56.674      78.209      197.95      176.23      124.10      70.118    
  36.242      22.827      15.118      10.194      8.3371      8.1664      8.2734      8.1705      8.0722      8.1705    
  8.2734      8.1664      8.3371      10.194      15.118      22.827      36.242      70.118      124.10      176.23    
  350.86      313.67      222.70      124.10      56.674      28.345      18.163      11.144      8.2578      8.2734    
  8.8014      8.7320      8.5441      8.7320      8.8014      8.2734      8.2578      11.144      18.163      28.345    
  56.674      124.10      222.70      313.67      488.28      437.92      313.67      176.23      78.209      34.034    
  20.416      11.888      8.1361      8.1705      8.7320      8.2798      7.8197      8.2798      8.7320      8.1705    
  8.1361      11.888      20.416      34.034      78.209      176.23      313.67      437.92      312.60      279.26    
  197.95      110.47      51.452      27.010      17.380      10.795      8.1700      8.0039      8.0722      7.5948    
  7.2542      7.5948      8.0722      8.0039      8.1700      10.795      17.380      27.010      51.452      110.47    
  197.95      279.26      279.26      249.22      176.23      98.372      46.732      25.771      16.762      10.629    
  8.2187      8.0595      8.1705      7.8445      7.5948      7.8445      8.1705      8.0595      8.2187      10.629    
  16.762      25.771      46.732      98.372      176.23      249.22      197.95      176.23      124.10      70.118    
  36.242      22.827      15.118      10.194      8.3371      8.1664      8.2734      8.1705      8.0722      8.1705    
  8.2734      8.1664      8.3371      10.194      15.118      22.827      36.242      70.118      124.10      176.23    
  110.47      98.372      70.118      42.617      26.823      18.967      12.982      9.6289      8.4463      8.2324    
  8.1664      8.0595      8.0039      8.0595      8.1664      8.2324      8.4463      9.6289      12.982      18.967    
  26.823      42.617      70.118      98.372      51.452      46.732      36.242      26.823      20.462      14.870    
  10.974      9.1084      8.5612      8.4463      8.3371      8.2187      8.1700      8.2187      8.3371      8.4463    
  8.5612      9.1084      10.974      14.870      20.462      26.823      36.242      46.732      27.010      25.771    
  22.827      18.967      14.870      11.545      9.5840      8.9310      9.1084      9.6289      10.194      10.629    
  10.795      10.629      10.194      9.6289      9.1084      8.9310      9.5840      11.545      14.870      18.967    
  22.827      25.771      17.380      16.762      15.118      12.982      10.974      9.5840      9.0924      9.5840    
  10.974      12.982      15.118      16.762      17.380      16.762      15.118      12.982      10.974      9.5840    
  9.0924      9.5840      10.974      12.982      15.118      16.762      10.795      10.629      10.194      9.6289    
  9.1084      8.9310      9.5840      11.545      14.870      18.967      22.827      25.771      27.010      25.771    
  22.827      18.967      14.870      11.545      9.5840      8.9310      9.1084      9.6289      10.194      10.629    
  8.1700      8.2187      8.3371      8.4463      8.5612      9.1084      10.974      14.870      20.462      26.823    
  36.242      46.732      51.452      46.732      36.242      26.823      20.462      14.870      10.974      9.1084    
  8.5612      8.4463      8.3371      8.2187      8.0039      8.0595      8.1664      8.2324      8.4463      9.6289    
  12.982      18.967      26.823      42.617      70.118      98.372      110.47      98.372      70.118      42.617    
  26.823      18.967      12.982      9.6289      8.4463      8.2324      8.1664      8.0595      8.0722      8.1705    
  8.2734      8.1664      8.3371      10.194      15.118      22.827      36.242      70.118      124.10      176.23    
  197.95      176.23      124.10      70.118      36.242      22.827      15.118      10.194      8.3371      8.1664    
  8.2734      8.1705      7.5948      7.8445      8.1705      8.0595      8.2187      10.629      16.762      25.771    
  46.732      98.372      176.23      249.22      279.26      249.22      176.23      98.372      46.732      25.771    
  16.762      10.629      8.2187      8.0595      8.1705      7.8445      7.2542      7.5948      8.0722      8.0039    
  8.1700      10.795      17.380      27.010      51.452      110.47      197.95      279.26      312.60      279.26    
  197.95      110.47      51.452      27.010      17.380      10.795      8.1700      8.0039      8.0722      7.5948    
  7.5948      7.8445      8.1705      8.0595      8.2187      10.629      16.762      25.771      46.732      98.372    
  176.23      249.22      279.26      249.22      176.23      98.372      46.732      25.771      16.762      10.629    
  8.2187      8.0595      8.1705      7.8445      8.0722      8.1705      8.2734      8.1664      8.3371      10.194    
  15.118      22.827      36.242      70.118      124.10      176.23      197.95      176.23      124.10      70.118    
  36.242      22.827      15.118      10.194      8.3371      8.1664      8.2734      8.1705      8.0039      8.0595    
  8.1664      8.2324      8.4463      9.6289      12.982      18.967      26.823      42.617      70.118      98.372    
  110.47      98.372      70.118      42.617      26.823      18.967      12.982      9.6289      8.4463      8.2324    
  8.1664      8.0595      8.1700      8.2187      8.3371      8.4463      8.5612      9.1084      10.974      14.870    
  20.462      26.823      36.242      46.732      51.452      46.732      36.242      26.823      20.462      14.870    
  10.974      9.1084      8.5612      8.4463      8.3371      8.2187      10.795      10.629      10.194      9.6289    
  9.1084      8.9310      9.5840      11.545      14.870      18.967      22.827      25.771      27.010      25.771    
  22.827      18.967      14.870      11.545      9.5840      8.9310      9.1084      9.6289      10.194      10.629    
  17.380      16.762      15.118      12.982      10.974      9.5840      9.0924      9.5840      10.974      12.982    
  15.118      16.762      17.380      16.762      15.118      12.982      10.974      9.5840      9.0924      9.5840    
  10.974      12.982      15.118      16.762      27.010      25.771      22.827      18.967      14.870      11.545    
  9.5840      8.9310      9.1084      9.6289      10.194      10.629      10.795      10.629      10.194      9.6289    
  9.1084      8.9310      9.5840      11.545      14.870      18.967      22.827      25.771      51.452      46.732    
  36.242      26.823      20.462      14.870      10.974      9.1084      8.5612      8.4463      8.3371      8.2187    
  8.1700      8.2187      8.3371      8.4463      8.5612      9.1084      10.974      14.870      20.462      26.823    
  36.242      46.732      110.47      98.372      70.118      42.617      26.823      18.967      12.982      9.6289    
  8.4463      8.2324      8.1664      8.0595      8.0039      8.0595      8.1664      8.2324      8.4463      9.6289    
  12.982      18.967      26.823      42.617      70.118      98.372      197.95      176.23      124.10      70.118    
  36.242      22.827      15.118      10.194      8.3371      8.1664      8.2734      8.1705      8.0722      8.1705    
  8.2734      8.1664      8.3371      10.194      15.118      22.827      36.242      70.118      124.10      176.23    
  279.26      249.22      176.23      98.372      46.732      25.771      16.762      10.629      8.2187      8.0595    
  8.1705      7.8445      7.5948      7.8445      8.1705      8.0595      8.2187      10.629      16.762      25.771    
  46.732      98.372      176.23      249.22      138.81      123.58      87.549      51.452      29.863      20.271    
  13.394      9.5171      8.2806      8.1700      8.0792      7.8217      7.6798      7.8217      8.0792      8.1700    
  8.2806      9.5171      13.394      20.271      29.863      51.452      87.549      123.58      123.58      110.04    
  78.209      46.732      28.230      19.511      13.035      9.4673      8.3371      8.2187      8.1361      7.9314    
  7.8217      7.9314      8.1361      8.2187      8.3371      9.4673      13.035      19.511      28.230      46.732    
  78.209      110.04      87.549      78.209      56.674      36.242      24.583      17.493      12.110      9.3216    
  8.4621      8.3371      8.2578      8.1361      8.0792      8.1361      8.2578      8.3371      8.4621      9.3216    
  12.110      17.493      24.583      36.242      56.674      78.209      51.452      46.732      36.242      26.823    
  20.462      14.870      10.974      9.1084      8.5612      8.4463      8.3371      8.2187      8.1700      8.2187    
  8.3371      8.4463      8.5612      9.1084      10.974      14.870      20.462      26.823      36.242      46.732    
  29.863      28.230      24.583      20.462      16.074      12.363      9.9870      8.9167      8.6254      8.5612    
  8.4621      8.3371      8.2806      8.3371      8.4621      8.5612      8.6254      8.9167      9.9870      12.363    
  16.074      20.462      24.583      28.230      20.271      19.511      17.493      14.870      12.363      10.471    
  9.3590      8.9200      8.9167      9.1084      9.3216      9.4673      9.5171      9.4673      9.3216      9.1084    
  8.9167      8.9200      9.3590      10.471      12.363      14.870      17.493      19.511      13.394      13.035    