unknown system                          
   1.00000000000000     
     3.635000    0.000000    0.000000
     0.000000    3.635000    0.000000
     0.000000    0.000000    3.635000
   Cu
     4
Direct
  0.000000  0.000000  0.000000
  0.500000  0.500000  0.000000
  0.500000  0.000000  0.500000
  0.000000  0.500000  0.500000
 
   24   24   24
 0.82976258082E+03 0.74786331364E+03 0.54385901363E+03 0.31260391829E+03 0.13881437514E+03
 0.51859095764E+02 0.25093743093E+02 0.13644104852E+02 0.76797974032E+01 0.72541718097E+01
 0.71963039048E+01 0.50905877377E+01 0.36421612880E+01 0.50905877377E+01 0.71963039048E+01
 0.72541718097E+01 0.76797974032E+01 0.13644104852E+02 0.25093743093E+02 0.51859095764E+02
 0.13881437514E+03 0.31260391829E+03 0.54385901363E+03 0.74786331364E+03 0.74786331364E+03
 0.67342060873E+03 0.48828232462E+03 0.27926029451E+03 0.12357697052E+03 0.47144478925E+02
 0.24024958247E+02 0.13238572912E+02 0.78216970940E+01 0.75948135079E+01 0.78197472757E+01
 0.62441665049E+01 0.50905877377E+01 0.62441665049E+01 0.78197472757E+01 0.75948135079E+01
 0.78216970940E+01 0.13238572912E+02 0.24024958247E+02 0.47144478925E+02 0.12357697052E+03
 0.27926029451E+03 0.48828232462E+03 0.67342060873E+03 0.54385901363E+03 0.48828232462E+03
 0.35086364530E+03 0.19795352410E+03 0.87549340014E+02 0.36618149025E+02 0.21245857866E+02
 0.12176166267E+02 0.80791517338E+01 0.80722219776E+01 0.85441366214E+01 0.78197472757E+01
 0.71963039048E+01 0.78197472757E+01 0.85441366214E+01 0.80722219776E+01 0.80791517338E+01
 0.12176166267E+02 0.21245857866E+02 0.36618149025E+02 0.87549340014E+02 0.19795352410E+03
 0.35086364530E+03 0.48828232462E+03 0.31260391829E+03 0.27926029451E+03 0.19795352410E+03
 0.11047157277E+03 0.51452226731E+02 0.27009695190E+02 0.17380454353E+02 0.10794801891E+02
 0.81699941453E+01 0.80039055572E+01 0.80722219776E+01 0.75948135079E+01 0.72541718097E+01
 0.75948135079E+01 0.80722219776E+01 0.80039055572E+01 0.81699941453E+01 0.10794801891E+02
 0.17380454353E+02 0.27009695190E+02 0.51452226731E+02 0.11047157277E+03 0.19795352410E+03
 0.27926029451E+03 0.13881437514E+03 0.12357697052E+03 0.87549340014E+02 0.51452226731E+02
 0.29863497360E+02 0.20270988008E+02 0.13394326575E+02 0.95170886361E+01 0.82805787114E+01
 0.81699941453E+01 0.80791517338E+01 0.78216970940E+01 0.76797974032E+01 0.78216970940E+01
 0.80791517338E+01 0.81699941453E+01 0.82805787114E+01 0.95170886361E+01 0.13394326575E+02
 0.20270988008E+02 0.29863497360E+02 0.51452226731E+02 0.87549340014E+02 0.12357697052E+03
 0.51859095764E+02 0.47144478925E+02 0.36618149025E+02 0.27009695190E+02 0.20270988008E+02
 0.14316167126E+02 0.10399742400E+02 0.90414611813E+01 0.95170886361E+01 0.10794801891E+02
 0.12176166267E+02 0.13238572912E+02 0.13644104852E+02 0.13238572912E+02 0.12176166267E+02
 0.10794801891E+02 0.95170886361E+01 0.90414611813E+01 0.10399742400E+02 0.14316167126E+02
 0.20270988008E+02 0.27009695190E+02 0.36618149025E+02 0.47144478925E+02 0.25093743093E+02
 0.24024958247E+02 0.21245857866E+02 0.17380454353E+02 0.13394326575E+02 0.10399742400E+02
 0.92874745331E+01 0.10399742400E+02 0.13394326575E+02 0.17380454353E+02 0.21245857866E+02
 0.24024958247E+02 0.25093743093E+02 0.24024958247E+02 0.21245857866E+02 0.17380454353E+02
 0.13394326575E+02 0.10399742400E+02 0.92874745331E+01 0.10399742400E+02 0.13394326575E+02
 0.17380454353E+02 0.21245857866E+02 0.24024958247E+02 0.13644104852E+02 0.13238572912E+02
 0.12176166267E+02 0.10794801891E+02 0.95170886361E+01 0.90414611813E+01 0.10399742400E+02
 0.14316167126E+02 0.20270988008E+02 0.27009695190E+02 0.36618149025E+02 0.47144478925E+02
 0.51859095764E+02 0.47144478925E+02 0.36618149025E+02 0.27009695190E+02 0.20270988008E+02
 0.14316167126E+02 0.10399742400E+02 0.90414611813E+01 0.95170886361E+01 0.10794801891E+02
 0.12176166267E+02 0.13238572912E+02 0.76797974032E+01 0.78216970940E+01 0.80791517338E+01
 0.81699941453E+01 0.82805787114E+01 0.95170886361E+01 0.13394326575E+02 0.20270988008E+02
 0.29863497360E+02 0.51452226731E+02 0.87549340014E+02 0.12357697052E+03 0.13881437514E+03
 0.12357697052E+03 0.87549340014E+02 0.51452226731E+02 0.29863497360E+02 0.20270988008E+02
 0.13394326575E+02 0.95170886361E+01 0.82805787114E+01 0.81699941453E+01 0.80791517338E+01
 0.78216970940E+01 0.72541718097E+01 0.75948135079E+01 0.80722219776E+01 0.80039055572E+01
 0.81699941453E+01 0.10794801891E+02 0.17380454353E+02 0.27009695190E+02 0.51452226731E+02
 0.11047157277E+03 0.19795352410E+03 0.27926029451E+03 0.31260391829E+03 0.27926029451E+03
 0.19795352410E+03 0.11047157277E+03 0.51452226731E+02 0.27009695190E+02 0.17380454353E+02
 0.10794801891E+02 0.81699941453E+01 0.80039055572E+01 0.80722219776E+01 0.75948135079E+01
 0.71963039048E+01 0.78197472757E+01 0.85441366214E+01 0.80722219776E+01 0.80791517338E+01
 0.12176166267E+02 0.21245857866E+02 0.36618149025E+02 0.87549340014E+02 0.19795352410E+03
 0.35086364530E+03 0.48828232462E+03 0.54385901363E+03 0.48828232462E+03 0.35086364530E+03
 0.19795352410E+03 0.87549340014E+02 0.36618149025E+02 0.21245857866E+02 0.12176166267E+02
 0.80791517338E+01 0.80722219776E+01 0.85441366214E+01 0.78197472757E+01 0.50905877377E+01
 0.62441665049E+01 0.78197472757E+01 0.75948135079E+01 0.78216970940E+01 0.13238572912E+02
 0.24024958247E+02 0.47144478925E+02 0.12357697052E+03 0.27926029451E+03 0.48828232462E+03
 0.67342060873E+03 0.74786331364E+03 0.67342060873E+03 0.48828232462E+03 0.27926029451E+03
 0.12357697052E+03 0.47144478925E+02 0.24024958247E+02 0.13238572912E+02 0.78216970940E+01
 0.75948135079E+01 0.78197472757E+01 0.62441665049E+01 0.36421612880E+01 0.50905877377E+01
 0.71963039048E+01 0.72541718097E+01 0.76797974032E+01 0.13644104852E+02 0.25093743093E+02
 0.51859095764E+02 0.13881437514E+03 0.31260391829E+03 0.54385901363E+03 0.74786331364E+03
 0.82976258082E+03 0.74786331364E+03 0.54385901363E+03 0.31260391829E+03 0.13881437514E+03
 0.51859095764E+02 0.25093743093E+02 0.13644104852E+02 0.76797974032E+01 0.72541718097E+01
 0.71963039048E+01 0.50905877377E+01 0.50905877377E+01 0.62441665049E+01 0.78197472757E+01
 0.75948135079E+01 0.78216970940E+01 0.13238572912E+02 0.24024958247E+02 0.47144478925E+02
 0.12357697052E+03 0.27926029451E+03 0.48828232462E+03 0.67342060873E+03 0.74786331364E+03
 0.67342060873E+03 0.48828232462E+03 0.27926029451E+03 0.12357697052E+03 0.47144478925E+02
 0.24024958247E+02 0.13238572912E+02 0.78216970940E+01 0.75948135079E+01 0.78197472757E+01
 0.62441665049E+01 0.71963039048E+01 0.78197472757E+01 0.85441366214E+01 0.80722219776E+01
 0.80791517338E+01 0.12176166267E+02 0.21245857866E+02 0.36618149025E+02 0.87549340014E+02
 0.19795352410E+03 0.35086364530E+03 0.48828232462E+03 0.54385901363E+03 0.48828232462E+03
 0.35086364530E+03 0.19795352410E+03 0.87549340014E+02 0.36618149025E+02 0.21245857866E+02
 0.12176166267E+02 0.80791517338E+01 0.80722219776E+01 0.85441366214E+01 0.78197472757E+01
 0.72541718097E+01 0.75948135079E+01 0.80722219776E+01 0.80039055572E+01 0.81699941453E+01
 0.10794801891E+02 0.17380454353E+02 0.27009695190E+02 0.51452226731E+02 0.11047157277E+03
 0.19795352410E+03 0.27926029451E+03 0.31260391829E+03 0.27926029451E+03 0.19795352410E+03
 0.11047157277E+03 0.51452226731E+02 0.27009695190E+02 0.17380454353E+02 0.10794801891E+02
 0.81699941453E+01 0.80039055572E+01 0.80722219776E+01 0.75948135079E+01 0.76797974032E+01
 0.78216970940E+01 0.80791517338E+01 0.81699941453E+01 0.82805787114E+01 0.95170886361E+01
 0.13394326575E+02 0.20270988008E+02 0.29863497360E+02 0.51452226731E+02 0.87549340014E+02
 0.12357697052E+03 0.13881437514E+03 0.12357697052E+03 0.87549340014E+02 0.51452226731E+02
 0.29863497360E+02 0.20270988008E+02 0.13394326575E+02 0.95170886361E+01 0.82805787114E+01
 0.81699941453E+01 0.80791517338E+01 0.78216970940E+01 0.13644104852E+02 0.13238572912E+02
 0.12176166267E+02 0.10794801891E+02 0.95170886361E+01 0.90414611813E+01 0.10399742400E+02
 0.14316167126E+02 0.20270988008E+02 0.27009695190E+02 0.36618149025E+02 0.47144478925E+02
 0.51859095764E+02 0.47144478925E+02 0.36618149025E+02 0.27009695190E+02 0.20270988008E+02
 0.14316167126E+02 0.10399742400E+02 0.90414611813E+01 0.95170886361E+01 0.10794801891E+02
 0.12176166267E+02 0.13238572912E+02 0.25093743093E+02 0.24024958247E+02 0.21245857866E+02
 0.17380454353E+02 0.13394326575E+02 0.10399742400E+02 0.92874745331E+01 0.10399742400E+02
 0.13394326575E+02 0.17380454353E+02 0.21245857866E+02 0.24024958247E+02 0.25093743093E+02
 0.24024958247E+02 0.21245857866E+02 0.17380454353E+02 0.13394326575E+02 0.10399742400E+02
 0.92874745331E+01 0.10399742400E+02 0.13394326575E+02 0.17380454353E+02 0.21245857866E+02
 0.24024958247E+02 0.51859095764E+02 0.47144478925E+02 0.36618149025E+02 0.27009695190E+02
 0.20270988008E+02 0.14316167126E+02 0.10399742400E+02 0.90414611813E+01 0.95170886361E+01
 0.10794801891E+02 0.12176166267E+02 0.13238572912E+02 0.13644104852E+02 0.13238572912E+02
 0.12176166267E+02 0.10794801891E+02 0.95170886361E+01 0.90414611813E+01 0.10399742400E+02
 0.14316167126E+02 0.20270988008E+02 0.27009695190E+02 0.36618149025E+02 0.47144478925E+02
 0.13881437514E+03 0.12357697052E+03 0.87549340014E+02 0.51452226731E+02 0.29863497360E+02
 0.20270988008E+02 0.13394326575E+02 0.95170886361E+01 0.82805787114E+01 0.81699941453E+01
 0.80791517338E+01 0.78216970940E+01 0.76797974032E+01 0.78216970940E+01 0.80791517338E+01
 0.81699941453E+01 0.82805787114E+01 0.95170886361E+01 0.13394326575E+02 0.20270988008E+02
 0.29863497360E+02 0.51452226731E+02 0.87549340014E+02 0.12357697052E+03 0.31260391829E+03
 0.27926029451E+03 0.19795352410E+03 0.11047157277E+03 0.51452226731E+02 0.27009695190E+02
 0.17380454353E+02 0.10794801891E+02 0.81699941453E+01 0.80039055572E+01 0.80722219776E+01
 0.75948135079E+01 0.72541718097E+01 0.75948135079E+01 0.80722219776E+01 0.80039055572E+01
 0.81699941453E+01 0.10794801891E+02 0.17380454353E+02 0.27009695190E+02 0.51452226731E+02
 0.11047157277E+03 0.19795352410E+03 0.27926029451E+03 0.54385901363E+03 0.48828232462E+03
 0.35086364530E+03 0.19795352410E+03 0.87549340014E+02 0.36618149025E+02 0.21245857866E+02
 0.12176166267E+02 0.80791517338E+01 0.80722219776E+01 0.85441366214E+01 0.78197472757E+01
 0.71963039048E+01 0.78197472757E+01 0.85441366214E+01 0.80722219776E+01 0.80791517338E+01
 0.12176166267E+02 0.21245857866E+02 0.36618149025E+02 0.87549340014E+02 0.19795352410E+03
 0.35086364530E+03 0.48828232462E+03 0.74786331364E+03 0.67342060873E+03 0.48828232462E+03
 0.27926029451E+03 0.12357697052E+03 0.47144478925E+02 0.24024958247E+02 0.13238572912E+02
 0.78216970940E+01 0.75948135079E+01 0.78197472757E+01 0.62441665049E+01 0.50905877377E+01
 0.62441665049E+01 0.78197472757E+01 0.75948135079E+01 0.78216970940E+01 0.13238572912E+02
 0.24024958247E+02 0.47144478925E+02 0.12357697052E+03 0.27926029451E+03 0.48828232462E+03
 0.67342060873E+03 0.74786331364E+03 0.67342060873E+03 0.48828232462E+03 0.27926029451E+03
 0.12357697052E+03 0.47144478925E+02 0.24024958247E+02 0.13238572912E+02 0.78216970940E+01
 0.75948135079E+01 0.78197472757E+01 0.62441665049E+01 0.50905877377E+01 0.62441665049E+01
 0.78197472757E+01 0.75948135079E+01 0.78216970940E+01 0.13238572912E+02 0.24024958247E+02
 0.47144478925E+02 0.12357697052E+03 0.27926029451E+03 0.48828232462E+03 0.67342060873E+03
 0.67342060873E+03 0.60579737083E+03 0.43791503091E+03 0.24921978617E+03 0.11003789210E+03
 0.43072474479E+02 0.23048077537E+02 0.12864091256E+02 0.79314179950E+01 0.78445297916E+01
 0.82798269454E+01 0.71461945278E+01 0.62441665049E+01 0.71461945278E+01 0.82798269454E+01
 0.78445297916E+01 0.79314179950E+01 0.12864091256E+02 0.23048077537E+02 0.43072474479E+02
 0.11003789210E+03 0.24921978617E+03 0.43791503091E+03 0.60579737083E+03 0.48828232462E+03
 0.43791503091E+03 0.31367166101E+03 0.17622986597E+03 0.78209497663E+02 0.34033717129E+02
 0.20416221262E+02 0.11888314438E+02 0.81361096860E+01 0.81705101044E+01 0.87319744726E+01
 0.82798269454E+01 0.78197472757E+01 0.82798269454E+01 0.87319744726E+01 0.81705101044E+01
 0.81361096860E+01 0.11888314438E+02 0.20416221262E+02 0.34033717129E+02 0.78209497663E+02
 0.17622986597E+03 0.31367166101E+03 0.43791503091E+03 0.27926029451E+03 0.24921978617E+03
 0.17622986597E+03 0.98371925049E+02 0.46732332096E+02 0.25771150484E+02 0.16761709317E+02
 0.10629135378E+02 0.82187030908E+01 0.80594821806E+01 0.81705101044E+01 0.78445297916E+01
 0.75948135079E+01 0.78445297916E+01 0.81705101044E+01 0.80594821806E+01 0.82187030908E+01
 0.10629135378E+02 0.16761709317E+02 0.25771150484E+02 0.46732332096E+02 0.98371925049E+02
 0.17622986597E+03 0.24921978617E+03 0.12357697052E+03 0.11003789210E+03 0.78209497663E+02
 0.46732332096E+02 0.28229540026E+02 0.19510552840E+02 0.13035457678E+02 0.94672952796E+01
 0.83370694773E+01 0.82187030908E+01 0.81361096860E+01 0.79314179950E+01 0.78216970940E+01
 0.79314179950E+01 0.81361096860E+01 0.82187030908E+01 0.83370694773E+01 0.94672952796E+01
 0.13035457678E+02 0.19510552840E+02 0.28229540026E+02 0.46732332096E+02 0.78209497663E+02
 0.11003789210E+03 0.47144478925E+02 0.43072474479E+02 0.34033717129E+02 0.25771150484E+02
 0.19510552840E+02 0.13889104413E+02 0.10262171013E+02 0.90273942825E+01 0.94672952796E+01
 0.10629135378E+02 0.11888314438E+02 0.12864091256E+02 0.13238572912E+02 0.12864091256E+02
 0.11888314438E+02 0.10629135378E+02 0.94672952796E+01 0.90273942825E+01 0.10262171013E+02
 0.13889104413E+02 0.19510552840E+02 0.25771150484E+02 0.34033717129E+02 0.43072474479E+02
 0.24024958247E+02 0.23048077537E+02 0.20416221262E+02 0.16761709317E+02 0.13035457678E+02
 0.10262171013E+02 0.92374663443E+01 0.10262171013E+02 0.13035457678E+02 0.16761709317E+02
 0.20416221262E+02 0.23048077537E+02 0.24024958247E+02 0.23048077537E+02 0.20416221262E+02
 0.16761709317E+02 0.13035457678E+02 0.10262171013E+02 0.92374663443E+01 0.10262171013E+02
 0.13035457678E+02 0.16761709317E+02 0.20416221262E+02 0.23048077537E+02 0.13238572912E+02
 0.12864091256E+02 0.11888314438E+02 0.10629135378E+02 0.94672952796E+01 0.90273942825E+01
 0.10262171013E+02 0.13889104413E+02 0.19510552840E+02 0.25771150484E+02 0.34033717129E+02
 0.43072474479E+02 0.47144478925E+02 0.43072474479E+02 0.34033717129E+02 0.25771150484E+02
 0.19510552840E+02 0.13889104413E+02 0.10262171013E+02 0.90273942825E+01 0.94672952796E+01
 0.10629135378E+02 0.11888314438E+02 0.12864091256E+02 0.78216970940E+01 0.79314179950E+01
 0.81361096860E+01 0.82187030908E+01 0.83370694773E+01 0.94672952796E+01 0.13035457678E+02
 0.19510552840E+02 0.28229540026E+02 0.46732332096E+02 0.78209497663E+02 0.11003789210E+03
 0.12357697052E+03 0.11003789210E+03 0.78209497663E+02 0.46732332096E+02 0.28229540026E+02
 0.19510552840E+02 0.13035457678E+02 0.94672952796E+01 0.83370694773E+01 0.82187030908E+01
 0.81361096860E+01 0.79314179950E+01 0.75948135079E+01 0.78445297916E+01 0.81705101044E+01
 0.80594821806E+01 0.82187030908E+01 0.10629135378E+02 0.16761709317E+02 0.25771150484E+02
 0.46732332096E+02 0.98371925049E+02 0.17622986597E+03 0.24921978617E+03 0.27926029451E+03
 0.24921978617E+03 0.17622986597E+03 0.98371925049E+02 0.46732332096E+02 0.25771150484E+02
 0.16761709317E+02 0.10629135378E+02 0.82187030908E+01 0.80594821806E+01 0.81705101044E+01
 0.78445297916E+01 0.78197472757E+01 0.82798269454E+01 0.87319744726E+01 0.81705101044E+01
 0.81361096860E+01 0.11888314438E+02 0.20416221262E+02 0.34033717129E+02 0.78209497663E+02
 0.17622986597E+03 0.31367166101E+03 0.43791503091E+03 0.48828232462E+03 0.43791503091E+03
 0.31367166101E+03 0.17622986597E+03 0.78209497663E+02 0.34033717129E+02 0.20416221262E+02
 0.11888314438E+02 0.81361096860E+01 0.81705101044E+01 0.87319744726E+01 0.82798269454E+01
 0.62441665049E+01 0.71461945278E+01 0.82798269454E+01 0.78445297916E+01 0.79314179950E+01
 0.12864091256E+02 0.23048077537E+02 0.43072474479E+02 0.11003789210E+03 0.24921978617E+03
 0.43791503091E+03 0.60579737083E+03 0.67342060873E+03 0.60579737083E+03 0.43791503091E+03
 0.24921978617E+03 0.11003789210E+03 0.43072474479E+02 0.23048077537E+02 0.12864091256E+02
 0.79314179950E+01 0.78445297916E+01 0.82798269454E+01 0.71461945278E+01 0.50905877377E+01
 0.62441665049E+01 0.78197472757E+01 0.75948135079E+01 0.78216970940E+01 0.13238572912E+02
 0.24024958247E+02 0.47144478925E+02 0.12357697052E+03 0.27926029451E+03 0.48828232462E+03
 0.67342060873E+03 0.74786331364E+03 0.67342060873E+03 0.48828232462E+03 0.27926029451E+03
 0.12357697052E+03 0.47144478925E+02 0.24024958247E+02 0.13238572912E+02 0.78216970940E+01
 0.75948135079E+01 0.78197472757E+01 0.62441665049E+01 0.62441665049E+01 0.71461945278E+01
 0.82798269454E+01 0.78445297916E+01 0.79314179950E+01 0.12864091256E+02 0.23048077537E+02
 0.43072474479E+02 0.11003789210E+03 0.24921978617E+03 0.43791503091E+03 0.60579737083E+03
 0.67342060873E+03 0.60579737083E+03 0.43791503091E+03 0.24921978617E+03 0.11003789210E+03
 0.43072474479E+02 0.23048077537E+02 0.12864091256E+02 0.79314179950E+01 0.78445297916E+01
 0.82798269454E+01 0.71461945278E+01 0.78197472757E+01 0.82798269454E+01 0.87319744726E+01
 0.81705101044E+01 0.81361096860E+01 0.11888314438E+02 0.20416221262E+02 0.34033717129E+02
 0.78209497663E+02 0.17622986597E+03 0.31367166101E+03 0.43791503091E+03 0.48828232462E+03
 0.43791503091E+03 0.31367166101E+03 0.17622986597E+03 0.78209497663E+02 0.34033717129E+02
 0.20416221262E+02 0.11888314438E+02 0.81361096860E+01 0.81705101044E+01 0.87319744726E+01
 0.82798269454E+01 0.75948135079E+01 0.78445297916E+01 0.81705101044E+01 0.80594821806E+01
 0.82187030908E+01 0.10629135378E+02 0.16761709317E+02 0.25771150484E+02 0.46732332096E+02
 0.98371925049E+02 0.17622986597E+03 0.24921978617E+03 0.27926029451E+03 0.24921978617E+03
 0.17622986597E+03 0.98371925049E+02 0.46732332096E+02 0.25771150484E+02 0.16761709317E+02
 0.10629135378E+02 0.82187030908E+01 0.80594821806E+01 0.81705101044E+01 0.78445297916E+01
 0.78216970940E+01 0.79314179950E+01 0.81361096860E+01 0.82187030908E+01 0.83370694773E+01
 0.94672952796E+01 0.13035457678E+02 0.19510552840E+02 0.28229540026E+02 0.46732332096E+02
 0.78209497663E+02 0.11003789210E+03 0.12357697052E+03 0.11003789210E+03 0.78209497663E+02
 0.46732332096E+02 0.28229540026E+02 0.19510552840E+02 0.13035457678E+02 0.94672952796E+01
 0.83370694773E+01 0.82187030908E+01 0.81361096860E+01 0.79314179950E+01 0.13238572912E+02
 0.12864091256E+02 0.11888314438E+02 0.10629135378E+02 0.94672952796E+01 0.90273942825E+01
 0.10262171013E+02 0.13889104413E+02 0.19510552840E+02 0.25771150484E+02 0.34033717129E+02
 0.43072474479E+02 0.47144478925E+02 0.43072474479E+02 0.34033717129E+02 0.25771150484E+02
 0.19510552840E+02 0.13889104413E+02 0.10262171013E+02 0.90273942825E+01 0.94672952796E+01
 0.10629135378E+02 0.11888314438E+02 0.12864091256E+02 0.24024958247E+02 0.23048077537E+02
 0.20416221262E+02 0.16761709317E+02 0.13035457678E+02 0.10262171013E+02 0.92374663443E+01
 0.10262171013E+02 0.13035457678E+02 0.16761709317E+02 0.20416221262E+02 0.23048077537E+02
 0.24024958247E+02 0.23048077537E+02 0.20416221262E+02 0.16761709317E+02 0.13035457678E+02
 0.10262171013E+02 0.92374663443E+01 0.10262171013E+02 0.13035457678E+02 0.16761709317E+02
 0.20416221262E+02 0.23048077537E+02 0.47144478925E+02 0.43072474479E+02 0.34033717129E+02
 0.25771150484E+02 0.19510552840E+02 0.13889104413E+02 0.10262171013E+02 0.90273942825E+01
 0.94672952796E+01 0.10629135378E+02 0.11888314438E+02 0.12864091256E+02 0.13238572912E+02
 0.12864091256E+02 0.11888314438E+02 0.10629135378E+02 0.94672952796E+01 0.90273942825E+01
 0.10262171013E+02 0.13889104413E+02 0.19510552840E+02 0.25771150484E+02 0.34033717129E+02
 0.43072474479E+02 0.12357697052E+03 0.11003789210E+03 0.78209497663E+02 0.46732332096E+02
 0.28229540026E+02 0.19510552840E+02 0.13035457678E+02 0.94672952796E+01 0.83370694773E+01
 0.82187030908E+01 0.81361096860E+01 0.79314179950E+01 0.78216970940E+01 0.79314179950E+01
 0.81361096860E+01 0.82187030908E+01 0.83370694773E+01 0.94672952796E+01 0.13035457678E+02
 0.19510552840E+02 0.28229540026E+02 0.46732332096E+02 0.78209497663E+02 0.11003789210E+03
 0.27926029451E+03 0.24921978617E+03 0.17622986597E+03 0.98371925049E+02 0.46732332096E+02
 0.25771150484E+02 0.16761709317E+02 0.10629135378E+02 0.82187030908E+01 0.80594821806E+01
 0.81705101044E+01 0.78445297916E+01 0.75948135079E+01 0.78445297916E+01 0.81705101044E+01
 0.80594821806E+01 0.82187030908E+01 0.10629135378E+02 0.16761709317E+02 0.25771150484E+02
 0.46732332096E+02 0.98371925049E+02 0.17622986597E+03 0.24921978617E+03 0.48828232462E+03
 0.43791503091E+03 0.31367166101E+03 0.17622986597E+03 0.78209497663E+02 0.34033717129E+02
 0.20416221262E+02 0.11888314438E+02 0.81361096860E+01 0.81705101044E+01 0.87319744726E+01
 0.82798269454E+01 0.78197472757E+01 0.82798269454E+01 0.87319744726E+01 0.81705101044E+01
 0.81361096860E+01 0.11888314438E+02 0.20416221262E+02 0.34033717129E+02 0.78209497663E+02
 0.17622986597E+03 0.31367166101E+03 0.43791503091E+03 0.67342060873E+03 0.60579737083E+03
 0.43791503091E+03 0.24921978617E+03 0.11003789210E+03 0.43072474479E+02 0.23048077537E+02
 0.12864091256E+02 0.79314179950E+01 0.78445297916E+01 0.82798269454E+01 0.71461945278E+01
 0.62441665049E+01 0.71461945278E+01 0.82798269454E+01 0.78445297916E+01 0.79314179950E+01
 0.12864091256E+02 0.23048077537E+02 0.43072474479E+02 0.11003789210E+03 0.24921978617E+03
 0.43791503091E+03 0.60579737083E+03 0.54385901363E+03 0.48828232462E+03 0.35086364530E+03
 0.19795352410E+03 0.87549340014E+02 0.36618149025E+02 0.21245857866E+02 0.12176166267E+02
 0.80791517338E+01 0.80722219776E+01 0.85441366214E+01 0.78197472757E+01 0.71963039048E+01
 0.78197472757E+01 0.85441366214E+01 0.80722219776E+01 0.80791517338E+01 0.12176166267E+02
 0.21245857866E+02 0.36618149025E+02 0.87549340014E+02 0.19795352410E+03 0.35086364530E+03
 0.48828232462E+03 0.48828232462E+03 0.43791503091E+03 0.31367166101E+03 0.17622986597E+03
 0.78209497663E+02 0.34033717129E+02 0.20416221262E+02 0.11888314438E+02 0.81361096860E+01
 0.81705101044E+01 0.87319744726E+01 0.82798269454E+01 0.78197472757E+01 0.82798269454E+01
 0.87319744726E+01 0.81705101044E+01 0.81361096860E+01 0.11888314438E+02 0.20416221262E+02
 0.34033717129E+02 0.78209497663E+02 0.17622986597E+03 0.31367166101E+03 0.43791503091E+03
 0.35086364530E+03 0.31367166101E+03 0.22269742911E+03 0.12410154755E+03 0.56674018060E+02
 0.28345105762E+02 0.18163225944E+02 0.11144024189E+02 0.82577715032E+01 0.82734308060E+01
 0.88014154870E+01 0.87319744726E+01 0.85441366214E+01 0.87319744726E+01 0.88014154870E+01
 0.82734308060E+01 0.82577715032E+01 0.11144024189E+02 0.18163225944E+02 0.28345105762E+02
 0.56674018060E+02 0.12410154755E+03 0.22269742911E+03 0.31367166101E+03 0.19795352410E+03
 0.17622986597E+03 0.12410154755E+03 0.70118151412E+02 0.36242125123E+02 0.22827362115E+02
 0.15117788256E+02 0.10194344778E+02 0.83370784234E+01 0.81663554379E+01 0.82734308060E+01
 0.81705101044E+01 0.80722219776E+01 0.81705101044E+01 0.82734308060E+01 0.81663554379E+01
 0.83370784234E+01 0.10194344778E+02 0.15117788256E+02 0.22827362115E+02 0.36242125123E+02
 0.70118151412E+02 0.12410154755E+03 0.17622986597E+03 0.87549340014E+02 0.78209497663E+02
 0.56674018060E+02 0.36242125123E+02 0.24582905800E+02 0.17492920819E+02 0.12109544804E+02
 0.93216178864E+01 0.84621472658E+01 0.83370784234E+01 0.82577715032E+01 0.81361096860E+01
 0.80791517338E+01 0.81361096860E+01 0.82577715032E+01 0.83370784234E+01 0.84621472658E+01
 0.93216178864E+01 0.12109544804E+02 0.17492920819E+02 0.24582905800E+02 0.36242125123E+02
 0.56674018060E+02 0.78209497663E+02 0.36618149025E+02 0.34033717129E+02 0.28345105762E+02
 0.22827362115E+02 0.17492920819E+02 0.12813369146E+02 0.99309379549E+01 0.89847801149E+01
 0.93216178864E+01 0.10194344778E+02 0.11144024189E+02 0.11888314438E+02 0.12176166267E+02
 0.11888314438E+02 0.11144024189E+02 0.10194344778E+02 0.93216178864E+01 0.89847801149E+01
 0.99309379549E+01 0.12813369146E+02 0.17492920819E+02 0.22827362115E+02 0.28345105762E+02
 0.34033717129E+02 0.21245857866E+02 0.20416221262E+02 0.18163225944E+02 0.15117788256E+02
 0.12109544804E+02 0.99309379549E+01 0.91384955860E+01 0.99309379549E+01 0.12109544804E+02
 0.15117788256E+02 0.18163225944E+02 0.20416221262E+02 0.21245857866E+02 0.20416221262E+02
 0.18163225944E+02 0.15117788256E+02 0.12109544804E+02 0.99309379549E+01 0.91384955860E+01
 0.99309379549E+01 0.12109544804E+02 0.15117788256E+02 0.18163225944E+02 0.20416221262E+02
 0.12176166267E+02 0.11888314438E+02 0.11144024189E+02 0.10194344778E+02 0.93216178864E+01
 0.89847801149E+01 0.99309379549E+01 0.12813369146E+02 0.17492920819E+02 0.22827362115E+02
 0.28345105762E+02 0.34033717129E+02 0.36618149025E+02 0.34033717129E+02 0.28345105762E+02
 0.22827362115E+02 0.17492920819E+02 0.12813369146E+02 0.99309379549E+01 0.89847801149E+01
 0.93216178864E+01 0.10194344778E+02 0.11144024189E+02 0.11888314438E+02 0.80791517338E+01
 0.81361096860E+01 0.82577715032E+01 0.83370784234E+01 0.84621472658E+01 0.93216178864E+01
 0.12109544804E+02 0.17492920819E+02 0.24582905800E+02 0.36242125123E+02 0.56674018060E+02
 0.78209497663E+02 0.87549340014E+02 0.78209497663E+02 0.56674018060E+02 0.36242125123E+02
 0.24582905800E+02 0.17492920819E+02 0.12109544804E+02 0.93216178864E+01 0.84621472658E+01
 0.83370784234E+01 0.82577715032E+01 0.81361096860E+01 0.80722219776E+01 0.81705101044E+01
 0.82734308060E+01 0.81663554379E+01 0.83370784234E+01 0.10194344778E+02 0.15117788256E+02
 0.22827362115E+02 0.36242125123E+02 0.70118151412E+02 0.12410154755E+03 0.17622986597E+03
 0.19795352410E+03 0.17622986597E+03 0.12410154755E+03 0.70118151412E+02 0.36242125123E+02
 0.22827362115E+02 0.15117788256E+02 0.10194344778E+02 0.83370784234E+01 0.81663554379E+01
 0.82734308060E+01 0.81705101044E+01 0.85441366214E+01 0.87319744726E+01 0.88014154870E+01
 0.82734308060E+01 0.82577715032E+01 0.11144024189E+02 0.18163225944E+02 0.28345105762E+02
 0.56674018060E+02 0.12410154755E+03 0.22269742911E+03 0.31367166101E+03 0.35086364530E+03
 0.31367166101E+03 0.22269742911E+03 0.12410154755E+03 0.56674018060E+02 0.28345105762E+02
 0.18163225944E+02 0.11144024189E+02 0.82577715032E+01 0.82734308060E+01 0.88014154870E+01
 0.87319744726E+01 0.78197472757E+01 0.82798269454E+01 0.87319744726E+01 0.81705101044E+01
 0.81361096860E+01 0.11888314438E+02 0.20416221262E+02 0.34033717129E+02 0.78209497663E+02
 0.17622986597E+03 0.31367166101E+03 0.43791503091E+03 0.48828232462E+03 0.43791503091E+03
 0.31367166101E+03 0.17622986597E+03 0.78209497663E+02 0.34033717129E+02 0.20416221262E+02
 0.11888314438E+02 0.81361096860E+01 0.81705101044E+01 0.87319744726E+01 0.82798269454E+01
 0.71963039048E+01 0.78197472757E+01 0.85441366214E+01 0.80722219776E+01 0.80791517338E+01
 0.12176166267E+02 0.21245857866E+02 0.36618149025E+02 0.87549340014E+02 0.19795352410E+03
 0.35086364530E+03 0.48828232462E+03 0.54385901363E+03 0.48828232462E+03 0.35086364530E+03
 0.19795352410E+03 0.87549340014E+02 0.36618149025E+02 0.21245857866E+02 0.12176166267E+02
 0.80791517338E+01 0.80722219776E+01 0.85441366214E+01 0.78197472757E+01 0.78197472757E+01
 0.82798269454E+01 0.87319744726E+01 0.81705101044E+01 0.81361096860E+01 0.11888314438E+02
 0.20416221262E+02 0.34033717129E+02 0.78209497663E+02 0.17622986597E+03 0.31367166101E+03
 0.43791503091E+03 0.48828232462E+03 0.43791503091E+03 0.31367166101E+03 0.17622986597E+03
 0.78209497663E+02 0.34033717129E+02 0.20416221262E+02 0.11888314438E+02 0.81361096860E+01
 0.81705101044E+01 0.87319744726E+01 0.82798269454E+01 0.85441366214E+01 0.87319744726E+01
 0.88014154870E+01 0.82734308060E+01 0.82577715032E+01 0.11144024189E+02 0.18163225944E+02
 0.28345105762E+02 0.56674018060E+02 0.12410154755E+03 0.22269742911E+03 0.31367166101E+03
 0.35086364530E+03 0.31367166101E+03 0.22269742911E+03 0.12410154755E+03 0.56674018060E+02
 0.28345105762E+02 0.18163225944E+02 0.11144024189E+02 0.82577715032E+01 0.82734308060E+01
 0.88014154870E+01 0.87319744726E+01 0.80722219776E+01 0.81705101044E+01 0.82734308060E+01
 0.81663554379E+01 0.83370784234E+01 0.10194344778E+02 0.15117788256E+02 0.22827362115E+02
 0.36242125123E+02 0.70118151412E+02 0.12410154755E+03 0.17622986597E+03 0.19795352410E+03
 0.17622986597E+03 0.12410154755E+03 0.70118151412E+02 0.36242125123E+02 0.22827362115E+02
 0.15117788256E+02 0.10194344778E+02 0.83370784234E+01 0.81663554379E+01 0.82734308060E+01
 0.81705101044E+01 0.80791517338E+01 0.81361096860E+01 0.82577715032E+01 0.83370784234E+01
 0.84621472658E+01 0.93216178864E+01 0.12109544804E+02 0.17492920819E+02 0.24582905800E+02
 0.36242125123E+02 0.56674018060E+02 0.78209497663E+02 0.87549340014E+02 0.78209497663E+02
 0.56674018060E+02 0.36242125123E+02 0.24582905800E+02 0.17492920819E+02 0.12109544804E+02
 0.93216178864E+01 0.84621472658E+01 0.83370784234E+01 0.82577715032E+01 0.81361096860E+01
 0.12176166267E+02 0.11888314438E+02 0.11144024189E+02 0.10194344778E+02 0.93216178864E+01
 0.89847801149E+01 0.99309379549E+01 0.12813369146E+02 0.17492920819E+02 0.22827362115E+02
 0.28345105762E+02 0.34033717129E+02 0.36618149025E+02 0.34033717129E+02 0.28345105762E+02
 0.22827362115E+02 0.17492920819E+02 0.12813369146E+02 0.99309379549E+01 0.89847801149E+01
 0.93216178864E+01 0.10194344778E+02 0.11144024189E+02 0.11888314438E+02 0.21245857866E+02
 0.20416221262E+02 0.18163225944E+02 0.15117788256E+02 0.12109544804E+02 0.99309379549E+01
 0.91384955860E+01 0.99309379549E+01 0.12109544804E+02 0.15117788256E+02 0.18163225944E+02
 0.20416221262E+02 0.21245857866E+02 0.20416221262E+02 0.18163225944E+02 0.15117788256E+02
 0.12109544804E+02 0.99309379549E+01 0.91384955860E+01 0.99309379549E+01 0.12109544804E+02
 0.15117788256E+02 0.18163225944E+02 0.20416221262E+02 0.36618149025E+02 0.34033717129E+02
 0.28345105762E+02 0.22827362115E+02 0.17492920819E+02 0.12813369146E+02 0.99309379549E+01
 0.89847801149E+01 0.93216178864E+01 0.10194344778E+02 0.11144024189E+02 0.11888314438E+02
 0.12176166267E+02 0.11888314438E+02 0.11144024189E+02 0.10194344778E+02 0.93216178864E+01