   4   4   0   0
  0.1200752E+02  0.3635000E-09  0.3635000E-09  0.3635000E-09  0.5000000E-15
  1.000000000000000E-004
  CAR 
 unknown system                          
     27.71754619     -3.72178077  301      6.99702256      1.00000000
     -3.722  0.0000E+00  0.0000E+00
     -3.617  0.0000E+00  0.0000E+00
     -3.512  0.0000E+00  0.0000E+00
     -3.407 -0.5143E-31 -0.5389E-32
     -3.303 -0.2511E-27 -0.2632E-28
     -3.198 -0.7049E-24 -0.7390E-25
     -3.093 -0.1137E-20 -0.1192E-21
     -2.988 -0.1052E-17 -0.1104E-18
     -2.883 -0.5414E-15 -0.5685E-16
     -2.779 -0.1636E-12 -0.1721E-13
     -2.674 -0.2815E-10 -0.2968E-11
     -2.569 -0.2749E-08 -0.2910E-09
     -2.464 -0.1513E-06 -0.1614E-07
     -2.359 -0.4638E-05 -0.5021E-06
     -2.255 -0.7752E-04 -0.8626E-05
     -2.150 -0.6739E-03 -0.7925E-04
     -2.045 -0.2652E-02 -0.3571E-03
     -1.940 -0.1519E-02 -0.5163E-03
     -1.835  0.1928E-01  0.1504E-02
     -1.731  0.5481E-01  0.7248E-02
     -1.626  0.5204E-01  0.1270E-01
     -1.521  0.5561E-02  0.1328E-01
     -1.416  0.2745E-01  0.1616E-01
     -1.311  0.2153E+00  0.3872E-01
     -1.207  0.3789E+00  0.7843E-01
     -1.102  0.2469E+00  0.1043E+00
     -0.997  0.4841E-01  0.1094E+00
     -0.892  0.2268E+00  0.1331E+00
     -0.787  0.6688E+00  0.2032E+00
     -0.683  0.6983E+00  0.2764E+00
     -0.578  0.2696E+00  0.3047E+00
     -0.473  0.9630E-01  0.3147E+00
     -0.368  0.3544E+00  0.3519E+00
     -0.263  0.4940E+00  0.4037E+00
     -0.159  0.2512E+00  0.4300E+00
     -0.054  0.5791E-01  0.4361E+00
      0.051  0.1936E+00  0.4564E+00
      0.156  0.3380E+00  0.4918E+00
      0.261  0.1928E+00  0.5120E+00
      0.365  0.2419E+00  0.5373E+00
      0.470  0.9787E+00  0.6399E+00
      0.575  0.1485E+01  0.7955E+00
      0.680  0.9638E+00  0.8965E+00
      0.785  0.7068E+00  0.9706E+00
      0.889  0.1328E+01  0.1110E+01
      0.994  0.1361E+01  0.1252E+01
      1.099  0.5245E+00  0.1307E+01
      1.204 -0.3030E-01  0.1304E+01
      1.309 -0.1079E+00  0.1293E+01
      1.413 -0.6250E-01  0.1286E+01
      1.518  0.1761E+00  0.1305E+01
      1.623  0.7903E+00  0.1388E+01
      1.728  0.1654E+01  0.1561E+01
      1.833  0.2089E+01  0.1780E+01
      1.937  0.1509E+01  0.1938E+01
      2.042  0.1040E+01  0.2047E+01
      2.147  0.1564E+01  0.2211E+01
      2.252  0.2269E+01  0.2449E+01
      2.356  0.2427E+01  0.2703E+01
      2.461  0.1563E+01  0.2867E+01
      2.566  0.5364E+00  0.2923E+01
      2.671  0.1501E+01  0.3080E+01
      2.776  0.4611E+01  0.3563E+01
      2.880  0.6563E+01  0.4251E+01
      2.985  0.5495E+01  0.4827E+01
      3.090  0.2851E+01  0.5126E+01
      3.195  0.4806E+00  0.5176E+01
      3.300  0.1707E+01  0.5355E+01
      3.404  0.8720E+01  0.6269E+01
      3.509  0.1665E+02  0.8014E+01
      3.614  0.1793E+02  0.9894E+01
      3.719  0.1416E+02  0.1138E+02
      3.824  0.1256E+02  0.1269E+02
      3.928  0.1344E+02  0.1410E+02
      4.033  0.1398E+02  0.1557E+02
      4.138  0.1426E+02  0.1706E+02
      4.243  0.1445E+02  0.1858E+02
      4.348  0.1561E+02  0.2021E+02
      4.452  0.1939E+02  0.2224E+02
      4.557  0.2205E+02  0.2455E+02
      4.662  0.2079E+02  0.2673E+02
      4.767  0.1917E+02  0.2874E+02
      4.872  0.1969E+02  0.3081E+02
      4.976  0.2320E+02  0.3324E+02
      5.081  0.2753E+02  0.3612E+02
      5.186  0.2592E+02  0.3884E+02
      5.291  0.1678E+02  0.4060E+02
      5.396  0.8045E+01  0.4144E+02
      5.500  0.4489E+01  0.4191E+02
      5.605  0.3050E+01  0.4223E+02
      5.710  0.1635E+01  0.4240E+02
      5.815  0.1275E+01  0.4254E+02
      5.920  0.1693E+01  0.4271E+02
      6.024  0.1274E+01  0.4285E+02
      6.129  0.3235E+00  0.4288E+02
      6.234 -0.8045E-01  0.4287E+02
      6.339 -0.7832E-01  0.4286E+02
      6.444 -0.9997E-01  0.4285E+02
      6.548 -0.1426E+00  0.4284E+02
      6.653  0.3337E+00  0.4287E+02
      6.758  0.1928E+01  0.4307E+02
      6.863  0.3821E+01  0.4348E+02
      6.968  0.4080E+01  0.4390E+02
      7.072  0.2781E+01  0.4419E+02
      7.177  0.1755E+01  0.4438E+02
      7.282  0.1016E+01  0.4448E+02
      7.387  0.2123E+00  0.4451E+02
      7.492 -0.1558E+00  0.4449E+02
      7.596  0.5926E-01  0.4450E+02
      7.701  0.8746E+00  0.4459E+02
      7.806  0.1553E+01  0.4475E+02
      7.911  0.1100E+01  0.4487E+02
      8.016  0.1982E+00  0.4489E+02
      8.120 -0.1412E+00  0.4487E+02
      8.225  0.2346E+00  0.4490E+02
      8.330  0.1119E+01  0.4501E+02
      8.435  0.1436E+01  0.4516E+02
      8.540  0.8280E+00  0.4525E+02
      8.644  0.9713E+00  0.4535E+02
      8.749  0.2070E+01  0.4557E+02
      8.854  0.2024E+01  0.4578E+02
      8.959  0.8251E+00  0.4587E+02
      9.064  0.1323E+00  0.4588E+02
      9.168 -0.1069E-01  0.4588E+02
      9.273 -0.5454E-01  0.4588E+02
      9.378  0.3012E+00  0.4591E+02
      9.483  0.1092E+01  0.4602E+02
      9.588  0.1571E+01  0.4619E+02
      9.692  0.2112E+01  0.4641E+02
      9.797  0.3060E+01  0.4673E+02
      9.902  0.2793E+01  0.4702E+02
     10.007  0.1474E+01  0.4718E+02
     10.112  0.5387E+00  0.4723E+02
     10.216  0.9101E-01  0.4724E+02
     10.321 -0.5310E-01  0.4724E+02
     10.426 -0.5034E-01  0.4723E+02
     10.531 -0.4714E-01  0.4723E+02
     10.636  0.5961E-01  0.4723E+02
     10.740  0.4490E+00  0.4728E+02
     10.845  0.7699E+00  0.4736E+02
     10.950  0.5033E+00  0.4741E+02
     11.055  0.4520E-01  0.4742E+02
     11.160  0.1907E+00  0.4744E+02
     11.264  0.1041E+01  0.4755E+02
     11.369  0.1480E+01  0.4770E+02
     11.474  0.8489E+00  0.4779E+02
     11.579  0.5685E+00  0.4785E+02
     11.683  0.1495E+01  0.4801E+02
     11.788  0.2377E+01  0.4826E+02
     11.893  0.2072E+01  0.4847E+02
     11.998  0.1056E+01  0.4858E+02
     12.103  0.5231E+00  0.4864E+02
     12.207  0.7525E+00  0.4872E+02
     12.312  0.1802E+01  0.4891E+02
     12.417  0.3020E+01  0.4922E+02
     12.522  0.2408E+01  0.4948E+02
     12.627  0.7626E+00  0.4955E+02
     12.731  0.5716E+00  0.4961E+02
     12.836  0.1354E+01  0.4976E+02
     12.941  0.1283E+01  0.4989E+02
     13.046  0.6659E+00  0.4996E+02
     13.151  0.4623E+00  0.5001E+02
     13.255  0.3265E+00  0.5004E+02
     13.360  0.5655E-01  0.5005E+02
     13.465 -0.1381E+00  0.5004E+02
     13.570 -0.1277E+00  0.5002E+02
     13.675  0.7396E+00  0.5010E+02
     13.779  0.2518E+01  0.5036E+02
     13.884  0.3010E+01  0.5068E+02
     13.989  0.1426E+01  0.5083E+02
     14.094  0.3188E-01  0.5083E+02
     14.199 -0.2117E+00  0.5081E+02
     14.303  0.2172E+00  0.5083E+02
     14.408  0.1211E+01  0.5096E+02
     14.513  0.2074E+01  0.5118E+02
     14.618  0.1733E+01  0.5136E+02
     14.723  0.7546E+00  0.5144E+02
     14.827  0.6659E+00  0.5151E+02
     14.932  0.1356E+01  0.5165E+02
     15.037  0.1594E+01  0.5182E+02
     15.142  0.1629E+01  0.5199E+02
     15.247  0.1880E+01  0.5218E+02
     15.351  0.2042E+01  0.5240E+02
     15.456  0.2659E+01  0.5268E+02
     15.561  0.2970E+01  0.5299E+02
     15.666  0.1655E+01  0.5316E+02
     15.771  0.1722E+00  0.5318E+02
     15.875  0.4421E-01  0.5318E+02
     15.980  0.9536E+00  0.5328E+02
     16.085  0.1529E+01  0.5344E+02
     16.190  0.9193E+00  0.5354E+02
     16.295  0.2087E+00  0.5356E+02
     16.399  0.3877E+00  0.5360E+02
     16.504  0.9811E+00  0.5371E+02
     16.609  0.1450E+01  0.5386E+02
     16.714  0.1788E+01  0.5404E+02
     16.819  0.1773E+01  0.5423E+02
     16.923  0.1778E+01  0.5442E+02
     17.028  0.2419E+01  0.5467E+02
     17.133  0.2590E+01  0.5494E+02
     17.238  0.1604E+01  0.5511E+02
     17.343  0.5370E+00  0.5517E+02
     17.447  0.1187E+00  0.5518E+02
     17.552  0.5169E+00  0.5523E+02
     17.657  0.1327E+01  0.5537E+02
     17.762  0.1275E+01  0.5551E+02
     17.867  0.6416E+00  0.5557E+02
     17.971  0.1098E+01  0.5569E+02
     18.076  0.2299E+01  0.5593E+02
     18.181  0.2694E+01  0.5621E+02
     18.286  0.2044E+01  0.5643E+02
     18.391  0.8491E+00  0.5651E+02
     18.495  0.1261E+00  0.5653E+02
     18.600  0.8611E+00  0.5662E+02
     18.705  0.2445E+01  0.5687E+02
     18.810  0.2848E+01  0.5717E+02
     18.915  0.1760E+01  0.5736E+02
     19.019  0.1848E+01  0.5755E+02
     19.124  0.3756E+01  0.5794E+02
     19.229  0.4055E+01  0.5837E+02
     19.334  0.1852E+01  0.5856E+02
     19.439  0.9826E-01  0.5857E+02
     19.543 -0.2014E+00  0.5855E+02
     19.648 -0.7136E-01  0.5855E+02
     19.753 -0.1547E-01  0.5854E+02
     19.858 -0.3443E-01  0.5854E+02
     19.963 -0.9664E-01  0.5853E+02
     20.067  0.1985E-01  0.5853E+02
     20.172  0.7901E+00  0.5861E+02
     20.277  0.2040E+01  0.5883E+02
     20.382  0.2639E+01  0.5911E+02
     20.487  0.1926E+01  0.5931E+02
     20.591  0.6572E+00  0.5938E+02
     20.696 -0.2835E-01  0.5937E+02
     20.801 -0.9164E-01  0.5936E+02
     20.906 -0.2731E-01  0.5936E+02
     21.010 -0.3671E-02  0.5936E+02
     21.115 -0.2583E-03  0.5936E+02
     21.220 -0.9999E-05  0.5936E+02
     21.325 -0.2178E-06  0.5936E+02
     21.430 -0.3105E-08  0.5936E+02
     21.534 -0.4150E-07  0.5936E+02
     21.639 -0.2429E-05  0.5936E+02
     21.744 -0.7934E-04  0.5936E+02
     21.849 -0.1418E-02  0.5936E+02
     21.954 -0.1327E-01  0.5936E+02
     22.058 -0.5766E-01  0.5935E+02
     22.163 -0.5385E-01  0.5935E+02
     22.268  0.3804E+00  0.5939E+02
     22.373  0.1268E+01  0.5952E+02
     22.478  0.1502E+01  0.5968E+02
     22.582  0.7090E+00  0.5975E+02
     22.687  0.3702E-01  0.5976E+02
     22.792 -0.7617E-01  0.5975E+02
     22.897 -0.2583E-01  0.5974E+02
     23.002 -0.3619E-02  0.5974E+02
     23.106 -0.2576E-03  0.5974E+02
     23.211 -0.9906E-05  0.5974E+02
     23.316 -0.2112E-06  0.5974E+02
     23.421 -0.2532E-08  0.5974E+02
     23.526 -0.1720E-10  0.5974E+02
     23.630 -0.6672E-13  0.5974E+02
     23.735  0.0000E+00  0.5974E+02
     23.840  0.0000E+00  0.5974E+02
     23.945  0.0000E+00  0.5974E+02
     24.050 -0.3586E-29  0.5974E+02
     24.154 -0.1595E-25  0.5974E+02
     24.259 -0.4078E-22  0.5974E+02
     24.364 -0.5989E-19  0.5974E+02
     24.469 -0.5047E-16  0.5974E+02
     24.574 -0.2370E-13  0.5974E+02
     24.678 -0.6493E-11  0.5974E+02
     24.783 -0.1016E-08  0.5974E+02
     24.888 -0.9007E-07  0.5974E+02
     24.993 -0.4495E-05  0.5974E+02
     25.098 -0.1246E-03  0.5974E+02
     25.202 -0.1874E-02  0.5974E+02
     25.307 -0.1446E-01  0.5974E+02
     25.412 -0.4802E-01  0.5974E+02
     25.517  0.2162E-02  0.5974E+02
     25.622  0.4073E+00  0.5978E+02
     25.726  0.9678E+00  0.5988E+02
     25.831  0.8986E+00  0.5998E+02
     25.936  0.3102E+00  0.6001E+02
     26.041 -0.2423E-01  0.6001E+02
     26.146 -0.4242E-01  0.6000E+02
     26.250 -0.1078E-01  0.6000E+02
     26.355 -0.1240E-02  0.6000E+02
     26.460 -0.7420E-04  0.6000E+02
     26.565 -0.2420E-05  0.6000E+02
     26.670 -0.4398E-07  0.6000E+02
     26.774 -0.4505E-09  0.6000E+02
     26.879 -0.2618E-11  0.6000E+02
     26.984 -0.8679E-14  0.6000E+02
     27.089  0.0000E+00  0.6000E+02
     27.194  0.0000E+00  0.6000E+02
     27.298  0.0000E+00  0.6000E+02
     27.403  0.0000E+00  0.6000E+02
     27.508  0.0000E+00  0.6000E+02
     27.613  0.0000E+00  0.6000E+02
     27.718  0.0000E+00  0.6000E+02
