<?xml version="1.0" encoding="ISO-8859-1"?>
<modeling>
 <generator>
  <i name="program" type="string">vasp </i>
  <i name="version" type="string">6.2.0  </i>
  <i name="subversion" type="string">18Jan21 (build Mar 17 2021 09:06:54) complex                          serial </i>
  <i name="platform" type="string">LinuxIFC </i>
  <i name="date" type="string">2021 08 03 </i>
  <i name="time" type="string">10:15:02 </i>
 </generator>
 <incar>
  <i type="string" name="PREC">normal</i>
  <i type="int" name="ICHARG">     1</i>
  <i type="int" name="IBRION">    -1</i>
  <i name="EDIFF">      0.00000100</i>
  <i type="int" name="NSW">     0</i>
  <i name="ENCUT">    190.00000000</i>
  <i type="int" name="NBANDS">    30</i>
  <i type="int" name="ISMEAR">     1</i>
  <i name="SIGMA">      0.20000000</i>
  <i type="logical" name="LCHARG"> T  </i>
  <i type="int" name="KPAR">     1</i>
  <i type="int" name="NCORE">     1</i>
  <i type="string" name="GGA">PE</i>
 </incar>
 <primitive_cell>
  <structure name="primitive_cell" >
   <crystal>
    <varray name="basis" >
     <v>       1.81750000      -1.81750000       0.00000000 </v>
     <v>       1.81750000       0.00000000       1.81750000 </v>
     <v>       0.00000000      -1.81750000       1.81750000 </v>
    </varray>
    <i name="volume">     12.00751822 </i>
    <varray name="rec_basis" >
     <v>       0.27510316      -0.27510316      -0.27510316 </v>
     <v>       0.27510316       0.27510316       0.27510316 </v>
     <v>      -0.27510316      -0.27510316       0.27510316 </v>
    </varray>
   </crystal>
   <varray name="positions" >
    <v>       0.00000000       0.00000000       0.00000000 </v>
   </varray>
  </structure>
  <varray name="primitive_index" >
   <v type="int" >        1 </v>
  </varray>
 </primitive_cell>
 <kpoints>
  <generation param="Monkhorst-Pack">
   <v type="int" name="divisions">       5        5        5 </v>
   <v name="usershift">      0.00000000       0.00000000       0.00000000 </v>
   <v name="genvec1">      0.20000000       0.00000000       0.00000000 </v>
   <v name="genvec2">      0.00000000       0.20000000       0.00000000 </v>
   <v name="genvec3">      0.00000000       0.00000000       0.20000000 </v>
   <v name="shift">      0.00000000       0.00000000       0.00000000 </v>
  </generation>
  <varray name="kpointlist" >
   <v>       0.00000000       0.00000000       0.00000000 </v>
   <v>       0.20000000       0.00000000       0.00000000 </v>
   <v>       0.40000000       0.00000000       0.00000000 </v>
   <v>       0.20000000       0.20000000       0.00000000 </v>
   <v>       0.40000000       0.20000000       0.00000000 </v>
   <v>       0.40000000       0.40000000       0.00000000 </v>
   <v>       0.20000000       0.20000000       0.20000000 </v>
   <v>       0.40000000       0.20000000       0.20000000 </v>
   <v>       0.40000000       0.40000000       0.20000000 </v>
   <v>       0.40000000       0.40000000       0.40000000 </v>
  </varray>
  <varray name="weights" >
   <v>       0.00800000 </v>
   <v>       0.04800000 </v>
   <v>       0.04800000 </v>
   <v>       0.09600000 </v>
   <v>       0.19200000 </v>
   <v>       0.09600000 </v>
   <v>       0.06400000 </v>
   <v>       0.19200000 </v>
   <v>       0.19200000 </v>
   <v>       0.06400000 </v>
  </varray>
 </kpoints>
 <parameters>
  <separator name="general" >
   <i type="string" name="SYSTEM">unknown system</i>
   <i type="logical" name="LCOMPAT"> F  </i>
  </separator>
  <separator name="electronic" >
   <i type="string" name="PREC">normal</i>
   <i name="ENMAX">    190.00000000</i>
   <i name="ENAUG">    586.98000000</i>
   <i name="EDIFF">      0.00000100</i>
   <i type="int" name="IALGO">    38</i>
   <i type="int" name="IWAVPR">     0</i>
   <i type="int" name="NBANDS">    30</i>
   <i type="int" name="NBANDSLOW">    -1</i>
   <i type="int" name="NBANDSHIGH">    -1</i>
   <i name="NELECT">     44.00000000</i>
   <i type="int" name="TURBO">     0</i>
   <i type="int" name="IRESTART">     0</i>
   <i type="int" name="NREBOOT">     0</i>
   <i type="int" name="NMIN">     0</i>
   <i name="EREF">      0.00000000</i>
   <separator name="electronic smearing" >
    <i type="int" name="ISMEAR">     1</i>
    <i name="SIGMA">      0.20000000</i>
    <i name="KSPACING">      0.50000000</i>
    <i type="logical" name="KGAMMA"> T  </i>
    <i type="logical" name="KBLOWUP"> T  </i>
   </separator>
   <separator name="electronic projectors" >
    <i type="logical" name="LREAL"> F  </i>
    <v name="ROPT">      0.00000000</v>
    <i type="int" name="LMAXPAW">  -100</i>
    <i type="int" name="LMAXMIX">     2</i>
    <i type="logical" name="NLSPLINE"> F  </i>
   </separator>
   <separator name="electronic startup" >
    <i type="int" name="ISTART">     1</i>
    <i type="int" name="ICHARG">     1</i>
    <i type="int" name="INIWAV">     1</i>
   </separator>
   <separator name="electronic spin" >
    <i type="int" name="ISPIN">     1</i>
    <i type="logical" name="LNONCOLLINEAR"> F  </i>
    <v name="MAGMOM">      1.00000000      1.00000000      1.00000000      1.00000000</v>
    <i name="NUPDOWN">     -1.00000000</i>
    <i type="logical" name="LSORBIT"> F  </i>
    <v name="SAXIS">      0.00000000      0.00000000      1.00000000</v>
    <i type="logical" name="LSPIRAL"> F  </i>
    <v name="QSPIRAL">      0.00000000      0.00000000      0.00000000</v>
    <i type="logical" name="LZEROZ"> F  </i>
   </separator>
   <separator name="electronic exchange-correlation" >
    <i type="logical" name="LASPH"> F  </i>
    <i type="logical" name="LMETAGGA"> F  </i>
   </separator>
   <separator name="electronic convergence" >
    <i type="int" name="NELM">    60</i>
    <i type="int" name="NELMDL">     0</i>
    <i type="int" name="NELMIN">     2</i>
    <i name="ENINI">    190.00000000</i>
    <separator name="electronic convergence detail" >
     <i type="logical" name="LDIAG"> T  </i>
     <i type="logical" name="LSUBROT"> F  </i>
     <i name="WEIMIN">      0.00000000</i>
     <i name="EBREAK">      0.00000001</i>
     <i name="DEPER">      0.30000000</i>
     <i type="int" name="NRMM">     4</i>
     <i name="TIME">      0.40000000</i>
    </separator>
   </separator>
   <separator name="electronic mixer" >
    <i name="AMIX">      0.40000000</i>
    <i name="BMIX">      1.00000000</i>
    <i name="AMIN">      0.10000000</i>
    <i name="AMIX_MAG">      1.60000000</i>
    <i name="BMIX_MAG">      1.00000000</i>
    <separator name="electronic mixer details" >
     <i type="int" name="IMIX">     4</i>
     <i type="logical" name="MIXFIRST"> F  </i>
     <i type="int" name="MAXMIX">   -45</i>
     <i name="WC">    100.00000000</i>
     <i type="int" name="INIMIX">     1</i>
     <i type="int" name="MIXPRE">     1</i>
     <i type="int" name="MREMOVE">     5</i>
    </separator>
   </separator>
   <separator name="electronic dipolcorrection" >
    <i type="logical" name="LDIPOL"> F  </i>
    <i type="logical" name="LMONO"> F  </i>
    <i type="int" name="IDIPOL">     0</i>
    <i name="EPSILON">      1.00000000</i>
    <v name="DIPOL">   -100.00000000   -100.00000000   -100.00000000</v>
    <i name="EFIELD">      0.00000000</i>
   </separator>
  </separator>
  <separator name="grids" >
   <i type="int" name="NGX">    12</i>
   <i type="int" name="NGY">    12</i>
   <i type="int" name="NGZ">    12</i>
   <i type="int" name="NGXF">    24</i>
   <i type="int" name="NGYF">    24</i>
   <i type="int" name="NGZF">    24</i>
   <i type="logical" name="ADDGRID"> F  </i>
  </separator>
  <separator name="ionic" >
   <i type="int" name="NSW">     0</i>
   <i type="int" name="IBRION">    -1</i>
   <i type="int" name="MDALGO">     0</i>
   <i type="int" name="ISIF">     2</i>
   <i name="PSTRESS">      0.00000000</i>
   <i name="EDIFFG">      0.00001000</i>
   <i type="int" name="NFREE">     0</i>
   <i name="POTIM">      0.50000000</i>
   <i name="SMASS">     -3.00000000</i>
   <i name="SCALEE">      1.00000000</i>
  </separator>
  <separator name="ionic md" >
   <i name="TEBEG">      0.00010000</i>
   <i name="TEEND">      0.00010000</i>
   <i type="int" name="NBLOCK">     1</i>
   <i type="int" name="KBLOCK">     1</i>
   <i type="int" name="NPACO">   256</i>
   <i name="APACO">     16.00000000</i>
  </separator>
  <separator name="symmetry" >
   <i type="int" name="ISYM">     2</i>
   <i name="SYMPREC">      0.00001000</i>
  </separator>
  <separator name="dos" >
   <i type="int" name="LORBIT">     0</i>
   <v name="RWIGS">     -1.00000000</v>
   <i type="int" name="NEDOS">   301</i>
   <i name="EMIN">     10.00000000</i>
   <i name="EMAX">    -10.00000000</i>
   <i name="EFERMI">      0.00000000</i>
  </separator>
  <separator name="writing" >
   <i type="int" name="NWRITE">     2</i>
   <i type="logical" name="LWAVE"> T  </i>
   <i type="logical" name="LDOWNSAMPLE"> F  </i>
   <i type="logical" name="LCHARG"> T  </i>
   <i type="logical" name="LPARD"> F  </i>
   <i type="logical" name="LVTOT"> F  </i>
   <i type="logical" name="LVHAR"> F  </i>
   <i type="logical" name="LELF"> F  </i>
   <i type="logical" name="LOPTICS"> F  </i>
   <v name="STM">      0.00000000      0.00000000      0.00000000      0.00000000      0.00000000      0.00000000      0.00000000</v>
  </separator>
  <separator name="performance" >
   <i type="int" name="NPAR">     1</i>
   <i type="int" name="NSIM">     4</i>
   <i type="int" name="NBLK">    -1</i>
   <i type="logical" name="LPLANE"> T  </i>
   <i type="logical" name="LSCALAPACK"> F  </i>
   <i type="logical" name="LSCAAWARE"> F  </i>
   <i type="logical" name="LSCALU"> F  </i>
   <i type="logical" name="LASYNC"> F  </i>
   <i type="logical" name="LORBITALREAL"> F  </i>
  </separator>
  <separator name="miscellaneous" >
   <i type="int" name="IDIOT">     3</i>
   <i type="int" name="PHON_NSTRUCT">    -1</i>
   <i type="logical" name="LMUSIC"> F  </i>
   <v name="POMASS">     63.54600000</v>
   <v name="DARWINR">      0.00000000</v>
   <v name="DARWINV">      1.00000000</v>
   <i type="logical" name="LCORR"> T  </i>
  </separator>
  <i type="logical" name="GGA_COMPAT"> T  </i>
  <i type="logical" name="LBERRY"> F  </i>
  <i type="int" name="ICORELEVEL">     0</i>
  <i type="logical" name="LDAU"> F  </i>
  <i type="int" name="I_CONSTRAINED_M">     0</i>
  <separator name="electronic exchange-correlation" >
   <i type="string" name="GGA">PE</i>
   <i type="int" name="VOSKOWN">     0</i>
   <i type="logical" name="LHFCALC"> F  </i>
   <i type="string" name="PRECFOCK"></i>
   <i type="logical" name="LSYMGRAD"> F  </i>
   <i type="logical" name="LHFONE"> F  </i>
   <i type="logical" name="LRHFCALC"> F  </i>
   <i type="logical" name="LTHOMAS"> F  </i>
   <i type="logical" name="LMODELHF"> F  </i>
   <i type="logical" name="LFOCKACE"> F  </i>
   <i name="ENCUT4O">     -1.00000000</i>
   <i type="int" name="EXXOEP">     0</i>
   <i type="int" name="FOURORBIT">     0</i>
   <i name="AEXX">      0.00000000</i>
   <i name="HFALPHA">      0.00000000</i>
   <i name="MCALPHA">      0.00000000</i>
   <i name="ALDAX">      1.00000000</i>
   <i name="AGGAX">      1.00000000</i>
   <i name="ALDAC">      1.00000000</i>
   <i name="AGGAC">      1.00000000</i>
   <i type="int" name="NKREDX">     1</i>
   <i type="int" name="NKREDY">     1</i>
   <i type="int" name="NKREDZ">     1</i>
   <i type="logical" name="SHIFTRED"> F  </i>
   <i type="logical" name="ODDONLY"> F  </i>
   <i type="logical" name="EVENONLY"> F  </i>
   <i type="int" name="LMAXFOCK">     0</i>
   <i type="int" name="NMAXFOCKAE">     0</i>
   <i type="logical" name="LFOCKAEDFT"> F  </i>
   <i name="HFSCREEN">      0.00000000</i>
   <i name="HFSCREENC">      0.00000000</i>
   <i type="int" name="NBANDSGWLOW">     0</i>
  </separator>
  <separator name="vdW DFT" >
   <i type="logical" name="LUSE_VDW"> F  </i>
   <i name="Zab_VDW">     -0.84910000</i>
   <i name="PARAM1">      0.12340000</i>
   <i name="PARAM2">      1.00000000</i>
   <i name="PARAM3">      0.00000000</i>
  </separator>
  <separator name="model GW" >
   <i type="int" name="MODEL_GW">     0</i>
   <i name="MODEL_EPS0">      7.20451093</i>
   <i name="MODEL_ALPHA">      1.00000000</i>
  </separator>
  <separator name="linear response parameters" >
   <i type="logical" name="LEPSILON"> F  </i>
   <i type="logical" name="LRPA"> F  </i>
   <i type="logical" name="LNABLA"> F  </i>
   <i type="logical" name="LVEL"> F  </i>
   <i type="int" name="KINTER">     0</i>
   <i name="CSHIFT">      0.10000000</i>
   <i name="OMEGAMAX">     -1.00000000</i>
   <i name="DEG_THRESHOLD">      0.00200000</i>
   <i name="RTIME">     -0.10000000</i>
   <i name="WPLASMAI">      0.00000000</i>
   <v name="DFIELD">      0.00000000      0.00000000      0.00000000</v>
   <v name="WPLASMA">      0.00000000      0.00000000      0.00000000      0.00000000      0.00000000      0.00000000      0.00000000      0.00000000      0.00000000</v>
  </separator>
  <separator name="orbital magnetization" >
   <i type="logical" name="NUCIND"> F  </i>
   <v name="MAGPOS">      0.00000000      0.00000000      0.00000000</v>
   <i type="logical" name="LNICSALL"> T  </i>
   <i type="logical" name="ORBITALMAG"> F  </i>
   <i type="logical" name="LMAGBLOCH"> F  </i>
   <i type="logical" name="LCHIMAG"> F  </i>
   <i type="logical" name="LGAUGE"> T  </i>
   <i type="int" name="MAGATOM">     0</i>
   <v name="MAGDIPOL">      0.00000000      0.00000000      0.00000000</v>
   <v name="AVECCONST">      0.00000000      0.00000000      0.00000000</v>
  </separator>
  <separator name="response functions" >
   <i type="logical" name="LFINITE_TEMPERATURE"> F  </i>
   <i type="logical" name="LADDER"> F  </i>
   <i type="logical" name="LRPAFORCE"> F  </i>
   <i type="logical" name="LFXC"> F  </i>
   <i type="logical" name="LHARTREE"> T  </i>
   <i type="int" name="IBSE">     0</i>
   <v type="int" name="KPOINT">    -1     0     0     0</v>
   <i type="logical" name="LTCTC"> F  </i>
   <i type="logical" name="LTCTE"> F  </i>
   <i type="logical" name="LTETE"> F  </i>
   <i type="logical" name="LTRIPLET"> F  </i>
   <i type="logical" name="LFXCEPS"> F  </i>
   <i type="logical" name="LFXHEG"> F  </i>
   <i type="int" name="NATURALO">     2</i>
   <i type="logical" name="LHOLEGF"> F  </i>
   <i type="logical" name="L2ORDER"> F  </i>
   <i type="logical" name="LDMP1"> F  </i>
   <i type="logical" name="LMP2LT"> F  </i>
   <i type="logical" name="LSMP2LT"> F  </i>
   <i type="logical" name="LGWLF"> F  </i>
   <i name="ENCUTGW">     -2.00000000</i>
   <i name="ENCUTGWSOFT">     -2.00000000</i>
   <i name="ENCUTLF">     -1.00000000</i>
   <i type="logical" name="LESF_SPLINES"> F  </i>
   <i type="int" name="LMAXMP2">    -1</i>
   <i name="SCISSOR">      0.00000000</i>
   <i type="int" name="NOMEGA">     0</i>
   <i type="int" name="NOMEGAR">     0</i>
   <i type="int" name="NBANDSGW">    -1</i>
   <i type="int" name="NBANDSO">    -1</i>
   <i type="int" name="NBANDSV">    -1</i>
   <i type="int" name="NELM">     1</i>
   <i type="int" name="NELMHF">     1</i>
   <i type="int" name="DIM">     3</i>
   <i type="int" name="IESPILON">     4</i>
   <i type="int" name="ANTIRES">     0</i>
   <i name="OMEGAMAX">    -30.00000000</i>
   <i name="OMEGAMIN">    -30.00000000</i>
   <i name="OMEGATL">   -200.00000000</i>
   <i type="int" name="OMEGAGRID">     0</i>
   <i name="CSHIFT">     -0.10000000</i>
   <i type="logical" name="LSELFENERGY"> F  </i>
   <i type="logical" name="LSPECTRAL"> F  </i>
   <i type="logical" name="LSPECTRALGW"> F  </i>
   <i type="logical" name="LSINGLES"> F  </i>
   <i type="logical" name="LFERMIGW"> F  </i>
   <i type="logical" name="ODDONLYGW"> F  </i>
   <i type="logical" name="EVENONLYGW"> F  </i>
   <i type="int" name="NKREDLFX">     1</i>
   <i type="int" name="NKREDLFY">     1</i>
   <i type="int" name="NKREDLFZ">     1</i>
   <i type="int" name="MAXMEM">  2800</i>
   <i type="int" name="TELESCOPE">     0</i>
   <i type="int" name="NTAUPAR">    -1</i>
   <i type="int" name="NOMEGAPAR">    -1</i>
   <i name="DAMP_NEWTON">      0.80000001</i>
   <i name="LAMBDA">      1.00000000</i>
  </separator>
  <separator name="External order field" >
   <i name="OFIELD_KAPPA">      0.00000000</i>
   <v name="OFIELD_K">      0.00000000      0.00000000      0.00000000</v>
   <i name="OFIELD_Q6_NEAR">      0.00000000</i>
   <i name="OFIELD_Q6_FAR">      0.00000000</i>
   <i name="OFIELD_A">      0.00000000</i>
  </separator>
 </parameters>
 <atominfo>
  <atoms>       4 </atoms>
  <types>       1 </types>
  <array name="atoms" >
   <dimension dim="1">ion</dimension>
   <field type="string">element</field>
   <field type="int">atomtype</field>
   <set>
    <rc><c>Cu</c><c>   1</c></rc>
    <rc><c>Cu</c><c>   1</c></rc>
    <rc><c>Cu</c><c>   1</c></rc>
    <rc><c>Cu</c><c>   1</c></rc>
   </set>
  </array>
  <array name="atomtypes" >
   <dimension dim="1">type</dimension>
   <field type="int">atomspertype</field>
   <field type="string">element</field>
   <field>mass</field>
   <field>valence</field>
   <field type="string">pseudopotential</field>
   <set>
    <rc><c>   4</c><c>Cu</c><c>     63.54600000</c><c>     11.00000000</c><c>  PAW_PBE Cu 22Jun2005                  </c></rc>
   </set>
  </array>
 </atominfo>
 <structure name="initialpos" >
  <crystal>
   <varray name="basis" >
    <v>       3.63500000       0.00000000       0.00000000 </v>
    <v>       0.00000000       3.63500000       0.00000000 </v>
    <v>       0.00000000       0.00000000       3.63500000 </v>
   </varray>
   <i name="volume">     48.03007287 </i>
   <varray name="rec_basis" >
    <v>       0.27510316       0.00000000       0.00000000 </v>
    <v>       0.00000000       0.27510316       0.00000000 </v>
    <v>       0.00000000       0.00000000       0.27510316 </v>
   </varray>
  </crystal>
  <varray name="positions" >
   <v>       0.00000000       0.00000000       0.00000000 </v>
   <v>       0.50000000       0.50000000       0.00000000 </v>
   <v>       0.50000000       0.00000000       0.50000000 </v>
   <v>       0.00000000       0.50000000       0.50000000 </v>
  </varray>
 </structure>
 <calculation>
  <scstep>
   <time name="dav">    0.08    0.08</time>
   <time name="total">    0.09    0.09</time>
   <energy>
    <i name="alphaZ">    243.62337785 </i>
    <i name="ewald">  -4395.34838493 </i>
    <i name="hartreedc">  -1365.37390020 </i>
    <i name="XCdc">    177.79622149 </i>
    <i name="pawpsdc">   5570.11629768 </i>
    <i name="pawaedc">  -5971.42961432 </i>
    <i name="eentropy">     -0.00515781 </i>
    <i name="bandstr">    186.27275901 </i>
    <i name="atom">   5552.29231990 </i>
    <i name="e_fr_energy">     -2.05608135 </i>
    <i name="e_wo_entrp">     -2.05092354 </i>
    <i name="e_0_energy">     -2.05436208 </i>
   </energy>
  </scstep>
  <scstep>
   <time name="dav">    0.06    0.06</time>
   <time name="total">    0.07    0.07</time>
   <energy>
    <i name="e_fr_energy">     -2.05503460 </i>
    <i name="e_wo_entrp">     -2.04993380 </i>
    <i name="e_0_energy">     -2.05333433 </i>
   </energy>
  </scstep>
  <scstep>
   <time name="dav">    0.04    0.04</time>
   <time name="total">    0.05    0.05</time>
   <energy>
    <i name="alphaZ">    243.62337785 </i>
    <i name="ewald">  -4395.34838493 </i>
    <i name="hartreedc">  -1365.37077041 </i>
    <i name="XCdc">    177.79605839 </i>
    <i name="pawpsdc">   5570.11725467 </i>
    <i name="pawaedc">  -5971.43166839 </i>
    <i name="eentropy">     -0.00511229 </i>
    <i name="bandstr">    186.27189124 </i>
    <i name="atom">   5552.29231990 </i>
    <i name="e_fr_energy">     -2.05503398 </i>
    <i name="e_wo_entrp">     -2.04992169 </i>
    <i name="e_0_energy">     -2.05332989 </i>
   </energy>
  </scstep>
  <structure>
   <crystal>
    <varray name="basis" >
     <v>       3.63500000       0.00000000       0.00000000 </v>
     <v>       0.00000000       3.63500000       0.00000000 </v>
     <v>       0.00000000       0.00000000       3.63500000 </v>
    </varray>
    <i name="volume">     48.03007287 </i>
    <varray name="rec_basis" >
     <v>       0.27510316       0.00000000       0.00000000 </v>
     <v>       0.00000000       0.27510316       0.00000000 </v>
     <v>       0.00000000       0.00000000       0.27510316 </v>
    </varray>
   </crystal>
   <varray name="positions" >
    <v>       0.00000000       0.00000000       0.00000000 </v>
    <v>       0.50000000       0.50000000       0.00000000 </v>
    <v>       0.50000000       0.00000000       0.50000000 </v>
    <v>       0.00000000       0.50000000       0.50000000 </v>
   </varray>
  </structure>
  <varray name="forces" >
   <v>      -0.00000000      -0.00000000       0.00000000 </v>
   <v>      -0.00000000      -0.00000000       0.00000000 </v>
   <v>       0.00000000      -0.00000000      -0.00000000 </v>
   <v>       0.00000000       0.00000000       0.00000000 </v>
  </varray>
  <varray name="stress" >
   <v>   -4491.24450698       0.00000000      -0.00000000 </v>
   <v>      -0.00000000   -4491.24450698      -0.00000000 </v>
   <v>       0.00000000       0.00000000   -4491.24450698 </v>
  </varray>
  <energy>
   <i name="e_fr_energy">     -2.05503398 </i>
   <i name="e_wo_entrp">     -2.04992169 </i>
   <i name="e_0_energy">     -2.05332989 </i>
  </energy>
  <time name="totalsc">    0.29    0.29</time>
  <eigenvalues>
   <array>
    <dimension dim="1">band</dimension>
    <dimension dim="2">kpoint</dimension>
    <dimension dim="3">spin</dimension>
    <field>eigene</field>
    <field>occ</field>
    <set>
     <set comment="spin 1">
      <set comment="kpoint 1">
       <r>   -1.7218    1.0000 </r>
       <r>    3.6015    1.0000 </r>
       <r>    3.6015    1.0000 </r>
       <r>    3.6015    1.0000 </r>
       <r>    3.6509    1.0000 </r>
       <r>    3.6509    1.0000 </r>
       <r>    3.6509    1.0000 </r>
       <r>    4.6121    1.0000 </r>
       <r>    4.6121    1.0000 </r>
       <r>    4.6121    1.0000 </r>
       <r>    4.8130    1.0000 </r>
       <r>    4.8130    1.0000 </r>
       <r>    5.7116    1.0000 </r>
       <r>    5.7116    1.0000 </r>
       <r>    5.7116    1.0000 </r>
       <r>    5.7116    1.0000 </r>
       <r>    5.7116    1.0000 </r>
       <r>    5.7116    1.0000 </r>
       <r>    5.9004    1.0000 </r>
       <r>    5.9004    1.0000 </r>
       <r>    5.9004    1.0000 </r>
       <r>    9.0283   -0.0000 </r>
       <r>    9.0283   -0.0000 </r>
       <r>    9.0283   -0.0000 </r>
       <r>   14.3370    0.0000 </r>
       <r>   14.3370    0.0000 </r>
       <r>   14.3370    0.0000 </r>
       <r>   20.4329    0.0000 </r>
       <r>   20.4329    0.0000 </r>
       <r>   20.4329    0.0000 </r>
      </set>
      <set comment="kpoint 2">
       <r>   -1.2454    1.0000 </r>
       <r>    2.4700    1.0000 </r>
       <r>    3.3928    1.0000 </r>
       <r>    3.5103    1.0000 </r>
       <r>    3.5103    1.0000 </r>
       <r>    3.5278    1.0000 </r>
       <r>    3.5278    1.0000 </r>
       <r>    4.5167    1.0000 </r>
       <r>    4.7462    1.0000 </r>
       <r>    4.7462    1.0000 </r>
       <r>    4.7828    1.0000 </r>
       <r>    4.7828    1.0000 </r>
       <r>    4.8878    1.0000 </r>
       <r>    4.9438    1.0000 </r>
       <r>    5.0283    1.0000 </r>
       <r>    5.0283    1.0000 </r>
       <r>    5.1527    1.0000 </r>
       <r>    5.3363    1.0000 </r>
       <r>    5.3363    1.0000 </r>
       <r>    5.3423    1.0000 </r>
       <r>    5.3423    1.0000 </r>
       <r>    6.8215    1.0073 </r>
       <r>    9.9911   -0.0000 </r>
       <r>    9.9911   -0.0000 </r>
       <r>   14.4727    0.0000 </r>
       <r>   14.4727    0.0000 </r>
       <r>   17.2906    0.0000 </r>
       <r>   18.0936    0.0000 </r>
       <r>   18.0936    0.0000 </r>
       <r>   18.7906    0.0000 </r>
      </set>
      <set comment="kpoint 3">
       <r>    0.1134    1.0000 </r>
       <r>    1.8005    1.0000 </r>
       <r>    3.5199    1.0000 </r>
       <r>    3.5199    1.0000 </r>
       <r>    3.6467    1.0000 </r>
       <r>    3.7906    1.0000 </r>
       <r>    3.7906    1.0000 </r>
       <r>    3.9443    1.0000 </r>
       <r>    3.9443    1.0000 </r>
       <r>    4.2801    1.0000 </r>
       <r>    4.6221    1.0000 </r>
       <r>    4.6221    1.0000 </r>
       <r>    4.6503    1.0000 </r>
       <r>    4.7370    1.0000 </r>
       <r>    4.9349    1.0000 </r>
       <r>    4.9349    1.0000 </r>
       <r>    4.9862    1.0000 </r>
       <r>    5.1002    1.0000 </r>
       <r>    5.1335    1.0000 </r>
       <r>    5.1335    1.0000 </r>
       <r>    5.3202    1.0000 </r>
       <r>    5.3202    1.0000 </r>
       <r>   12.1360   -0.0000 </r>
       <r>   12.1360   -0.0000 </r>
       <r>   14.9199    0.0000 </r>
       <r>   14.9199    0.0000 </r>
       <r>   15.1206    0.0000 </r>
       <r>   15.1206    0.0000 </r>
       <r>   16.5984    0.0000 </r>
       <r>   16.5984    0.0000 </r>
      </set>
      <set comment="kpoint 4">
       <r>   -0.7817    1.0000 </r>
       <r>    2.9784    1.0000 </r>
       <r>    2.9784    1.0000 </r>
       <r>    3.3995    1.0000 </r>
       <r>    3.5438    1.0000 </r>
       <r>    3.5438    1.0000 </r>
       <r>    3.5565    1.0000 </r>
       <r>    4.3736    1.0000 </r>
       <r>    4.4438    1.0000 </r>
       <r>    4.4438    1.0000 </r>
       <r>    4.4796    1.0000 </r>
       <r>    4.5005    1.0000 </r>
       <r>    4.8188    1.0000 </r>
       <r>    4.9042    1.0000 </r>
       <r>    4.9275    1.0000 </r>
       <r>    5.0240    1.0000 </r>
       <r>    5.0240    1.0000 </r>
       <r>    5.0811    1.0000 </r>
       <r>    5.0901    1.0000 </r>
       <r>    5.0901    1.0000 </r>
       <r>    5.4818    1.0000 </r>
       <r>    7.7662   -0.0000 </r>
       <r>    7.7662   -0.0000 </r>
       <r>   10.8039   -0.0000 </r>
       <r>   14.4541    0.0000 </r>
       <r>   14.9120    0.0000 </r>
       <r>   17.6566    0.0000 </r>
       <r>   17.6566    0.0000 </r>
       <r>   18.6664    0.0000 </r>
       <r>   18.6664    0.0000 </r>
      </set>
      <set comment="kpoint 5">
       <r>    0.5207    1.0000 </r>
       <r>    2.1180    1.0000 </r>
       <r>    3.5405    1.0000 </r>
       <r>    3.7078    1.0000 </r>
       <r>    3.7230    1.0000 </r>
       <r>    3.7624    1.0000 </r>
       <r>    3.7788    1.0000 </r>
       <r>    3.9685    1.0000 </r>
       <r>    4.0461    1.0000 </r>
       <r>    4.0962    1.0000 </r>
       <r>    4.1354    1.0000 </r>
       <r>    4.5054    1.0000 </r>
       <r>    4.7119    1.0000 </r>
       <r>    4.7763    1.0000 </r>
       <r>    4.8515    1.0000 </r>
       <r>    4.9549    1.0000 </r>
       <r>    4.9581    1.0000 </r>
       <r>    5.0514    1.0000 </r>
       <r>    5.1010    1.0000 </r>
       <r>    5.1402    1.0000 </r>
       <r>    5.2427    1.0000 </r>
       <r>    5.5607    1.0000 </r>
       <r>    9.5050   -0.0000 </r>
       <r>   11.6858   -0.0000 </r>
       <r>   12.8178    0.0000 </r>
       <r>   15.4708    0.0000 </r>
       <r>   15.5211    0.0000 </r>
       <r>   16.9867    0.0000 </r>
       <r>   18.7772    0.0000 </r>
       <r>   20.2429    0.0000 </r>
      </set>
      <set comment="kpoint 6">
       <r>    1.6209    1.0000 </r>
       <r>    2.8075    1.0000 </r>
       <r>    2.8075    1.0000 </r>
       <r>    3.3958    1.0000 </r>
       <r>    3.5647    1.0000 </r>
       <r>    3.5647    1.0000 </r>
       <r>    3.6277    1.0000 </r>
       <r>    3.8892    1.0000 </r>
       <r>    3.8892    1.0000 </r>
       <r>    3.9412    1.0000 </r>
       <r>    4.0971    1.0000 </r>
       <r>    4.2357    1.0000 </r>
       <r>    4.4576    1.0000 </r>
       <r>    4.6224    1.0000 </r>
       <r>    4.6852    1.0000 </r>
       <r>    4.6852    1.0000 </r>
       <r>    5.0781    1.0000 </r>
       <r>    5.1585    1.0000 </r>
       <r>    5.1585    1.0000 </r>
       <r>    5.1995    1.0000 </r>
       <r>    5.4906    1.0000 </r>
       <r>    6.7673    1.0345 </r>
       <r>    6.7673    1.0345 </r>
       <r>    8.7456   -0.0000 </r>
       <r>   14.5795    0.0000 </r>
       <r>   16.4489    0.0000 </r>
       <r>   17.1002    0.0000 </r>
       <r>   17.1002    0.0000 </r>
       <r>   18.2367    0.0000 </r>
       <r>   18.2367    0.0000 </r>
      </set>
      <set comment="kpoint 7">
       <r>   -0.3361    1.0000 </r>
       <r>    3.0234    1.0000 </r>
       <r>    3.0234    1.0000 </r>
       <r>    3.0234    1.0000 </r>
       <r>    3.4587    1.0000 </r>
       <r>    3.4587    1.0000 </r>
       <r>    3.4587    1.0000 </r>
       <r>    3.9928    1.0000 </r>
       <r>    4.3171    1.0000 </r>
       <r>    4.3171    1.0000 </r>
       <r>    4.3171    1.0000 </r>
       <r>    4.7059    1.0000 </r>
       <r>    4.7059    1.0000 </r>
       <r>    4.7059    1.0000 </r>
       <r>    4.7298    1.0000 </r>
       <r>    4.7298    1.0000 </r>
       <r>    5.1051    1.0000 </r>
       <r>    5.1051    1.0000 </r>
       <r>    5.1051    1.0000 </r>
       <r>    5.1586    1.0000 </r>
       <r>    5.1586    1.0000 </r>
       <r>    8.3638   -0.0000 </r>
       <r>    8.3638   -0.0000 </r>
       <r>    8.3638   -0.0000 </r>
       <r>   15.2429    0.0000 </r>
       <r>   15.2429    0.0000 </r>
       <r>   15.2429    0.0000 </r>
       <r>   18.0242    0.0000 </r>
       <r>   18.0242    0.0000 </r>
       <r>   18.0242    0.0000 </r>
      </set>
      <set comment="kpoint 8">
       <r>    0.8888    1.0000 </r>
       <r>    2.3213    1.0000 </r>
       <r>    3.4107    1.0000 </r>
       <r>    3.4107    1.0000 </r>
       <r>    3.5249    1.0000 </r>
       <r>    3.5597    1.0000 </r>
       <r>    3.5597    1.0000 </r>
       <r>    3.9065    1.0000 </r>
       <r>    4.2018    1.0000 </r>
       <r>    4.3709    1.0000 </r>
       <r>    4.3709    1.0000 </r>
       <r>    4.4632    1.0000 </r>
       <r>    4.5577    1.0000 </r>
       <r>    4.5628    1.0000 </r>
       <r>    4.7836    1.0000 </r>
       <r>    4.7836    1.0000 </r>
       <r>    4.9391    1.0000 </r>
       <r>    5.0532    1.0000 </r>
       <r>    5.1737    1.0000 </r>
       <r>    5.1737    1.0000 </r>
       <r>    5.2034    1.0000 </r>
       <r>    5.8884    1.0000 </r>
       <r>    9.7769   -0.0000 </r>
       <r>    9.7769   -0.0000 </r>
       <r>   12.3961   -0.0000 </r>
       <r>   12.3961   -0.0000 </r>
       <r>   16.7487    0.0000 </r>
       <r>   19.0766    0.0000 </r>
       <r>   19.1579    0.0000 </r>
       <r>   19.1579    0.0000 </r>
      </set>
      <set comment="kpoint 9">
       <r>    1.8040    1.0000 </r>
       <r>    2.8273    1.0000 </r>
       <r>    2.8273    1.0000 </r>
       <r>    3.4100    1.0000 </r>
       <r>    3.8370    1.0000 </r>
       <r>    3.8370    1.0000 </r>
       <r>    3.9582    1.0000 </r>
       <r>    4.0329    1.0000 </r>
       <r>    4.1816    1.0000 </r>
       <r>    4.1816    1.0000 </r>
       <r>    4.2452    1.0000 </r>
       <r>    4.4454    1.0000 </r>
       <r>    4.4753    1.0000 </r>
       <r>    4.5506    1.0000 </r>
       <r>    4.5506    1.0000 </r>
       <r>    4.6316    1.0000 </r>
       <r>    4.7618    1.0000 </r>
       <r>    4.9486    1.0000 </r>
       <r>    4.9486    1.0000 </r>
       <r>    5.1161    1.0000 </r>
       <r>    5.4066    1.0000 </r>
       <r>    6.9120    0.8262 </r>
       <r>    6.9120    0.8262 </r>
       <r>    8.7411   -0.0000 </r>
       <r>   11.8381   -0.0000 </r>
       <r>   13.8007    0.0000 </r>
       <r>   13.8007    0.0000 </r>
       <r>   16.0294    0.0000 </r>
       <r>   20.3895    0.0000 </r>
       <r>   22.3929    0.0000 </r>
      </set>
      <set comment="kpoint 10">
       <r>    2.3125    1.0000 </r>
       <r>    2.7329    1.0000 </r>
       <r>    2.7329    1.0000 </r>
       <r>    2.7329    1.0000 </r>
       <r>    4.1565    1.0000 </r>
       <r>    4.1565    1.0000 </r>
       <r>    4.1565    1.0000 </r>
       <r>    4.2985    1.0000 </r>
       <r>    4.2985    1.0000 </r>
       <r>    4.3910    1.0000 </r>
       <r>    4.3910    1.0000 </r>
       <r>    4.3910    1.0000 </r>
       <r>    4.5264    1.0000 </r>
       <r>    4.5264    1.0000 </r>
       <r>    4.5264    1.0000 </r>
       <r>    4.9179    1.0000 </r>
       <r>    4.9179    1.0000 </r>
       <r>    5.0298    1.0000 </r>
       <r>    5.0298    1.0000 </r>
       <r>    5.0298    1.0000 </r>
       <r>    5.2428    1.0000 </r>
       <r>    7.1499    0.0197 </r>
       <r>    7.1499    0.0197 </r>
       <r>    7.1499    0.0197 </r>
       <r>   11.3072   -0.0000 </r>
       <r>   11.3072   -0.0000 </r>
       <r>   11.3072   -0.0000 </r>
       <r>   13.1172    0.0000 </r>
       <r>   25.7175    0.0000 </r>
       <r>   25.7175    0.0000 </r>
      </set>
     </set>
    </set>
   </array>
  </eigenvalues>
  <separator name="orbital magnetization" >
   <v name="MAGDIPOLOUT">      0.00000000      0.00000000      0.00000000</v>
  </separator>
  <dos>
   <i name="efermi">      6.99702256 </i>
   <total>
    <array>
     <dimension dim="1">gridpoints</dimension>
     <dimension dim="2">spin</dimension>
     <field>energy</field>
     <field>total</field>
     <field>integrated</field>
     <set>
      <set comment="spin 1">
       <r>    -3.7218     0.0000     0.0000 </r>
       <r>    -3.6170     0.0000     0.0000 </r>
       <r>    -3.5122     0.0000     0.0000 </r>
       <r>    -3.4074    -0.0000    -0.0000 </r>
       <r>    -3.3026    -0.0000    -0.0000 </r>
       <r>    -3.1978    -0.0000    -0.0000 </r>
       <r>    -3.0930    -0.0000    -0.0000 </r>
       <r>    -2.9882    -0.0000    -0.0000 </r>
       <r>    -2.8834    -0.0000    -0.0000 </r>
       <r>    -2.7786    -0.0000    -0.0000 </r>
       <r>    -2.6738    -0.0000    -0.0000 </r>
       <r>    -2.5690    -0.0000    -0.0000 </r>
       <r>    -2.4642    -0.0000    -0.0000 </r>
       <r>    -2.3594    -0.0000    -0.0000 </r>
       <r>    -2.2546    -0.0001    -0.0000 </r>
       <r>    -2.1498    -0.0007    -0.0001 </r>
       <r>    -2.0450    -0.0027    -0.0004 </r>
       <r>    -1.9402    -0.0015    -0.0005 </r>
       <r>    -1.8354     0.0193     0.0015 </r>
       <r>    -1.7306     0.0548     0.0072 </r>
       <r>    -1.6258     0.0520     0.0127 </r>
       <r>    -1.5210     0.0056     0.0133 </r>
       <r>    -1.4162     0.0275     0.0162 </r>
       <r>    -1.3114     0.2153     0.0387 </r>
       <r>    -1.2066     0.3789     0.0784 </r>
       <r>    -1.1018     0.2469     0.1043 </r>
       <r>    -0.9970     0.0484     0.1094 </r>
       <r>    -0.8922     0.2268     0.1331 </r>
       <r>    -0.7874     0.6688     0.2032 </r>
       <r>    -0.6826     0.6983     0.2764 </r>
       <r>    -0.5778     0.2696     0.3047 </r>
       <r>    -0.4731     0.0963     0.3147 </r>
       <r>    -0.3683     0.3544     0.3519 </r>
       <r>    -0.2635     0.4940     0.4037 </r>
       <r>    -0.1587     0.2512     0.4300 </r>
       <r>    -0.0539     0.0579     0.4361 </r>
       <r>     0.0509     0.1936     0.4564 </r>
       <r>     0.1557     0.3380     0.4918 </r>
       <r>     0.2605     0.1928     0.5120 </r>
       <r>     0.3653     0.2419     0.5373 </r>
       <r>     0.4701     0.9787     0.6399 </r>
       <r>     0.5749     1.4848     0.7955 </r>
       <r>     0.6797     0.9638     0.8965 </r>
       <r>     0.7845     0.7068     0.9706 </r>
       <r>     0.8893     1.3276     1.1097 </r>
       <r>     0.9941     1.3610     1.2523 </r>
       <r>     1.0989     0.5245     1.3073 </r>
       <r>     1.2037    -0.0303     1.3041 </r>
       <r>     1.3085    -0.1079     1.2928 </r>
       <r>     1.4133    -0.0625     1.2863 </r>
       <r>     1.5181     0.1761     1.3047 </r>
       <r>     1.6229     0.7903     1.3875 </r>
       <r>     1.7277     1.6538     1.5608 </r>
       <r>     1.8325     2.0890     1.7798 </r>
       <r>     1.9373     1.5094     1.9380 </r>
       <r>     2.0421     1.0399     2.0469 </r>
       <r>     2.1469     1.5636     2.2108 </r>
       <r>     2.2517     2.2689     2.4486 </r>
       <r>     2.3565     2.4267     2.7029 </r>
       <r>     2.4613     1.5626     2.8666 </r>
       <r>     2.5661     0.5364     2.9229 </r>
       <r>     2.6709     1.5012     3.0802 </r>
       <r>     2.7757     4.6106     3.5634 </r>
       <r>     2.8805     6.5635     4.2512 </r>
       <r>     2.9853     5.4955     4.8271 </r>
       <r>     3.0901     2.8509     5.1259 </r>
       <r>     3.1949     0.4806     5.1762 </r>
       <r>     3.2997     1.7066     5.3551 </r>
       <r>     3.4045     8.7197     6.2689 </r>
       <r>     3.5093    16.6547     8.0143 </r>
       <r>     3.6141    17.9348     9.8938 </r>
       <r>     3.7189    14.1582    11.3775 </r>
       <r>     3.8237    12.5634    12.6942 </r>
       <r>     3.9285    13.4442    14.1031 </r>
       <r>     4.0333    13.9783    15.5680 </r>
       <r>     4.1381    14.2591    17.0623 </r>
       <r>     4.2428    14.4475    18.5764 </r>
       <r>     4.3476    15.6089    20.2121 </r>
       <r>     4.4524    19.3898    22.2441 </r>
       <r>     4.5572    22.0479    24.5547 </r>
       <r>     4.6620    20.7901    26.7335 </r>
       <r>     4.7668    19.1747    28.7429 </r>
       <r>     4.8716    19.6919    30.8066 </r>
       <r>     4.9764    23.1956    33.2374 </r>
       <r>     5.0812    27.5309    36.1226 </r>
       <r>     5.1860    25.9152    38.8385 </r>
       <r>     5.2908    16.7787    40.5968 </r>
       <r>     5.3956     8.0454    41.4400 </r>
       <r>     5.5004     4.4894    41.9105 </r>
       <r>     5.6052     3.0497    42.2301 </r>
       <r>     5.7100     1.6350    42.4014 </r>
       <r>     5.8148     1.2754    42.5351 </r>
       <r>     5.9196     1.6932    42.7125 </r>
       <r>     6.0244     1.2738    42.8460 </r>
       <r>     6.1292     0.3235    42.8799 </r>
       <r>     6.2340    -0.0805    42.8715 </r>
       <r>     6.3388    -0.0783    42.8633 </r>
       <r>     6.4436    -0.1000    42.8528 </r>
       <r>     6.5484    -0.1426    42.8378 </r>
       <r>     6.6532     0.3337    42.8728 </r>
       <r>     6.7580     1.9280    43.0749 </r>
       <r>     6.8628     3.8209    43.4753 </r>
       <r>     6.9676     4.0796    43.9028 </r>
       <r>     7.0724     2.7809    44.1942 </r>
       <r>     7.1772     1.7547    44.3781 </r>
       <r>     7.2820     1.0162    44.4846 </r>
       <r>     7.3868     0.2123    44.5069 </r>
       <r>     7.4916    -0.1558    44.4905 </r>
       <r>     7.5964     0.0593    44.4968 </r>
       <r>     7.7012     0.8746    44.5884 </r>
       <r>     7.8060     1.5527    44.7511 </r>
       <r>     7.9108     1.0996    44.8664 </r>
       <r>     8.0156     0.1982    44.8871 </r>
       <r>     8.1204    -0.1412    44.8723 </r>
       <r>     8.2252     0.2346    44.8969 </r>
       <r>     8.3300     1.1191    45.0142 </r>
       <r>     8.4348     1.4362    45.1647 </r>
       <r>     8.5396     0.8280    45.2515 </r>
       <r>     8.6444     0.9713    45.3533 </r>
       <r>     8.7492     2.0701    45.5702 </r>
       <r>     8.8540     2.0245    45.7824 </r>
       <r>     8.9587     0.8251    45.8688 </r>
       <r>     9.0635     0.1323    45.8827 </r>
       <r>     9.1683    -0.0107    45.8816 </r>
       <r>     9.2731    -0.0545    45.8759 </r>
       <r>     9.3779     0.3012    45.9074 </r>
       <r>     9.4827     1.0916    46.0218 </r>
       <r>     9.5875     1.5713    46.1865 </r>
       <r>     9.6923     2.1116    46.4078 </r>
       <r>     9.7971     3.0599    46.7285 </r>
       <r>     9.9019     2.7927    47.0211 </r>
       <r>    10.0067     1.4736    47.1756 </r>
       <r>    10.1115     0.5387    47.2320 </r>
       <r>    10.2163     0.0910    47.2415 </r>
       <r>    10.3211    -0.0531    47.2360 </r>
       <r>    10.4259    -0.0503    47.2307 </r>
       <r>    10.5307    -0.0471    47.2258 </r>
       <r>    10.6355     0.0596    47.2320 </r>
       <r>    10.7403     0.4490    47.2791 </r>
       <r>    10.8451     0.7699    47.3597 </r>
       <r>    10.9499     0.5033    47.4125 </r>
       <r>    11.0547     0.0452    47.4172 </r>
       <r>    11.1595     0.1907    47.4372 </r>
       <r>    11.2643     1.0414    47.5464 </r>
       <r>    11.3691     1.4802    47.7015 </r>
       <r>    11.4739     0.8489    47.7904 </r>
       <r>    11.5787     0.5685    47.8500 </r>
       <r>    11.6835     1.4949    48.0067 </r>
       <r>    11.7883     2.3775    48.2558 </r>
       <r>    11.8931     2.0725    48.4730 </r>
       <r>    11.9979     1.0557    48.5837 </r>
       <r>    12.1027     0.5231    48.6385 </r>
       <r>    12.2075     0.7525    48.7173 </r>
       <r>    12.3123     1.8021    48.9062 </r>
       <r>    12.4171     3.0205    49.2227 </r>
       <r>    12.5219     2.4080    49.4751 </r>
       <r>    12.6267     0.7626    49.5550 </r>
       <r>    12.7315     0.5716    49.6149 </r>
       <r>    12.8363     1.3541    49.7568 </r>
       <r>    12.9411     1.2834    49.8913 </r>
       <r>    13.0459     0.6659    49.9611 </r>
       <r>    13.1507     0.4623    50.0095 </r>
       <r>    13.2555     0.3265    50.0437 </r>
       <r>    13.3603     0.0565    50.0497 </r>
       <r>    13.4651    -0.1381    50.0352 </r>
       <r>    13.5698    -0.1277    50.0218 </r>
       <r>    13.6746     0.7396    50.0993 </r>
       <r>    13.7794     2.5180    50.3632 </r>
       <r>    13.8842     3.0104    50.6787 </r>
       <r>    13.9890     1.4264    50.8282 </r>
       <r>    14.0938     0.0319    50.8315 </r>
       <r>    14.1986    -0.2117    50.8093 </r>
       <r>    14.3034     0.2172    50.8321 </r>
       <r>    14.4082     1.2105    50.9589 </r>
       <r>    14.5130     2.0742    51.1763 </r>
       <r>    14.6178     1.7334    51.3580 </r>
       <r>    14.7226     0.7546    51.4371 </r>
       <r>    14.8274     0.6659    51.5068 </r>
       <r>    14.9322     1.3556    51.6489 </r>
       <r>    15.0370     1.5938    51.8159 </r>
       <r>    15.1418     1.6289    51.9866 </r>
       <r>    15.2466     1.8801    52.1837 </r>
       <r>    15.3514     2.0424    52.3977 </r>
       <r>    15.4562     2.6589    52.6764 </r>
       <r>    15.5610     2.9698    52.9876 </r>
       <r>    15.6658     1.6554    53.1611 </r>
       <r>    15.7706     0.1722    53.1791 </r>
       <r>    15.8754     0.0442    53.1837 </r>
       <r>    15.9802     0.9536    53.2837 </r>
       <r>    16.0850     1.5292    53.4439 </r>
       <r>    16.1898     0.9193    53.5403 </r>
       <r>    16.2946     0.2087    53.5621 </r>
       <r>    16.3994     0.3877    53.6028 </r>
       <r>    16.5042     0.9811    53.7056 </r>
       <r>    16.6090     1.4498    53.8575 </r>
       <r>    16.7138     1.7883    54.0449 </r>
       <r>    16.8186     1.7732    54.2308 </r>
       <r>    16.9234     1.7784    54.4171 </r>
       <r>    17.0282     2.4186    54.6706 </r>
       <r>    17.1330     2.5904    54.9421 </r>
       <r>    17.2378     1.6039    55.1102 </r>
       <r>    17.3426     0.5370    55.1664 </r>
       <r>    17.4474     0.1187    55.1789 </r>
       <r>    17.5522     0.5169    55.2331 </r>
       <r>    17.6570     1.3271    55.3721 </r>
       <r>    17.7618     1.2754    55.5058 </r>
       <r>    17.8666     0.6416    55.5730 </r>
       <r>    17.9714     1.0976    55.6881 </r>
       <r>    18.0762     2.2988    55.9290 </r>
       <r>    18.1810     2.6941    56.2113 </r>
       <r>    18.2857     2.0437    56.4255 </r>
       <r>    18.3905     0.8491    56.5145 </r>
       <r>    18.4953     0.1261    56.5277 </r>
       <r>    18.6001     0.8611    56.6179 </r>
       <r>    18.7049     2.4454    56.8742 </r>
       <r>    18.8097     2.8484    57.1727 </r>
       <r>    18.9145     1.7598    57.3571 </r>
       <r>    19.0193     1.8484    57.5508 </r>
       <r>    19.1241     3.7560    57.9444 </r>
       <r>    19.2289     4.0546    58.3694 </r>
       <r>    19.3337     1.8518    58.5634 </r>
       <r>    19.4385     0.0983    58.5737 </r>
       <r>    19.5433    -0.2014    58.5526 </r>
       <r>    19.6481    -0.0714    58.5451 </r>
       <r>    19.7529    -0.0155    58.5435 </r>
       <r>    19.8577    -0.0344    58.5399 </r>
       <r>    19.9625    -0.0966    58.5298 </r>
       <r>    20.0673     0.0199    58.5319 </r>
       <r>    20.1721     0.7901    58.6147 </r>
       <r>    20.2769     2.0404    58.8285 </r>
       <r>    20.3817     2.6394    59.1051 </r>
       <r>    20.4865     1.9264    59.3070 </r>
       <r>    20.5913     0.6572    59.3759 </r>
       <r>    20.6961    -0.0284    59.3729 </r>
       <r>    20.8009    -0.0916    59.3633 </r>
       <r>    20.9057    -0.0273    59.3604 </r>
       <r>    21.0105    -0.0037    59.3600 </r>
       <r>    21.1153    -0.0003    59.3600 </r>
       <r>    21.2201    -0.0000    59.3600 </r>
       <r>    21.3249    -0.0000    59.3600 </r>
       <r>    21.4297    -0.0000    59.3600 </r>
       <r>    21.5345    -0.0000    59.3600 </r>
       <r>    21.6393    -0.0000    59.3600 </r>
       <r>    21.7441    -0.0001    59.3600 </r>
       <r>    21.8489    -0.0014    59.3598 </r>
       <r>    21.9537    -0.0133    59.3585 </r>
       <r>    22.0585    -0.0577    59.3524 </r>
       <r>    22.1633    -0.0538    59.3468 </r>
       <r>    22.2681     0.3804    59.3866 </r>
       <r>    22.3729     1.2684    59.5196 </r>
       <r>    22.4777     1.5015    59.6769 </r>
       <r>    22.5825     0.7090    59.7512 </r>
       <r>    22.6873     0.0370    59.7551 </r>
       <r>    22.7921    -0.0762    59.7471 </r>
       <r>    22.8968    -0.0258    59.7444 </r>
       <r>    23.0016    -0.0036    59.7440 </r>
       <r>    23.1064    -0.0003    59.7440 </r>
       <r>    23.2112    -0.0000    59.7440 </r>
       <r>    23.3160    -0.0000    59.7440 </r>
       <r>    23.4208    -0.0000    59.7440 </r>
       <r>    23.5256    -0.0000    59.7440 </r>
       <r>    23.6304    -0.0000    59.7440 </r>
       <r>    23.7352     0.0000    59.7440 </r>
       <r>    23.8400     0.0000    59.7440 </r>
       <r>    23.9448     0.0000    59.7440 </r>
       <r>    24.0496    -0.0000    59.7440 </r>
       <r>    24.1544    -0.0000    59.7440 </r>
       <r>    24.2592    -0.0000    59.7440 </r>
       <r>    24.3640    -0.0000    59.7440 </r>
       <r>    24.4688    -0.0000    59.7440 </r>
       <r>    24.5736    -0.0000    59.7440 </r>
       <r>    24.6784    -0.0000    59.7440 </r>
       <r>    24.7832    -0.0000    59.7440 </r>
       <r>    24.8880    -0.0000    59.7440 </r>
       <r>    24.9928    -0.0000    59.7440 </r>
       <r>    25.0976    -0.0001    59.7440 </r>
       <r>    25.2024    -0.0019    59.7438 </r>
       <r>    25.3072    -0.0145    59.7423 </r>
       <r>    25.4120    -0.0480    59.7372 </r>
       <r>    25.5168     0.0022    59.7375 </r>
       <r>    25.6216     0.4073    59.7802 </r>
       <r>    25.7264     0.9678    59.8816 </r>
       <r>    25.8312     0.8986    59.9757 </r>
       <r>    25.9360     0.3102    60.0083 </r>
       <r>    26.0408    -0.0242    60.0057 </r>
       <r>    26.1456    -0.0424    60.0013 </r>
       <r>    26.2504    -0.0108    60.0001 </r>
       <r>    26.3552    -0.0012    60.0000 </r>
       <r>    26.4600    -0.0001    60.0000 </r>
       <r>    26.5648    -0.0000    60.0000 </r>
       <r>    26.6696    -0.0000    60.0000 </r>
       <r>    26.7744    -0.0000    60.0000 </r>
       <r>    26.8792    -0.0000    60.0000 </r>
       <r>    26.9840    -0.0000    60.0000 </r>
       <r>    27.0888     0.0000    60.0000 </r>
       <r>    27.1936     0.0000    60.0000 </r>
       <r>    27.2984     0.0000    60.0000 </r>
       <r>    27.4032     0.0000    60.0000 </r>
       <r>    27.5080     0.0000    60.0000 </r>
       <r>    27.6127     0.0000    60.0000 </r>
       <r>    27.7175     0.0000    60.0000 </r>
      </set>
     </set>
    </array>
   </total>
  </dos>
 </calculation>
 <structure name="finalpos" >
  <crystal>
   <varray name="basis" >
    <v>       3.63500000       0.00000000       0.00000000 </v>
    <v>       0.00000000       3.63500000       0.00000000 </v>
    <v>       0.00000000       0.00000000       3.63500000 </v>
   </varray>
   <i name="volume">     48.03007287 </i>
   <varray name="rec_basis" >
    <v>       0.27510316       0.00000000       0.00000000 </v>
    <v>       0.00000000       0.27510316       0.00000000 </v>
    <v>       0.00000000       0.00000000       0.27510316 </v>
   </varray>
  </crystal>
  <varray name="positions" >
   <v>       0.00000000       0.00000000       0.00000000 </v>
   <v>       0.50000000       0.50000000       0.00000000 </v>
   <v>       0.50000000       0.00000000       0.50000000 </v>
   <v>       0.00000000       0.50000000       0.50000000 </v>
  </varray>
 </structure>
</modeling>
