unknown system                          
   1.00000000000000     
     3.635000    0.000000    0.000000
     0.000000    3.635000    0.000000
     0.000000    0.000000    3.635000
   Cu
     4
Direct
  0.000000  0.000000  0.000000
  0.500000  0.500000  0.000000
  0.500000  0.000000  0.500000
  0.000000  0.500000  0.500000
 
   20   20   20
 0.44451860513E+03 0.39082512788E+03 0.26728132748E+03 0.14626981249E+03 0.73869302801E+02
 0.45476388149E+02 0.26465415714E+02 0.12749756662E+02 0.10342315915E+02 0.15455370486E+02
 0.18772799990E+02 0.15455370486E+02 0.10342315915E+02 0.12749756662E+02 0.26465415714E+02
 0.45476388149E+02 0.73869302801E+02 0.14626981249E+03 0.26728132748E+03 0.39082512788E+03
 0.39082512788E+03 0.34333105275E+03 0.23511099064E+03 0.13087115923E+03 0.69347296615E+02
 0.43929096535E+02 0.25129348017E+02 0.12013420967E+02 0.91679537183E+01 0.12905842093E+02
 0.15455370486E+02 0.12905842093E+02 0.91679537183E+01 0.12013420967E+02 0.25129348017E+02
 0.43929096535E+02 0.69347296615E+02 0.13087115923E+03 0.23511099064E+03 0.34333105275E+03
 0.26728132748E+03 0.23511099064E+03 0.16367944816E+03 0.97705741050E+02 0.59193548106E+02
 0.38754406923E+02 0.21233993905E+02 0.10461724329E+02 0.76567800370E+01 0.91679537183E+01
 0.10342315915E+02 0.91679537183E+01 0.76567800370E+01 0.10461724329E+02 0.21233993905E+02
 0.38754406923E+02 0.59193548106E+02 0.97705741050E+02 0.16367944816E+03 0.23511099064E+03
 0.14626981249E+03 0.13087115923E+03 0.97705741050E+02 0.67803288669E+02 0.47488062018E+02
 0.29868363492E+02 0.16378595991E+02 0.10591530977E+02 0.10461724329E+02 0.12013420967E+02
 0.12749756662E+02 0.12013420967E+02 0.10461724329E+02 0.10591530977E+02 0.16378595991E+02
 0.29868363492E+02 0.47488062018E+02 0.67803288669E+02 0.97705741050E+02 0.13087115923E+03
 0.73869302801E+02 0.69347296615E+02 0.59193548106E+02 0.47488062018E+02 0.33516791371E+02
 0.20659402123E+02 0.14786710177E+02 0.16378595991E+02 0.21233993905E+02 0.25129348017E+02
 0.26465415714E+02 0.25129348017E+02 0.21233993905E+02 0.16378595991E+02 0.14786710177E+02
 0.20659402123E+02 0.33516791371E+02 0.47488062018E+02 0.59193548106E+02 0.69347296615E+02
 0.45476388149E+02 0.43929096535E+02 0.38754406923E+02 0.29868363492E+02 0.20659402123E+02
 0.16665034279E+02 0.20659402123E+02 0.29868363492E+02 0.38754406923E+02 0.43929096535E+02
 0.45476388149E+02 0.43929096535E+02 0.38754406923E+02 0.29868363492E+02 0.20659402123E+02
 0.16665034279E+02 0.20659402123E+02 0.29868363492E+02 0.38754406923E+02 0.43929096535E+02
 0.26465415714E+02 0.25129348017E+02 0.21233993905E+02 0.16378595991E+02 0.14786710177E+02
 0.20659402123E+02 0.33516791371E+02 0.47488062018E+02 0.59193548106E+02 0.69347296615E+02
 0.73869302801E+02 0.69347296615E+02 0.59193548106E+02 0.47488062018E+02 0.33516791371E+02
 0.20659402123E+02 0.14786710177E+02 0.16378595991E+02 0.21233993905E+02 0.25129348017E+02
 0.12749756662E+02 0.12013420967E+02 0.10461724329E+02 0.10591530977E+02 0.16378595991E+02
 0.29868363492E+02 0.47488062018E+02 0.67803288669E+02 0.97705741050E+02 0.13087115923E+03
 0.14626981249E+03 0.13087115923E+03 0.97705741050E+02 0.67803288669E+02 0.47488062018E+02
 0.29868363492E+02 0.16378595991E+02 0.10591530977E+02 0.10461724329E+02 0.12013420967E+02
 0.10342315915E+02 0.91679537183E+01 0.76567800370E+01 0.10461724329E+02 0.21233993905E+02
 0.38754406923E+02 0.59193548106E+02 0.97705741050E+02 0.16367944816E+03 0.23511099064E+03
 0.26728132748E+03 0.23511099064E+03 0.16367944816E+03 0.97705741050E+02 0.59193548106E+02
 0.38754406923E+02 0.21233993905E+02 0.10461724329E+02 0.76567800370E+01 0.91679537183E+01
 0.15455370486E+02 0.12905842093E+02 0.91679537183E+01 0.12013420967E+02 0.25129348017E+02
 0.43929096535E+02 0.69347296615E+02 0.13087115923E+03 0.23511099064E+03 0.34333105275E+03
 0.39082512788E+03 0.34333105275E+03 0.23511099064E+03 0.13087115923E+03 0.69347296615E+02
 0.43929096535E+02 0.25129348017E+02 0.12013420967E+02 0.91679537183E+01 0.12905842093E+02
 0.18772799990E+02 0.15455370486E+02 0.10342315915E+02 0.12749756662E+02 0.26465415714E+02
 0.45476388149E+02 0.73869302801E+02 0.14626981249E+03 0.26728132748E+03 0.39082512788E+03
 0.44451860513E+03 0.39082512788E+03 0.26728132748E+03 0.14626981249E+03 0.73869302801E+02
 0.45476388149E+02 0.26465415714E+02 0.12749756662E+02 0.10342315915E+02 0.15455370486E+02
 0.15455370486E+02 0.12905842093E+02 0.91679537183E+01 0.12013420967E+02 0.25129348017E+02
 0.43929096535E+02 0.69347296615E+02 0.13087115923E+03 0.23511099064E+03 0.34333105275E+03
 0.39082512788E+03 0.34333105275E+03 0.23511099064E+03 0.13087115923E+03 0.69347296615E+02
 0.43929096535E+02 0.25129348017E+02 0.12013420967E+02 0.91679537183E+01 0.12905842093E+02
 0.10342315915E+02 0.91679537183E+01 0.76567800370E+01 0.10461724329E+02 0.21233993905E+02
 0.38754406923E+02 0.59193548106E+02 0.97705741050E+02 0.16367944816E+03 0.23511099064E+03
 0.26728132748E+03 0.23511099064E+03 0.16367944816E+03 0.97705741050E+02 0.59193548106E+02
 0.38754406923E+02 0.21233993905E+02 0.10461724329E+02 0.76567800370E+01 0.91679537183E+01
 0.12749756662E+02 0.12013420967E+02 0.10461724329E+02 0.10591530977E+02 0.16378595991E+02
 0.29868363492E+02 0.47488062018E+02 0.67803288669E+02 0.97705741050E+02 0.13087115923E+03
 0.14626981249E+03 0.13087115923E+03 0.97705741050E+02 0.67803288669E+02 0.47488062018E+02
 0.29868363492E+02 0.16378595991E+02 0.10591530977E+02 0.10461724329E+02 0.12013420967E+02
 0.26465415714E+02 0.25129348017E+02 0.21233993905E+02 0.16378595991E+02 0.14786710177E+02
 0.20659402123E+02 0.33516791371E+02 0.47488062018E+02 0.59193548106E+02 0.69347296615E+02
 0.73869302801E+02 0.69347296615E+02 0.59193548106E+02 0.47488062018E+02 0.33516791371E+02
 0.20659402123E+02 0.14786710177E+02 0.16378595991E+02 0.21233993905E+02 0.25129348017E+02
 0.45476388149E+02 0.43929096535E+02 0.38754406923E+02 0.29868363492E+02 0.20659402123E+02
 0.16665034279E+02 0.20659402123E+02 0.29868363492E+02 0.38754406923E+02 0.43929096535E+02
 0.45476388149E+02 0.43929096535E+02 0.38754406923E+02 0.29868363492E+02 0.20659402123E+02
 0.16665034279E+02 0.20659402123E+02 0.29868363492E+02 0.38754406923E+02 0.43929096535E+02
 0.73869302801E+02 0.69347296615E+02 0.59193548106E+02 0.47488062018E+02 0.33516791371E+02
 0.20659402123E+02 0.14786710177E+02 0.16378595991E+02 0.21233993905E+02 0.25129348017E+02
 0.26465415714E+02 0.25129348017E+02 0.21233993905E+02 0.16378595991E+02 0.14786710177E+02
 0.20659402123E+02 0.33516791371E+02 0.47488062018E+02 0.59193548106E+02 0.69347296615E+02
 0.14626981249E+03 0.13087115923E+03 0.97705741050E+02 0.67803288669E+02 0.47488062018E+02
 0.29868363492E+02 0.16378595991E+02 0.10591530977E+02 0.10461724329E+02 0.12013420967E+02
 0.12749756662E+02 0.12013420967E+02 0.10461724329E+02 0.10591530977E+02 0.16378595991E+02
 0.29868363492E+02 0.47488062018E+02 0.67803288669E+02 0.97705741050E+02 0.13087115923E+03
 0.26728132748E+03 0.23511099064E+03 0.16367944816E+03 0.97705741050E+02 0.59193548106E+02
 0.38754406923E+02 0.21233993905E+02 0.10461724329E+02 0.76567800370E+01 0.91679537183E+01
 0.10342315915E+02 0.91679537183E+01 0.76567800370E+01 0.10461724329E+02 0.21233993905E+02
 0.38754406923E+02 0.59193548106E+02 0.97705741050E+02 0.16367944816E+03 0.23511099064E+03
 0.39082512788E+03 0.34333105275E+03 0.23511099064E+03 0.13087115923E+03 0.69347296615E+02
 0.43929096535E+02 0.25129348017E+02 0.12013420967E+02 0.91679537183E+01 0.12905842093E+02
 0.15455370486E+02 0.12905842093E+02 0.91679537183E+01 0.12013420967E+02 0.25129348017E+02
 0.43929096535E+02 0.69347296615E+02 0.13087115923E+03 0.23511099064E+03 0.34333105275E+03
 0.39082512788E+03 0.34333105275E+03 0.23511099064E+03 0.13087115923E+03 0.69347296615E+02
 0.43929096535E+02 0.25129348017E+02 0.12013420967E+02 0.91679537183E+01 0.12905842093E+02
 0.15455370486E+02 0.12905842093E+02 0.91679537183E+01 0.12013420967E+02 0.25129348017E+02
 0.43929096535E+02 0.69347296615E+02 0.13087115923E+03 0.23511099064E+03 0.34333105275E+03
 0.34333105275E+03 0.30157534172E+03 0.20723681902E+03 0.11767114061E+03 0.65308666293E+02
 0.42298084035E+02 0.24070591175E+02 0.11769677922E+02 0.86065867722E+01 0.11074316775E+02
 0.12905842093E+02 0.11074316775E+02 0.86065867722E+01 0.11769677922E+02 0.24070591175E+02
 0.42298084035E+02 0.65308666293E+02 0.11767114061E+03 0.20723681902E+03 0.30157534172E+03
 0.23511099064E+03 0.20723681902E+03 0.14565142536E+03 0.89158850760E+02 0.55956401365E+02
 0.36920715623E+02 0.20764604505E+02 0.11136515007E+02 0.81733810895E+01 0.86065867722E+01
 0.91679537183E+01 0.86065867722E+01 0.81733810895E+01 0.11136515007E+02 0.20764604505E+02
 0.36920715623E+02 0.55956401365E+02 0.89158850760E+02 0.14565142536E+03 0.20723681902E+03
 0.13087115923E+03 0.11767114061E+03 0.89158850760E+02 0.63095661895E+02 0.44531883353E+02
 0.28029271977E+02 0.16239579098E+02 0.11489089967E+02 0.11136515007E+02 0.11769677922E+02
 0.12013420967E+02 0.11769677922E+02 0.11136515007E+02 0.11489089967E+02 0.16239579098E+02
 0.28029271977E+02 0.44531883353E+02 0.63095661895E+02 0.89158850760E+02 0.11767114061E+03
 0.69347296615E+02 0.65308666293E+02 0.55956401365E+02 0.44531883353E+02 0.30807100124E+02
 0.19019982360E+02 0.14237365307E+02 0.16239579098E+02 0.20764604505E+02 0.24070591175E+02
 0.25129348017E+02 0.24070591175E+02 0.20764604505E+02 0.16239579098E+02 0.14237365307E+02
 0.19019982360E+02 0.30807100124E+02 0.44531883353E+02 0.55956401365E+02 0.65308666293E+02
 0.43929096535E+02 0.42298084035E+02 0.36920715623E+02 0.28029271977E+02 0.19019982360E+02
 0.15150049794E+02 0.19019982360E+02 0.28029271977E+02 0.36920715623E+02 0.42298084035E+02
 0.43929096535E+02 0.42298084035E+02 0.36920715623E+02 0.28029271977E+02 0.19019982360E+02
 0.15150049794E+02 0.19019982360E+02 0.28029271977E+02 0.36920715623E+02 0.42298084035E+02
 0.25129348017E+02 0.24070591175E+02 0.20764604505E+02 0.16239579098E+02 0.14237365307E+02
 0.19019982360E+02 0.30807100124E+02 0.44531883353E+02 0.55956401365E+02 0.65308666293E+02
 0.69347296615E+02 0.65308666293E+02 0.55956401365E+02 0.44531883353E+02 0.30807100124E+02
 0.19019982360E+02 0.14237365307E+02 0.16239579098E+02 0.20764604505E+02 0.24070591175E+02
 0.12013420967E+02 0.11769677922E+02 0.11136515007E+02 0.11489089967E+02 0.16239579098E+02
 0.28029271977E+02 0.44531883353E+02 0.63095661895E+02 0.89158850760E+02 0.11767114061E+03
 0.13087115923E+03 0.11767114061E+03 0.89158850760E+02 0.63095661895E+02 0.44531883353E+02
 0.28029271977E+02 0.16239579098E+02 0.11489089967E+02 0.11136515007E+02 0.11769677922E+02
 0.91679537183E+01 0.86065867722E+01 0.81733810895E+01 0.11136515007E+02 0.20764604505E+02
 0.36920715623E+02 0.55956401365E+02 0.89158850760E+02 0.14565142536E+03 0.20723681902E+03
 0.23511099064E+03 0.20723681902E+03 0.14565142536E+03 0.89158850760E+02 0.55956401365E+02
 0.36920715623E+02 0.20764604505E+02 0.11136515007E+02 0.81733810895E+01 0.86065867722E+01
 0.12905842093E+02 0.11074316775E+02 0.86065867722E+01 0.11769677922E+02 0.24070591175E+02
 0.42298084035E+02 0.65308666293E+02 0.11767114061E+03 0.20723681902E+03 0.30157534172E+03
 0.34333105275E+03 0.30157534172E+03 0.20723681902E+03 0.11767114061E+03 0.65308666293E+02
 0.42298084035E+02 0.24070591175E+02 0.11769677922E+02 0.86065867722E+01 0.11074316775E+02
 0.15455370486E+02 0.12905842093E+02 0.91679537183E+01 0.12013420967E+02 0.25129348017E+02
 0.43929096535E+02 0.69347296615E+02 0.13087115923E+03 0.23511099064E+03 0.34333105275E+03
 0.39082512788E+03 0.34333105275E+03 0.23511099064E+03 0.13087115923E+03 0.69347296615E+02
 0.43929096535E+02 0.25129348017E+02 0.12013420967E+02 0.91679537183E+01 0.12905842093E+02
 0.12905842093E+02 0.11074316775E+02 0.86065867722E+01 0.11769677922E+02 0.24070591175E+02
 0.42298084035E+02 0.65308666293E+02 0.11767114061E+03 0.20723681902E+03 0.30157534172E+03
 0.34333105275E+03 0.30157534172E+03 0.20723681902E+03 0.11767114061E+03 0.65308666293E+02
 0.42298084035E+02 0.24070591175E+02 0.11769677922E+02 0.86065867722E+01 0.11074316775E+02
 0.91679537183E+01 0.86065867722E+01 0.81733810895E+01 0.11136515007E+02 0.20764604505E+02
 0.36920715623E+02 0.55956401365E+02 0.89158850760E+02 0.14565142536E+03 0.20723681902E+03
 0.23511099064E+03 0.20723681902E+03 0.14565142536E+03 0.89158850760E+02 0.55956401365E+02
 0.36920715623E+02 0.20764604505E+02 0.11136515007E+02 0.81733810895E+01 0.86065867722E+01
 0.12013420967E+02 0.11769677922E+02 0.11136515007E+02 0.11489089967E+02 0.16239579098E+02
 0.28029271977E+02 0.44531883353E+02 0.63095661895E+02 0.89158850760E+02 0.11767114061E+03
 0.13087115923E+03 0.11767114061E+03 0.89158850760E+02 0.63095661895E+02 0.44531883353E+02
 0.28029271977E+02 0.16239579098E+02 0.11489089967E+02 0.11136515007E+02 0.11769677922E+02
 0.25129348017E+02 0.24070591175E+02 0.20764604505E+02 0.16239579098E+02 0.14237365307E+02
 0.19019982360E+02 0.30807100124E+02 0.44531883353E+02 0.55956401365E+02 0.65308666293E+02
 0.69347296615E+02 0.65308666293E+02 0.55956401365E+02 0.44531883353E+02 0.30807100124E+02
 0.19019982360E+02 0.14237365307E+02 0.16239579098E+02 0.20764604505E+02 0.24070591175E+02
 0.43929096535E+02 0.42298084035E+02 0.36920715623E+02 0.28029271977E+02 0.19019982360E+02
 0.15150049794E+02 0.19019982360E+02 0.28029271977E+02 0.36920715623E+02 0.42298084035E+02
 0.43929096535E+02 0.42298084035E+02 0.36920715623E+02 0.28029271977E+02 0.19019982360E+02
 0.15150049794E+02 0.19019982360E+02 0.28029271977E+02 0.36920715623E+02 0.42298084035E+02
 0.69347296615E+02 0.65308666293E+02 0.55956401365E+02 0.44531883353E+02 0.30807100124E+02
 0.19019982360E+02 0.14237365307E+02 0.16239579098E+02 0.20764604505E+02 0.24070591175E+02
 0.25129348017E+02 0.24070591175E+02 0.20764604505E+02 0.16239579098E+02 0.14237365307E+02
 0.19019982360E+02 0.30807100124E+02 0.44531883353E+02 0.55956401365E+02 0.65308666293E+02
 0.13087115923E+03 0.11767114061E+03 0.89158850760E+02 0.63095661895E+02 0.44531883353E+02
 0.28029271977E+02 0.16239579098E+02 0.11489089967E+02 0.11136515007E+02 0.11769677922E+02
 0.12013420967E+02 0.11769677922E+02 0.11136515007E+02 0.11489089967E+02 0.16239579098E+02
 0.28029271977E+02 0.44531883353E+02 0.63095661895E+02 0.89158850760E+02 0.11767114061E+03
 0.23511099064E+03 0.20723681902E+03 0.14565142536E+03 0.89158850760E+02 0.55956401365E+02
 0.36920715623E+02 0.20764604505E+02 0.11136515007E+02 0.81733810895E+01 0.86065867722E+01
 0.91679537183E+01 0.86065867722E+01 0.81733810895E+01 0.11136515007E+02 0.20764604505E+02
 0.36920715623E+02 0.55956401365E+02 0.89158850760E+02 0.14565142536E+03 0.20723681902E+03
 0.34333105275E+03 0.30157534172E+03 0.20723681902E+03 0.11767114061E+03 0.65308666293E+02
 0.42298084035E+02 0.24070591175E+02 0.11769677922E+02 0.86065867722E+01 0.11074316775E+02
 0.12905842093E+02 0.11074316775E+02 0.86065867722E+01 0.11769677922E+02 0.24070591175E+02
 0.42298084035E+02 0.65308666293E+02 0.11767114061E+03 0.20723681902E+03 0.30157534172E+03
 0.26728132748E+03 0.23511099064E+03 0.16367944816E+03 0.97705741050E+02 0.59193548106E+02
 0.38754406923E+02 0.21233993905E+02 0.10461724329E+02 0.76567800370E+01 0.91679537183E+01
 0.10342315915E+02 0.91679537183E+01 0.76567800370E+01 0.10461724329E+02 0.21233993905E+02
 0.38754406923E+02 0.59193548106E+02 0.97705741050E+02 0.16367944816E+03 0.23511099064E+03
 0.23511099064E+03 0.20723681902E+03 0.14565142536E+03 0.89158850760E+02 0.55956401365E+02
 0.36920715623E+02 0.20764604505E+02 0.11136515007E+02 0.81733810895E+01 0.86065867722E+01
 0.91679537183E+01 0.86065867722E+01 0.81733810895E+01 0.11136515007E+02 0.20764604505E+02
 0.36920715623E+02 0.55956401365E+02 0.89158850760E+02 0.14565142536E+03 0.20723681902E+03
 0.16367944816E+03 0.14565142536E+03 0.10625717974E+03 0.70395835327E+02 0.47886902856E+02
 0.31480172271E+02 0.18892446011E+02 0.12254630135E+02 0.95126660109E+01 0.81733810895E+01
 0.76567800370E+01 0.81733810895E+01 0.95126660109E+01 0.12254630135E+02 0.18892446011E+02
 0.31480172271E+02 0.47886902856E+02 0.70395835327E+02 0.10625717974E+03 0.14565142536E+03
 0.97705741050E+02 0.89158850760E+02 0.70395835327E+02 0.52179463201E+02 0.36903107322E+02
 0.23475536445E+02 0.15631591589E+02 0.13058592666E+02 0.12254630135E+02 0.11136515007E+02
 0.10461724329E+02 0.11136515007E+02 0.12254630135E+02 0.13058592666E+02 0.15631591589E+02
 0.23475536445E+02 0.36903107322E+02 0.52179463201E+02 0.70395835327E+02 0.89158850760E+02
 0.59193548106E+02 0.55956401365E+02 0.47886902856E+02 0.36903107322E+02 0.24732237580E+02
 0.15964306964E+02 0.13406786098E+02 0.15631591589E+02 0.18892446011E+02 0.20764604505E+02
 0.21233993905E+02 0.20764604505E+02 0.18892446011E+02 0.15631591589E+02 0.13406786098E+02
 0.15964306964E+02 0.24732237580E+02 0.36903107322E+02 0.47886902856E+02 0.55956401365E+02
 0.38754406923E+02 0.36920715623E+02 0.31480172271E+02 0.23475536445E+02 0.15964306964E+02
 0.12850861257E+02 0.15964306964E+02 0.23475536445E+02 0.31480172271E+02 0.36920715623E+02
 0.38754406923E+02 0.36920715623E+02 0.31480172271E+02 0.23475536445E+02 0.15964306964E+02
 0.12850861257E+02 0.15964306964E+02 0.23475536445E+02 0.31480172271E+02 0.36920715623E+02
 0.21233993905E+02 0.20764604505E+02 0.18892446011E+02 0.15631591589E+02 0.13406786098E+02
 0.15964306964E+02 0.24732237580E+02 0.36903107322E+02 0.47886902856E+02 0.55956401365E+02
 0.59193548106E+02 0.55956401365E+02 0.47886902856E+02 0.36903107322E+02 0.24732237580E+02
 0.15964306964E+02 0.13406786098E+02 0.15631591589E+02 0.18892446011E+02 0.20764604505E+02
 0.10461724329E+02 0.11136515007E+02 0.12254630135E+02 0.13058592666E+02 0.15631591589E+02
 0.23475536445E+02 0.36903107322E+02 0.52179463201E+02 0.70395835327E+02 0.89158850760E+02
 0.97705741050E+02 0.89158850760E+02 0.70395835327E+02 0.52179463201E+02 0.36903107322E+02
 0.23475536445E+02 0.15631591589E+02 0.13058592666E+02 0.12254630135E+02 0.11136515007E+02
 0.76567800370E+01 0.81733810895E+01 0.95126660109E+01 0.12254630135E+02 0.18892446011E+02
 0.31480172271E+02 0.47886902856E+02 0.70395835327E+02 0.10625717974E+03 0.14565142536E+03
 0.16367944816E+03 0.14565142536E+03 0.10625717974E+03 0.70395835327E+02 0.47886902856E+02
 0.31480172271E+02 0.18892446011E+02 0.12254630135E+02 0.95126660109E+01 0.81733810895E+01
 0.91679537183E+01 0.86065867722E+01 0.81733810895E+01 0.11136515007E+02 0.20764604505E+02
 0.36920715623E+02 0.55956401365E+02 0.89158850760E+02 0.14565142536E+03 0.20723681902E+03
 0.23511099064E+03 0.20723681902E+03 0.14565142536E+03 0.89158850760E+02 0.55956401365E+02
 0.36920715623E+02 0.20764604505E+02 0.11136515007E+02 0.81733810895E+01 0.86065867722E+01
 0.10342315915E+02 0.91679537183E+01 0.76567800370E+01 0.10461724329E+02 0.21233993905E+02
 0.38754406923E+02 0.59193548106E+02 0.97705741050E+02 0.16367944816E+03 0.23511099064E+03
 0.26728132748E+03 0.23511099064E+03 0.16367944816E+03 0.97705741050E+02 0.59193548106E+02
 0.38754406923E+02 0.21233993905E+02 0.10461724329E+02 0.76567800370E+01 0.91679537183E+01
 0.91679537183E+01 0.86065867722E+01 0.81733810895E+01 0.11136515007E+02 0.20764604505E+02
 0.36920715623E+02 0.55956401365E+02 0.89158850760E+02 0.14565142536E+03 0.20723681902E+03
 0.23511099064E+03 0.20723681902E+03 0.14565142536E+03 0.89158850760E+02 0.55956401365E+02
 0.36920715623E+02 0.20764604505E+02 0.11136515007E+02 0.81733810895E+01 0.86065867722E+01
 0.76567800370E+01 0.81733810895E+01 0.95126660109E+01 0.12254630135E+02 0.18892446011E+02
 0.31480172271E+02 0.47886902856E+02 0.70395835327E+02 0.10625717974E+03 0.14565142536E+03
 0.16367944816E+03 0.14565142536E+03 0.10625717974E+03 0.70395835327E+02 0.47886902856E+02
 0.31480172271E+02 0.18892446011E+02 0.12254630135E+02 0.95126660109E+01 0.81733810895E+01
 0.10461724329E+02 0.11136515007E+02 0.12254630135E+02 0.13058592666E+02 0.15631591589E+02
 0.23475536445E+02 0.36903107322E+02 0.52179463201E+02 0.70395835327E+02 0.89158850760E+02
 0.97705741050E+02 0.89158850760E+02 0.70395835327E+02 0.52179463201E+02 0.36903107322E+02
 0.23475536445E+02 0.15631591589E+02 0.13058592666E+02 0.12254630135E+02 0.11136515007E+02
 0.21233993905E+02 0.20764604505E+02 0.18892446011E+02 0.15631591589E+02 0.13406786098E+02
 0.15964306964E+02 0.24732237580E+02 0.36903107322E+02 0.47886902856E+02 0.55956401365E+02
 0.59193548106E+02 0.55956401365E+02 0.47886902856E+02 0.36903107322E+02 0.24732237580E+02
 0.15964306964E+02 0.13406786098E+02 0.15631591589E+02 0.18892446011E+02 0.20764604505E+02
 0.38754406923E+02 0.36920715623E+02 0.31480172271E+02 0.23475536445E+02 0.15964306964E+02
 0.12850861257E+02 0.15964306964E+02 0.23475536445E+02 0.31480172271E+02 0.36920715623E+02
 0.38754406923E+02 0.36920715623E+02 0.31480172271E+02 0.23475536445E+02 0.15964306964E+02
 0.12850861257E+02 0.15964306964E+02 0.23475536445E+02 0.31480172271E+02 0.36920715623E+02
 0.59193548106E+02 0.55956401365E+02 0.47886902856E+02 0.36903107322E+02 0.24732237580E+02
 0.15964306964E+02 0.13406786098E+02 0.15631591589E+02 0.18892446011E+02 0.20764604505E+02
 0.21233993905E+02 0.20764604505E+02 0.18892446011E+02 0.15631591589E+02 0.13406786098E+02
 0.15964306964E+02 0.24732237580E+02 0.36903107322E+02 0.47886902856E+02 0.55956401365E+02
 0.97705741050E+02 0.89158850760E+02 0.70395835327E+02 0.52179463201E+02 0.36903107322E+02
 0.23475536445E+02 0.15631591589E+02 0.13058592666E+02 0.12254630135E+02 0.11136515007E+02
 0.10461724329E+02 0.11136515007E+02 0.12254630135E+02 0.13058592666E+02 0.15631591589E+02
 0.23475536445E+02 0.36903107322E+02 0.52179463201E+02 0.70395835327E+02 0.89158850760E+02
 0.16367944816E+03 0.14565142536E+03 0.10625717974E+03 0.70395835327E+02 0.47886902856E+02
 0.31480172271E+02 0.18892446011E+02 0.12254630135E+02 0.95126660109E+01 0.81733810895E+01
 0.76567800370E+01 0.81733810895E+01 0.95126660109E+01 0.12254630135E+02 0.18892446011E+02
 0.31480172271E+02 0.47886902856E+02 0.70395835327E+02 0.10625717974E+03 0.14565142536E+03
 0.23511099064E+03 0.20723681902E+03 0.14565142536E+03 0.89158850760E+02 0.55956401365E+02
 0.36920715623E+02 0.20764604505E+02 0.11136515007E+02 0.81733810895E+01 0.86065867722E+01
 0.91679537183E+01 0.86065867722E+01 0.81733810895E+01 0.11136515007E+02 0.20764604505E+02
 0.36920715623E+02 0.55956401365E+02 0.89158850760E+02 0.14565142536E+03 0.20723681902E+03
 0.14626981249E+03 0.13087115923E+03 0.97705741050E+02 0.67803288669E+02 0.47488062018E+02
 0.29868363492E+02 0.16378595991E+02 0.10591530977E+02 0.10461724329E+02 0.12013420967E+02
 0.12749756662E+02 0.12013420967E+02 0.10461724329E+02 0.10591530977E+02 0.16378595991E+02
 0.29868363492E+02 0.47488062018E+02 0.67803288669E+02 0.97705741050E+02 0.13087115923E+03
 0.13087115923E+03 0.11767114061E+03 0.89158850760E+02 0.63095661895E+02 0.44531883353E+02
 0.28029271977E+02 0.16239579098E+02 0.11489089967E+02 0.11136515007E+02 0.11769677922E+02
 0.12013420967E+02 0.11769677922E+02 0.11136515007E+02 0.11489089967E+02 0.16239579098E+02
 0.28029271977E+02 0.44531883353E+02 0.63095661895E+02 0.89158850760E+02 0.11767114061E+03
 0.97705741050E+02 0.89158850760E+02 0.70395835327E+02 0.52179463201E+02 0.36903107322E+02
 0.23475536445E+02 0.15631591589E+02 0.13058592666E+02 0.12254630135E+02 0.11136515007E+02
 0.10461724329E+02 0.11136515007E+02 0.12254630135E+02 0.13058592666E+02 0.15631591589E+02
 0.23475536445E+02 0.36903107322E+02 0.52179463201E+02 0.70395835327E+02 0.89158850760E+02
 0.67803288669E+02 0.63095661895E+02 0.52179463201E+02 0.39781312873E+02 0.27411218610E+02
 0.18368946902E+02 0.14463071058E+02 0.13746243824E+02 0.13058592666E+02 0.11489089967E+02
 0.10591530977E+02 0.11489089967E+02 0.13058592666E+02 0.13746243824E+02 0.14463071058E+02
 0.18368946902E+02 0.27411218610E+02 0.39781312873E+02 0.52179463201E+02 0.63095661895E+02
 0.47488062018E+02 0.44531883353E+02 0.36903107322E+02 0.27411218610E+02 0.19299119825E+02
 0.14660046988E+02 0.13557959579E+02 0.14463071058E+02 0.15631591589E+02 0.16239579098E+02
 0.16378595991E+02 0.16239579098E+02 0.15631591589E+02 0.14463071058E+02 0.13557959579E+02
 0.14660046988E+02 0.19299119825E+02 0.27411218610E+02 0.36903107322E+02 0.44531883353E+02
 0.29868363492E+02 0.28029271977E+02 0.23475536445E+02 0.18368946902E+02 0.14660046988E+02
 0.13343092599E+02 0.14660046988E+02 0.18368946902E+02 0.23475536445E+02 0.28029271977E+02
 0.29868363492E+02 0.28029271977E+02 0.23475536445E+02 0.18368946902E+02 0.14660046988E+02
 0.13343092599E+02 0.14660046988E+02 0.18368946902E+02 0.23475536445E+02 0.28029271977E+02
 0.16378595991E+02 0.16239579098E+02 0.15631591589E+02 0.14463071058E+02 0.13557959579E+02
 0.14660046988E+02 0.19299119825E+02 0.27411218610E+02 0.36903107322E+02 0.44531883353E+02
 0.47488062018E+02 0.44531883353E+02 0.36903107322E+02 0.27411218610E+02 0.19299119825E+02
 0.14660046988E+02 0.13557959579E+02 0.14463071058E+02 0.15631591589E+02 0.16239579098E+02
 0.10591530977E+02 0.11489089967E+02 0.13058592666E+02 0.13746243824E+02 0.14463071058E+02
 0.18368946902E+02 0.27411218610E+02 0.39781312873E+02 0.52179463201E+02 0.63095661895E+02
 0.67803288669E+02 0.63095661895E+02 0.52179463201E+02 0.39781312873E+02 0.27411218610E+02
 0.18368946902E+02 0.14463071058E+02 0.13746243824E+02 0.13058592666E+02 0.11489089967E+02
 0.10461724329E+02 0.11136515007E+02 0.12254630135E+02 0.13058592666E+02 0.15631591589E+02
 0.23475536445E+02 0.36903107322E+02 0.52179463201E+02 0.70395835327E+02 0.89158850760E+02
 0.97705741050E+02 0.89158850760E+02 0.70395835327E+02 0.52179463201E+02 0.36903107322E+02
 0.23475536445E+02 0.15631591589E+02 0.13058592666E+02 0.12254630135E+02 0.11136515007E+02
 0.12013420967E+02 0.11769677922E+02 0.11136515007E+02 0.11489089967E+02 0.16239579098E+02
 0.28029271977E+02 0.44531883353E+02 0.63095661895E+02 0.89158850760E+02 0.11767114061E+03
 0.13087115923E+03 0.11767114061E+03 0.89158850760E+02 0.63095661895E+02 0.44531883353E+02
 0.28029271977E+02 0.16239579098E+02 0.11489089967E+02 0.11136515007E+02 0.11769677922E+02
 0.12749756662E+02 0.12013420967E+02 0.10461724329E+02 0.10591530977E+02 0.16378595991E+02
 0.29868363492E+02 0.47488062018E+02 0.67803288669E+02 0.97705741050E+02 0.13087115923E+03
 0.14626981249E+03 0.13087115923E+03 0.97705741050E+02 0.67803288669E+02 0.47488062018E+02
 0.29868363492E+02 0.16378595991E+02 0.10591530977E+02 0.10461724329E+02 0.12013420967E+02
 0.12013420967E+02 0.11769677922E+02 0.11136515007E+02 0.11489089967E+02 0.16239579098E+02
 0.28029271977E+02 0.44531883353E+02 0.63095661895E+02 0.89158850760E+02 0.11767114061E+03
 0.13087115923E+03 0.11767114061E+03 0.89158850760E+02 0.63095661895E+02 0.44531883353E+02
 0.28029271977E+02 0.16239579098E+02 0.11489089967E+02 0.11136515007E+02 0.11769677922E+02
 0.10461724329E+02 0.11136515007E+02 0.12254630135E+02 0.13058592666E+02 0.15631591589E+02
 0.23475536445E+02 0.36903107322E+02 0.52179463201E+02 0.70395835327E+02 0.89158850760E+02
 0.97705741050E+02 0.89158850760E+02 0.70395835327E+02 0.52179463201E+02 0.36903107322E+02
 0.23475536445E+02 0.15631591589E+02 0.13058592666E+02 0.12254630135E+02 0.11136515007E+02
 0.10591530977E+02 0.11489089967E+02 0.13058592666E+02 0.13746243824E+02 0.14463071058E+02
 0.18368946902E+02 0.27411218610E+02 0.39781312873E+02 0.52179463201E+02 0.63095661895E+02
 0.67803288669E+02 0.63095661895E+02 0.52179463201E+02 0.39781312873E+02 0.27411218610E+02
 0.18368946902E+02 0.14463071058E+02 0.13746243824E+02 0.13058592666E+02 0.11489089967E+02
 0.16378595991E+02 0.16239579098E+02 0.15631591589E+02 0.14463071058E+02 0.13557959579E+02
 0.14660046988E+02 0.19299119825E+02 0.27411218610E+02 0.36903107322E+02 0.44531883353E+02
 0.47488062018E+02 0.44531883353E+02 0.36903107322E+02 0.27411218610E+02 0.19299119825E+02
 0.14660046988E+02 0.13557959579E+02 0.14463071058E+02 0.15631591589E+02 0.16239579098E+02
 0.29868363492E+02 0.28029271977E+02 0.23475536445E+02 0.18368946902E+02 0.14660046988E+02
 0.13343092599E+02 0.14660046988E+02 0.18368946902E+02 0.23475536445E+02 0.28029271977E+02
 0.29868363492E+02 0.28029271977E+02 0.23475536445E+02 0.18368946902E+02 0.14660046988E+02
 0.13343092599E+02 0.14660046988E+02 0.18368946902E+02 0.23475536445E+02 0.28029271977E+02
 0.47488062018E+02 0.44531883353E+02 0.36903107322E+02 0.27411218610E+02 0.19299119825E+02
 0.14660046988E+02 0.13557959579E+02 0.14463071058E+02 0.15631591589E+02 0.16239579098E+02
 0.16378595991E+02 0.16239579098E+02 0.15631591589E+02 0.14463071058E+02 0.13557959579E+02
 0.14660046988E+02 0.19299119825E+02 0.27411218610E+02 0.36903107322E+02 0.44531883353E+02
 0.67803288669E+02 0.63095661895E+02 0.52179463201E+02 0.39781312873E+02 0.27411218610E+02
 0.18368946902E+02 0.14463071058E+02 0.13746243824E+02 0.13058592666E+02 0.11489089967E+02
 0.10591530977E+02 0.11489089967E+02 0.13058592666E+02 0.13746243824E+02 0.14463071058E+02
 0.18368946902E+02 0.27411218610E+02 0.39781312873E+02 0.52179463201E+02 0.63095661895E+02
 0.97705741050E+02 0.89158850760E+02 0.70395835327E+02 0.52179463201E+02 0.36903107322E+02
 0.23475536445E+02 0.15631591589E+02 0.13058592666E+02 0.12254630135E+02 0.11136515007E+02
 0.10461724329E+02 0.11136515007E+02 0.12254630135E+02 0.13058592666E+02 0.15631591589E+02
 0.23475536445E+02 0.36903107322E+02 0.52179463201E+02 0.70395835327E+02 0.89158850760E+02
 0.13087115923E+03 0.11767114061E+03 0.89158850760E+02 0.63095661895E+02 0.44531883353E+02
 0.28029271977E+02 0.16239579098E+02 0.11489089967E+02 0.11136515007E+02 0.11769677922E+02
 0.12013420967E+02 0.11769677922E+02 0.11136515007E+02 0.11489089967E+02 0.16239579098E+02
 0.28029271977E+02 0.44531883353E+02 0.63095661895E+02 0.89158850760E+02 0.11767114061E+03
 0.73869302801E+02 0.69347296615E+02 0.59193548106E+02 0.47488062018E+02 0.33516791371E+02
 0.20659402123E+02 0.14786710177E+02 0.16378595991E+02 0.21233993905E+02 0.25129348017E+02
 0.26465415714E+02 0.25129348017E+02 0.21233993905E+02 0.16378595991E+02 0.14786710177E+02
 0.20659402123E+02 0.33516791371E+02 0.47488062018E+02 0.59193548106E+02 0.69347296615E+02
 0.69347296615E+02 0.65308666293E+02 0.55956401365E+02 0.44531883353E+02 0.30807100124E+02