    4    4    1    1
  0.1200752E+02  0.3635000E-09  0.3635000E-09  0.3635000E-09  0.5000000E-15
  1.000000000000000E-004
  CAR 
 unknown system                          
     44     10     30
 
  0.0000000E+00  0.0000000E+00  0.0000000E+00  0.8000000E-02
    1      -15.174368   1.000000
    2      -15.174368   1.000000
    3      -15.174368   1.000000
    4       -7.564885   1.000000
    5       -7.564885   1.000000
    6       -7.564885   1.000000
    7       -3.835537   1.000000
    8        3.102927   1.000000
    9        3.102927   1.000000
   10        3.102927   1.000000
   11        3.102927   1.000000
   12        3.102927   1.000000
   13        3.102927   1.000000
   14        7.053311   1.000000
   15        7.053311   1.000000
   16        7.053311   1.000000
   17        7.667157   1.000000
   18        7.667157   1.000000
   19        7.667157   1.000000
   20        7.771648   1.000000
   21        7.771648   1.000000
   22        7.771648   1.000000
   23       17.031077   0.000000
   24       17.031077   0.000000
   25       17.031077   0.000000
   26       17.031077   0.000000
   27       17.031077   0.000000
   28       17.031077   0.000000
   29       21.766910   0.000000
   30       21.766910   0.000000
 
  0.2000000E+00  0.0000000E+00  0.0000000E+00  0.4800000E-01
    1      -15.087339   1.000000
    2      -12.664103   1.000000
    3      -12.664103   1.000000
    4       -5.541795   1.000000
    5       -5.541795   1.000000
    6       -3.390394   1.000000
    7       -1.225483   1.000000
    8       -1.225483   1.000000
    9        1.700549   1.000000
   10        1.700549   1.000000
   11        3.302163   1.000000
   12        5.574463   1.000000
   13        6.814341   1.000000
   14        6.814341   1.000000
   15        7.513364   1.000000
   16        7.513364   1.000000
   17        7.658167   1.000000
   18        7.965012   1.000000
   19        7.965012   1.000000
   20       11.956474  -0.000000
   21       11.956474  -0.000000
   22       12.185027  -0.000000
   23       12.185027  -0.000000
   24       12.206299  -0.000000
   25       14.699552  -0.000000
   26       14.699552  -0.000000
   27       15.211639  -0.000000
   28       15.211639  -0.000000
   29       17.531137   0.000000
   30       17.531137   0.000000
 
  0.4000000E+00  0.0000000E+00  0.0000000E+00  0.4800000E-01
    1      -11.993498   1.000000
    2      -11.993498   1.000000
    3       -2.045356   1.000000
    4       -0.113398   1.000000
    5        0.009333   1.000000
    6        0.009333   1.000000
    7        0.196739   1.000000
    8        1.507612   1.000000
    9        1.507612   1.000000
   10        5.264505   1.000000
   11        5.574994   1.000000
   12        6.143970   1.000000
   13        7.719766   1.000000
   14        7.719766   1.000000
   15        8.698040   1.000000
   16        8.698040   1.000000
   17        9.550259   1.000000
   18        9.550259   1.000000
   19       11.547357  -0.000000
   20       11.547357  -0.000000
   21       11.977844  -0.000000
   22       11.977844  -0.000000
   23       12.396821  -0.000000
   24       12.396821  -0.000000
   25       13.017929  -0.000000
   26       13.017929  -0.000000
   27       14.570221  -0.000000
   28       14.570221  -0.000000
   29       17.670705   0.000000
   30       19.061632   0.000000
 
  0.2000000E+00  0.2000000E+00  0.0000000E+00  0.9600000E-01
    1      -18.604827   1.000000
    2      -12.890217   1.000000
    3      -12.890217   1.000000
    4       -7.338239   1.000000
    5       -6.206812   1.000000
    6       -4.997202   1.000000
    7       -4.548442   1.000000
    8       -4.548442   1.000000
    9       -2.948102   1.000000
   10        1.580807   1.000000
   11        2.940923   1.000000
   12        3.519092   1.000000
   13        3.745558   1.000000
   14        3.745558   1.000000
   15        4.568019   1.000000
   16        7.883851   1.000000
   17        8.091201   1.000000
   18        9.422474   1.000000
   19        9.422474   1.000000
   20       10.288029   1.008871
   21       11.353801  -0.000011
   22       11.539103  -0.000000
   23       11.539103  -0.000000
   24       12.375640  -0.000000
   25       12.375640  -0.000000
   26       15.043602  -0.000000
   27       15.043602  -0.000000
   28       15.875347  -0.000000
   29       15.875347  -0.000000
   30       17.918586   0.000000
 
  0.4000000E+00  0.2000000E+00  0.0000000E+00  0.1920000E+00
    1      -13.375438   1.000000
    2      -11.822987   1.000000
    3       -7.976497   1.000000
    4       -6.949469   1.000000
    5       -6.192833   1.000000
    6       -2.170850   1.000000
    7       -1.602514   1.000000
    8        0.266841   1.000000
    9        0.642645   1.000000
   10        2.614152   1.000000
   11        4.935555   1.000000
   12        5.355185   1.000000
   13        6.284319   1.000000
   14        6.774572   1.000000
   15        7.112612   1.000000
   16        8.067346   1.000000
   17        8.101910   1.000000
   18        8.807720   1.000000
   19        9.733003   1.000000
   20       10.308325   1.012031
   21       10.449566   1.034746
   22       11.618376  -0.000000
   23       11.810966  -0.000000
   24       11.813523  -0.000000
   25       12.049643  -0.000000
   26       12.083116  -0.000000
   27       15.260554  -0.000000
   28       15.963148  -0.000000
   29       16.448270   0.000000
   30       16.910291   0.000000
 
  0.4000000E+00  0.4000000E+00  0.0000000E+00  0.9600000E-01
    1      -18.734618   1.000000
    2      -12.738273   1.000000
    3      -12.738273   1.000000
    4       -3.337211   1.000000
    5       -3.337211   1.000000
    6       -1.613253   1.000000
    7       -1.383147   1.000000
    8       -0.252524   1.000000
    9        0.206835   1.000000
   10        0.206835   1.000000
   11        1.285705   1.000000
   12        1.437324   1.000000
   13        1.976811   1.000000
   14        1.976811   1.000000
   15        2.546367   1.000000
   16        4.180062   1.000000
   17        5.073277   1.000000
   18        5.552795   1.000000
   19        7.685901   1.000000
   20        7.685901   1.000000
   21       11.062972  -0.010659
   22       11.179205  -0.001219
   23       11.179205  -0.001219
   24       11.464053  -0.000000
   25       13.434267  -0.000000
   26       13.434267  -0.000000
   27       13.440253  -0.000000
   28       13.440253  -0.000000
   29       15.750456  -0.000000
   30       15.774223  -0.000000
 
  0.2000000E+00  0.2000000E+00  0.2000000E+00  0.6400000E-01
    1      -16.971874   1.000000
    2      -16.971874   1.000000
    3      -16.971874   1.000000
    4       -2.487986   1.000000
    5        0.237337   1.000000
    6        0.237337   1.000000
    7        0.237337   1.000000
    8        0.561925   1.000000
    9        0.561925   1.000000
   10        0.561925   1.000000
   11        2.416221   1.000000
   12        2.416221   1.000000
   13        2.416221   1.000000
   14        4.185517   1.000000
   15        4.185517   1.000000
   16        4.185517   1.000000
   17        5.813993   1.000000
   18        9.727338   1.000000
   19        9.727338   1.000000
   20        9.727338   1.000000
   21       10.155407   1.000634
   22       10.155407   1.000634
   23       10.966046  -0.030912
   24       10.966046  -0.030912
   25       10.966046  -0.030912
   26       13.728275  -0.000000
   27       13.728275  -0.000000
   28       13.728275  -0.000000
   29       16.982592   0.000000
   30       16.982592   0.000000
 
  0.4000000E+00  0.2000000E+00  0.2000000E+00  0.1920000E+00
    1      -15.354199   1.000000
    2       -9.096928   1.000000
    3       -8.885481   1.000000
    4       -8.885481   1.000000
    5       -8.182098   1.000000
    6       -2.848307   1.000000
    7       -2.372795   1.000000
    8       -1.152831   1.000000
    9       -0.033283   1.000000
   10        0.788248   1.000000
   11        1.092115   1.000000
   12        4.612142   1.000000
   13        4.612142   1.000000
   14        5.290882   1.000000
   15        5.290882   1.000000
   16        6.727305   1.000000
   17        6.727305   1.000000
   18        7.810551   1.000000
   19        7.810551   1.000000
   20        8.312277   1.000000
   21        8.312277   1.000000
   22        8.408249   1.000000
   23        9.701863   1.000000
   24       11.462816  -0.000000
   25       11.462816  -0.000000
   26       12.529713  -0.000000
   27       14.626573  -0.000000
   28       14.626573  -0.000000
   29       14.819017  -0.000000
   30       15.335318  -0.000000
 
  0.4000000E+00  0.4000000E+00  0.2000000E+00  0.1920000E+00
    1      -12.779154   1.000000
    2      -12.779154   1.000000
    3       -8.854081   1.000000
    4       -7.528184   1.000000
    5       -5.757379   1.000000
    6       -5.708294   1.000000
    7       -5.708294   1.000000
    8       -4.780851   1.000000
    9        0.191065   1.000000
   10        2.277341   1.000000
   11        2.410617   1.000000
   12        2.410617   1.000000
   13        3.102539   1.000000
   14        4.548034   1.000000
   15        5.057296   1.000000
   16        5.057296   1.000000
   17        6.758574   1.000000
   18        7.276422   1.000000
   19        8.896316   1.000000
   20        9.047689   1.000000
   21        9.047689   1.000000
   22        9.402261   1.000000
   23        9.413748   1.000000
   24        9.413748   1.000000
   25       10.713152   0.367916
   26       10.713152   0.367916
   27       11.730567  -0.000000
   28       15.260153  -0.000000
   29       16.115404  -0.000000
   30       18.026293   0.000000
 
  0.4000000E+00  0.4000000E+00  0.4000000E+00  0.6400000E-01
    1       -9.612518   1.000000
    2       -9.612518   1.000000
    3       -8.941110   1.000000
    4       -8.941110   1.000000
    5       -8.941110   1.000000
    6       -3.636958   1.000000
    7       -2.209513   1.000000
    8       -2.209513   1.000000
    9       -2.209513   1.000000
   10       -0.590012   1.000000
   11       -0.590012   1.000000
   12       -0.590012   1.000000
   13       -0.149021   1.000000
   14       -0.149021   1.000000
   15        1.526531   1.000000
   16        2.522101   1.000000
   17        2.522101   1.000000
   18        2.522101   1.000000
   19        3.652125   1.000000
   20        3.652125   1.000000
   21        3.652125   1.000000
   22        6.343951   1.000000
   23        6.343951   1.000000
   24        6.343951   1.000000
   25        8.499732   1.000000
   26       13.459664  -0.000000
   27       13.459664  -0.000000
   28       13.459664  -0.000000
   29       21.193901   0.000000
   30       21.193901   0.000000
