<?xml version="1.0" encoding="ISO-8859-1"?>
<modeling>
 <generator>
  <i name="program" type="string">vasp </i>
  <i name="version" type="string">6.2.0  </i>
  <i name="subversion" type="string">18Jan21 (build Mar 17 2021 09:06:54) complex                          serial </i>
  <i name="platform" type="string">LinuxIFC </i>
  <i name="date" type="string">2021 08 03 </i>
  <i name="time" type="string">10:14:59 </i>
 </generator>
 <incar>
  <i type="string" name="PREC">normal</i>
  <i type="int" name="ICHARG">     1</i>
  <i type="int" name="IBRION">    -1</i>
  <i name="EDIFF">      0.00000100</i>
  <i type="int" name="NSW">     0</i>
  <i name="ENCUT">    110.00000000</i>
  <i type="int" name="NBANDS">    30</i>
  <i type="int" name="ISMEAR">     1</i>
  <i name="SIGMA">      0.20000000</i>
  <i type="logical" name="LCHARG"> T  </i>
  <i type="int" name="KPAR">     1</i>
  <i type="int" name="NCORE">     1</i>
  <i type="string" name="GGA">PE</i>
 </incar>
 <primitive_cell>
  <structure name="primitive_cell" >
   <crystal>
    <varray name="basis" >
     <v>       1.81750000      -1.81750000       0.00000000 </v>
     <v>       1.81750000       0.00000000       1.81750000 </v>
     <v>       0.00000000      -1.81750000       1.81750000 </v>
    </varray>
    <i name="volume">     12.00751822 </i>
    <varray name="rec_basis" >
     <v>       0.27510316      -0.27510316      -0.27510316 </v>
     <v>       0.27510316       0.27510316       0.27510316 </v>
     <v>      -0.27510316      -0.27510316       0.27510316 </v>
    </varray>
   </crystal>
   <varray name="positions" >
    <v>       0.00000000       0.00000000       0.00000000 </v>
   </varray>
  </structure>
  <varray name="primitive_index" >
   <v type="int" >        1 </v>
  </varray>
 </primitive_cell>
 <kpoints>
  <generation param="Monkhorst-Pack">
   <v type="int" name="divisions">       5        5        5 </v>
   <v name="usershift">      0.00000000       0.00000000       0.00000000 </v>
   <v name="genvec1">      0.20000000       0.00000000       0.00000000 </v>
   <v name="genvec2">      0.00000000       0.20000000       0.00000000 </v>
   <v name="genvec3">      0.00000000       0.00000000       0.20000000 </v>
   <v name="shift">      0.00000000       0.00000000       0.00000000 </v>
  </generation>
  <varray name="kpointlist" >
   <v>       0.00000000       0.00000000       0.00000000 </v>
   <v>       0.20000000       0.00000000       0.00000000 </v>
   <v>       0.40000000       0.00000000       0.00000000 </v>
   <v>       0.20000000       0.20000000       0.00000000 </v>
   <v>       0.40000000       0.20000000       0.00000000 </v>
   <v>       0.40000000       0.40000000       0.00000000 </v>
   <v>       0.20000000       0.20000000       0.20000000 </v>
   <v>       0.40000000       0.20000000       0.20000000 </v>
   <v>       0.40000000       0.40000000       0.20000000 </v>
   <v>       0.40000000       0.40000000       0.40000000 </v>
  </varray>
  <varray name="weights" >
   <v>       0.00800000 </v>
   <v>       0.04800000 </v>
   <v>       0.04800000 </v>
   <v>       0.09600000 </v>
   <v>       0.19200000 </v>
   <v>       0.09600000 </v>
   <v>       0.06400000 </v>
   <v>       0.19200000 </v>
   <v>       0.19200000 </v>
   <v>       0.06400000 </v>
  </varray>
 </kpoints>
 <parameters>
  <separator name="general" >
   <i type="string" name="SYSTEM">unknown system</i>
   <i type="logical" name="LCOMPAT"> F  </i>
  </separator>
  <separator name="electronic" >
   <i type="string" name="PREC">normal</i>
   <i name="ENMAX">    110.00000000</i>
   <i name="ENAUG">    586.98000000</i>
   <i name="EDIFF">      0.00000100</i>
   <i type="int" name="IALGO">    38</i>
   <i type="int" name="IWAVPR">     0</i>
   <i type="int" name="NBANDS">    30</i>
   <i type="int" name="NBANDSLOW">    -1</i>
   <i type="int" name="NBANDSHIGH">    -1</i>
   <i name="NELECT">     44.00000000</i>
   <i type="int" name="TURBO">     0</i>
   <i type="int" name="IRESTART">     0</i>
   <i type="int" name="NREBOOT">     0</i>
   <i type="int" name="NMIN">     0</i>
   <i name="EREF">      0.00000000</i>
   <separator name="electronic smearing" >
    <i type="int" name="ISMEAR">     1</i>
    <i name="SIGMA">      0.20000000</i>
    <i name="KSPACING">      0.50000000</i>
    <i type="logical" name="KGAMMA"> T  </i>
    <i type="logical" name="KBLOWUP"> T  </i>
   </separator>
   <separator name="electronic projectors" >
    <i type="logical" name="LREAL"> F  </i>
    <v name="ROPT">      0.00000000</v>
    <i type="int" name="LMAXPAW">  -100</i>
    <i type="int" name="LMAXMIX">     2</i>
    <i type="logical" name="NLSPLINE"> F  </i>
   </separator>
   <separator name="electronic startup" >
    <i type="int" name="ISTART">     1</i>
    <i type="int" name="ICHARG">     1</i>
    <i type="int" name="INIWAV">     1</i>
   </separator>
   <separator name="electronic spin" >
    <i type="int" name="ISPIN">     1</i>
    <i type="logical" name="LNONCOLLINEAR"> F  </i>
    <v name="MAGMOM">      1.00000000      1.00000000      1.00000000      1.00000000</v>
    <i name="NUPDOWN">     -1.00000000</i>
    <i type="logical" name="LSORBIT"> F  </i>
    <v name="SAXIS">      0.00000000      0.00000000      1.00000000</v>
    <i type="logical" name="LSPIRAL"> F  </i>
    <v name="QSPIRAL">      0.00000000      0.00000000      0.00000000</v>
    <i type="logical" name="LZEROZ"> F  </i>
   </separator>
   <separator name="electronic exchange-correlation" >
    <i type="logical" name="LASPH"> F  </i>
    <i type="logical" name="LMETAGGA"> F  </i>
   </separator>
   <separator name="electronic convergence" >
    <i type="int" name="NELM">    60</i>
    <i type="int" name="NELMDL">     0</i>
    <i type="int" name="NELMIN">     2</i>
    <i name="ENINI">    110.00000000</i>
    <separator name="electronic convergence detail" >
     <i type="logical" name="LDIAG"> T  </i>
     <i type="logical" name="LSUBROT"> F  </i>
     <i name="WEIMIN">      0.00000000</i>
     <i name="EBREAK">      0.00000001</i>
     <i name="DEPER">      0.30000000</i>
     <i type="int" name="NRMM">     4</i>
     <i name="TIME">      0.40000000</i>
    </separator>
   </separator>
   <separator name="electronic mixer" >
    <i name="AMIX">      0.40000000</i>
    <i name="BMIX">      1.00000000</i>
    <i name="AMIN">      0.10000000</i>
    <i name="AMIX_MAG">      1.60000000</i>
    <i name="BMIX_MAG">      1.00000000</i>
    <separator name="electronic mixer details" >
     <i type="int" name="IMIX">     4</i>
     <i type="logical" name="MIXFIRST"> F  </i>
     <i type="int" name="MAXMIX">   -45</i>
     <i name="WC">    100.00000000</i>
     <i type="int" name="INIMIX">     1</i>
     <i type="int" name="MIXPRE">     1</i>
     <i type="int" name="MREMOVE">     5</i>
    </separator>
   </separator>
   <separator name="electronic dipolcorrection" >
    <i type="logical" name="LDIPOL"> F  </i>
    <i type="logical" name="LMONO"> F  </i>
    <i type="int" name="IDIPOL">     0</i>
    <i name="EPSILON">      1.00000000</i>
    <v name="DIPOL">   -100.00000000   -100.00000000   -100.00000000</v>
    <i name="EFIELD">      0.00000000</i>
   </separator>
  </separator>
  <separator name="grids" >
   <i type="int" name="NGX">    10</i>
   <i type="int" name="NGY">    10</i>
   <i type="int" name="NGZ">    10</i>
   <i type="int" name="NGXF">    20</i>
   <i type="int" name="NGYF">    20</i>
   <i type="int" name="NGZF">    20</i>
   <i type="logical" name="ADDGRID"> F  </i>
  </separator>
  <separator name="ionic" >
   <i type="int" name="NSW">     0</i>
   <i type="int" name="IBRION">    -1</i>
   <i type="int" name="MDALGO">     0</i>
   <i type="int" name="ISIF">     2</i>
   <i name="PSTRESS">      0.00000000</i>
   <i name="EDIFFG">      0.00001000</i>
   <i type="int" name="NFREE">     0</i>
   <i name="POTIM">      0.50000000</i>
   <i name="SMASS">     -3.00000000</i>
   <i name="SCALEE">      1.00000000</i>
  </separator>
  <separator name="ionic md" >
   <i name="TEBEG">      0.00010000</i>
   <i name="TEEND">      0.00010000</i>
   <i type="int" name="NBLOCK">     1</i>
   <i type="int" name="KBLOCK">     1</i>
   <i type="int" name="NPACO">   256</i>
   <i name="APACO">     16.00000000</i>
  </separator>
  <separator name="symmetry" >
   <i type="int" name="ISYM">     2</i>
   <i name="SYMPREC">      0.00001000</i>
  </separator>
  <separator name="dos" >
   <i type="int" name="LORBIT">     0</i>
   <v name="RWIGS">     -1.00000000</v>
   <i type="int" name="NEDOS">   301</i>
   <i name="EMIN">     10.00000000</i>
   <i name="EMAX">    -10.00000000</i>
   <i name="EFERMI">      0.00000000</i>
  </separator>
  <separator name="writing" >
   <i type="int" name="NWRITE">     2</i>
   <i type="logical" name="LWAVE"> T  </i>
   <i type="logical" name="LDOWNSAMPLE"> F  </i>
   <i type="logical" name="LCHARG"> T  </i>
   <i type="logical" name="LPARD"> F  </i>
   <i type="logical" name="LVTOT"> F  </i>
   <i type="logical" name="LVHAR"> F  </i>
   <i type="logical" name="LELF"> F  </i>
   <i type="logical" name="LOPTICS"> F  </i>
   <v name="STM">      0.00000000      0.00000000      0.00000000      0.00000000      0.00000000      0.00000000      0.00000000</v>
  </separator>
  <separator name="performance" >
   <i type="int" name="NPAR">     1</i>
   <i type="int" name="NSIM">     4</i>
   <i type="int" name="NBLK">    -1</i>
   <i type="logical" name="LPLANE"> T  </i>
   <i type="logical" name="LSCALAPACK"> F  </i>
   <i type="logical" name="LSCAAWARE"> F  </i>
   <i type="logical" name="LSCALU"> F  </i>
   <i type="logical" name="LASYNC"> F  </i>
   <i type="logical" name="LORBITALREAL"> F  </i>
  </separator>
  <separator name="miscellaneous" >
   <i type="int" name="IDIOT">     3</i>
   <i type="int" name="PHON_NSTRUCT">    -1</i>
   <i type="logical" name="LMUSIC"> F  </i>
   <v name="POMASS">     63.54600000</v>
   <v name="DARWINR">      0.00000000</v>
   <v name="DARWINV">      1.00000000</v>
   <i type="logical" name="LCORR"> T  </i>
  </separator>
  <i type="logical" name="GGA_COMPAT"> T  </i>
  <i type="logical" name="LBERRY"> F  </i>
  <i type="int" name="ICORELEVEL">     0</i>
  <i type="logical" name="LDAU"> F  </i>
  <i type="int" name="I_CONSTRAINED_M">     0</i>
  <separator name="electronic exchange-correlation" >
   <i type="string" name="GGA">PE</i>
   <i type="int" name="VOSKOWN">     0</i>
   <i type="logical" name="LHFCALC"> F  </i>
   <i type="string" name="PRECFOCK"></i>
   <i type="logical" name="LSYMGRAD"> F  </i>
   <i type="logical" name="LHFONE"> F  </i>
   <i type="logical" name="LRHFCALC"> F  </i>
   <i type="logical" name="LTHOMAS"> F  </i>
   <i type="logical" name="LMODELHF"> F  </i>
   <i type="logical" name="LFOCKACE"> F  </i>
   <i name="ENCUT4O">     -1.00000000</i>
   <i type="int" name="EXXOEP">     0</i>
   <i type="int" name="FOURORBIT">     0</i>
   <i name="AEXX">      0.00000000</i>
   <i name="HFALPHA">      0.00000000</i>
   <i name="MCALPHA">      0.00000000</i>
   <i name="ALDAX">      1.00000000</i>
   <i name="AGGAX">      1.00000000</i>
   <i name="ALDAC">      1.00000000</i>
   <i name="AGGAC">      1.00000000</i>
   <i type="int" name="NKREDX">     1</i>
   <i type="int" name="NKREDY">     1</i>
   <i type="int" name="NKREDZ">     1</i>
   <i type="logical" name="SHIFTRED"> F  </i>
   <i type="logical" name="ODDONLY"> F  </i>
   <i type="logical" name="EVENONLY"> F  </i>
   <i type="int" name="LMAXFOCK">     0</i>
   <i type="int" name="NMAXFOCKAE">     0</i>
   <i type="logical" name="LFOCKAEDFT"> F  </i>
   <i name="HFSCREEN">      0.00000000</i>
   <i name="HFSCREENC">      0.00000000</i>
   <i type="int" name="NBANDSGWLOW">     0</i>
  </separator>
  <separator name="vdW DFT" >
   <i type="logical" name="LUSE_VDW"> F  </i>
   <i name="Zab_VDW">     -0.84910000</i>
   <i name="PARAM1">      0.12340000</i>
   <i name="PARAM2">      1.00000000</i>
   <i name="PARAM3">      0.00000000</i>
  </separator>
  <separator name="model GW" >
   <i type="int" name="MODEL_GW">     0</i>
   <i name="MODEL_EPS0">      7.20451093</i>
   <i name="MODEL_ALPHA">      1.00000000</i>
  </separator>
  <separator name="linear response parameters" >
   <i type="logical" name="LEPSILON"> F  </i>
   <i type="logical" name="LRPA"> F  </i>
   <i type="logical" name="LNABLA"> F  </i>
   <i type="logical" name="LVEL"> F  </i>
   <i type="int" name="KINTER">     0</i>
   <i name="CSHIFT">      0.10000000</i>
   <i name="OMEGAMAX">     -1.00000000</i>
   <i name="DEG_THRESHOLD">      0.00200000</i>
   <i name="RTIME">     -0.10000000</i>
   <i name="WPLASMAI">      0.00000000</i>
   <v name="DFIELD">      0.00000000      0.00000000      0.00000000</v>
   <v name="WPLASMA">      0.00000000      0.00000000      0.00000000      0.00000000      0.00000000      0.00000000      0.00000000      0.00000000      0.00000000</v>
  </separator>
  <separator name="orbital magnetization" >
   <i type="logical" name="NUCIND"> F  </i>
   <v name="MAGPOS">      0.00000000      0.00000000      0.00000000</v>
   <i type="logical" name="LNICSALL"> T  </i>
   <i type="logical" name="ORBITALMAG"> F  </i>
   <i type="logical" name="LMAGBLOCH"> F  </i>
   <i type="logical" name="LCHIMAG"> F  </i>
   <i type="logical" name="LGAUGE"> T  </i>
   <i type="int" name="MAGATOM">     0</i>
   <v name="MAGDIPOL">      0.00000000      0.00000000      0.00000000</v>
   <v name="AVECCONST">      0.00000000      0.00000000      0.00000000</v>
  </separator>
  <separator name="response functions" >
   <i type="logical" name="LFINITE_TEMPERATURE"> F  </i>
   <i type="logical" name="LADDER"> F  </i>
   <i type="logical" name="LRPAFORCE"> F  </i>
   <i type="logical" name="LFXC"> F  </i>
   <i type="logical" name="LHARTREE"> T  </i>
   <i type="int" name="IBSE">     0</i>
   <v type="int" name="KPOINT">    -1     0     0     0</v>
   <i type="logical" name="LTCTC"> F  </i>
   <i type="logical" name="LTCTE"> F  </i>
   <i type="logical" name="LTETE"> F  </i>
   <i type="logical" name="LTRIPLET"> F  </i>
   <i type="logical" name="LFXCEPS"> F  </i>
   <i type="logical" name="LFXHEG"> F  </i>
   <i type="int" name="NATURALO">     2</i>
   <i type="logical" name="LHOLEGF"> F  </i>
   <i type="logical" name="L2ORDER"> F  </i>
   <i type="logical" name="LDMP1"> F  </i>
   <i type="logical" name="LMP2LT"> F  </i>
   <i type="logical" name="LSMP2LT"> F  </i>
   <i type="logical" name="LGWLF"> F  </i>
   <i name="ENCUTGW">     -2.00000000</i>
   <i name="ENCUTGWSOFT">     -2.00000000</i>
   <i name="ENCUTLF">     -1.00000000</i>
   <i type="logical" name="LESF_SPLINES"> F  </i>
   <i type="int" name="LMAXMP2">    -1</i>
   <i name="SCISSOR">      0.00000000</i>
   <i type="int" name="NOMEGA">     0</i>
   <i type="int" name="NOMEGAR">     0</i>
   <i type="int" name="NBANDSGW">    -1</i>
   <i type="int" name="NBANDSO">    -1</i>
   <i type="int" name="NBANDSV">    -1</i>
   <i type="int" name="NELM">     1</i>
   <i type="int" name="NELMHF">     1</i>
   <i type="int" name="DIM">     3</i>
   <i type="int" name="IESPILON">     4</i>
   <i type="int" name="ANTIRES">     0</i>
   <i name="OMEGAMAX">    -30.00000000</i>
   <i name="OMEGAMIN">    -30.00000000</i>
   <i name="OMEGATL">   -200.00000000</i>
   <i type="int" name="OMEGAGRID">     0</i>
   <i name="CSHIFT">     -0.10000000</i>
   <i type="logical" name="LSELFENERGY"> F  </i>
   <i type="logical" name="LSPECTRAL"> F  </i>
   <i type="logical" name="LSPECTRALGW"> F  </i>
   <i type="logical" name="LSINGLES"> F  </i>
   <i type="logical" name="LFERMIGW"> F  </i>
   <i type="logical" name="ODDONLYGW"> F  </i>
   <i type="logical" name="EVENONLYGW"> F  </i>
   <i type="int" name="NKREDLFX">     1</i>
   <i type="int" name="NKREDLFY">     1</i>
   <i type="int" name="NKREDLFZ">     1</i>
   <i type="int" name="MAXMEM">  2800</i>
   <i type="int" name="TELESCOPE">     0</i>
   <i type="int" name="NTAUPAR">    -1</i>
   <i type="int" name="NOMEGAPAR">    -1</i>
   <i name="DAMP_NEWTON">      0.80000001</i>
   <i name="LAMBDA">      1.00000000</i>
  </separator>
  <separator name="External order field" >
   <i name="OFIELD_KAPPA">      0.00000000</i>
   <v name="OFIELD_K">      0.00000000      0.00000000      0.00000000</v>
   <i name="OFIELD_Q6_NEAR">      0.00000000</i>
   <i name="OFIELD_Q6_FAR">      0.00000000</i>
   <i name="OFIELD_A">      0.00000000</i>
  </separator>
 </parameters>
 <atominfo>
  <atoms>       4 </atoms>
  <types>       1 </types>
  <array name="atoms" >
   <dimension dim="1">ion</dimension>
   <field type="string">element</field>
   <field type="int">atomtype</field>
   <set>
    <rc><c>Cu</c><c>   1</c></rc>
    <rc><c>Cu</c><c>   1</c></rc>
    <rc><c>Cu</c><c>   1</c></rc>
    <rc><c>Cu</c><c>   1</c></rc>
   </set>
  </array>
  <array name="atomtypes" >
   <dimension dim="1">type</dimension>
   <field type="int">atomspertype</field>
   <field type="string">element</field>
   <field>mass</field>
   <field>valence</field>
   <field type="string">pseudopotential</field>
   <set>
    <rc><c>   4</c><c>Cu</c><c>     63.54600000</c><c>     11.00000000</c><c>  PAW_PBE Cu 22Jun2005                  </c></rc>
   </set>
  </array>
 </atominfo>
 <structure name="initialpos" >
  <crystal>
   <varray name="basis" >
    <v>       3.63500000       0.00000000       0.00000000 </v>
    <v>       0.00000000       3.63500000       0.00000000 </v>
    <v>       0.00000000       0.00000000       3.63500000 </v>
   </varray>
   <i name="volume">     48.03007287 </i>
   <varray name="rec_basis" >
    <v>       0.27510316       0.00000000       0.00000000 </v>
    <v>       0.00000000       0.27510316       0.00000000 </v>
    <v>       0.00000000       0.00000000       0.27510316 </v>
   </varray>
  </crystal>
  <varray name="positions" >
   <v>       0.00000000       0.00000000       0.00000000 </v>
   <v>       0.50000000       0.50000000       0.00000000 </v>
   <v>       0.50000000       0.00000000       0.50000000 </v>
   <v>       0.00000000       0.50000000       0.50000000 </v>
  </varray>
 </structure>
 <calculation>
  <scstep>
   <time name="dav">    0.04    0.05</time>
   <time name="total">    0.05    0.06</time>
   <energy>
    <i name="alphaZ">    243.62337785 </i>
    <i name="ewald">  -4395.34838493 </i>
    <i name="hartreedc">   -546.94268465 </i>
    <i name="XCdc">    136.20311989 </i>
    <i name="pawpsdc">  15207.33490769 </i>
    <i name="pawaedc"> -15376.29113951 </i>
    <i name="eentropy">     -0.00673144 </i>
    <i name="bandstr">     43.28139498 </i>
    <i name="atom">   5450.23485294 </i>
    <i name="e_fr_energy">    762.08871282 </i>
    <i name="e_wo_entrp">    762.09544427 </i>
    <i name="e_0_energy">    762.09095664 </i>
   </energy>
  </scstep>
  <scstep>
   <time name="dav">    0.04    0.04</time>
   <time name="total">    0.05    0.05</time>
   <energy>
    <i name="e_fr_energy">    762.09645031 </i>
    <i name="e_wo_entrp">    762.10340232 </i>
    <i name="e_0_energy">    762.09876765 </i>
   </energy>
  </scstep>
  <scstep>
   <time name="dav">    0.03    0.03</time>
   <time name="total">    0.03    0.03</time>
   <energy>
    <i name="alphaZ">    243.62337785 </i>
    <i name="ewald">  -4395.34838493 </i>
    <i name="hartreedc">   -546.94230695 </i>
    <i name="XCdc">    136.20309878 </i>
    <i name="pawpsdc">  15207.35314311 </i>
    <i name="pawaedc"> -15376.31524564 </i>
    <i name="eentropy">     -0.00695124 </i>
    <i name="bandstr">     43.29486633 </i>
    <i name="atom">   5450.23485294 </i>
    <i name="e_fr_energy">    762.09645024 </i>
    <i name="e_wo_entrp">    762.10340147 </i>
    <i name="e_0_energy">    762.09876732 </i>
   </energy>
  </scstep>
  <structure>
   <crystal>
    <varray name="basis" >
     <v>       3.63500000       0.00000000       0.00000000 </v>
     <v>       0.00000000       3.63500000       0.00000000 </v>
     <v>       0.00000000       0.00000000       3.63500000 </v>
    </varray>
    <i name="volume">     48.03007287 </i>
    <varray name="rec_basis" >
     <v>       0.27510316       0.00000000       0.00000000 </v>
     <v>       0.00000000       0.27510316       0.00000000 </v>
     <v>       0.00000000       0.00000000       0.27510316 </v>
    </varray>
   </crystal>
   <varray name="positions" >
    <v>       0.00000000       0.00000000       0.00000000 </v>
    <v>       0.50000000       0.50000000       0.00000000 </v>
    <v>       0.50000000       0.00000000       0.50000000 </v>
    <v>       0.00000000       0.50000000       0.50000000 </v>
   </varray>
  </structure>
  <varray name="forces" >
   <v>       0.00000000       0.00000000       0.00000000 </v>
   <v>      -0.00000000       0.00000000      -0.00000000 </v>
   <v>       0.00000000       0.00000000       0.00000000 </v>
   <v>      -0.00000000      -0.00000000      -0.00000000 </v>
  </varray>
  <varray name="stress" >
   <v>  -93105.44724388      -0.00000000      -0.00000000 </v>
   <v>      -0.00000000  -93105.44724388      -0.00000000 </v>
   <v>       0.00000000       0.00000000  -93105.44724388 </v>
  </varray>
  <energy>
   <i name="e_fr_energy">    762.09645024 </i>
   <i name="e_wo_entrp">    762.10340147 </i>
   <i name="e_0_energy">    762.09876732 </i>
  </energy>
  <time name="totalsc">    0.18    0.18</time>
  <eigenvalues>
   <array>
    <dimension dim="1">band</dimension>
    <dimension dim="2">kpoint</dimension>
    <dimension dim="3">spin</dimension>
    <field>eigene</field>
    <field>occ</field>
    <set>
     <set comment="spin 1">
      <set comment="kpoint 1">
       <r>  -15.1744    1.0000 </r>
       <r>  -15.1744    1.0000 </r>
       <r>  -15.1744    1.0000 </r>
       <r>   -7.5649    1.0000 </r>
       <r>   -7.5649    1.0000 </r>
       <r>   -7.5649    1.0000 </r>
       <r>   -3.8355    1.0000 </r>
       <r>    3.1029    1.0000 </r>
       <r>    3.1029    1.0000 </r>
       <r>    3.1029    1.0000 </r>
       <r>    3.1029    1.0000 </r>
       <r>    3.1029    1.0000 </r>
       <r>    3.1029    1.0000 </r>
       <r>    7.0533    1.0000 </r>
       <r>    7.0533    1.0000 </r>
       <r>    7.0533    1.0000 </r>
       <r>    7.6672    1.0000 </r>
       <r>    7.6672    1.0000 </r>
       <r>    7.6672    1.0000 </r>
       <r>    7.7716    1.0000 </r>
       <r>    7.7716    1.0000 </r>
       <r>    7.7716    1.0000 </r>
       <r>   17.0311    0.0000 </r>
       <r>   17.0311    0.0000 </r>
       <r>   17.0311    0.0000 </r>
       <r>   17.0311    0.0000 </r>
       <r>   17.0311    0.0000 </r>
       <r>   17.0311    0.0000 </r>
       <r>   21.7669    0.0000 </r>
       <r>   21.7669    0.0000 </r>
      </set>
      <set comment="kpoint 2">
       <r>  -15.0873    1.0000 </r>
       <r>  -12.6641    1.0000 </r>
       <r>  -12.6641    1.0000 </r>
       <r>   -5.5418    1.0000 </r>
       <r>   -5.5418    1.0000 </r>
       <r>   -3.3904    1.0000 </r>
       <r>   -1.2255    1.0000 </r>
       <r>   -1.2255    1.0000 </r>
       <r>    1.7005    1.0000 </r>
       <r>    1.7005    1.0000 </r>
       <r>    3.3022    1.0000 </r>
       <r>    5.5745    1.0000 </r>
       <r>    6.8143    1.0000 </r>
       <r>    6.8143    1.0000 </r>
       <r>    7.5134    1.0000 </r>
       <r>    7.5134    1.0000 </r>
       <r>    7.6582    1.0000 </r>
       <r>    7.9650    1.0000 </r>
       <r>    7.9650    1.0000 </r>
       <r>   11.9565   -0.0000 </r>
       <r>   11.9565   -0.0000 </r>
       <r>   12.1850   -0.0000 </r>
       <r>   12.1850   -0.0000 </r>
       <r>   12.2063   -0.0000 </r>
       <r>   14.6996   -0.0000 </r>
       <r>   14.6996   -0.0000 </r>
       <r>   15.2116   -0.0000 </r>
       <r>   15.2116   -0.0000 </r>
       <r>   17.5311    0.0000 </r>
       <r>   17.5311    0.0000 </r>
      </set>
      <set comment="kpoint 3">
       <r>  -11.9935    1.0000 </r>
       <r>  -11.9935    1.0000 </r>
       <r>   -2.0454    1.0000 </r>
       <r>   -0.1134    1.0000 </r>
       <r>    0.0093    1.0000 </r>
       <r>    0.0093    1.0000 </r>
       <r>    0.1967    1.0000 </r>
       <r>    1.5076    1.0000 </r>
       <r>    1.5076    1.0000 </r>
       <r>    5.2645    1.0000 </r>
       <r>    5.5750    1.0000 </r>
       <r>    6.1440    1.0000 </r>
       <r>    7.7198    1.0000 </r>
       <r>    7.7198    1.0000 </r>
       <r>    8.6980    1.0000 </r>
       <r>    8.6980    1.0000 </r>
       <r>    9.5503    1.0000 </r>
       <r>    9.5503    1.0000 </r>
       <r>   11.5474   -0.0000 </r>
       <r>   11.5474   -0.0000 </r>
       <r>   11.9778   -0.0000 </r>
       <r>   11.9778   -0.0000 </r>
       <r>   12.3968   -0.0000 </r>
       <r>   12.3968   -0.0000 </r>
       <r>   13.0179   -0.0000 </r>
       <r>   13.0179   -0.0000 </r>
       <r>   14.5702   -0.0000 </r>
       <r>   14.5702   -0.0000 </r>
       <r>   17.6707    0.0000 </r>
       <r>   19.0616    0.0000 </r>
      </set>
      <set comment="kpoint 4">
       <r>  -18.6048    1.0000 </r>
       <r>  -12.8902    1.0000 </r>
       <r>  -12.8902    1.0000 </r>
       <r>   -7.3382    1.0000 </r>
       <r>   -6.2068    1.0000 </r>
       <r>   -4.9972    1.0000 </r>
       <r>   -4.5484    1.0000 </r>
       <r>   -4.5484    1.0000 </r>
       <r>   -2.9481    1.0000 </r>
       <r>    1.5808    1.0000 </r>
       <r>    2.9409    1.0000 </r>
       <r>    3.5191    1.0000 </r>
       <r>    3.7456    1.0000 </r>
       <r>    3.7456    1.0000 </r>
       <r>    4.5680    1.0000 </r>
       <r>    7.8839    1.0000 </r>
       <r>    8.0912    1.0000 </r>
       <r>    9.4225    1.0000 </r>
       <r>    9.4225    1.0000 </r>
       <r>   10.2880    1.0089 </r>
       <r>   11.3538   -0.0000 </r>
       <r>   11.5391   -0.0000 </r>
       <r>   11.5391   -0.0000 </r>
       <r>   12.3756   -0.0000 </r>
       <r>   12.3756   -0.0000 </r>
       <r>   15.0436   -0.0000 </r>
       <r>   15.0436   -0.0000 </r>
       <r>   15.8753   -0.0000 </r>
       <r>   15.8753   -0.0000 </r>
       <r>   17.9186    0.0000 </r>
      </set>
      <set comment="kpoint 5">
       <r>  -13.3754    1.0000 </r>
       <r>  -11.8230    1.0000 </r>
       <r>   -7.9765    1.0000 </r>
       <r>   -6.9495    1.0000 </r>
       <r>   -6.1928    1.0000 </r>
       <r>   -2.1708    1.0000 </r>
       <r>   -1.6025    1.0000 </r>
       <r>    0.2668    1.0000 </r>
       <r>    0.6426    1.0000 </r>
       <r>    2.6142    1.0000 </r>
       <r>    4.9356    1.0000 </r>
       <r>    5.3552    1.0000 </r>
       <r>    6.2843    1.0000 </r>
       <r>    6.7746    1.0000 </r>
       <r>    7.1126    1.0000 </r>
       <r>    8.0673    1.0000 </r>
       <r>    8.1019    1.0000 </r>
       <r>    8.8077    1.0000 </r>
       <r>    9.7330    1.0000 </r>
       <r>   10.3083    1.0120 </r>
       <r>   10.4496    1.0347 </r>
       <r>   11.6184   -0.0000 </r>
       <r>   11.8110   -0.0000 </r>
       <r>   11.8135   -0.0000 </r>
       <r>   12.0496   -0.0000 </r>
       <r>   12.0831   -0.0000 </r>
       <r>   15.2606   -0.0000 </r>
       <r>   15.9631   -0.0000 </r>
       <r>   16.4483    0.0000 </r>
       <r>   16.9103    0.0000 </r>
      </set>
      <set comment="kpoint 6">
       <r>  -18.7346    1.0000 </r>
       <r>  -12.7383    1.0000 </r>
       <r>  -12.7383    1.0000 </r>
       <r>   -3.3372    1.0000 </r>
       <r>   -3.3372    1.0000 </r>
       <r>   -1.6133    1.0000 </r>
       <r>   -1.3831    1.0000 </r>
       <r>   -0.2525    1.0000 </r>
       <r>    0.2068    1.0000 </r>
       <r>    0.2068    1.0000 </r>
       <r>    1.2857    1.0000 </r>
       <r>    1.4373    1.0000 </r>
       <r>    1.9768    1.0000 </r>
       <r>    1.9768    1.0000 </r>
       <r>    2.5464    1.0000 </r>
       <r>    4.1801    1.0000 </r>
       <r>    5.0733    1.0000 </r>
       <r>    5.5528    1.0000 </r>
       <r>    7.6859    1.0000 </r>
       <r>    7.6859    1.0000 </r>
       <r>   11.0630   -0.0107 </r>
       <r>   11.1792   -0.0012 </r>
       <r>   11.1792   -0.0012 </r>
       <r>   11.4641   -0.0000 </r>
       <r>   13.4343   -0.0000 </r>
       <r>   13.4343   -0.0000 </r>
       <r>   13.4403   -0.0000 </r>
       <r>   13.4403   -0.0000 </r>
       <r>   15.7505   -0.0000 </r>
       <r>   15.7742   -0.0000 </r>
      </set>
      <set comment="kpoint 7">
       <r>  -16.9719    1.0000 </r>
       <r>  -16.9719    1.0000 </r>
       <r>  -16.9719    1.0000 </r>
       <r>   -2.4880    1.0000 </r>
       <r>    0.2373    1.0000 </r>
       <r>    0.2373    1.0000 </r>
       <r>    0.2373    1.0000 </r>
       <r>    0.5619    1.0000 </r>
       <r>    0.5619    1.0000 </r>
       <r>    0.5619    1.0000 </r>
       <r>    2.4162    1.0000 </r>
       <r>    2.4162    1.0000 </r>
       <r>    2.4162    1.0000 </r>
       <r>    4.1855    1.0000 </r>
       <r>    4.1855    1.0000 </r>
       <r>    4.1855    1.0000 </r>
       <r>    5.8140    1.0000 </r>
       <r>    9.7273    1.0000 </r>
       <r>    9.7273    1.0000 </r>
       <r>    9.7273    1.0000 </r>
       <r>   10.1554    1.0006 </r>
       <r>   10.1554    1.0006 </r>
       <r>   10.9660   -0.0309 </r>
       <r>   10.9660   -0.0309 </r>
       <r>   10.9660   -0.0309 </r>
       <r>   13.7283   -0.0000 </r>
       <r>   13.7283   -0.0000 </r>
       <r>   13.7283   -0.0000 </r>
       <r>   16.9826    0.0000 </r>
       <r>   16.9826    0.0000 </r>
      </set>
      <set comment="kpoint 8">
       <r>  -15.3542    1.0000 </r>
       <r>   -9.0969    1.0000 </r>
       <r>   -8.8855    1.0000 </r>
       <r>   -8.8855    1.0000 </r>
       <r>   -8.1821    1.0000 </r>
       <r>   -2.8483    1.0000 </r>
       <r>   -2.3728    1.0000 </r>
       <r>   -1.1528    1.0000 </r>
       <r>   -0.0333    1.0000 </r>
       <r>    0.7882    1.0000 </r>
       <r>    1.0921    1.0000 </r>
       <r>    4.6121    1.0000 </r>
       <r>    4.6121    1.0000 </r>
       <r>    5.2909    1.0000 </r>
       <r>    5.2909    1.0000 </r>
       <r>    6.7273    1.0000 </r>
       <r>    6.7273    1.0000 </r>
       <r>    7.8106    1.0000 </r>
       <r>    7.8106    1.0000 </r>
       <r>    8.3123    1.0000 </r>
       <r>    8.3123    1.0000 </r>
       <r>    8.4082    1.0000 </r>
       <r>    9.7019    1.0000 </r>
       <r>   11.4628   -0.0000 </r>
       <r>   11.4628   -0.0000 </r>
       <r>   12.5297   -0.0000 </r>
       <r>   14.6266   -0.0000 </r>
       <r>   14.6266   -0.0000 </r>
       <r>   14.8190   -0.0000 </r>
       <r>   15.3353   -0.0000 </r>
      </set>
      <set comment="kpoint 9">
       <r>  -12.7792    1.0000 </r>
       <r>  -12.7792    1.0000 </r>
       <r>   -8.8541    1.0000 </r>
       <r>   -7.5282    1.0000 </r>
       <r>   -5.7574    1.0000 </r>
       <r>   -5.7083    1.0000 </r>
       <r>   -5.7083    1.0000 </r>
       <r>   -4.7809    1.0000 </r>
       <r>    0.1911    1.0000 </r>
       <r>    2.2773    1.0000 </r>
       <r>    2.4106    1.0000 </r>
       <r>    2.4106    1.0000 </r>
       <r>    3.1025    1.0000 </r>
       <r>    4.5480    1.0000 </r>
       <r>    5.0573    1.0000 </r>
       <r>    5.0573    1.0000 </r>
       <r>    6.7586    1.0000 </r>
       <r>    7.2764    1.0000 </r>
       <r>    8.8963    1.0000 </r>
       <r>    9.0477    1.0000 </r>
       <r>    9.0477    1.0000 </r>
       <r>    9.4023    1.0000 </r>
       <r>    9.4137    1.0000 </r>
       <r>    9.4137    1.0000 </r>
       <r>   10.7132    0.3679 </r>
       <r>   10.7132    0.3679 </r>
       <r>   11.7306   -0.0000 </r>
       <r>   15.2602   -0.0000 </r>
       <r>   16.1154   -0.0000 </r>
       <r>   18.0263    0.0000 </r>
      </set>
      <set comment="kpoint 10">
       <r>   -9.6125    1.0000 </r>
       <r>   -9.6125    1.0000 </r>
       <r>   -8.9411    1.0000 </r>
       <r>   -8.9411    1.0000 </r>
       <r>   -8.9411    1.0000 </r>
       <r>   -3.6370    1.0000 </r>
       <r>   -2.2095    1.0000 </r>
       <r>   -2.2095    1.0000 </r>
       <r>   -2.2095    1.0000 </r>
       <r>   -0.5900    1.0000 </r>
       <r>   -0.5900    1.0000 </r>
       <r>   -0.5900    1.0000 </r>
       <r>   -0.1490    1.0000 </r>
       <r>   -0.1490    1.0000 </r>
       <r>    1.5265    1.0000 </r>
       <r>    2.5221    1.0000 </r>
       <r>    2.5221    1.0000 </r>
       <r>    2.5221    1.0000 </r>
       <r>    3.6521    1.0000 </r>
       <r>    3.6521    1.0000 </r>
       <r>    3.6521    1.0000 </r>
       <r>    6.3440    1.0000 </r>
       <r>    6.3440    1.0000 </r>
       <r>    6.3440    1.0000 </r>
       <r>    8.4997    1.0000 </r>
       <r>   13.4597   -0.0000 </r>
       <r>   13.4597   -0.0000 </r>
       <r>   13.4597   -0.0000 </r>
       <r>   21.1939    0.0000 </r>
       <r>   21.1939    0.0000 </r>
      </set>
     </set>
    </set>
   </array>
  </eigenvalues>
  <separator name="orbital magnetization" >
   <v name="MAGDIPOLOUT">      0.00000000      0.00000000      0.00000000</v>
  </separator>
  <dos>
   <i name="efermi">     10.68150165 </i>
   <total>
    <array>
     <dimension dim="1">gridpoints</dimension>
     <dimension dim="2">spin</dimension>
     <field>energy</field>
     <field>total</field>
     <field>integrated</field>
     <set>
      <set comment="spin 1">
       <r>   -20.7597     0.0000     0.0000 </r>
       <r>   -20.6112     0.0000     0.0000 </r>
       <r>   -20.4627    -0.0000    -0.0000 </r>
       <r>   -20.3142    -0.0000    -0.0000 </r>
       <r>   -20.1657    -0.0000    -0.0000 </r>
       <r>   -20.0172    -0.0000    -0.0000 </r>
       <r>   -19.8687    -0.0000    -0.0000 </r>
       <r>   -19.7202    -0.0000    -0.0000 </r>
       <r>   -19.5716    -0.0000    -0.0000 </r>
       <r>   -19.4231    -0.0000    -0.0000 </r>
       <r>   -19.2746    -0.0006    -0.0001 </r>
       <r>   -19.1261    -0.0121    -0.0019 </r>
       <r>   -18.9776    -0.0487    -0.0091 </r>
       <r>   -18.8291     0.2060     0.0215 </r>
       <r>   -18.6806     1.0487     0.1772 </r>
       <r>   -18.5321     1.1503     0.3480 </r>
       <r>   -18.3836     0.3057     0.3934 </r>
       <r>   -18.2351    -0.0457     0.3867 </r>
       <r>   -18.0866    -0.0168     0.3842 </r>
       <r>   -17.9381    -0.0010     0.3840 </r>
       <r>   -17.7896    -0.0000     0.3840 </r>
       <r>   -17.6411    -0.0000     0.3840 </r>
       <r>   -17.4926    -0.0018     0.3837 </r>
       <r>   -17.3441    -0.0297     0.3793 </r>
       <r>   -17.1956    -0.0550     0.3712 </r>
       <r>   -17.0471     0.6177     0.4629 </r>
       <r>   -16.8985     1.5073     0.6867 </r>
       <r>   -16.7500     0.6327     0.7807 </r>
       <r>   -16.6015    -0.0531     0.7728 </r>
       <r>   -16.4530    -0.0304     0.7683 </r>
       <r>   -16.3045    -0.0019     0.7680 </r>
       <r>   -16.1560    -0.0000     0.7680 </r>
       <r>   -16.0075    -0.0001     0.7680 </r>
       <r>   -15.8590    -0.0026     0.7676 </r>
       <r>   -15.7105    -0.0367     0.7622 </r>
       <r>   -15.5620    -0.0393     0.7563 </r>
       <r>   -15.4135     0.7279     0.8644 </r>
       <r>   -15.2650     1.5650     1.0968 </r>
       <r>   -15.1165     0.9443     1.2371 </r>
       <r>   -14.9680     0.3790     1.2933 </r>
       <r>   -14.8195     0.0460     1.3002 </r>
       <r>   -14.6710    -0.0238     1.2966 </r>
       <r>   -14.5225    -0.0041     1.2960 </r>
       <r>   -14.3740    -0.0002     1.2960 </r>
       <r>   -14.2254    -0.0000     1.2960 </r>
       <r>   -14.0769    -0.0000     1.2960 </r>
       <r>   -13.9284    -0.0008     1.2959 </r>
       <r>   -13.7799    -0.0184     1.2931 </r>
       <r>   -13.6314    -0.0714     1.2826 </r>
       <r>   -13.4829     0.3748     1.3382 </r>
       <r>   -13.3344     1.4358     1.5514 </r>
       <r>   -13.1859     0.7936     1.6693 </r>
       <r>   -13.0374    -0.0735     1.6584 </r>
       <r>   -12.8889     2.0123     1.9572 </r>
       <r>   -12.7404     5.6039     2.7894 </r>
       <r>   -12.5919     3.9720     3.3793 </r>
       <r>   -12.4434     0.4156     3.4410 </r>
       <r>   -12.2949    -0.2282     3.4071 </r>
       <r>   -12.1464    -0.0247     3.4034 </r>
       <r>   -11.9979     0.6360     3.4979 </r>
       <r>   -11.8494     1.6519     3.7432 </r>
       <r>   -11.7009     1.4647     3.9607 </r>
       <r>   -11.5523     0.2480     3.9975 </r>
       <r>   -11.4038    -0.0761     3.9862 </r>
       <r>   -11.2553    -0.0146     3.9841 </r>
       <r>   -11.1068    -0.0006     3.9840 </r>
       <r>   -10.9583    -0.0000     3.9840 </r>
       <r>   -10.8098    -0.0000     3.9840 </r>
       <r>   -10.6613    -0.0000     3.9840 </r>
       <r>   -10.5128    -0.0000     3.9840 </r>
       <r>   -10.3643    -0.0000     3.9840 </r>
       <r>   -10.2158    -0.0001     3.9840 </r>
       <r>   -10.0673    -0.0050     3.9832 </r>
       <r>    -9.9188    -0.0401     3.9773 </r>
       <r>    -9.7703     0.0674     3.9873 </r>
       <r>    -9.6218     0.7706     4.1017 </r>
       <r>    -9.4733     0.8277     4.2246 </r>
       <r>    -9.3248     0.0140     4.2267 </r>
       <r>    -9.1763     0.2904     4.2698 </r>
       <r>    -9.0278     2.4106     4.6278 </r>
       <r>    -8.8792     5.7343     5.4794 </r>
       <r>    -8.7307     4.4175     6.1354 </r>
       <r>    -8.5822     0.4096     6.1963 </r>
       <r>    -8.4337    -0.3091     6.1504 </r>
       <r>    -8.2852     0.3137     6.1969 </r>
       <r>    -8.1367     1.5515     6.4273 </r>
       <r>    -7.9882     1.9977     6.7240 </r>
       <r>    -7.8397     1.2249     6.9059 </r>
       <r>    -7.6912     0.2489     6.9429 </r>
       <r>    -7.5427     1.2022     7.1214 </r>
       <r>    -7.3942     1.8196     7.3916 </r>
       <r>    -7.2457     0.8994     7.5252 </r>
       <r>    -7.0972     0.3099     7.5712 </r>
       <r>    -6.9487     1.1848     7.7472 </r>
       <r>    -6.8002     1.2074     7.9265 </r>
       <r>    -6.6517     0.1251     7.9450 </r>
       <r>    -6.5032    -0.1540     7.9222 </r>
       <r>    -6.3547     0.1480     7.9441 </r>
       <r>    -6.2061     1.7278     8.2007 </r>
       <r>    -6.0576     1.7793     8.4650 </r>
       <r>    -5.9091     0.3394     8.5154 </r>
       <r>    -5.7606     2.6921     8.9152 </r>
       <r>    -5.6121     4.5217     9.5867 </r>
       <r>    -5.4636     1.8161     9.8564 </r>
       <r>    -5.3151     0.0656     9.8661 </r>
       <r>    -5.1666    -0.0779     9.8545 </r>
       <r>    -5.0181     0.4467     9.9209 </r>
       <r>    -4.8696     1.1346    10.0894 </r>
       <r>    -4.7211     1.6672    10.3370 </r>
       <r>    -4.5726     1.7523    10.5972 </r>
       <r>    -4.4241     1.3304    10.7948 </r>
       <r>    -4.2756     0.2305    10.8290 </r>
       <r>    -4.1271    -0.0775    10.8175 </r>
       <r>    -3.9786    -0.0216    10.8143 </r>
       <r>    -3.8301     0.0436    10.8208 </r>
       <r>    -3.6815     0.2818    10.8626 </r>
       <r>    -3.5330     0.5196    10.9398 </r>
       <r>    -3.3845     1.2901    11.1314 </r>
       <r>    -3.2360     1.6820    11.3812 </r>
       <r>    -3.0875     0.4673    11.4505 </r>
       <r>    -2.9390     1.0496    11.6064 </r>
       <r>    -2.7905     2.0140    11.9055 </r>
       <r>    -2.6420     0.7620    12.0187 </r>
       <r>    -2.4935     0.4990    12.0928 </r>
       <r>    -2.3450     2.0028    12.3902 </r>
       <r>    -2.1965     3.4380    12.9008 </r>
       <r>    -2.0480     2.8115    13.3183 </r>
       <r>    -1.8995     0.5200    13.3955 </r>
       <r>    -1.7510     0.1243    13.4140 </r>
       <r>    -1.6025     1.7888    13.6796 </r>
       <r>    -1.4540     2.0301    13.9811 </r>
       <r>    -1.3055     1.3536    14.1821 </r>
       <r>    -1.1570     2.1534    14.5019 </r>
       <r>    -1.0084     1.5336    14.7296 </r>
       <r>    -0.8599     0.0501    14.7371 </r>
       <r>    -0.7114     0.1985    14.7665 </r>
       <r>    -0.5629     1.3333    14.9645 </r>
       <r>    -0.4144     0.9641    15.1077 </r>
       <r>    -0.2659     0.7254    15.2155 </r>
       <r>    -0.1174     2.3289    15.5613 </r>
       <r>     0.0311     3.2969    16.0509 </r>
       <r>     0.1796     4.9451    16.7853 </r>
       <r>     0.3281     5.8166    17.6491 </r>
       <r>     0.4766     2.2496    17.9832 </r>
       <r>     0.6251     2.4036    18.3401 </r>
       <r>     0.7736     3.0269    18.7896 </r>
       <r>     0.9221     1.5418    19.0186 </r>
       <r>     1.0706     1.1254    19.1857 </r>
       <r>     1.2191     1.5221    19.4117 </r>
       <r>     1.3676     1.4007    19.6198 </r>
       <r>     1.5161     2.3405    19.9673 </r>
       <r>     1.6647     2.4303    20.3282 </r>
       <r>     1.8132     1.1320    20.4963 </r>
       <r>     1.9617     1.1042    20.6603 </r>
       <r>     2.1102     1.1217    20.8269 </r>
       <r>     2.2587     1.5039    21.0502 </r>
       <r>     2.4072     5.2202    21.8255 </r>
       <r>     2.5557     6.8105    22.8369 </r>
       <r>     2.7042     3.4076    23.3429 </r>
       <r>     2.8527     0.5280    23.4213 </r>
       <r>     3.0012     1.0785    23.5815 </r>
       <r>     3.1497     2.1827    23.9056 </r>
       <r>     3.2982     1.2720    24.0945 </r>
       <r>     3.4467     0.5046    24.1695 </r>
       <r>     3.5952     1.6406    24.4131 </r>
       <r>     3.7437     2.9725    24.8545 </r>
       <r>     3.8922     1.5976    25.0918 </r>
       <r>     4.0407     0.3142    25.1384 </r>
       <r>     4.1892     1.7290    25.3952 </r>
       <r>     4.3378     1.5572    25.6264 </r>
       <r>     4.4863     1.6927    25.8778 </r>
       <r>     4.6348     4.7931    26.5896 </r>
       <r>     4.7833     2.9099    27.0218 </r>
       <r>     4.9318     1.7283    27.2784 </r>
       <r>     5.0803     4.3211    27.9201 </r>
       <r>     5.2288     4.7322    28.6229 </r>
       <r>     5.3773     4.8158    29.3381 </r>
       <r>     5.5258     2.9591    29.7775 </r>
       <r>     5.6743     1.3817    29.9827 </r>
       <r>     5.8228     0.6544    30.0799 </r>
       <r>     5.9713     0.2332    30.1145 </r>
       <r>     6.1198     0.2964    30.1585 </r>
       <r>     6.2683     2.0230    30.4589 </r>
       <r>     6.4168     2.6937    30.8589 </r>
       <r>     6.5653     0.9272    30.9966 </r>
       <r>     6.7138     3.9221    31.5791 </r>
       <r>     6.8623     6.1879    32.4980 </r>
       <r>     7.0109     2.2066    32.8257 </r>
       <r>     7.1594     1.6575    33.0719 </r>
       <r>     7.3079     2.1508    33.3913 </r>
       <r>     7.4564     1.1443    33.5612 </r>
       <r>     7.6049     1.6314    33.8035 </r>
       <r>     7.7534     4.6082    34.4878 </r>
       <r>     7.9019     5.4995    35.3045 </r>
       <r>     8.0504     4.4180    35.9606 </r>
       <r>     8.1989     4.2409    36.5904 </r>
       <r>     8.3474     4.3471    37.2360 </r>
       <r>     8.4959     3.5170    37.7583 </r>
       <r>     8.6444     1.2926    37.9502 </r>
       <r>     8.7929     2.0092    38.2486 </r>
       <r>     8.9414     3.7034    38.7986 </r>
       <r>     9.0899     3.7338    39.3531 </r>
       <r>     9.2384     1.8240    39.6240 </r>
       <r>     9.3869     3.9414    40.2093 </r>
       <r>     9.5354     6.0336    41.1053 </r>
       <r>     9.6840     4.5820    41.7858 </r>
       <r>     9.8325     4.0464    42.3867 </r>
       <r>     9.9810     0.9041    42.5209 </r>
       <r>    10.1295     0.4896    42.5936 </r>
       <r>    10.2780     2.4658    42.9598 </r>
       <r>    10.4265     3.1467    43.4271 </r>
       <r>    10.5750     2.0770    43.7356 </r>
       <r>    10.7235     2.6363    44.1271 </r>
       <r>    10.8720     2.6155    44.5155 </r>
       <r>    11.0205     2.1572    44.8359 </r>
       <r>    11.1690     2.3373    45.1830 </r>
       <r>    11.3175     2.1332    45.4998 </r>
       <r>    11.4660     4.8291    46.2169 </r>
       <r>    11.6145     6.7894    47.2252 </r>
       <r>    11.7630     5.4038    48.0277 </r>
       <r>    11.9115     4.7967    48.7400 </r>
       <r>    12.0600     4.6670    49.4331 </r>
       <r>    12.2085     3.8067    49.9984 </r>
       <r>    12.3571     2.6619    50.3937 </r>
       <r>    12.5056     3.0069    50.8402 </r>
       <r>    12.6541     1.7102    51.0942 </r>
       <r>    12.8026     0.1331    51.1140 </r>
       <r>    12.9511     0.2399    51.1496 </r>
       <r>    13.0996     0.6120    51.2405 </r>
       <r>    13.2481     0.2403    51.2762 </r>
       <r>    13.3966     2.4507    51.6401 </r>
       <r>    13.5451     4.3935    52.2926 </r>
       <r>    13.6936     2.2375    52.6249 </r>
       <r>    13.8421     1.2163    52.8055 </r>
       <r>    13.9906     0.2702    52.8456 </r>
       <r>    14.1391    -0.0888    52.8324 </r>
       <r>    14.2876    -0.1498    52.8102 </r>
       <r>    14.4361     0.0405    52.8162 </r>
       <r>    14.5846     2.5423    53.1938 </r>
       <r>    14.7331     4.6376    53.8825 </r>
       <r>    14.8817     2.7840    54.2959 </r>
       <r>    15.0302     1.5147    54.5209 </r>
       <r>    15.1787     2.9294    54.9559 </r>
       <r>    15.3272     5.0387    55.7042 </r>
       <r>    15.4757     2.6514    56.0979 </r>
       <r>    15.6242     0.1175    56.1154 </r>
       <r>    15.7727     1.5109    56.3398 </r>
       <r>    15.9212     3.4780    56.8563 </r>
       <r>    16.0697     3.2491    57.3388 </r>
       <r>    16.2182     1.7138    57.5933 </r>
       <r>    16.3667     0.8516    57.7198 </r>
       <r>    16.5152     1.3857    57.9255 </r>
       <r>    16.6637     0.5510    58.0074 </r>
       <r>    16.8122     0.4187    58.0695 </r>
       <r>    16.9607     2.3141    58.4132 </r>
       <r>    17.1092     2.0981    58.7248 </r>
       <r>    17.2577     0.2587    58.7632 </r>
       <r>    17.4062     0.0110    58.7648 </r>
       <r>    17.5548     0.7236    58.8723 </r>
       <r>    17.7033     0.8007    58.9912 </r>
       <r>    17.8518     0.6523    59.0881 </r>
       <r>    18.0003     1.7582    59.3492 </r>
       <r>    18.1488     1.6501    59.5942 </r>
       <r>    18.2973     0.2472    59.6309 </r>
       <r>    18.4458    -0.0848    59.6183 </r>
       <r>    18.5943    -0.0166    59.6159 </r>
       <r>    18.7428    -0.0142    59.6138 </r>
       <r>    18.8913     0.0137    59.6158 </r>
       <r>    19.0398     0.2653    59.6552 </r>
       <r>    19.1883     0.3401    59.7057 </r>
       <r>    19.3368     0.0635    59.7151 </r>
       <r>    19.4853    -0.0176    59.7125 </r>
       <r>    19.6338    -0.0033    59.7120 </r>
       <r>    19.7823    -0.0001    59.7120 </r>
       <r>    19.9308    -0.0000    59.7120 </r>
       <r>    20.0793    -0.0000    59.7120 </r>
       <r>    20.2279    -0.0000    59.7120 </r>
       <r>    20.3764    -0.0000    59.7120 </r>
       <r>    20.5249    -0.0000    59.7120 </r>
       <r>    20.6734    -0.0012    59.7118 </r>
       <r>    20.8219    -0.0198    59.7089 </r>
       <r>    20.9704    -0.0365    59.7034 </r>
       <r>    21.1189     0.4127    59.7647 </r>
       <r>    21.2674     1.0046    59.9139 </r>
       <r>    21.4159     0.4177    59.9760 </r>
       <r>    21.5644    -0.0377    59.9704 </r>
       <r>    21.7129     0.0459    59.9772 </r>
       <r>    21.8614     0.1224    59.9954 </r>
       <r>    22.0099     0.0389    60.0011 </r>
       <r>    22.1584    -0.0057    60.0003 </r>
       <r>    22.3069    -0.0019    60.0000 </r>
       <r>    22.4554    -0.0001    60.0000 </r>
       <r>    22.6039    -0.0000    60.0000 </r>
       <r>    22.7524    -0.0000    60.0000 </r>
       <r>    22.9010    -0.0000    60.0000 </r>
       <r>    23.0495    -0.0000    60.0000 </r>
       <r>    23.1980     0.0000    60.0000 </r>
       <r>    23.3465     0.0000    60.0000 </r>
       <r>    23.4950     0.0000    60.0000 </r>
       <r>    23.6435     0.0000    60.0000 </r>
       <r>    23.7920     0.0000    60.0000 </r>
      </set>
     </set>
    </array>
   </total>
  </dos>
 </calculation>
 <structure name="finalpos" >
  <crystal>
   <varray name="basis" >
    <v>       3.63500000       0.00000000       0.00000000 </v>
    <v>       0.00000000       3.63500000       0.00000000 </v>
    <v>       0.00000000       0.00000000       3.63500000 </v>
   </varray>
   <i name="volume">     48.03007287 </i>
   <varray name="rec_basis" >
    <v>       0.27510316       0.00000000       0.00000000 </v>
    <v>       0.00000000       0.27510316       0.00000000 </v>
    <v>       0.00000000       0.00000000       0.27510316 </v>
   </varray>
  </crystal>
  <varray name="positions" >
   <v>       0.00000000       0.00000000       0.00000000 </v>
   <v>       0.50000000       0.50000000       0.00000000 </v>
   <v>       0.50000000       0.00000000       0.50000000 </v>
   <v>       0.00000000       0.50000000       0.50000000 </v>
  </varray>
 </structure>
</modeling>
