unknown system                          
   1.00000000000000     
     2.399900    0.000000    0.000000
    -1.199950    2.078374    0.000000
     0.000000    0.000000    4.265230
   Fe
     2
Direct
  0.000000  0.000000  0.000000
  0.333333  0.666667  0.500000
 
   20   20   36
 0.17884009239E+03 0.16891719418E+03 0.14237475130E+03 0.10710894122E+03 0.71835408513E+02
 0.42974957211E+02 0.23551962217E+02 0.13396215355E+02 0.97737765754E+01 0.86800185501E+01
 0.83172884765E+01 0.86806722125E+01 0.97742791535E+01 0.13395969149E+02 0.23551294185E+02
 0.42974655307E+02 0.71835741944E+02 0.10710943652E+03 0.14237490900E+03 0.16891709151E+03
 0.16892693128E+03 0.16891662283E+03 0.15072521541E+03 0.12004733685E+03 0.85286404124E+02
 0.53971324516E+02 0.30710381346E+02 0.16834259849E+02 0.10798218509E+02 0.90188199736E+01
 0.83131346604E+01 0.83121272011E+01 0.90177212091E+01 0.10799324846E+02 0.16835667447E+02
 0.30708749407E+02 0.53969161175E+02 0.85292344115E+02 0.12006589286E+03 0.15074781844E+03
 0.14238954014E+03 0.15070965301E+03 0.14237482344E+03 0.12004789105E+03 0.90290672254E+02
 0.60484030357E+02 0.36216843763E+02 0.20169641822E+02 0.12088573318E+02 0.93300177340E+01
 0.83446803930E+01 0.80086806108E+01 0.83422873226E+01 0.93293176656E+01 0.12090598999E+02
 0.20169656546E+02 0.36211604368E+02 0.60479106049E+02 0.90295730840E+02 0.12006385078E+03
 0.10710313665E+03 0.11998329141E+03 0.11998562325E+03 0.10711001144E+03 0.85286351113E+02
 0.60483580969E+02 0.38283805375E+02 0.22225075664E+02 0.13199968455E+02 0.96282581391E+01
 0.83988185396E+01 0.77977114055E+01 0.77970159274E+01 0.83979603897E+01 0.96290135516E+01
 0.13201534797E+02 0.22224065643E+02 0.38277693881E+02 0.60473524055E+02 0.85276204476E+02
 0.71815569512E+02 0.85183410400E+02 0.90159475135E+02 0.85199569778E+02 0.71835560590E+02
 0.53970421609E+02 0.36216889204E+02 0.22225375092E+02 0.13639850356E+02 0.98341595989E+01
 0.84504098246E+01 0.76772014427E+01 0.74259959245E+01 0.76779105029E+01 0.84507568320E+01
 0.98347998840E+01 0.13643063988E+02 0.22230365507E+02 0.36217145655E+02 0.53959321400E+02
 0.42972980128E+02 0.53893984423E+02 0.60349537326E+02 0.60355005289E+02 0.53903572664E+02
 0.42974441845E+02 0.30710260237E+02 0.20170294604E+02 0.13199904063E+02 0.98340047537E+01
 0.84717893052E+01 0.76263089435E+01 0.72208225164E+01 0.72218135405E+01 0.76270692649E+01
 0.84699965502E+01 0.98331247051E+01 0.13206159482E+02 0.20183213582E+02 0.30720264361E+02
 0.23565925330E+02 0.30702392309E+02 0.36161759206E+02 0.38203339890E+02 0.36156208767E+02
 0.30691035213E+02 0.23551635725E+02 0.16834754463E+02 0.12088641622E+02 0.96278576525E+01
 0.84505344730E+01 0.76263689956E+01 0.71562814715E+01 0.70106167968E+01 0.71577443714E+01
 0.76253009071E+01 0.84452155451E+01 0.96228068664E+01 0.12090598999E+02 0.16845414043E+02
 0.13394896997E+02 0.16866978664E+02 0.20204337228E+02 0.22243390742E+02 0.22237052430E+02
 0.20190745746E+02 0.16857338265E+02 0.13396223121E+02 0.10798482197E+02 0.93295739121E+01
 0.83988301247E+01 0.76774198750E+01 0.72205932476E+01 0.70105783467E+01 0.70115957701E+01
 0.72224165673E+01 0.76768383507E+01 0.83927326778E+01 0.93185079603E+01 0.10788412919E+02
 0.97578254175E+01 0.10828566919E+02 0.12158422373E+02 0.13288194898E+02 0.13729296524E+02
 0.13283642973E+02 0.12158338115E+02 0.10839159528E+02 0.97739961945E+01 0.90186179469E+01
 0.83444556633E+01 0.77980754084E+01 0.74258765792E+01 0.72216653998E+01 0.71581040625E+01
 0.72224976954E+01 0.74297146203E+01 0.78033157915E+01 0.83441099136E+01 0.90078814340E+01
 0.86798255083E+01 0.90530158464E+01 0.94030550950E+01 0.97371065776E+01 0.99642039170E+01
 0.99660362765E+01 0.97435733157E+01 0.94138489362E+01 0.90624714420E+01 0.86802222128E+01
 0.83128748730E+01 0.80089717579E+01 0.77972287042E+01 0.76776453229E+01 0.76273088787E+01
 0.76254804687E+01 0.76763547386E+01 0.78031645653E+01 0.80214091723E+01 0.83228136804E+01
 0.83319196216E+01 0.83698539080E+01 0.84363986874E+01 0.85228554731E+01 0.86016802546E+01
 0.86362207892E+01 0.86070734342E+01 0.85280819756E+01 0.84348682680E+01 0.83594919518E+01
 0.83172829109E+01 0.83120703451E+01 0.83426330722E+01 0.83977157962E+01 0.84505344730E+01
 0.84701563025E+01 0.84448685377E+01 0.83924764993E+01 0.83446803930E+01 0.83230166118E+01
 0.86792269216E+01 0.83696527426E+01 0.81169551980E+01 0.79441953085E+01 0.78529560974E+01
 0.78214695197E+01 0.78230385372E+01 0.78536767004E+01 0.79378489506E+01 0.81046376315E+01
 0.83603257566E+01 0.86802772885E+01 0.90178263184E+01 0.93292933885E+01 0.96285561021E+01
 0.98348883042E+01 0.98333679704E+01 0.96227499036E+01 0.93189275051E+01 0.90081885700E+01
 0.97573826782E+01 0.90527365398E+01 0.84369572282E+01 0.79443290694E+01 0.76135347040E+01
 0.74364415714E+01 0.73831606593E+01 0.74360362356E+01 0.76098926540E+01 0.79386405791E+01
 0.84366310201E+01 0.90633181462E+01 0.97740560334E+01 0.10799554349E+02 0.12090404374E+02
 0.13201579242E+02 0.13643628890E+02 0.13206268319E+02 0.12090336070E+02 0.10788378734E+02
 0.13395167200E+02 0.10828670883E+02 0.94034649046E+01 0.85230108591E+01 0.78524959490E+01
 0.74364239959E+01 0.72479205126E+01 0.72470643944E+01 0.74349880811E+01 0.78534201744E+01
 0.85290879538E+01 0.94140503865E+01 0.10838111374E+02 0.13396247118E+02 0.16835895796E+02
 0.20169667579E+02 0.22224326937E+02 0.22230327374E+02 0.20182571834E+02 0.16845147778E+02
 0.23566593362E+02 0.16867299174E+02 0.12158161924E+02 0.97369608825E+01 0.86013528774E+01
 0.78215058292E+01 0.73834927789E+01 0.72469600335E+01 0.73813979072E+01 0.78221592333E+01
 0.86070734342E+01 0.97428142870E+01 0.12156515524E+02 0.16856178438E+02 0.23551635725E+02
 0.30708672734E+02 0.36211347917E+02 0.38277417836E+02 0.36216843763E+02 0.30720308797E+02
 0.42973295972E+02 0.30702303128E+02 0.20203704291E+02 0.13287948512E+02 0.99644420741E+01
 0.86363768471E+01 0.78232547442E+01 0.74358109107E+01 0.74347803318E+01 0.78223391308E+01
 0.86379242051E+01 0.99652217410E+01 0.13281981733E+02 0.20191334834E+02 0.30692603274E+02
 0.42974455784E+02 0.53968760370E+02 0.60478942345E+02 0.60473809739E+02 0.53959823502E+02
 0.71815272853E+02 0.53893351571E+02 0.36161460615E+02 0.22243571273E+02 0.13729840702E+02
 0.99661033137E+01 0.86068573924E+01 0.78535441036E+01 0.76097929411E+01 0.78537477260E+01
 0.86071847696E+01 0.99650506211E+01 0.13725614600E+02 0.22238124582E+02 0.36161713282E+02
 0.53905247843E+02 0.71835597362E+02 0.85292650977E+02 0.90296176769E+02 0.85276564349E+02
 0.10710267148E+03 0.85182965609E+02 0.60349820328E+02 0.38203983507E+02 0.22237301536E+02
 0.13283340014E+02 0.97431429446E+01 0.85282324421E+01 0.79380593319E+01 0.79387171995E+01
 0.85290830342E+01 0.97425296109E+01 0.13281925160E+02 0.22238193157E+02 0.38209702807E+02
 0.60359599847E+02 0.85193300040E+02 0.10711004157E+03 0.12006604265E+03 0.12006344636E+03
 0.14238938244E+03 0.11998376561E+03 0.90159923419E+02 0.60355395775E+02 0.36155956100E+02
 0.20190197867E+02 0.12158161924E+02 0.94142619347E+01 0.84351944761E+01 0.81043183848E+01
 0.84363986874E+01 0.94140535755E+01 0.12156599782E+02 0.20191419892E+02 0.36161759206E+02
 0.60359707331E+02 0.90153933848E+02 0.11996747821E+03 0.14237482344E+03 0.15074690037E+03
 0.16892701906E+03 0.15071073809E+03 0.11998578591E+03 0.85199060231E+02 0.53903176455E+02
 0.30690817004E+02 0.16857561965E+02 0.10839543921E+02 0.90625614241E+01 0.83590362298E+01
 0.83600712000E+01 0.90636874349E+01 0.10838391803E+02 0.16856081627E+02 0.30692474245E+02
 0.53905484487E+02 0.85193235284E+02 0.11996716666E+03 0.15068794627E+03 0.16891660794E+03
 0.16909939725E+03 0.15972692791E+03 0.13463633826E+03 0.10126037915E+03 0.67859281578E+02
 0.40576022316E+02 0.22320853044E+02 0.12892437623E+02 0.95840063572E+01 0.85350794856E+01
 0.81831869096E+01 0.85357104445E+01 0.95844909775E+01 0.12892198631E+02 0.22320206404E+02
 0.40575729411E+02 0.67859602806E+02 0.10126085739E+03 0.13463649091E+03 0.15972682911E+03
 0.15973589603E+03 0.15972637394E+03 0.14253094127E+03 0.11350376603E+03 0.80585518642E+02
 0.50948162124E+02 0.29017034796E+02 0.16053804049E+02 0.10506675842E+02 0.88584729886E+01
 0.81732540389E+01 0.81722899369E+01 0.88574199455E+01 0.10507758743E+02 0.16055267824E+02
 0.29015680664E+02 0.50946204398E+02 0.80590947039E+02 0.11352083926E+03 0.14255179653E+03
 0.13464997900E+03 0.14252055167E+03 0.13463640728E+03 0.11350430300E+03 0.85321109288E+02
 0.57099260315E+02 0.34185576958E+02 0.19141884773E+02 0.11670804527E+02 0.91519092063E+01
 0.81991787408E+01 0.78746314101E+01 0.81968789530E+01 0.91512090395E+01 0.11672751269E+02
 0.19142049164E+02 0.34180827560E+02 0.57094678250E+02 0.85325685114E+02 0.11351897450E+03
 0.10125508104E+03 0.11345528122E+03 0.11345742776E+03 0.10126141608E+03 0.80585468568E+02
 0.57098825266E+02 0.36128615771E+02 0.21052086072E+02 0.12680016684E+02 0.94186212459E+01
 0.82483001663E+01 0.76683246271E+01 0.76676637823E+01 0.82474581021E+01 0.94192528098E+01
 0.12681395812E+02 0.21051096299E+02 0.36122933607E+02 0.57089522914E+02 0.80576103774E+02
 0.67841073863E+02 0.80508091581E+02 0.85224208965E+02 0.80522956844E+02 0.67859430080E+02
 0.50947288021E+02 0.34185619575E+02 0.21052375684E+02 0.13080890380E+02 0.96005855036E+01
 0.82962384535E+01 0.75505757824E+01 0.73094533960E+01 0.75512860241E+01 0.82965730813E+01
 0.96010779608E+01 0.13083692984E+02 0.21056872642E+02 0.34185868413E+02 0.50937137477E+02
 0.40574245565E+02 0.50899289390E+02 0.57011132975E+02 0.57016178369E+02 0.50908113661E+02
 0.40575523328E+02 0.29016916400E+02 0.19142516409E+02 0.12679956090E+02 0.96004361493E+01
 0.83162521437E+01 0.75008054947E+01 0.71120211297E+01 0.71129933476E+01 0.75016186850E+01
 0.83146532248E+01 0.95995941140E+01 0.12685688308E+02 0.19154464690E+02 0.29026231432E+02
 0.22333694495E+02 0.29033502115E+02 0.34176927346E+02 0.36103416157E+02 0.34171875408E+02
 0.29023102211E+02 0.22320537196E+02 0.16054283226E+02 0.11670872122E+02 0.94182342268E+01
 0.82963570249E+01 0.75008627591E+01 0.70500138949E+01 0.69106970611E+01 0.70514153607E+01
 0.74999557569E+01 0.82915322285E+01 0.94136555478E+01 0.11672751269E+02 0.16064155663E+02
 0.12891148358E+02 0.16106008220E+02 0.19215701029E+02 0.21122431008E+02 0.21116615581E+02
 0.19203249024E+02 0.16097222598E+02 0.12892446024E+02 0.10506930763E+02 0.91514788821E+01
 0.82483093686E+01 0.75507859800E+01 0.71118010351E+01 0.69106607292E+01 0.69115682527E+01
 0.71134269214E+01 0.75502357512E+01 0.82427320318E+01 0.91413276337E+01 0.10497641550E+02
 0.95692544926E+01 0.10553478690E+02 0.11772323350E+02 0.12811807232E+02 0.13218661273E+02
 0.12807584587E+02 0.11772241650E+02 0.10563287438E+02 0.95842174743E+01 0.88582755689E+01
 0.81989611381E+01 0.76686775522E+01 0.73093398547E+01 0.71128513080E+01 0.70517622888E+01
 0.71135049764E+01 0.73127458548E+01 0.76734401255E+01 0.81986273469E+01 0.88483530246E+01
 0.85349031966E+01 0.89062131189E+01 0.92510373166E+01 0.95632563981E+01 0.97717169116E+01
 0.97733544247E+01 0.95691079217E+01 0.92609038100E+01 0.89149068988E+01 0.85352754961E+01
 0.81730041094E+01 0.78749156418E+01 0.76678703043E+01 0.75510290049E+01 0.75018490884E+01
 0.75001288959E+01 0.75497685345E+01 0.76732937224E+01 0.78863703368E+01 0.81821641058E+01
 0.81966750005E+01 0.82404185476E+01 0.83120932362E+01 0.84018042980E+01 0.84818294842E+01
 0.85163631140E+01 0.84867294914E+01 0.84065307950E+01 0.83106264517E+01 0.82308569731E+01
 0.81831829218E+01 0.81722367932E+01 0.81972127442E+01 0.82472191639E+01 0.82963570249E+01
 0.83148082286E+01 0.82911976007E+01 0.82424838914E+01 0.81991787408E+01 0.81823608915E+01
 0.85343244442E+01 0.82402232408E+01 0.80016086824E+01 0.78395097228E+01 0.77545515030E+01
 0.77255452025E+01 0.77270151915E+01 0.77552614332E+01 0.78336879806E+01 0.79902666160E+01
 0.82316519462E+01 0.85353277027E+01 0.88575205276E+01 0.91511836505E+01 0.94188101869E+01
 0.96011649547E+01 0.95998304622E+01 0.94135999441E+01 0.91417325689E+01 0.88486510263E+01
 0.95688268564E+01 0.89059416540E+01 0.83126332755E+01 0.78396398730E+01 0.75225989776E+01
 0.73529465400E+01 0.73019305686E+01 0.73527024537E+01 0.75193791279E+01 0.78344430220E+01
 0.83123178617E+01 0.89157141467E+01 0.95842744583E+01 0.10507981036E+02 0.11672563532E+02
 0.12681439937E+02 0.13084239822E+02 0.12685793027E+02 0.11672495937E+02 0.10497608921E+02
 0.12891410542E+02 0.10553578771E+02 0.92514333082E+01 0.84019560335E+01 0.77541069394E+01
 0.73529290928E+01 0.71712446844E+01 0.71704914949E+01 0.73516753726E+01 0.77549893935E+01
 0.84075179444E+01 0.92611236432E+01 0.10562260357E+02 0.12892469215E+02 0.16055489388E+02
 0.19142059643E+02 0.21051348603E+02 0.21056835334E+02 0.19153843533E+02 0.16063898051E+02
 0.22334341135E+02 0.16106318628E+02 0.11772070933E+02 0.95631161303E+01 0.84815133232E+01
 0.77255793665E+01 0.73022510680E+01 0.71703904594E+01 0.73002391587E+01 0.77260872940E+01
 0.84867294914E+01 0.95684735299E+01 0.11770493256E+02 0.16095999469E+02 0.22320537196E+02
 0.29015605409E+02 0.34180578722E+02 0.36122666571E+02 0.34185576958E+02 0.29026274573E+02
 0.40574550759E+02 0.29033415909E+02 0.19215088409E+02 0.12811568586E+02 0.97719473844E+01
 0.85165132927E+01 0.77272237794E+01 0.73524846171E+01 0.73514749833E+01 0.77262617179E+01
 0.85178746025E+01 0.97726901159E+01 0.12806113030E+02 0.19203670308E+02 0.29024394686E+02
 0.40575535618E+02 0.50945816464E+02 0.57094520479E+02 0.57089800193E+02 0.50937623646E+02
 0.67840786053E+02 0.50898676535E+02 0.34176638482E+02 0.21122605399E+02 0.13219187601E+02
 0.97734189412E+01 0.84865207575E+01 0.77551340205E+01 0.75192829533E+01 0.77553065444E+01
 0.84868369186E+01 0.97725241595E+01 0.13215402233E+02 0.21117665854E+02 0.34176882842E+02
 0.50909597508E+02 0.67859463498E+02 0.80591244911E+02 0.85326116723E+02 0.80576451721E+02
 0.10125463041E+03 0.80507661131E+02 0.57011407203E+02 0.36104039198E+02 0.21116856654E+02
 0.12807291397E+02 0.95686920192E+01 0.84066776975E+01 0.78338911279E+01 0.78345160191E+01
 0.84075131113E+01 0.95681978952E+01 0.12806058487E+02 0.21117732536E+02 0.36109343984E+02
 0.57020443268E+02 0.80517208099E+02 0.10126144368E+03 0.11352098343E+03 0.11351858170E+03
 0.13464982635E+03 0.11345574148E+03 0.85224643571E+02 0.57016556431E+02 0.34171631048E+02
 0.19202718880E+02 0.11772070933E+02 0.92613041992E+01 0.83109418655E+01 0.79899556688E+01
 0.83120932362E+01 0.92611280408E+01 0.11770574956E+02 0.19203752784E+02 0.34176927346E+02
 0.57020547100E+02 0.85219168112E+02 0.11344075345E+03 0.13463640728E+03 0.14255090617E+03
 0.15973598113E+03 0.14252160387E+03 0.11345758624E+03 0.80522463090E+02 0.50907729749E+02
 0.29022891138E+02 0.16097438270E+02 0.10563659066E+02 0.89149948683E+01 0.82304149851E+01
 0.82314052650E+01 0.89160735811E+01 0.10562531904E+02 0.16095904733E+02 0.29024269819E+02
 0.50909826451E+02 0.80517144796E+02 0.11344045166E+03 0.14250056677E+03 0.15972636023E+03
 0.14299480561E+03 0.13507743865E+03 0.11384020412E+03 0.85518242080E+02 0.57172447246E+02
 0.34178389367E+02 0.19094754761E+02 0.11606533706E+02 0.90849924340E+01 0.81397380674E+01
 0.78197319789E+01 0.81403042323E+01 0.90854251881E+01 0.11606314192E+02 0.19094168907E+02
 0.34178123862E+02 0.57172736570E+02 0.85518673664E+02 0.11384034242E+03 0.13507735006E+03
 0.13508439152E+03 0.13507693431E+03 0.12052224249E+03 0.95897387293E+02 0.67936373800E+02
 0.42851261760E+02 0.24538923805E+02 0.14036277345E+02 0.97618613888E+01 0.84160385036E+01
 0.77912501323E+01 0.77904073231E+01 0.84151132671E+01 0.97628666715E+01 0.14037848203E+02
 0.24538261223E+02 0.42849832865E+02 0.67940471567E+02 0.95910582320E+02 0.12053851379E+03
 0.11385083296E+03 0.12052588092E+03 0.11384026436E+03 0.95897875196E+02 0.71946163130E+02
 0.48018697275E+02 0.28788930554E+02 0.16462412293E+02 0.10604514918E+02 0.86678417905E+01
 0.77991774087E+01 0.75074553463E+01 0.77971434948E+01 0.86671541322E+01 0.10606237190E+02
 0.16462934800E+02 0.28785446341E+02 0.48015020166E+02 0.71949491374E+02 0.95909177789E+02
 0.85514261870E+02 0.95890757004E+02 0.95892419345E+02 0.85519184254E+02 0.67936332066E+02
 0.48018302952E+02 0.30394706065E+02 0.17981646053E+02 0.11348078312E+02 0.88664242145E+01
 0.78321658985E+01 0.73123819415E+01 0.73118176685E+01 0.78313805282E+01 0.88667485688E+01
 0.11348983035E+02 0.17980723697E+02 0.30390161163E+02 0.48010985969E+02 0.67929018314E+02
 0.57158499942E+02 0.67927435623E+02 0.71941256411E+02 0.67938914679E+02 0.57172585440E+02
 0.42850469443E+02 0.28788965035E+02 0.17981907791E+02 0.11646721757E+02 0.89922643300E+01
 0.78683204237E+01 0.72007242298E+01 0.69876630959E+01 0.72014253451E+01 0.78686200768E+01
 0.89923921095E+01 0.11648483712E+02 0.17985135490E+02 0.28789192427E+02 0.42842791406E+02
 0.34177126234E+02 0.42878747486E+02 0.48054938480E+02 0.48058874154E+02 0.42885570697E+02
 0.34177936831E+02 0.24538813057E+02 0.16462983839E+02 0.11348028519E+02 0.89921305371E+01
 0.78839255445E+01 0.71531257798E+01 0.68104140505E+01 0.68113218927E+01 0.71540483452E+01
 0.78828197952E+01 0.89913944816E+01 0.11352397201E+02 0.16472378418E+02 0.24546300311E+02
 0.19104659448E+02 0.24621748055E+02 0.28905766021E+02 0.30518706172E+02 0.28902006055E+02
 0.24613842515E+02 0.19094469204E+02 0.14036712630E+02 0.10604580507E+02 0.88660754571E+01
 0.78684219818E+01 0.71531752459E+01 0.67549429275E+01 0.66328273108E+01 0.67561685858E+01
 0.71526700976E+01 0.78648739903E+01 0.88627173953E+01 0.10606237190E+02 0.14044509043E+02
 0.11605336973E+02 0.14142889594E+02 0.16644382731E+02 0.18195241834E+02 0.18190791058E+02
 0.16634900798E+02 0.14136322563E+02 0.11606543939E+02 0.97620914264E+01 0.86674499754E+01
 0.78321685890E+01 0.72009112007E+01 0.68102197049E+01 0.66327968514E+01 0.66334239095E+01
 0.68113423021E+01 0.72004481267E+01 0.78279459535E+01 0.86596853600E+01 0.97548479936E+01
 0.90733980873E+01 0.98566682886E+01 0.10797572475E+02 0.11605016968E+02 0.11923001686E+02
 0.11601664412E+02 0.10797498063E+02 0.98644097083E+01 0.90851795098E+01 0.84158543955E+01
 0.77989800771E+01 0.73127032993E+01 0.69875657240E+01 0.68111969233E+01 0.67564794868E+01
 0.68114116783E+01 0.69898726231E+01 0.73162294617E+01 0.77986800541E+01 0.84080718077E+01
 0.81396072876E+01 0.85055663568E+01 0.88471580441E+01 0.91209137672E+01 0.92895488485E+01
 0.92906881971E+01 0.91251786322E+01 0.88546115900E+01 0.85122654543E+01 0.81399123649E+01
 0.77910279277E+01 0.75077195617E+01 0.73120063546E+01 0.72011914745E+01 0.71542528103E+01
 0.71528250967E+01 0.72000272851E+01 0.73160967900E+01 0.75165982817E+01 0.77981457272E+01
 0.78302225204E+01 0.78927902620E+01 0.79816139029E+01 0.80832358312E+01 0.81688236685E+01
 0.82042253241E+01 0.81724468477E+01 0.80866727095E+01 0.79803280768E+01 0.78853307985E+01
 0.78197320648E+01 0.77903644171E+01 0.77974435178E+01 0.78311579364E+01 0.78684219818E+01
 0.78829613507E+01 0.78645743372E+01 0.78277206711E+01 0.77991774087E+01 0.77983250258E+01
 0.81390848892E+01 0.78926116223E+01 0.76982056201E+01 0.75710681815E+01 0.75082970576E+01
 0.74890397430E+01 0.74902436604E+01 0.75089670484E+01 0.75666159456E+01 0.76894208327E+01
 0.78860174109E+01 0.81399561314E+01 0.84152012173E+01 0.86671259352E+01 0.88663480157E+01
 0.89924749867E+01 0.89916111518E+01 0.88626655996E+01 0.86600489781E+01 0.84083438659E+01
 0.90730133360E+01 0.85053171436E+01 0.79821011658E+01 0.75711880286E+01 0.72993374622E+01
 0.71555299101E+01 0.71127258898E+01 0.71556784461E+01 0.72971926337E+01 0.75672691238E+01
 0.79818166333E+01 0.85129623991E+01 0.90852275127E+01 0.97630686449E+01 0.10606069063E+02
 0.11349026147E+02 0.11648979287E+02 0.11352490105E+02 0.10606003474E+02 0.97548199294E+01
 0.11605576321E+02 0.98567572000E+01 0.88475145946E+01 0.80833771550E+01 0.75078970111E+01
 0.71555128289E+01 0.69970307075E+01 0.69965393127E+01 0.71547210620E+01 0.75086628425E+01
 0.80875966595E+01 0.88548720293E+01 0.98634523242E+01 0.11606563774E+02 0.14038050633E+02
 0.16462943596E+02 0.17980950407E+02 0.17985100462E+02 0.16471815668E+02 0.14044276189E+02
 0.19105245302E+02 0.14143171135E+02 0.10797342912E+02 0.91207889819E+01 0.81685395679E+01
 0.74890678069E+01 0.71130131906E+01 0.69964478349E+01 0.71112373333E+01 0.74892159707E+01
 0.81724468477E+01 0.91248561989E+01 0.10795961504E+02 0.14134970833E+02 0.19094469204E+02
 0.24538189940E+02 0.28785218948E+02 0.30389919760E+02 0.28788930554E+02 0.24546339776E+02
 0.34177401228E+02 0.24621670338E+02 0.16643828008E+02 0.11604800427E+02 0.92897574421E+01
 0.82043587946E+01 0.74904304574E+01 0.71554820739E+01 0.71545417710E+01 0.74893747038E+01
 0.82052468974E+01 0.92903970027E+01 0.11600676273E+02 0.16634911718E+02 0.24614450034E+02
 0.34177946320E+02 0.42849481304E+02 0.48014879298E+02 0.48011239423E+02 0.42843232161E+02
 0.57158237365E+02 0.42878191673E+02 0.28905504833E+02 0.18195398787E+02 0.11923477114E+02
 0.92907455812E+01 0.81722589070E+01 0.75088543952E+01 0.72971066796E+01 0.75089502359E+01
 0.81725430077E+01 0.92902457932E+01 0.11920818906E+02 0.18191768277E+02 0.28905725394E+02
 0.42886568325E+02 0.57172612188E+02 0.67940743859E+02 0.71949882469E+02 0.67929332341E+02
 0.85513852578E+02 0.67927046000E+02 0.48055187601E+02 0.30519270589E+02 0.18191009284E+02
 0.11601399064E+02 0.91248039732E+01 0.80868092737E+01 0.75667985258E+01 0.75673318570E+01
 0.80875918998E+01 0.91246063252E+01 0.11600627465E+02 0.18191829549E+02 0.30523476295E+02
 0.48062266029E+02 0.67934525176E+02 0.85519206544E+02 0.95910710689E+02 0.95908818256E+02
 0.11385069466E+03 0.95891177372E+02 0.71941651847E+02 0.48059216763E+02 0.28901785494E+02
 0.16634421204E+02 0.10797342912E+02 0.88549758754E+01 0.79806126093E+01 0.76891337770E+01
 0.79816139029E+01 0.88548797642E+01 0.10796035916E+02 0.16634986847E+02 0.28905766021E+02
 0.48062359517E+02 0.71937510324E+02 0.95879588887E+02 0.11384026436E+03 0.12053770262E+03
 0.13508446898E+03 0.12052683921E+03 0.95892565708E+02 0.67938465831E+02 0.42885222002E+02
 0.24613651870E+02 0.14136515318E+02 0.98647449131E+01 0.85123474727E+01 0.78849281150E+01
 0.78857933671E+01 0.85132936305E+01 0.98636986176E+01 0.14134882046E+02 0.24614337106E+02
 0.42886775443E+02 0.67934465952E+02 0.95879314881E+02 0.12051040460E+03 0.13507692318E+03
 0.10815224027E+03 0.10213853427E+03 0.85980905763E+02 0.64414343227E+02 0.42934384276E+02
 0.25820311083E+02 0.15043307028E+02 0.10070818153E+02 0.84109152048E+01 0.75930847800E+01
 0.73227519734E+01 0.75935546724E+01 0.84112699989E+01 0.10070626204E+02 0.15042812032E+02
 0.25820090399E+02 0.42934632089E+02 0.64414709258E+02 0.85981022615E+02 0.10213845915E+03
 0.10214294419E+03 0.10213810482E+03 0.91058034429E+02 0.72288812568E+02 0.51022115960E+02
 0.32163846319E+02 0.18800577023E+02 0.11573400877E+02 0.88496022693E+01 0.77929055668E+01
 0.72630254359E+01 0.72623577049E+01 0.77921649794E+01 0.88504646410E+01 0.11574994095E+02
 0.18800684588E+02 0.32163056948E+02 0.51024562987E+02 0.72297134302E+02 0.91068509558E+02
 0.85987724703E+02 0.91080609415E+02 0.85980953157E+02 0.72289226844E+02 0.54045347875E+02
 0.35982129308E+02 0.21800645298E+02 0.13134065968E+02 0.93237111323E+01 0.79808488043E+01
 0.72396194432E+01 0.69970969982E+01 0.72379810669E+01 0.79802121813E+01 0.93250996484E+01
 0.13134943842E+02 0.21798704787E+02 0.35979617901E+02 0.54047152041E+02 0.72296298186E+02
 0.64411998989E+02 0.72337814267E+02 0.72338869225E+02 0.64415143261E+02 0.51022086634E+02
 0.35981795799E+02 0.22945732141E+02 0.14134750330E+02 0.97448211954E+01 0.81241898651E+01
 0.72438891697E+01 0.68133554323E+01 0.68129285688E+01 0.72432144637E+01 0.81241739138E+01
 0.97451724655E+01 0.14133953786E+02 0.22942657075E+02 0.35977007008E+02 0.51017367672E+02
 0.42925771571E+02 0.51103486528E+02 0.54162049604E+02 0.51110707248E+02 0.42934506666E+02
 0.32163176073E+02 0.21800667337E+02 0.14134970469E+02 0.99167278026E+01 0.82011382785E+01
 0.72588861643E+01 0.67059636070E+01 0.65328417452E+01 0.67066183040E+01 0.72591341600E+01
 0.82008700098E+01 0.99172798295E+01 0.14136664055E+02 0.21800863216E+02 0.32158571903E+02
 0.25819664180E+02 0.32292184436E+02 0.36182665654E+02 0.36185194524E+02 0.32296485658E+02
 0.25819927655E+02 0.18800477549E+02 0.13134547778E+02 0.97447874967E+01 0.82010276107E+01
 0.72665655495E+01 0.66588121096E+01 0.63805615303E+01 0.63813464223E+01 0.66597923301E+01
 0.72660420572E+01 0.82004437913E+01 0.97474565157E+01 0.13140691222E+02 0.18805595853E+02
 0.15049514119E+02 0.18972679933E+02 0.22085185720E+02 0.23268788844E+02 0.22083015218E+02
 0.18967881934E+02 0.15043066952E+02 0.11573770465E+02 0.93237736886E+01 0.81238982307E+01
 0.72589630420E+01 0.66588502994E+01 0.63329688649E+01 0.62340875989E+01 0.63339322981E+01
 0.66587966131E+01 0.72569757302E+01 0.81220331436E+01 0.93250996484E+01 0.11578909642E+02
 0.10069784740E+02 0.11756424002E+02 0.13465622925E+02 0.14545170310E+02 0.14542425632E+02
 0.13459843404E+02 0.11752595583E+02 0.10070831128E+02 0.88497952407E+01 0.79805149600E+01
 0.72438829075E+01 0.67061164004E+01 0.63804047239E+01 0.62340654692E+01 0.62343595647E+01
 0.63809311766E+01 0.67057768397E+01 0.72413456592E+01 0.79757324837E+01 0.88451381310E+01
 0.84033466842E+01 0.90158253544E+01 0.96512013673E+01 0.10183878844E+02 0.10393877884E+02
 0.10181644498E+02 0.96511379111E+01 0.90209210455E+01 0.84110667239E+01 0.77927420204E+01
 0.72394524547E+01 0.68136293656E+01 0.65327675742E+01 0.63812461881E+01 0.63341900921E+01
 0.63809877488E+01 0.65337789479E+01 0.68156388375E+01 0.72392022940E+01 0.77876799336E+01
 0.75930157248E+01 0.79485289316E+01 0.82864495671E+01 0.85512091490E+01 0.86963353944E+01
 0.86968812485E+01 0.85535441148E+01 0.82909074240E+01 0.79527163773E+01 0.75932267454E+01
 0.72628438359E+01 0.69973302389E+01 0.68130904179E+01 0.67064189170E+01 0.66599587456E+01
 0.66589248388E+01 0.67054246594E+01 0.68155267533E+01 0.70029571077E+01 0.72673816984E+01
 0.73294540610E+01 0.74224895690E+01 0.75384240073E+01 0.76591291325E+01 0.77542128862E+01
 0.77915539855E+01 0.77562692121E+01 0.76609975238E+01 0.75374068348E+01 0.74176958898E+01
 0.73227570113E+01 0.72623292023E+01 0.72382312275E+01 0.72430171292E+01 0.72589630420E+01
 0.72661636451E+01 0.72567277344E+01 0.72411545870E+01 0.72396194432E+01 0.72675347957E+01
 0.75925774936E+01 0.74223359035E+01 0.72982490736E+01 0.72275317118E+01 0.72018505702E+01
 0.71997413886E+01 0.72005911435E+01 0.72024365271E+01 0.72247926101E+01 0.72926936748E+01
 0.74182274903E+01 0.75932584066E+01 0.77922347339E+01 0.79801807821E+01 0.81238360186E+01
 0.82009465428E+01 0.82006309921E+01 0.81219868828E+01 0.79760349289E+01 0.77879132345E+01
 0.84030259130E+01 0.79483129458E+01 0.75388318770E+01 0.72276360311E+01 0.70293859959E+01
 0.69288556173E+01 0.69000810966E+01 0.69294142929E+01 0.70285081599E+01 0.72252998965E+01
 0.75385940390E+01 0.79532553250E+01 0.84111007468E+01 0.88506367050E+01 0.93249608929E+01
 0.97452137152E+01 0.99176990282E+01 0.97475314641E+01 0.93248983365E+01 0.88451172235E+01
 0.10069989846E+02 0.90158971946E+01 0.82867467387E+01 0.76592547443E+01 0.72015176676E+01
 0.69288390889E+01 0.68089559773E+01 0.68087723495E+01 0.69285859861E+01 0.72021155067E+01
 0.76618015166E+01 0.82911967832E+01 0.90200927387E+01 0.10070844285E+02 0.11575168270E+02
 0.13134949866E+02 0.14134142162E+02 0.14136632292E+02 0.13140215437E+02 0.11578714229E+02
 0.15050009115E+02 0.11756661968E+02 0.96510060839E+01 0.85511076434E+01 0.77539772089E+01
 0.71997603161E+01 0.69003183033E+01 0.68086954531E+01 0.68988938923E+01 0.71995160744E+01
 0.77562692121E+01 0.85535729497E+01 0.96499166840E+01 0.11751186336E+02 0.15043066952E+02
 0.18800619113E+02 0.21798508907E+02 0.22942454089E+02 0.21800645298E+02 0.18805629851E+02
 0.25819894204E+02 0.18972614993E+02 0.13465155168E+02 0.10183695666E+02 0.86965111518E+01
 0.77916624808E+01 0.72007449784E+01 0.69292505160E+01 0.69284387376E+01 0.71996509819E+01
 0.77919951792E+01 0.86970033165E+01 0.10181227618E+02 0.13459418820E+02 0.18967729315E+02
 0.25819936994E+02 0.32162759194E+02 0.35979502410E+02 0.35977225026E+02 0.32158944394E+02
 0.42925546962E+02 0.32291714443E+02 0.22084966017E+02 0.14545301226E+02 0.10394276786E+02
 0.86969280315E+01 0.77561124352E+01 0.72023459744E+01 0.70284379738E+01 0.72023578566E+01
 0.77563481125E+01 0.86968743421E+01 0.10392963885E+02 0.14543267097E+02 0.22085150444E+02
 0.32296911876E+02 0.42934529870E+02 0.51024796903E+02 0.54047483101E+02 0.51017630915E+02
 0.64411651654E+02 0.51103158141E+02 0.36182876749E+02 0.23269265231E+02 0.14542609653E+02
 0.10181420973E+02 0.85532314336E+01 0.76611180103E+01 0.72249444582E+01 0.72253474254E+01
 0.76617963913E+01 0.85533617742E+01 0.10181187271E+02 0.14543320201E+02 0.23272049915E+02
 0.36187459878E+02 0.51108015675E+02 0.64415161957E+02 0.72297239579E+02 0.72295989187E+02
 0.85987607850E+02 0.72338174182E+02 0.54162385686E+02 0.36185483740E+02 0.22082830791E+02
 0.13459439725E+02 0.96510060839E+01 0.82912169956E+01 0.75376446727E+01 0.72924432234E+01
 0.75384240073E+01 0.82912091832E+01 0.96499801401E+01 0.13459482897E+02 0.22085185720E+02
 0.36187537999E+02 0.54159891174E+02 0.72330860392E+02 0.85980953157E+02 0.91067818038E+02
 0.10214301017E+03 0.91081425915E+02 0.72338996847E+02 0.51110325613E+02 0.32296190342E+02
 0.18967722214E+02 0.11752753851E+02 0.90212014005E+01 0.79527888449E+01 0.74173527180E+01
 0.74180379839E+01 0.79535437784E+01 0.90203012534E+01 0.11751106639E+02 0.18967634536E+02
 0.32297086553E+02 0.51107962427E+02 0.72330628099E+02 0.91070812354E+02 0.10213809568E+03
 0.72998575513E+02 0.68887914476E+02 0.57856905425E+02 0.43218055713E+02 0.28883751087E+02
 0.17892253659E+02 0.11458500991E+02 0.87745008721E+01 0.76673261130E+01 0.70108425115E+01
 0.68003486396E+01 0.70112012878E+01 0.76675909970E+01 0.87743416551E+01 0.11458113826E+02
 0.17892089789E+02 0.28883956135E+02 0.43218348598E+02 0.57856996822E+02 0.68887853237E+02
 0.68890032210E+02 0.68887575054E+02 0.61306759038E+02 0.48511122024E+02 0.34180347559E+02
 0.21823048300E+02 0.13546173623E+02 0.94787055409E+01 0.79670527450E+01 0.71165833895E+01