   2   2   0   0
  0.1063725E+02  0.2399900E-09  0.2399900E-09  0.4265230E-09  0.5000000E-15
  1.000000000000000E-004
  CAR 
 unknown system                          
     70.36991933     -5.68614103  301      6.41931298      1.00000000
     -5.686  0.0000E+00  0.0000E+00
     -5.433  0.0000E+00  0.0000E+00
     -5.179  0.0000E+00  0.0000E+00
     -4.926  0.0000E+00  0.0000E+00
     -4.672  0.0000E+00  0.0000E+00
     -4.419  0.0000E+00  0.0000E+00
     -4.165  0.0000E+00  0.0000E+00
     -3.911 -0.2607E-32 -0.6609E-33
     -3.658 -0.8160E-24 -0.2069E-24
     -3.404 -0.9698E-17 -0.2459E-17
     -3.151 -0.4605E-11 -0.1167E-11
     -2.897 -0.8336E-07 -0.2114E-07
     -2.644 -0.5389E-04 -0.1368E-04
     -2.390 -0.4269E-03 -0.1219E-03
     -2.137  0.8724E-02  0.2090E-02
     -1.883  0.5807E-01  0.1681E-01
     -1.630  0.1051E+00  0.4345E-01
     -1.376  0.6164E-01  0.5908E-01
     -1.123  0.1597E+00  0.9957E-01
     -0.869  0.1848E+00  0.1464E+00
     -0.616  0.1963E+00  0.1962E+00
     -0.362  0.8472E-01  0.2177E+00
     -0.109  0.2652E+00  0.2849E+00
      0.145  0.2932E+00  0.3592E+00
      0.398  0.3188E+00  0.4400E+00
      0.652  0.2986E+00  0.5157E+00
      0.905  0.2288E+00  0.5737E+00
      1.159  0.4318E+00  0.6832E+00
      1.412  0.6769E+00  0.8548E+00
      1.666  0.8364E+00  0.1067E+01
      1.919  0.1305E+01  0.1398E+01
      2.173  0.1962E+01  0.1895E+01
      2.427  0.2769E+01  0.2597E+01
      2.680  0.2252E+01  0.3168E+01
      2.934  0.3073E+01  0.3947E+01
      3.187  0.2393E+01  0.4553E+01
      3.441  0.3362E+01  0.5406E+01
      3.694  0.3326E+01  0.6249E+01
      3.948  0.3346E+01  0.7097E+01
      4.201  0.2528E+01  0.7738E+01
      4.455  0.2793E+01  0.8446E+01
      4.708  0.4413E+01  0.9565E+01
      4.962  0.3987E+01  0.1058E+02
      5.215  0.4141E+01  0.1163E+02
      5.469  0.3683E+01  0.1256E+02
      5.722  0.3983E+01  0.1357E+02
      5.976  0.3426E+01  0.1444E+02
      6.229  0.3677E+01  0.1537E+02
      6.483  0.3215E+01  0.1619E+02
      6.736  0.3263E+01  0.1701E+02
      6.990  0.4988E+01  0.1828E+02
      7.243  0.5246E+01  0.1961E+02
      7.497  0.4640E+01  0.2078E+02
      7.750  0.1816E+01  0.2124E+02
      8.004  0.1745E+00  0.2129E+02
      8.257  0.6137E+00  0.2144E+02
      8.511  0.8275E+00  0.2165E+02
      8.765  0.8112E+00  0.2186E+02
      9.018  0.6364E+00  0.2202E+02
      9.272  0.4863E+00  0.2214E+02
      9.525  0.3710E+00  0.2224E+02
      9.779  0.4568E+00  0.2235E+02
     10.032  0.4491E+00  0.2247E+02
     10.286  0.7039E+00  0.2265E+02
     10.539  0.5277E+00  0.2278E+02
     10.793  0.4188E+00  0.2289E+02
     11.046  0.4651E+00  0.2300E+02
     11.300  0.5735E+00  0.2315E+02
     11.553  0.2143E+00  0.2320E+02
     11.807  0.3250E+00  0.2329E+02
     12.060  0.3378E+00  0.2337E+02
     12.314  0.4750E+00  0.2349E+02
     12.567  0.2932E+00  0.2357E+02
     12.821  0.2726E+00  0.2364E+02
     13.074  0.4975E+00  0.2376E+02
     13.328  0.5693E+00  0.2391E+02
     13.581  0.2742E+00  0.2398E+02
     13.835  0.2638E+00  0.2404E+02
     14.088  0.2411E+00  0.2410E+02
     14.342  0.1518E+00  0.2414E+02
     14.595  0.1080E+00  0.2417E+02
     14.849  0.1753E+00  0.2421E+02
     15.103  0.3559E+00  0.2430E+02
     15.356  0.3396E+00  0.2439E+02
     15.610  0.6167E+00  0.2455E+02
     15.863  0.9141E+00  0.2478E+02
     16.117  0.9296E+00  0.2501E+02
     16.370  0.6720E+00  0.2518E+02
     16.624  0.7238E+00  0.2537E+02
     16.877  0.5182E+00  0.2550E+02
     17.131  0.5352E+00  0.2563E+02
     17.384  0.8956E+00  0.2586E+02
     17.638  0.8184E+00  0.2607E+02
     17.891  0.6684E+00  0.2624E+02
     18.145  0.7795E+00  0.2644E+02
     18.398  0.8214E+00  0.2664E+02
     18.652  0.3666E+00  0.2674E+02
     18.905  0.8296E+00  0.2695E+02
     19.159  0.6367E+00  0.2711E+02
     19.412  0.7033E+00  0.2729E+02
     19.666  0.6068E+00  0.2744E+02
     19.919  0.5151E+00  0.2757E+02
     20.173  0.6802E+00  0.2774E+02
     20.426  0.4231E+00  0.2785E+02
     20.680  0.5333E+00  0.2799E+02
     20.933  0.8789E+00  0.2821E+02
     21.187  0.5100E+00  0.2834E+02
     21.441  0.7884E+00  0.2854E+02
     21.694  0.6663E+00  0.2871E+02
     21.948  0.5838E+00  0.2886E+02
     22.201  0.6418E+00  0.2902E+02
     22.455  0.1229E+01  0.2933E+02
     22.708  0.1141E+01  0.2962E+02
     22.962  0.5769E+00  0.2977E+02
     23.215  0.1022E+01  0.3002E+02
     23.469  0.9371E+00  0.3026E+02
     23.722  0.4368E+00  0.3037E+02
     23.976  0.9308E+00  0.3061E+02
     24.229  0.1156E+01  0.3090E+02
     24.483  0.1011E+01  0.3116E+02
     24.736  0.1010E+01  0.3141E+02
     24.990  0.7403E+00  0.3160E+02
     25.243  0.1099E+01  0.3188E+02
     25.497  0.1074E+01  0.3215E+02
     25.750  0.1130E+01  0.3244E+02
     26.004  0.8038E+00  0.3264E+02
     26.257  0.7109E+00  0.3282E+02
     26.511  0.9135E+00  0.3306E+02
     26.764  0.7348E+00  0.3324E+02
     27.018  0.9423E+00  0.3348E+02
     27.271  0.8948E+00  0.3371E+02
     27.525  0.8214E+00  0.3392E+02
     27.779  0.8123E+00  0.3412E+02
     28.032  0.7676E+00  0.3432E+02
     28.286  0.6962E+00  0.3449E+02
     28.539  0.7725E+00  0.3469E+02
     28.793  0.4389E+00  0.3480E+02
     29.046  0.5665E+00  0.3494E+02
     29.300  0.6957E+00  0.3512E+02
     29.553  0.9652E+00  0.3536E+02
     29.807  0.7590E+00  0.3556E+02
     30.060  0.8446E+00  0.3577E+02
     30.314  0.6176E+00  0.3593E+02
     30.567  0.7645E+00  0.3612E+02
     30.821  0.1044E+01  0.3639E+02
     31.074  0.1113E+01  0.3667E+02
     31.328  0.7348E+00  0.3685E+02
     31.581  0.6659E+00  0.3702E+02
     31.835  0.7599E+00  0.3722E+02
     32.088  0.7031E+00  0.3739E+02
     32.342  0.7840E+00  0.3759E+02
     32.595  0.8713E+00  0.3781E+02
     32.849  0.1247E+01  0.3813E+02
     33.102  0.6963E+00  0.3831E+02
     33.356  0.1119E+01  0.3859E+02
     33.609  0.9221E+00  0.3882E+02
     33.863  0.1072E+01  0.3910E+02
     34.117  0.9046E+00  0.3932E+02
     34.370  0.1238E+01  0.3964E+02
     34.624  0.1075E+01  0.3991E+02
     34.877  0.1295E+01  0.4024E+02
     35.131  0.8794E+00  0.4046E+02
     35.384  0.1080E+01  0.4074E+02
     35.638  0.7503E+00  0.4093E+02
     35.891  0.7665E+00  0.4112E+02
     36.145  0.7303E+00  0.4131E+02
     36.398  0.6600E+00  0.4147E+02
     36.652  0.5512E+00  0.4161E+02
     36.905  0.8596E+00  0.4183E+02
     37.159  0.6796E+00  0.4200E+02
     37.412  0.6389E+00  0.4217E+02
     37.666  0.1012E+01  0.4242E+02
     37.919  0.1315E+01  0.4276E+02
     38.173  0.1029E+01  0.4302E+02
     38.426  0.7833E+00  0.4321E+02
     38.680  0.8315E+00  0.4343E+02
     38.933  0.7790E+00  0.4362E+02
     39.187  0.6677E+00  0.4379E+02
     39.440  0.1211E+01  0.4410E+02
     39.694  0.7637E+00  0.4429E+02
     39.947  0.7890E+00  0.4449E+02
     40.201  0.1544E+01  0.4488E+02
     40.455  0.1158E+01  0.4518E+02
     40.708  0.7758E+00  0.4537E+02
     40.962  0.1136E+01  0.4566E+02
     41.215  0.1006E+01  0.4592E+02
     41.469  0.6890E+00  0.4609E+02
     41.722  0.1318E+01  0.4643E+02
     41.976  0.1164E+01  0.4672E+02
     42.229  0.1011E+01  0.4698E+02
     42.483  0.1427E+01  0.4734E+02
     42.736  0.9515E+00  0.4758E+02
     42.990  0.1135E+01  0.4787E+02
     43.243  0.1328E+01  0.4821E+02
     43.497  0.9582E+00  0.4845E+02
     43.750  0.6999E+00  0.4863E+02
     44.004  0.9604E+00  0.4887E+02
     44.257  0.1167E+01  0.4916E+02
     44.511  0.6882E+00  0.4934E+02
     44.764  0.5880E+00  0.4949E+02
     45.018  0.8102E+00  0.4969E+02
     45.271  0.1181E+01  0.4999E+02
     45.525  0.1314E+01  0.5033E+02
     45.778  0.1094E+01  0.5060E+02
     46.032  0.1022E+01  0.5086E+02
     46.286  0.7667E+00  0.5106E+02
     46.539  0.9391E+00  0.5130E+02
     46.793  0.9966E+00  0.5155E+02
     47.046  0.1421E+01  0.5191E+02
     47.300  0.9428E+00  0.5215E+02
     47.553  0.1006E+01  0.5240E+02
     47.807  0.9679E+00  0.5265E+02
     48.060  0.6645E+00  0.5282E+02
     48.314  0.1200E+01  0.5312E+02
     48.567  0.1817E+01  0.5358E+02
     48.821  0.1614E+01  0.5399E+02
     49.074  0.9830E+00  0.5424E+02
     49.328  0.1270E+01  0.5456E+02
     49.581  0.1254E+01  0.5488E+02
     49.835  0.8084E+00  0.5508E+02
     50.088  0.8465E+00  0.5530E+02
     50.342  0.1272E+01  0.5562E+02
     50.595  0.1166E+01  0.5592E+02
     50.849  0.7696E+00  0.5611E+02
     51.102  0.1080E+01  0.5639E+02
     51.356  0.1075E+01  0.5666E+02
     51.609  0.1312E+01  0.5699E+02
     51.863  0.1341E+01  0.5733E+02
     52.116  0.1139E+01  0.5762E+02
     52.370  0.1381E+01  0.5797E+02
     52.624  0.1415E+01  0.5833E+02
     52.877  0.1203E+01  0.5863E+02
     53.131  0.1285E+01  0.5896E+02
     53.384  0.1562E+01  0.5936E+02
     53.638  0.9680E+00  0.5960E+02
     53.891  0.1192E+01  0.5990E+02
     54.145  0.8786E+00  0.6013E+02
     54.398  0.9483E+00  0.6037E+02
     54.652  0.1427E+01  0.6073E+02
     54.905  0.2092E+01  0.6126E+02
     55.159  0.1948E+01  0.6175E+02
     55.412  0.1574E+01  0.6215E+02
     55.666  0.1073E+01  0.6242E+02
     55.919  0.1151E+01  0.6272E+02
     56.173  0.1384E+01  0.6307E+02
     56.426  0.1795E+01  0.6352E+02
     56.680  0.1630E+01  0.6393E+02
     56.933  0.1242E+01  0.6425E+02
     57.187  0.1546E+01  0.6464E+02
     57.440  0.1385E+01  0.6499E+02
     57.694  0.1850E+01  0.6546E+02
     57.947  0.1537E+01  0.6585E+02
     58.201  0.1752E+01  0.6629E+02
     58.454  0.1993E+01  0.6680E+02
     58.708  0.1390E+01  0.6715E+02
     58.962  0.1239E+01  0.6747E+02
     59.215  0.1403E+01  0.6782E+02
     59.469  0.1666E+01  0.6824E+02
     59.722  0.1241E+01  0.6856E+02
     59.976  0.1097E+01  0.6884E+02
     60.229  0.1457E+01  0.6921E+02
     60.483  0.2047E+01  0.6973E+02
     60.736  0.1837E+01  0.7019E+02
     60.990  0.1566E+01  0.7059E+02
     61.243  0.1597E+01  0.7099E+02
     61.497  0.1602E+01  0.7140E+02
     61.750  0.1816E+01  0.7186E+02
     62.004  0.1550E+01  0.7225E+02
     62.257  0.1751E+01  0.7270E+02
     62.511  0.1883E+01  0.7317E+02
     62.764  0.1951E+01  0.7367E+02
     63.018  0.1237E+01  0.7398E+02
     63.271  0.1512E+01  0.7437E+02
     63.525  0.2217E+01  0.7493E+02
     63.778  0.2412E+01  0.7554E+02
     64.032  0.1784E+01  0.7599E+02
     64.285  0.1946E+01  0.7648E+02
     64.539  0.1760E+01  0.7693E+02
     64.792  0.2392E+01  0.7754E+02
     65.046  0.2160E+01  0.7808E+02
     65.300  0.1437E+01  0.7845E+02
     65.553  0.1682E+01  0.7888E+02
     65.807  0.1552E+01  0.7927E+02
     66.060  0.9593E+00  0.7951E+02
     66.314  0.1118E+01  0.7980E+02
     66.567  0.5907E+00  0.7995E+02
     66.821  0.1438E+00  0.7998E+02
     67.074  0.7308E-01  0.8000E+02
     67.328 -0.9936E-03  0.8000E+02
     67.581 -0.4602E-03  0.8000E+02
     67.835 -0.8692E-06  0.8000E+02
     68.088 -0.5228E-10  0.8000E+02
     68.342 -0.1106E-15  0.8000E+02
     68.595  0.0000E+00  0.8000E+02
     68.849  0.0000E+00  0.8000E+02
     69.102  0.0000E+00  0.8000E+02
     69.356  0.0000E+00  0.8000E+02
     69.609  0.0000E+00  0.8000E+02
     69.863  0.0000E+00  0.8000E+02
     70.116  0.0000E+00  0.8000E+02
     70.370  0.0000E+00  0.8000E+02
