 vasp.6.2.0 18Jan21 (build Mar 17 2021 09:06:54) complex                        
  
 executed on             LinuxIFC date 2021.09.09  12:09:09
 serial version


--------------------------------------------------------------------------------------------------------


 INCAR:
   ENCUT = 280.000000
   SIGMA = 0.200000
   EDIFF = 1.00e-06
   GGA = PE
   PREC = normal
   IBRION = 1
   ICHARG = 1
   ISIF = 2
   ISMEAR = 1
   KPAR = 1
   NBANDS = 40
   NSW = 0
   NCORE = 1
   LCHARG = .TRUE.

 POTCAR:    PAW_PBE Fe 06Sep2000                  
 POTCAR:    PAW_PBE Fe 06Sep2000                  
   SHA256 =  cd5a22d9368cc8b5cc476bea79732366149640da08ac9009b0e1b7fc627eea28 Fe/POTCAR             
   COPYR  = (c) Copyright 06Sep2000 Georg Kresse                                                    
   COPYR  = This file is part of the software VASP. Any use, copying, and all other rights are regul
   COPYR  = If you do not have a valid VASP license, you may not use, copy or distribute this file. 
   VRHFIN =Fe:  d7 s1                                                                               
   LEXCH  = PE                                                                                      
   EATOM  =   594.3153 eV,   43.6809 Ry                                                             
                                                                                                    
   TITEL  = PAW_PBE Fe 06Sep2000                                                                    
   LULTRA =        F    use ultrasoft PP ?                                                          
   IUNSCR =        1    unscreen: 0-lin 1-nonlin 2-no                                               
   RPACOR =    2.000    partial core radius                                                         
   POMASS =   55.847; ZVAL   =    8.000    mass and valenz                                          
   RCORE  =    2.300    outmost cutoff radius                                                       
   RWIGS  =    2.460; RWIGS  =    1.302    wigner-seitz radius (au A)                               
   ENMAX  =  267.882; ENMIN  =  200.911 eV                                                          
   RCLOC  =    1.701    cutoff for local pot                                                        
   LCOR   =        T    correct aug charges                                                         
   LPAW   =        T    paw PP                                                                      
   EAUG   =  511.368                                                                                
   DEXC   =    0.000                                                                                
   RMAX   =    2.356    core radius for proj-oper                                                   
   RAUG   =    1.300    factor for augmentation sphere                                              
   RDEP   =    2.442    radius for radial grids                                                     
   RDEPT  =    1.890    core radius for aug-charge                                                  
                                                                                                    
   Atomic configuration                                                                             
    9 entries                                                                                       
     n  l   j            E        occ.                                                              
     1  0  0.50     -6993.8440   2.0000                                                             
     2  0  0.50      -814.6047   2.0000                                                             
     2  1  1.50      -693.3689   6.0000                                                             
     3  0  0.50       -89.4732   2.0000                                                             
     3  1  1.50       -55.6373   6.0000                                                             
     3  2  2.50        -3.8151   7.0000                                                             
     4  0  0.50        -4.2551   1.0000                                                             
     4  1  1.50        -3.4015   0.0000                                                             
     4  3  2.50        -1.3606   0.0000                                                             
   Description                                                                                      
     l       E           TYP  RCUT    TYP  RCUT                                                     
     2     -3.8151135     23  2.300                                                                 
     2     -5.1756961     23  2.300                                                                 
     0     -4.2550963     23  2.300                                                                 
     0      7.2035603     23  2.300                                                                 
     1     -2.7211652     23  2.300                                                                 
     1     18.4316424     23  2.300                                                                 
  local pseudopotential read in
  partial core-charges read in
  partial kinetic energy density read in
  atomic valenz-charges read in
  non local Contribution for L=           2  read in
    real space projection operators read in
  non local Contribution for L=           2  read in
    real space projection operators read in
  non local Contribution for L=           0  read in
    real space projection operators read in
  non local Contribution for L=           0  read in
    real space projection operators read in
  non local Contribution for L=           1  read in
    real space projection operators read in
  non local Contribution for L=           1  read in
    real space projection operators read in
    PAW grid and wavefunctions read in
 
   number of l-projection  operators is LMAX  =           6
   number of lm-projection operators is LMMAX =          18
 
  PAW_PBE Fe 06Sep2000                  :
 energy of atom  1       EATOM= -594.3153
 kinetic energy error for atom=    0.0278 (will be added to EATOM!!)
 
 
 POSCAR: Fe
  positions in cartesian coordinates
  No initial velocities read in
 exchange correlation table for  LEXCH =        8
   RHO(1)=    0.500       N(1)  =     2000
   RHO(2)=  100.500       N(2)  =     4000
 


--------------------------------------------------------------------------------------------------------


 ion  position               nearest neighbor table
   1  0.000  0.000  0.000-   2 2.54   2 2.54   2 2.54   2 2.54   2 2.54   2 2.54
   2  0.333  0.667  0.500-   1 2.54   1 2.54   1 2.54   1 2.54   1 2.54   1 2.54
 
  LATTYP: Found a hexagonal cell.
 ALAT       =     2.3999000000
 C/A-ratio  =     1.7772532189
  
  Lattice vectors:
  
 A1 = (   2.3999000000,   0.0000000000,   0.0000000000)
 A2 = (  -1.1999500000,   2.0783743665,   0.0000000000)
 A3 = (   0.0000000000,   0.0000000000,   4.2652300000)


Analysis of symmetry for initial positions (statically):
=====================================================================
 Subroutine PRICEL returns:
 Original cell was already a primitive cell.
 

 Routine SETGRP: Setting up the symmetry group for a 
 hexagonal supercell.


 Subroutine GETGRP returns: Found 24 space group operations
 (whereof 12 operations were pure point group operations)
 out of a pool of 24 trial point group operations.


The static configuration has the point symmetry D_3h.
 The point group associated with its full space group is D_6h.


Analysis of symmetry for dynamics (positions and initial velocities):
=====================================================================
 Subroutine PRICEL returns:
 Original cell was already a primitive cell.
 

 Routine SETGRP: Setting up the symmetry group for a 
 hexagonal supercell.


 Subroutine GETGRP returns: Found 24 space group operations
 (whereof 12 operations were pure point group operations)
 out of a pool of 24 trial point group operations.


The dynamic configuration has the point symmetry D_3h.
 The point group associated with its full space group is D_6h.


 Subroutine INISYM returns: Found 24 space group operations
 (whereof 12 operations are pure point group operations),
 and found     1 'primitive' translations


----------------------------------------------------------------------------------------

                                     Primitive cell                                     

  volume of cell :      21.2745

  direct lattice vectors                    reciprocal lattice vectors
     2.399900000  0.000000000  0.000000000     0.416684029  0.240572636  0.000000000
    -1.199950000  2.078374367  0.000000000     0.000000000  0.481145272  0.000000000
     0.000000000  0.000000000  4.265230000     0.000000000  0.000000000  0.234453945

  length of vectors
     2.399900000  2.399900000  4.265230000     0.481145272  0.481145272  0.234453945

  position of ions in fractional coordinates (direct lattice)
     0.000000000  0.000000000  0.000000000
     0.333333333  0.666666667  0.500000000

  ion indices of the primitive-cell ions
   primitive index   ion index
                 1           1
                 2           2

----------------------------------------------------------------------------------------

 
 
 KPOINTS: KPOINTS created by Atomic Simulation Env

Automatic generation of k-mesh.
 Grid dimensions read from file:
 generate k-points for:   11   11   11

 Generating k-lattice:

  Cartesian coordinates                     Fractional coordinates (reciprocal lattice)
     0.037880366  0.021870240  0.000000000     0.090909091 -0.000000000  0.000000000
     0.000000000  0.043740479  0.000000000     0.000000000  0.090909091  0.000000000
     0.000000000  0.000000000  0.021313995     0.000000000  0.000000000  0.090909091

  Length of vectors
     0.043740479  0.043740479  0.021313995

  Shift w.r.t. Gamma in fractional coordinates (k-lattice)
     0.000000000  0.000000000  0.000000000

 
 Subroutine IBZKPT returns following result:
 ===========================================
 
 Found     96 irreducible k-points:
 
 Following reciprocal coordinates:
            Coordinates               Weight
  0.000000  0.000000  0.000000      1.000000
  0.090909  0.000000  0.000000      6.000000
  0.181818  0.000000  0.000000      6.000000
  0.272727  0.000000  0.000000      6.000000
  0.363636  0.000000  0.000000      6.000000
  0.454545  0.000000  0.000000      6.000000
  0.090909  0.090909  0.000000      6.000000
  0.181818  0.090909  0.000000     12.000000
  0.272727  0.090909  0.000000     12.000000
  0.363636  0.090909  0.000000     12.000000
  0.454545  0.090909  0.000000      6.000000
  0.181818  0.181818  0.000000      6.000000
  0.272727  0.181818  0.000000     12.000000
  0.363636  0.181818  0.000000     12.000000
  0.272727  0.272727  0.000000      6.000000
  0.363636  0.272727  0.000000      6.000000
  0.000000  0.000000  0.090909      2.000000
  0.090909  0.000000  0.090909     12.000000
  0.181818  0.000000  0.090909     12.000000
  0.272727  0.000000  0.090909     12.000000
  0.363636  0.000000  0.090909     12.000000
  0.454545  0.000000  0.090909     12.000000
  0.090909  0.090909  0.090909     12.000000
  0.181818  0.090909  0.090909     24.000000
  0.272727  0.090909  0.090909     24.000000
  0.363636  0.090909  0.090909     24.000000
  0.454545  0.090909  0.090909     12.000000
  0.181818  0.181818  0.090909     12.000000
  0.272727  0.181818  0.090909     24.000000
  0.363636  0.181818  0.090909     24.000000
  0.272727  0.272727  0.090909     12.000000
  0.363636  0.272727  0.090909     12.000000
  0.000000  0.000000  0.181818      2.000000
  0.090909  0.000000  0.181818     12.000000
  0.181818  0.000000  0.181818     12.000000
  0.272727  0.000000  0.181818     12.000000
  0.363636  0.000000  0.181818     12.000000
  0.454545  0.000000  0.181818     12.000000
  0.090909  0.090909  0.181818     12.000000
  0.181818  0.090909  0.181818     24.000000
  0.272727  0.090909  0.181818     24.000000
  0.363636  0.090909  0.181818     24.000000
  0.454545  0.090909  0.181818     12.000000
  0.181818  0.181818  0.181818     12.000000
  0.272727  0.181818  0.181818     24.000000
  0.363636  0.181818  0.181818     24.000000
  0.272727  0.272727  0.181818     12.000000
  0.363636  0.272727  0.181818     12.000000
  0.000000  0.000000  0.272727      2.000000
  0.090909  0.000000  0.272727     12.000000
  0.181818  0.000000  0.272727     12.000000
  0.272727  0.000000  0.272727     12.000000
  0.363636  0.000000  0.272727     12.000000
  0.454545  0.000000  0.272727     12.000000
  0.090909  0.090909  0.272727     12.000000
  0.181818  0.090909  0.272727     24.000000
  0.272727  0.090909  0.272727     24.000000
  0.363636  0.090909  0.272727     24.000000
  0.454545  0.090909  0.272727     12.000000
  0.181818  0.181818  0.272727     12.000000
  0.272727  0.181818  0.272727     24.000000
  0.363636  0.181818  0.272727     24.000000
  0.272727  0.272727  0.272727     12.000000
  0.363636  0.272727  0.272727     12.000000
  0.000000  0.000000  0.363636      2.000000
  0.090909  0.000000  0.363636     12.000000
  0.181818  0.000000  0.363636     12.000000
  0.272727  0.000000  0.363636     12.000000
  0.363636  0.000000  0.363636     12.000000
  0.454545  0.000000  0.363636     12.000000
  0.090909  0.090909  0.363636     12.000000
  0.181818  0.090909  0.363636     24.000000
  0.272727  0.090909  0.363636     24.000000
  0.363636  0.090909  0.363636     24.000000
  0.454545  0.090909  0.363636     12.000000
  0.181818  0.181818  0.363636     12.000000
  0.272727  0.181818  0.363636     24.000000
  0.363636  0.181818  0.363636     24.000000
  0.272727  0.272727  0.363636     12.000000
  0.363636  0.272727  0.363636     12.000000
  0.000000  0.000000  0.454545      2.000000
  0.090909  0.000000  0.454545     12.000000
  0.181818  0.000000  0.454545     12.000000
  0.272727  0.000000  0.454545     12.000000
  0.363636  0.000000  0.454545     12.000000
  0.454545  0.000000  0.454545     12.000000
  0.090909  0.090909  0.454545     12.000000
  0.181818  0.090909  0.454545     24.000000
  0.272727  0.090909  0.454545     24.000000
  0.363636  0.090909  0.454545     24.000000
  0.454545  0.090909  0.454545     12.000000
  0.181818  0.181818  0.454545     12.000000
  0.272727  0.181818  0.454545     24.000000
  0.363636  0.181818  0.454545     24.000000
  0.272727  0.272727  0.454545     12.000000
  0.363636  0.272727  0.454545     12.000000
 
 Following cartesian coordinates:
            Coordinates               Weight
  0.000000  0.000000  0.000000      1.000000
  0.037880  0.021870  0.000000      6.000000
  0.075761  0.043740  0.000000      6.000000
  0.113641  0.065611  0.000000      6.000000
  0.151521  0.087481  0.000000      6.000000
  0.189402  0.109351  0.000000      6.000000
  0.037880  0.065611  0.000000      6.000000
  0.075761  0.087481  0.000000     12.000000
  0.113641  0.109351  0.000000     12.000000
  0.151521  0.131221  0.000000     12.000000
  0.189402  0.153092  0.000000      6.000000
  0.075761  0.131221  0.000000      6.000000
  0.113641  0.153092  0.000000     12.000000
  0.151521  0.174962  0.000000     12.000000
  0.113641  0.196832  0.000000      6.000000
  0.151521  0.218702  0.000000      6.000000
  0.000000  0.000000  0.021314      2.000000
  0.037880  0.021870  0.021314     12.000000
  0.075761  0.043740  0.021314     12.000000
  0.113641  0.065611  0.021314     12.000000
  0.151521  0.087481  0.021314     12.000000
  0.189402  0.109351  0.021314     12.000000
  0.037880  0.065611  0.021314     12.000000
  0.075761  0.087481  0.021314     24.000000
  0.113641  0.109351  0.021314     24.000000
  0.151521  0.131221  0.021314     24.000000
  0.189402  0.153092  0.021314     12.000000
  0.075761  0.131221  0.021314     12.000000
  0.113641  0.153092  0.021314     24.000000
  0.151521  0.174962  0.021314     24.000000
  0.113641  0.196832  0.021314     12.000000
  0.151521  0.218702  0.021314     12.000000
  0.000000  0.000000  0.042628      2.000000
  0.037880  0.021870  0.042628     12.000000
  0.075761  0.043740  0.042628     12.000000
  0.113641  0.065611  0.042628     12.000000
  0.151521  0.087481  0.042628     12.000000
  0.189402  0.109351  0.042628     12.000000
  0.037880  0.065611  0.042628     12.000000
  0.075761  0.087481  0.042628     24.000000
  0.113641  0.109351  0.042628     24.000000
  0.151521  0.131221  0.042628     24.000000
  0.189402  0.153092  0.042628     12.000000
  0.075761  0.131221  0.042628     12.000000
  0.113641  0.153092  0.042628     24.000000
  0.151521  0.174962  0.042628     24.000000
  0.113641  0.196832  0.042628     12.000000
  0.151521  0.218702  0.042628     12.000000
  0.000000  0.000000  0.063942      2.000000
  0.037880  0.021870  0.063942     12.000000
  0.075761  0.043740  0.063942     12.000000
  0.113641  0.065611  0.063942     12.000000
  0.151521  0.087481  0.063942     12.000000
  0.189402  0.109351  0.063942     12.000000
  0.037880  0.065611  0.063942     12.000000
  0.075761  0.087481  0.063942     24.000000
  0.113641  0.109351  0.063942     24.000000
  0.151521  0.131221  0.063942     24.000000
  0.189402  0.153092  0.063942     12.000000
  0.075761  0.131221  0.063942     12.000000
  0.113641  0.153092  0.063942     24.000000
  0.151521  0.174962  0.063942     24.000000
  0.113641  0.196832  0.063942     12.000000
  0.151521  0.218702  0.063942     12.000000
  0.000000  0.000000  0.085256      2.000000
  0.037880  0.021870  0.085256     12.000000
  0.075761  0.043740  0.085256     12.000000
  0.113641  0.065611  0.085256     12.000000
  0.151521  0.087481  0.085256     12.000000
  0.189402  0.109351  0.085256     12.000000
  0.037880  0.065611  0.085256     12.000000
  0.075761  0.087481  0.085256     24.000000
  0.113641  0.109351  0.085256     24.000000
  0.151521  0.131221  0.085256     24.000000
  0.189402  0.153092  0.085256     12.000000
  0.075761  0.131221  0.085256     12.000000
  0.113641  0.153092  0.085256     24.000000
  0.151521  0.174962  0.085256     24.000000
  0.113641  0.196832  0.085256     12.000000
  0.151521  0.218702  0.085256     12.000000
  0.000000  0.000000  0.106570      2.000000
  0.037880  0.021870  0.106570     12.000000
  0.075761  0.043740  0.106570     12.000000
  0.113641  0.065611  0.106570     12.000000
  0.151521  0.087481  0.106570     12.000000
  0.189402  0.109351  0.106570     12.000000
  0.037880  0.065611  0.106570     12.000000
  0.075761  0.087481  0.106570     24.000000
  0.113641  0.109351  0.106570     24.000000
  0.151521  0.131221  0.106570     24.000000
  0.189402  0.153092  0.106570     12.000000
  0.075761  0.131221  0.106570     12.000000
  0.113641  0.153092  0.106570     24.000000
  0.151521  0.174962  0.106570     24.000000
  0.113641  0.196832  0.106570     12.000000
  0.151521  0.218702  0.106570     12.000000
 


--------------------------------------------------------------------------------------------------------




 Dimension of arrays:
   k-points           NKPTS =     96   k-points in BZ     NKDIM =     96   number of bands    NBANDS=     40
   number of dos      NEDOS =    301   number of ions     NIONS =      2
   non local maximal  LDIM  =      6   non local SUM 2l+1 LMDIM =     18
   total plane-waves  NPLWV =   1800
   max r-space proj   IRMAX =      1   max aug-charges    IRDMAX=   3213
   dimension x,y,z NGX =    10 NGY =   10 NGZ =   18
   dimension x,y,z NGXF=    20 NGYF=   20 NGZF=   36
   support grid    NGXF=    20 NGYF=   20 NGZF=   36
   ions per type =               2
   NGX,Y,Z   is equivalent  to a cutoff of   6.93,  6.93,  7.02 a.u.
   NGXF,Y,Z  is equivalent  to a cutoff of  13.85, 13.85, 14.03 a.u.

 SYSTEM =  unknown system                          
 POSCAR =  Fe                                      

 Startparameter for this run:
   NWRITE =      2    write-flag & timer
   PREC   = normal    normal or accurate (medium, high low for compatibility)
   ISTART =      0    job   : 0-new  1-cont  2-samecut
   ICHARG =      1    charge: 1-file 2-atom 10-const
   ISPIN  =      1    spin polarized calculation?
   LNONCOLLINEAR =      F non collinear calculations
   LSORBIT =      F    spin-orbit coupling
   INIWAV =      1    electr: 0-lowe 1-rand  2-diag
   LASPH  =      F    aspherical Exc in radial PAW
   METAGGA=      F    non-selfconsistent MetaGGA calc.

 Electronic Relaxation 1
   ENCUT  =  280.0 eV  20.58 Ry    4.54 a.u.   3.27  3.27  5.82*2*pi/ulx,y,z
   ENINI  =  280.0     initial cutoff
   ENAUG  =  511.4 eV  augmentation charge cutoff
   NELM   =     60;   NELMIN=  2; NELMDL= -5     # of ELM steps 
   EDIFF  = 0.1E-05   stopping-criterion for ELM
   LREAL  =      F    real-space projection
   NLSPLINE    = F    spline interpolate recip. space projectors
   LCOMPAT=      F    compatible to vasp.4.4
   GGA_COMPAT  = T    GGA compatible to vasp.4.4-vasp.4.6
   LMAXPAW     = -100 max onsite density
   LMAXMIX     =    2 max onsite mixed and CHGCAR
   VOSKOWN=      0    Vosko Wilk Nusair interpolation
   ROPT   =    0.00000
 Ionic relaxation
   EDIFFG = 0.1E-04   stopping-criterion for IOM
   NSW    =      0    number of steps for IOM
   NBLOCK =      1;   KBLOCK =      1    inner block; outer block 
   IBRION =     -1    ionic relax: 0-MD 1-quasi-New 2-CG
   NFREE  =      0    steps in history (QN), initial steepest desc. (CG)
   ISIF   =      2    stress and relaxation
   IWAVPR =      0    prediction:  0-non 1-charg 2-wave 3-comb
   ISYM   =      2    0-nonsym 1-usesym 2-fastsym
   LCORR  =      T    Harris-Foulkes like correction to forces

   POTIM  = 0.5000    time-step for ionic-motion
   TEIN   =    0.0    initial temperature
   TEBEG  =    0.0;   TEEND  =   0.0 temperature during run
   SMASS  =  -3.00    Nose mass-parameter (am)
   estimated Nose-frequenzy (Omega)   =  0.10E-29 period in steps = 0.13E+47 mass=  -0.132E-27a.u.
   SCALEE = 1.0000    scale energy and forces
   NPACO  =    256;   APACO  = 16.0  distance and # of slots for P.C.
   PSTRESS=    0.0 pullay stress

  Mass of Ions in am
   POMASS =  55.85
  Ionic Valenz
   ZVAL   =   8.00
  Atomic Wigner-Seitz radii
   RWIGS  =  -1.00
  virtual crystal weights 
   VCA    =   1.00
   NELECT =      16.0000    total number of electrons
   NUPDOWN=      -1.0000    fix difference up-down

 DOS related values:
   EMIN   =  10.00;   EMAX   =-10.00  energy-range for DOS
   EFERMI =   0.00
   ISMEAR =     1;   SIGMA  =   0.20  broadening in eV -4-tet -1-fermi 0-gaus

 Electronic relaxation 2 (details)
   IALGO  =     38    algorithm
   LDIAG  =      T    sub-space diagonalisation (order eigenvalues)
   LSUBROT=      F    optimize rotation matrix (better conditioning)
   TURBO    =      0    0=normal 1=particle mesh
   IRESTART =      0    0=no restart 2=restart with 2 vectors
   NREBOOT  =      0    no. of reboots
   NMIN     =      0    reboot dimension
   EREF     =   0.00    reference energy to select bands
   IMIX   =      4    mixing-type and parameters
     AMIX     =   0.40;   BMIX     =  1.00
     AMIX_MAG =   1.60;   BMIX_MAG =  1.00
     AMIN     =   0.10
     WC   =   100.;   INIMIX=   1;  MIXPRE=   1;  MAXMIX= -45

 Intra band minimization:
   WEIMIN = 0.0000     energy-eigenvalue tresh-hold
   EBREAK =  0.62E-08  absolut break condition
   DEPER  =   0.30     relativ break condition  

   TIME   =   0.40     timestep for ELM

  volume/ion in A,a.u.               =      10.64        71.78
  Fermi-wavevector in a.u.,A,eV,Ry     =   1.488773  2.813372 30.156549  2.216444
  Thomas-Fermi vector in A             =   2.601765
 
 Write flags
   LWAVE        =      T    write WAVECAR
   LDOWNSAMPLE  =      F    k-point downsampling of WAVECAR
   LCHARG       =      T    write CHGCAR
   LVTOT        =      F    write LOCPOT, total local potential
   LVHAR        =      F    write LOCPOT, Hartree potential only
   LELF         =      F    write electronic localiz. function (ELF)
   LORBIT       =      0    0 simple, 1 ext, 2 COOP (PROOUT), +10 PAW based schemes


 Dipole corrections
   LMONO  =      F    monopole corrections only (constant potential shift)
   LDIPOL =      F    correct potential (dipole corrections)
   IDIPOL =      0    1-x, 2-y, 3-z, 4-all directions 
   EPSILON=  1.0000000 bulk dielectric constant

 Exchange correlation treatment:
   GGA     =    PE    GGA type
   LEXCH   =     8    internal setting for exchange type
   VOSKOWN=      0    Vosko Wilk Nusair interpolation
   LHFCALC =     F    Hartree Fock is set to
   LHFONE  =     F    Hartree Fock one center treatment
   AEXX    =    0.0000 exact exchange contribution

 Linear response parameters
   LEPSILON=     F    determine dielectric tensor
   LRPA    =     F    only Hartree local field effects (RPA)
   LNABLA  =     F    use nabla operator in PAW spheres
   LVEL    =     F    velocity operator in full k-point grid
   LINTERFAST=   F  fast interpolation
   KINTER  =     0    interpolate to denser k-point grid
   CSHIFT  =0.1000    complex shift for real part using Kramers Kronig
   OMEGAMAX=  -1.0    maximum frequency
   DEG_THRESHOLD= 0.2000000E-02 threshold for treating states as degnerate
   RTIME   =   -0.100 relaxation time in fs
  (WPLASMAI=    0.000 imaginary part of plasma frequency in eV, 0.658/RTIME)
   DFIELD  = 0.0000000 0.0000000 0.0000000 field for delta impulse in time
 
 Orbital magnetization related:
   ORBITALMAG=     F  switch on orbital magnetization
   LCHIMAG   =     F  perturbation theory with respect to B field
   DQ        =  0.001000  dq finite difference perturbation B field
   LLRAUG    =     F  two centre corrections for induced B field



--------------------------------------------------------------------------------------------------------


 Static calculation
 charge density and potential will be updated during run
 non-spin polarized calculation
 Variant of blocked Davidson
 Davidson routine will perform the subspace rotation
 perform sub-space diagonalisation
    after iterative eigenvector-optimisation
 modified Broyden-mixing scheme, WC =      100.0
 initial mixing is a Kerker type mixing with AMIX =  0.4000 and BMIX =      1.0000
 Hartree-type preconditioning will be used
 using additional bands           32
 reciprocal scheme for non local part
 use partial core corrections
 calculate Harris-corrections to forces 
   (improved forces if not selfconsistent)
 use gradient corrections 
 use of overlap-Matrix (Vanderbilt PP)
 Methfessel and Paxton  Order N= 1 SIGMA  =   0.20


--------------------------------------------------------------------------------------------------------


  energy-cutoff  :      280.00
  volume of cell :       21.27
      direct lattice vectors                 reciprocal lattice vectors
     2.399900000  0.000000000  0.000000000     0.416684029  0.240572636  0.000000000
    -1.199950000  2.078374367  0.000000000     0.000000000  0.481145272  0.000000000
     0.000000000  0.000000000  4.265230000     0.000000000  0.000000000  0.234453945

  length of vectors
     2.399900000  2.399900000  4.265230000     0.481145272  0.481145272  0.234453945


 
 k-points in units of 2pi/SCALE and weight: KPOINTS created by Atomic Simulation Env
   0.00000000  0.00000000  0.00000000       0.001
   0.03788037  0.02187024  0.00000000       0.005
   0.07576073  0.04374048  0.00000000       0.005
   0.11364110  0.06561072  0.00000000       0.005
   0.15152146  0.08748096  0.00000000       0.005
   0.18940183  0.10935120  0.00000000       0.005
   0.03788037  0.06561072  0.00000000       0.005
   0.07576073  0.08748096  0.00000000       0.009
   0.11364110  0.10935120  0.00000000       0.009
   0.15152146  0.13122144  0.00000000       0.009
   0.18940183  0.15309168  0.00000000       0.005
   0.07576073  0.13122144  0.00000000       0.005
   0.11364110  0.15309168  0.00000000       0.009
   0.15152146  0.17496192  0.00000000       0.009
   0.11364110  0.19683216  0.00000000       0.005
   0.15152146  0.21870240  0.00000000       0.005
   0.00000000  0.00000000  0.02131400       0.002
   0.03788037  0.02187024  0.02131400       0.009
   0.07576073  0.04374048  0.02131400       0.009
   0.11364110  0.06561072  0.02131400       0.009
   0.15152146  0.08748096  0.02131400       0.009
   0.18940183  0.10935120  0.02131400       0.009
   0.03788037  0.06561072  0.02131400       0.009
   0.07576073  0.08748096  0.02131400       0.018
   0.11364110  0.10935120  0.02131400       0.018
   0.15152146  0.13122144  0.02131400       0.018
   0.18940183  0.15309168  0.02131400       0.009
   0.07576073  0.13122144  0.02131400       0.009
   0.11364110  0.15309168  0.02131400       0.018
   0.15152146  0.17496192  0.02131400       0.018
   0.11364110  0.19683216  0.02131400       0.009
   0.15152146  0.21870240  0.02131400       0.009
   0.00000000  0.00000000  0.04262799       0.002
   0.03788037  0.02187024  0.04262799       0.009
   0.07576073  0.04374048  0.04262799       0.009
   0.11364110  0.06561072  0.04262799       0.009
   0.15152146  0.08748096  0.04262799       0.009
   0.18940183  0.10935120  0.04262799       0.009
   0.03788037  0.06561072  0.04262799       0.009
   0.07576073  0.08748096  0.04262799       0.018
   0.11364110  0.10935120  0.04262799       0.018
   0.15152146  0.13122144  0.04262799       0.018
   0.18940183  0.15309168  0.04262799       0.009
   0.07576073  0.13122144  0.04262799       0.009
   0.11364110  0.15309168  0.04262799       0.018
   0.15152146  0.17496192  0.04262799       0.018
   0.11364110  0.19683216  0.04262799       0.009
   0.15152146  0.21870240  0.04262799       0.009
   0.00000000  0.00000000  0.06394199       0.002
   0.03788037  0.02187024  0.06394199       0.009
   0.07576073  0.04374048  0.06394199       0.009
   0.11364110  0.06561072  0.06394199       0.009
   0.15152146  0.08748096  0.06394199       0.009
   0.18940183  0.10935120  0.06394199       0.009
   0.03788037  0.06561072  0.06394199       0.009
   0.07576073  0.08748096  0.06394199       0.018
   0.11364110  0.10935120  0.06394199       0.018
   0.15152146  0.13122144  0.06394199       0.018
   0.18940183  0.15309168  0.06394199       0.009
   0.07576073  0.13122144  0.06394199       0.009
   0.11364110  0.15309168  0.06394199       0.018
   0.15152146  0.17496192  0.06394199       0.018
   0.11364110  0.19683216  0.06394199       0.009
   0.15152146  0.21870240  0.06394199       0.009
   0.00000000  0.00000000  0.08525598       0.002
   0.03788037  0.02187024  0.08525598       0.009
   0.07576073  0.04374048  0.08525598       0.009
   0.11364110  0.06561072  0.08525598       0.009
   0.15152146  0.08748096  0.08525598       0.009
   0.18940183  0.10935120  0.08525598       0.009
   0.03788037  0.06561072  0.08525598       0.009
   0.07576073  0.08748096  0.08525598       0.018
   0.11364110  0.10935120  0.08525598       0.018
   0.15152146  0.13122144  0.08525598       0.018
   0.18940183  0.15309168  0.08525598       0.009
   0.07576073  0.13122144  0.08525598       0.009
   0.11364110  0.15309168  0.08525598       0.018
   0.15152146  0.17496192  0.08525598       0.018
   0.11364110  0.19683216  0.08525598       0.009
   0.15152146  0.21870240  0.08525598       0.009
   0.00000000  0.00000000  0.10656998       0.002
   0.03788037  0.02187024  0.10656998       0.009
   0.07576073  0.04374048  0.10656998       0.009
   0.11364110  0.06561072  0.10656998       0.009
   0.15152146  0.08748096  0.10656998       0.009
   0.18940183  0.10935120  0.10656998       0.009
   0.03788037  0.06561072  0.10656998       0.009
   0.07576073  0.08748096  0.10656998       0.018
   0.11364110  0.10935120  0.10656998       0.018
   0.15152146  0.13122144  0.10656998       0.018
   0.18940183  0.15309168  0.10656998       0.009
   0.07576073  0.13122144  0.10656998       0.009
   0.11364110  0.15309168  0.10656998       0.018
   0.15152146  0.17496192  0.10656998       0.018
   0.11364110  0.19683216  0.10656998       0.009
   0.15152146  0.21870240  0.10656998       0.009
 
 k-points in reciprocal lattice and weights: KPOINTS created by Atomic Simulation Env
   0.00000000  0.00000000  0.00000000       0.001
   0.09090909  0.00000000  0.00000000       0.005
   0.18181818  0.00000000  0.00000000       0.005
   0.27272727  0.00000000  0.00000000       0.005
   0.36363636  0.00000000  0.00000000       0.005
   0.45454545  0.00000000  0.00000000       0.005
   0.09090909  0.09090909  0.00000000       0.005
   0.18181818  0.09090909  0.00000000       0.009
   0.27272727  0.09090909  0.00000000       0.009
   0.36363636  0.09090909  0.00000000       0.009
   0.45454545  0.09090909  0.00000000       0.005
   0.18181818  0.18181818  0.00000000       0.005
   0.27272727  0.18181818  0.00000000       0.009
   0.36363636  0.18181818  0.00000000       0.009
   0.27272727  0.27272727  0.00000000       0.005
   0.36363636  0.27272727  0.00000000       0.005
   0.00000000  0.00000000  0.09090909       0.002
   0.09090909  0.00000000  0.09090909       0.009
   0.18181818  0.00000000  0.09090909       0.009
   0.27272727  0.00000000  0.09090909       0.009
   0.36363636  0.00000000  0.09090909       0.009
   0.45454545  0.00000000  0.09090909       0.009
   0.09090909  0.09090909  0.09090909       0.009
   0.18181818  0.09090909  0.09090909       0.018
   0.27272727  0.09090909  0.09090909       0.018
   0.36363636  0.09090909  0.09090909       0.018
   0.45454545  0.09090909  0.09090909       0.009
   0.18181818  0.18181818  0.09090909       0.009
   0.27272727  0.18181818  0.09090909       0.018
   0.36363636  0.18181818  0.09090909       0.018
   0.27272727  0.27272727  0.09090909       0.009
   0.36363636  0.27272727  0.09090909       0.009
   0.00000000  0.00000000  0.18181818       0.002
   0.09090909  0.00000000  0.18181818       0.009
   0.18181818  0.00000000  0.18181818       0.009
   0.27272727  0.00000000  0.18181818       0.009
   0.36363636  0.00000000  0.18181818       0.009
   0.45454545  0.00000000  0.18181818       0.009
   0.09090909  0.09090909  0.18181818       0.009
   0.18181818  0.09090909  0.18181818       0.018
   0.27272727  0.09090909  0.18181818       0.018
   0.36363636  0.09090909  0.18181818       0.018
   0.45454545  0.09090909  0.18181818       0.009
   0.18181818  0.18181818  0.18181818       0.009
   0.27272727  0.18181818  0.18181818       0.018
   0.36363636  0.18181818  0.18181818       0.018
   0.27272727  0.27272727  0.18181818       0.009
   0.36363636  0.27272727  0.18181818       0.009
   0.00000000  0.00000000  0.27272727       0.002
   0.09090909  0.00000000  0.27272727       0.009
   0.18181818  0.00000000  0.27272727       0.009
   0.27272727  0.00000000  0.27272727       0.009
   0.36363636  0.00000000  0.27272727       0.009
   0.45454545  0.00000000  0.27272727       0.009
   0.09090909  0.09090909  0.27272727       0.009
   0.18181818  0.09090909  0.27272727       0.018
   0.27272727  0.09090909  0.27272727       0.018
   0.36363636  0.09090909  0.27272727       0.018
   0.45454545  0.09090909  0.27272727       0.009
   0.18181818  0.18181818  0.27272727       0.009
   0.27272727  0.18181818  0.27272727       0.018
   0.36363636  0.18181818  0.27272727       0.018
   0.27272727  0.27272727  0.27272727       0.009
   0.36363636  0.27272727  0.27272727       0.009
   0.00000000  0.00000000  0.36363636       0.002
   0.09090909  0.00000000  0.36363636       0.009
   0.18181818  0.00000000  0.36363636       0.009
   0.27272727  0.00000000  0.36363636       0.009
   0.36363636  0.00000000  0.36363636       0.009
   0.45454545  0.00000000  0.36363636       0.009
   0.09090909  0.09090909  0.36363636       0.009
   0.18181818  0.09090909  0.36363636       0.018
   0.27272727  0.09090909  0.36363636       0.018
   0.36363636  0.09090909  0.36363636       0.018
   0.45454545  0.09090909  0.36363636       0.009
   0.18181818  0.18181818  0.36363636       0.009
   0.27272727  0.18181818  0.36363636       0.018
   0.36363636  0.18181818  0.36363636       0.018
   0.27272727  0.27272727  0.36363636       0.009
   0.36363636  0.27272727  0.36363636       0.009
   0.00000000  0.00000000  0.45454545       0.002
   0.09090909  0.00000000  0.45454545       0.009
   0.18181818  0.00000000  0.45454545       0.009
   0.27272727  0.00000000  0.45454545       0.009
   0.36363636  0.00000000  0.45454545       0.009
   0.45454545  0.00000000  0.45454545       0.009
   0.09090909  0.09090909  0.45454545       0.009
   0.18181818  0.09090909  0.45454545       0.018
   0.27272727  0.09090909  0.45454545       0.018
   0.36363636  0.09090909  0.45454545       0.018
   0.45454545  0.09090909  0.45454545       0.009
   0.18181818  0.18181818  0.45454545       0.009
   0.27272727  0.18181818  0.45454545       0.018
   0.36363636  0.18181818  0.45454545       0.018
   0.27272727  0.27272727  0.45454545       0.009
   0.36363636  0.27272727  0.45454545       0.009
 
 position of ions in fractional coordinates (direct lattice) 
   0.00000000  0.00000000  0.00000000
   0.33333333  0.66666667  0.50000000
 
 position of ions in cartesian coordinates  (Angst):
   0.00000000  0.00000000  0.00000000
   0.00000000  1.38558291  2.13261500
 


--------------------------------------------------------------------------------------------------------


 k-point   1 :   0.0000 0.0000 0.0000  plane waves:     245
 k-point   2 :   0.0909 0.0000 0.0000  plane waves:     231
 k-point   3 :   0.1818 0.0000 0.0000  plane waves:     224
 k-point   4 :   0.2727 0.0000 0.0000  plane waves:     222
 k-point   5 :   0.3636 0.0000 0.0000  plane waves:     232
 k-point   6 :   0.4545 0.0000 0.0000  plane waves:     226
 k-point   7 :   0.0909 0.0909 0.0000  plane waves:     225
 k-point   8 :   0.1818 0.0909 0.0000  plane waves:     228
 k-point   9 :   0.2727 0.0909 0.0000  plane waves:     227
 k-point  10 :   0.3636 0.0909 0.0000  plane waves:     227
 k-point  11 :   0.4545 0.0909 0.0000  plane waves:     222
 k-point  12 :   0.1818 0.1818 0.0000  plane waves:     229
 k-point  13 :   0.2727 0.1818 0.0000  plane waves:     226
 k-point  14 :   0.3636 0.1818 0.0000  plane waves:     222
 k-point  15 :   0.2727 0.2727 0.0000  plane waves:     229
 k-point  16 :   0.3636 0.2727 0.0000  plane waves:     218
 k-point  17 :   0.0000 0.0000 0.0909  plane waves:     245
 k-point  18 :   0.0909 0.0000 0.0909  plane waves:     232
 k-point  19 :   0.1818 0.0000 0.0909  plane waves:     224
 k-point  20 :   0.2727 0.0000 0.0909  plane waves:     226
 k-point  21 :   0.3636 0.0000 0.0909  plane waves:     228
 k-point  22 :   0.4545 0.0000 0.0909  plane waves:     230
 k-point  23 :   0.0909 0.0909 0.0909  plane waves:     227
 k-point  24 :   0.1818 0.0909 0.0909  plane waves:     226
 k-point  25 :   0.2727 0.0909 0.0909  plane waves:     226
 k-point  26 :   0.3636 0.0909 0.0909  plane waves:     226
 k-point  27 :   0.4545 0.0909 0.0909  plane waves:     223
 k-point  28 :   0.1818 0.1818 0.0909  plane waves:     227
 k-point  29 :   0.2727 0.1818 0.0909  plane waves:     228
 k-point  30 :   0.3636 0.1818 0.0909  plane waves:     225
 k-point  31 :   0.2727 0.2727 0.0909  plane waves:     223
 k-point  32 :   0.3636 0.2727 0.0909  plane waves:     222
 k-point  33 :   0.0000 0.0000 0.1818  plane waves:     228
 k-point  34 :   0.0909 0.0000 0.1818  plane waves:     230
 k-point  35 :   0.1818 0.0000 0.1818  plane waves:     230
 k-point  36 :   0.2727 0.0000 0.1818  plane waves:     222
 k-point  37 :   0.3636 0.0000 0.1818  plane waves:     224
 k-point  38 :   0.4545 0.0000 0.1818  plane waves:     231
 k-point  39 :   0.0909 0.0909 0.1818  plane waves:     228
 k-point  40 :   0.1818 0.0909 0.1818  plane waves:     229
 k-point  41 :   0.2727 0.0909 0.1818  plane waves:     226
 k-point  42 :   0.3636 0.0909 0.1818  plane waves:     225
 k-point  43 :   0.4545 0.0909 0.1818  plane waves:     223
 k-point  44 :   0.1818 0.1818 0.1818  plane waves:     227
 k-point  45 :   0.2727 0.1818 0.1818  plane waves:     225
 k-point  46 :   0.3636 0.1818 0.1818  plane waves:     226
 k-point  47 :   0.2727 0.2727 0.1818  plane waves:     223
 k-point  48 :   0.3636 0.2727 0.1818  plane waves:     228
 k-point  49 :   0.0000 0.0000 0.2727  plane waves:     228
 k-point  50 :   0.0909 0.0000 0.2727  plane waves:     229
 k-point  51 :   0.1818 0.0000 0.2727  plane waves:     229
 k-point  52 :   0.2727 0.0000 0.2727  plane waves:     224
 k-point  53 :   0.3636 0.0000 0.2727  plane waves:     223
 k-point  54 :   0.4545 0.0000 0.2727  plane waves:     228
 k-point  55 :   0.0909 0.0909 0.2727  plane waves:     233
 k-point  56 :   0.1818 0.0909 0.2727  plane waves:     223
 k-point  57 :   0.2727 0.0909 0.2727  plane waves:     224
 k-point  58 :   0.3636 0.0909 0.2727  plane waves:     227
 k-point  59 :   0.4545 0.0909 0.2727  plane waves:     223
 k-point  60 :   0.1818 0.1818 0.2727  plane waves:     228
 k-point  61 :   0.2727 0.1818 0.2727  plane waves:     227
 k-point  62 :   0.3636 0.1818 0.2727  plane waves:     226
 k-point  63 :   0.2727 0.2727 0.2727  plane waves:     223
 k-point  64 :   0.3636 0.2727 0.2727  plane waves:     226
 k-point  65 :   0.0000 0.0000 0.3636  plane waves:     228
 k-point  66 :   0.0909 0.0000 0.3636  plane waves:     232
 k-point  67 :   0.1818 0.0000 0.3636  plane waves:     228
 k-point  68 :   0.2727 0.0000 0.3636  plane waves:     220
 k-point  69 :   0.3636 0.0000 0.3636  plane waves:     224
 k-point  70 :   0.4545 0.0000 0.3636  plane waves:     225
 k-point  71 :   0.0909 0.0909 0.3636  plane waves:     230
 k-point  72 :   0.1818 0.0909 0.3636  plane waves:     223
 k-point  73 :   0.2727 0.0909 0.3636  plane waves:     225
 k-point  74 :   0.3636 0.0909 0.3636  plane waves:     228
 k-point  75 :   0.4545 0.0909 0.3636  plane waves:     228
 k-point  76 :   0.1818 0.1818 0.3636  plane waves:     222
 k-point  77 :   0.2727 0.1818 0.3636  plane waves:     225
 k-point  78 :   0.3636 0.1818 0.3636  plane waves:     229
 k-point  79 :   0.2727 0.2727 0.3636  plane waves:     224
 k-point  80 :   0.3636 0.2727 0.3636  plane waves:     228
 k-point  81 :   0.0000 0.0000 0.4545  plane waves:     228
 k-point  82 :   0.0909 0.0000 0.4545  plane waves:     231
 k-point  83 :   0.1818 0.0000 0.4545  plane waves:     231
 k-point  84 :   0.2727 0.0000 0.4545  plane waves:     225
 k-point  85 :   0.3636 0.0000 0.4545  plane waves:     222
 k-point  86 :   0.4545 0.0000 0.4545  plane waves:     228
 k-point  87 :   0.0909 0.0909 0.4545  plane waves:     226
 k-point  88 :   0.1818 0.0909 0.4545  plane waves:     226
 k-point  89 :   0.2727 0.0909 0.4545  plane waves:     226
 k-point  90 :   0.3636 0.0909 0.4545  plane waves:     227
 k-point  91 :   0.4545 0.0909 0.4545  plane waves:     233
 k-point  92 :   0.1818 0.1818 0.4545  plane waves:     226
 k-point  93 :   0.2727 0.1818 0.4545  plane waves:     224
 k-point  94 :   0.3636 0.1818 0.4545  plane waves:     227
 k-point  95 :   0.2727 0.2727 0.4545  plane waves:     226
 k-point  96 :   0.3636 0.2727 0.4545  plane waves:     226

 maximum number of plane-waves:       245
 maximum index in each direction: 
   IXMAX=    3   IYMAX=    3   IZMAX=    5
   IXMIN=   -3   IYMIN=   -3   IZMIN=   -6


 total amount of memory used by VASP MPI-rank0    51501. kBytes
=======================================================================

   base      :      30000. kBytes
   nonl-proj :       3394. kBytes
   grid      :        812. kBytes
   one-center:         31. kBytes
   wavefun   :      17264. kBytes
 
     INWAV:  cpu time    0.0000: real time    0.0000
 Broyden mixing: mesh for mixing (old mesh)
   NGX =  7   NGY =  7   NGZ = 11
  (NGX  = 20   NGY  = 20   NGZ  = 36)
  gives a total of    539 points

 initial charge density was supplied:
 charge density of overlapping atoms calculated
 number of electron      16.0000000 magnetization 
 keeping initial charge density in first step


--------------------------------------------------------------------------------------------------------


 Maximum index for augmentation-charges         2934 (set IRDMAX)


--------------------------------------------------------------------------------------------------------


 First call to EWALD:  gamma=   0.640
 Maximum number of real-space cells 3x 3x 2
 Maximum number of reciprocal cells 2x 2x 4

    FEWALD:  cpu time    0.0011: real time    0.0011


--------------------------------------- Iteration      1(   1)  ---------------------------------------


    POTLOK:  cpu time    0.0048: real time    0.0048
    SETDIJ:  cpu time    0.0028: real time    0.0028
     EDDAV:  cpu time    0.8136: real time    0.8432
       DOS:  cpu time    0.0059: real time    0.0059
    --------------------------------------------
      LOOP:  cpu time    0.8271: real time    0.8567

 eigenvalue-minimisations  :  9120
 total energy-change (2. order) : 0.6127131E+02  (-0.2749765E+03)
 number of electron      16.0000000 magnetization 
 augmentation part       16.0000000 magnetization 

 Free energy of the ion-electron system (eV)
  ---------------------------------------------------
  alpha Z        PSCENC =       129.94669372
  Ewald energy   TEWEN  =     -1208.97417749
  -Hartree energ DENC   =      -214.19115140
  -exchange      EXHF   =         0.00000000
  -V(xc)+E(xc)   XCENC  =         8.22729656
  PAW double counting   =      1109.69170683    -1125.09647265
  entropy T*S    EENTRO =        -0.00418021
  eigenvalues    EBANDS =       173.09668923
  atomic energy  EATOM  =      1188.57490811
  Solvation  Ediel_sol  =         0.00000000
  ---------------------------------------------------
  free energy    TOTEN  =        61.27131270 eV

  energy without entropy =       61.27549291  energy(sigma->0) =       61.27270610


--------------------------------------------------------------------------------------------------------




--------------------------------------- Iteration      1(   2)  ---------------------------------------


     EDDAV:  cpu time    0.6895: real time    0.6895
       DOS:  cpu time    0.0062: real time    0.0062
    --------------------------------------------
      LOOP:  cpu time    0.6957: real time    0.6957

 eigenvalue-minimisations  :  7880
 total energy-change (2. order) :-0.7598979E+02  (-0.6427918E+02)
 number of electron      16.0000000 magnetization 
 augmentation part       16.0000000 magnetization 

 Free energy of the ion-electron system (eV)
  ---------------------------------------------------
  alpha Z        PSCENC =       129.94669372
  Ewald energy   TEWEN  =     -1208.97417749
  -Hartree energ DENC   =      -214.19115140
  -exchange      EXHF   =         0.00000000
  -V(xc)+E(xc)   XCENC  =         8.22729656
  PAW double counting   =      1109.69170683    -1125.09647265
  entropy T*S    EENTRO =         0.00279132
  eigenvalues    EBANDS =        97.09992396
  atomic energy  EATOM  =      1188.57490811
  Solvation  Ediel_sol  =         0.00000000
  ---------------------------------------------------
  free energy    TOTEN  =       -14.71848105 eV

  energy without entropy =      -14.72127237  energy(sigma->0) =      -14.71941149


--------------------------------------------------------------------------------------------------------




--------------------------------------- Iteration      1(   3)  ---------------------------------------


     EDDAV:  cpu time    0.7956: real time    0.7956
       DOS:  cpu time    0.0062: real time    0.0062
    --------------------------------------------
      LOOP:  cpu time    0.8018: real time    0.8018

 eigenvalue-minimisations  :  9448
 total energy-change (2. order) :-0.4467758E+01  (-0.4229288E+01)
 number of electron      16.0000000 magnetization 
 augmentation part       16.0000000 magnetization 

 Free energy of the ion-electron system (eV)
  ---------------------------------------------------
  alpha Z        PSCENC =       129.94669372
  Ewald energy   TEWEN  =     -1208.97417749
  -Hartree energ DENC   =      -214.19115140
  -exchange      EXHF   =         0.00000000
  -V(xc)+E(xc)   XCENC  =         8.22729656
  PAW double counting   =      1109.69170683    -1125.09647265
  entropy T*S    EENTRO =         0.00090752
  eigenvalues    EBANDS =        92.63404992
  atomic energy  EATOM  =      1188.57490811
  Solvation  Ediel_sol  =         0.00000000
  ---------------------------------------------------
  free energy    TOTEN  =       -19.18623889 eV

  energy without entropy =      -19.18714641  energy(sigma->0) =      -19.18654140


--------------------------------------------------------------------------------------------------------




--------------------------------------- Iteration      1(   4)  ---------------------------------------


     EDDAV:  cpu time    0.7651: real time    0.7651
       DOS:  cpu time    0.0068: real time    0.0068
    --------------------------------------------
      LOOP:  cpu time    0.7719: real time    0.7719

 eigenvalue-minimisations  :  9144
 total energy-change (2. order) :-0.2146598E-01  (-0.2145198E-01)
 number of electron      16.0000000 magnetization 
 augmentation part       16.0000000 magnetization 

 Free energy of the ion-electron system (eV)
  ---------------------------------------------------
  alpha Z        PSCENC =       129.94669372
  Ewald energy   TEWEN  =     -1208.97417749
  -Hartree energ DENC   =      -214.19115140
  -exchange      EXHF   =         0.00000000
  -V(xc)+E(xc)   XCENC  =         8.22729656
  PAW double counting   =      1109.69170683    -1125.09647265
  entropy T*S    EENTRO =         0.00092226
  eigenvalues    EBANDS =        92.61256921
  atomic energy  EATOM  =      1188.57490811
  Solvation  Ediel_sol  =         0.00000000
  ---------------------------------------------------
  free energy    TOTEN  =       -19.20770487 eV

  energy without entropy =      -19.20862712  energy(sigma->0) =      -19.20801228


--------------------------------------------------------------------------------------------------------




--------------------------------------- Iteration      1(   5)  ---------------------------------------


     EDDAV:  cpu time    0.7662: real time    0.7662
       DOS:  cpu time    0.0066: real time    0.0066
    CHARGE:  cpu time    0.0199: real time    0.0199
    MIXING:  cpu time    0.0002: real time    0.0002
    --------------------------------------------
      LOOP:  cpu time    0.7928: real time    0.7928

 eigenvalue-minimisations  :  9168
 total energy-change (2. order) :-0.3439813E-04  (-0.3439668E-04)
 number of electron      15.9999900 magnetization 
 augmentation part        7.0505696 magnetization 

 Broyden mixing:
  rms(total) = 0.16335E+01    rms(broyden)= 0.16335E+01
  rms(prec ) = 0.28663E+01
  weight for this iteration     100.00

 Free energy of the ion-electron system (eV)
  ---------------------------------------------------
  alpha Z        PSCENC =       129.94669372
  Ewald energy   TEWEN  =     -1208.97417749
  -Hartree energ DENC   =      -214.19115140
  -exchange      EXHF   =         0.00000000
  -V(xc)+E(xc)   XCENC  =         8.22729656
  PAW double counting   =      1109.69170683    -1125.09647265
  entropy T*S    EENTRO =         0.00092231
  eigenvalues    EBANDS =        92.61253476
  atomic energy  EATOM  =      1188.57490811
  Solvation  Ediel_sol  =         0.00000000
  ---------------------------------------------------
  free energy    TOTEN  =       -19.20773926 eV

  energy without entropy =      -19.20866157  energy(sigma->0) =      -19.20804670


--------------------------------------------------------------------------------------------------------




--------------------------------------- Iteration      1(   6)  ---------------------------------------


    POTLOK:  cpu time    0.0034: real time    0.0034
    SETDIJ:  cpu time    0.0021: real time    0.0021
     EDDAV:  cpu time    0.9238: real time    0.9238
       DOS:  cpu time    0.0068: real time    0.0068
    CHARGE:  cpu time    0.0193: real time    0.0193
    MIXING:  cpu time    0.0002: real time    0.0002
    --------------------------------------------
      LOOP:  cpu time    0.9556: real time    0.9556

 eigenvalue-minimisations  : 11152
 total energy-change (2. order) : 0.2878115E+01  (-0.2015159E+00)
 number of electron      15.9999876 magnetization 
 augmentation part        8.5515134 magnetization 

 Broyden mixing:
  rms(total) = 0.30942E+00    rms(broyden)= 0.30931E+00
  rms(prec ) = 0.53651E+00
  weight for this iteration     100.00

 eigenvalues of (default mixing * dielectric matrix)
  average eigenvalue GAMMA=   0.8896
  0.8896

 Free energy of the ion-electron system (eV)
  ---------------------------------------------------
  alpha Z        PSCENC =       129.94669372
  Ewald energy   TEWEN  =     -1208.97417749
  -Hartree energ DENC   =      -178.52433426
  -exchange      EXHF   =         0.00000000
  -V(xc)+E(xc)   XCENC  =         6.49007496
  PAW double counting   =      1232.00136641    -1242.60856671
  entropy T*S    EENTRO =         0.00332074
  eigenvalues    EBANDS =        56.76109022
  atomic energy  EATOM  =      1188.57490811
  Solvation  Ediel_sol  =         0.00000000
  ---------------------------------------------------
  free energy    TOTEN  =       -16.32962430 eV

  energy without entropy =      -16.33294503  energy(sigma->0) =      -16.33073121


--------------------------------------------------------------------------------------------------------




--------------------------------------- Iteration      1(   7)  ---------------------------------------


    POTLOK:  cpu time    0.0035: real time    0.0035
    SETDIJ:  cpu time    0.0022: real time    0.0022
     EDDAV:  cpu time    0.8360: real time    0.8361
       DOS:  cpu time    0.0067: real time    0.0067
    CHARGE:  cpu time    0.0195: real time    0.0195
    MIXING:  cpu time    0.0002: real time    0.0002
    --------------------------------------------
      LOOP:  cpu time    0.8681: real time    0.8681

 eigenvalue-minimisations  : 10168
 total energy-change (2. order) : 0.2488747E+00  (-0.1564713E-01)
 number of electron      15.9999882 magnetization 
 augmentation part        8.1866893 magnetization 

 Broyden mixing:
  rms(total) = 0.10140E+00    rms(broyden)= 0.10140E+00
  rms(prec ) = 0.20290E+00
  weight for this iteration     100.00

 eigenvalues of (default mixing * dielectric matrix)
  average eigenvalue GAMMA=   0.9444
  1.1660  0.7228

 Free energy of the ion-electron system (eV)
  ---------------------------------------------------
  alpha Z        PSCENC =       129.94669372
  Ewald energy   TEWEN  =     -1208.97417749
  -Hartree energ DENC   =      -183.95553832
  -exchange      EXHF   =         0.00000000
  -V(xc)+E(xc)   XCENC  =         6.78670911
  PAW double counting   =      1303.43956988    -1317.70016115
  entropy T*S    EENTRO =         0.00335778
  eigenvalues    EBANDS =        65.79788882
  atomic energy  EATOM  =      1188.57490811
  Solvation  Ediel_sol  =         0.00000000
  ---------------------------------------------------
  free energy    TOTEN  =       -16.08074955 eV

  energy without entropy =      -16.08410733  energy(sigma->0) =      -16.08186881


--------------------------------------------------------------------------------------------------------




--------------------------------------- Iteration      1(   8)  ---------------------------------------


    POTLOK:  cpu time    0.0033: real time    0.0033
    SETDIJ:  cpu time    0.0021: real time    0.0021
     EDDAV:  cpu time    0.8426: real time    0.8426
       DOS:  cpu time    0.0068: real time    0.0068
    CHARGE:  cpu time    0.0194: real time    0.0194
    MIXING:  cpu time    0.0002: real time    0.0002
    --------------------------------------------
      LOOP:  cpu time    0.8744: real time    0.8744

 eigenvalue-minimisations  : 10208
 total energy-change (2. order) : 0.2526178E-01  (-0.4343405E-03)
 number of electron      15.9999881 magnetization 
 augmentation part        8.2194856 magnetization 

 Broyden mixing:
  rms(total) = 0.46893E-01    rms(broyden)= 0.46893E-01
  rms(prec ) = 0.92683E-01
  weight for this iteration     100.00

 eigenvalues of (default mixing * dielectric matrix)
  average eigenvalue GAMMA=   1.4332
  0.7648  1.0422  2.4926

 Free energy of the ion-electron system (eV)
  ---------------------------------------------------
  alpha Z        PSCENC =       129.94669372
  Ewald energy   TEWEN  =     -1208.97417749
  -Hartree energ DENC   =      -181.89726502
  -exchange      EXHF   =         0.00000000
  -V(xc)+E(xc)   XCENC  =         6.70541301
  PAW double counting   =      1356.37755985    -1371.86573102
  entropy T*S    EENTRO =         0.00343521
  eigenvalues    EBANDS =        65.07367585
  atomic energy  EATOM  =      1188.57490811
  Solvation  Ediel_sol  =         0.00000000
  ---------------------------------------------------
  free energy    TOTEN  =       -16.05548778 eV

  energy without entropy =      -16.05892299  energy(sigma->0) =      -16.05663285


--------------------------------------------------------------------------------------------------------




--------------------------------------- Iteration      1(   9)  ---------------------------------------


    POTLOK:  cpu time    0.0034: real time    0.0034
    SETDIJ:  cpu time    0.0021: real time    0.0021
     EDDAV:  cpu time    0.9230: real time    0.9230
       DOS:  cpu time    0.0068: real time    0.0068
    CHARGE:  cpu time    0.0195: real time    0.0195
    MIXING:  cpu time    0.0002: real time    0.0002
    --------------------------------------------
      LOOP:  cpu time    0.9549: real time    0.9549

 eigenvalue-minimisations  : 11344
 total energy-change (2. order) : 0.1069251E-01  (-0.9331135E-04)
 number of electron      15.9999881 magnetization 
 augmentation part        8.2363917 magnetization 

 Broyden mixing:
  rms(total) = 0.61202E-02    rms(broyden)= 0.61171E-02
  rms(prec ) = 0.64248E-02
  weight for this iteration     100.00

 eigenvalues of (default mixing * dielectric matrix)
  average eigenvalue GAMMA=   1.4850
  2.5515  0.7636  0.9985  1.6265

 Free energy of the ion-electron system (eV)
  ---------------------------------------------------
  alpha Z        PSCENC =       129.94669372
  Ewald energy   TEWEN  =     -1208.97417749
  -Hartree energ DENC   =      -179.80162883
  -exchange      EXHF   =         0.00000000
  -V(xc)+E(xc)   XCENC  =         6.63019472
  PAW double counting   =      1428.54020993    -1445.72097910
  entropy T*S    EENTRO =         0.00343483
  eigenvalues    EBANDS =        64.75654884
  atomic energy  EATOM  =      1188.57490811
  Solvation  Ediel_sol  =         0.00000000
  ---------------------------------------------------
  free energy    TOTEN  =       -16.04479527 eV

  energy without entropy =      -16.04823009  energy(sigma->0) =      -16.04594021


--------------------------------------------------------------------------------------------------------




--------------------------------------- Iteration      1(  10)  ---------------------------------------


    POTLOK:  cpu time    0.0034: real time    0.0034
    SETDIJ:  cpu time    0.0021: real time    0.0021
     EDDAV:  cpu time    0.7682: real time    0.7682
       DOS:  cpu time    0.0064: real time    0.0064
    CHARGE:  cpu time    0.0196: real time    0.0196
    MIXING:  cpu time    0.0002: real time    0.0002
    --------------------------------------------
      LOOP:  cpu time    0.7999: real time    0.7999

 eigenvalue-minimisations  :  9120
 total energy-change (2. order) :-0.2804243E-04  (-0.3591021E-05)
 number of electron      15.9999881 magnetization 
 augmentation part        8.2369842 magnetization 

 Broyden mixing:
  rms(total) = 0.27480E-02    rms(broyden)= 0.27463E-02
  rms(prec ) = 0.32849E-02
  weight for this iteration     100.00

 eigenvalues of (default mixing * dielectric matrix)
  average eigenvalue GAMMA=   1.6130
  2.5443  2.5443  0.7636  1.0117  1.2009

 Free energy of the ion-electron system (eV)
  ---------------------------------------------------
  alpha Z        PSCENC =       129.94669372
  Ewald energy   TEWEN  =     -1208.97417749
  -Hartree energ DENC   =      -179.78640517
  -exchange      EXHF   =         0.00000000
  -V(xc)+E(xc)   XCENC  =         6.63075438
  PAW double counting   =      1431.46366148    -1448.64184422
  entropy T*S    EENTRO =         0.00343002
  eigenvalues    EBANDS =        64.73815586
  atomic energy  EATOM  =      1188.57490811
  Solvation  Ediel_sol  =         0.00000000
  ---------------------------------------------------
  free energy    TOTEN  =       -16.04482331 eV

  energy without entropy =      -16.04825332  energy(sigma->0) =      -16.04596665


--------------------------------------------------------------------------------------------------------




--------------------------------------- Iteration      1(  11)  ---------------------------------------


    POTLOK:  cpu time    0.0033: real time    0.0033
    SETDIJ:  cpu time    0.0021: real time    0.0021
     EDDAV:  cpu time    0.7824: real time    0.7824
       DOS:  cpu time    0.0066: real time    0.0066
    CHARGE:  cpu time    0.0200: real time    0.0200
    MIXING:  cpu time    0.0002: real time    0.0002
    --------------------------------------------
      LOOP:  cpu time    0.8147: real time    0.8147

 eigenvalue-minimisations  :  9296
 total energy-change (2. order) : 0.5285781E-05  (-0.5209163E-07)
 number of electron      15.9999881 magnetization 
 augmentation part        8.2367148 magnetization 

 Broyden mixing:
  rms(total) = 0.18808E-03    rms(broyden)= 0.18760E-03
  rms(prec ) = 0.21643E-03
  weight for this iteration     100.00

 eigenvalues of (default mixing * dielectric matrix)
  average eigenvalue GAMMA=   1.5347
  2.5700  2.5700  0.7635  1.0014  1.0014  1.3020

 Free energy of the ion-electron system (eV)
  ---------------------------------------------------
  alpha Z        PSCENC =       129.94669372
  Ewald energy   TEWEN  =     -1208.97417749
  -Hartree energ DENC   =      -179.84061427
  -exchange      EXHF   =         0.00000000
  -V(xc)+E(xc)   XCENC  =         6.63345902
  PAW double counting   =      1431.44911812    -1448.57703139
  entropy T*S    EENTRO =         0.00342999
  eigenvalues    EBANDS =        64.73939616
  atomic energy  EATOM  =      1188.57490811
  Solvation  Ediel_sol  =         0.00000000
  ---------------------------------------------------
  free energy    TOTEN  =       -16.04481802 eV

  energy without entropy =      -16.04824801  energy(sigma->0) =      -16.04596135


--------------------------------------------------------------------------------------------------------




--------------------------------------- Iteration      1(  12)  ---------------------------------------


    POTLOK:  cpu time    0.0033: real time    0.0033
    SETDIJ:  cpu time    0.0021: real time    0.0021
     EDDAV:  cpu time    0.5789: real time    0.5789
       DOS:  cpu time    0.0068: real time    0.0068
    --------------------------------------------
      LOOP:  cpu time    0.5911: real time    0.5911

 eigenvalue-minimisations  :  6024
 total energy-change (2. order) : 0.5667266E-06  (-0.4223602E-08)
 number of electron      15.9999881 magnetization 
 augmentation part        8.2367148 magnetization 

 Free energy of the ion-electron system (eV)
  ---------------------------------------------------
  alpha Z        PSCENC =       129.94669372
  Ewald energy   TEWEN  =     -1208.97417749
  -Hartree energ DENC   =      -179.84434913
  -exchange      EXHF   =         0.00000000
  -V(xc)+E(xc)   XCENC  =         6.63365725
  PAW double counting   =      1431.53850048    -1448.66209330
  entropy T*S    EENTRO =         0.00343021
  eigenvalues    EBANDS =        64.73861270
  atomic energy  EATOM  =      1188.57490811
  Solvation  Ediel_sol  =         0.00000000
  ---------------------------------------------------
  free energy    TOTEN  =       -16.04481746 eV

  energy without entropy =      -16.04824766  energy(sigma->0) =      -16.04596086


--------------------------------------------------------------------------------------------------------




 average (electrostatic) potential at core
  the test charge radii are     1.0103
  (the norm of the test charge is              1.0000)
       1 -43.0639       2 -43.0637
 
 
 
 E-fermi :   6.4193     XC(G=0): -13.5384     alpha+bet :-14.5719

 Fermi energy:         6.4193129751

 k-point     1 :       0.0000    0.0000    0.0000
  band No.  band energies     occupation 
      1      -2.2290      2.00000
      2       1.6245      2.00000
      3       4.3009      2.00000
      4       4.9468      2.00000
      5       4.9470      2.00000
      6       5.2221      2.00000
      7       5.2222      2.00000
      8       5.6697      2.00000
      9       6.1571      2.06889
     10       6.1572      2.06890
     11       7.1127     -0.00001
     12       7.1127     -0.00001
     13      13.1732      0.00000
     14      29.1374      0.00000
     15      29.5863      0.00000
     16      32.3951      0.00000
     17      34.3558      0.00000
     18      34.3559      0.00000
     19      35.1712      0.00000
     20      35.1714      0.00000
     21      35.4075      0.00000
     22      38.1314      0.00000
     23      38.1314      0.00000
     24      39.1252      0.00000
     25      41.4246      0.00000
     26      41.4246      0.00000
     27      41.7766      0.00000
     28      44.8591      0.00000
     29      44.8595      0.00000
     30      46.5794      0.00000
     31      46.5796      0.00000
     32      48.8689      0.00000
     33      56.5487      0.00000
     34      60.2762      0.00000
     35      60.2774      0.00000
     36      60.8561      0.00000
     37      61.3781      0.00000
     38      62.0035      0.00000
     39      62.0093      0.00000
     40      62.1853      0.00000

 k-point     2 :       0.0909    0.0000    0.0000
  band No.  band energies     occupation 
      1      -1.9079      2.00000
      2       1.8659      2.00000
      3       4.3278      2.00000
      4       4.8782      2.00000
      5       4.9055      2.00000
      6       5.1146      2.00000
      7       5.1293      2.00000
      8       5.3921      2.00000
      9       6.0130      2.01443
     10       6.0554      2.02739
     11       7.1419     -0.00000
     12       8.1474     -0.00000
     13      13.2026      0.00000
     14      28.1761      0.00000
     15      29.5030      0.00000
     16      30.6500      0.00000
     17      31.6581      0.00000
     18      34.1115      0.00000
     19      34.1494      0.00000
     20      35.2725      0.00000
     21      37.4729      0.00000
     22      37.9733      0.00000
     23      38.0872      0.00000
     24      38.7429      0.00000
     25      42.2569      0.00000
     26      42.5341      0.00000
     27      42.6765      0.00000
     28      43.1321      0.00000
     29      46.3220      0.00000
     30      47.9374      0.00000
     31      49.0791      0.00000
     32      50.9629      0.00000
     33      56.1719      0.00000
     34      58.3504      0.00000
     35      58.8326      0.00000
     36      59.3348      0.00000
     37      60.2013      0.00000
     38      62.0630      0.00000
     39      63.3205      0.00000
     40      63.6843      0.00000

 k-point     3 :       0.1818    0.0000    0.0000
  band No.  band energies     occupation 
      1      -0.9953      2.00000
      2       2.4413      2.00000
      3       3.9353      2.00000
      4       4.1913      2.00000
      5       4.6929      2.00000
      6       5.2103      2.00000
      7       5.6369      2.00000
      8       5.6677      2.00000
      9       5.8124      2.00015
     10       5.8631      2.00060
     11       7.1885     -0.00000
     12       9.8764     -0.00000
     13      13.3173      0.00000
     14      24.3323      0.00000
     15      28.9097      0.00000
     16      29.3998      0.00000
     17      29.7243      0.00000
     18      30.6169      0.00000
     19      34.1821      0.00000
     20      35.2485      0.00000
     21      35.5646      0.00000
     22      36.5061      0.00000
     23      38.8756      0.00000
     24      39.5552      0.00000
     25      42.4349      0.00000
     26      43.7978      0.00000
     27      45.3418      0.00000
     28      47.4336      0.00000
     29      48.8223      0.00000
     30      51.6427      0.00000
     31      51.9603      0.00000
     32      54.4255      0.00000
     33      55.0216      0.00000
     34      55.2218      0.00000
     35      57.1013      0.00000
     36      58.6661      0.00000
     37      59.8735      0.00000
     38      61.9210      0.00000
     39      64.2210      0.00000
     40      64.7441      0.00000

 k-point     4 :       0.2727    0.0000    0.0000
  band No.  band energies     occupation 
      1       0.3160      2.00000
      2       2.7480      2.00000
      3       3.1920      2.00000
      4       4.1523      2.00000
      5       4.5109      2.00000
      6       5.2313      2.00000
      7       5.5348      2.00000
      8       5.9026      2.00158
      9       6.3577      1.49488
     10       6.5208      0.25186
     11       7.2095     -0.00000
     12      11.8553     -0.00000
     13      13.5798      0.00000
     14      20.3479      0.00000
     15      26.1199      0.00000
     16      26.5696      0.00000
     17      27.6132      0.00000
     18      30.7162      0.00000
     19      32.3104      0.00000
     20      35.1885      0.00000
     21      35.7819      0.00000
     22      36.0217      0.00000
     23      36.4499      0.00000
     24      39.9963      0.00000
     25      46.0972      0.00000
     26      47.5229      0.00000
     27      48.7826      0.00000
     28      49.6928      0.00000
     29      50.4086      0.00000
     30      51.9651      0.00000
     31      53.2835      0.00000
     32      54.4026      0.00000
     33      56.7593      0.00000
     34      57.0407      0.00000
     35      57.8882      0.00000
     36      59.3830      0.00000
     37      61.5263      0.00000
     38      61.6486      0.00000
     39      64.2420      0.00000
     40      64.8895      0.00000

 k-point     5 :       0.3636    0.0000    0.0000
  band No.  band energies     occupation 
      1       1.5344      2.00000
      2       2.5124      2.00000
      3       2.7077      2.00000
      4       4.2817      2.00000
      5       4.8412      2.00000
      6       4.9052      2.00000
      7       5.3025      2.00000
      8       7.0541     -0.00007
      9       7.0788     -0.00003
     10       7.1788     -0.00000
     11       7.2079     -0.00000
     12      13.6223      0.00000
     13      13.9947      0.00000
     14      17.4005      0.00000
     15      22.8374      0.00000
     16      24.6753      0.00000
     17      24.7883      0.00000
     18      29.9422      0.00000
     19      31.3340      0.00000
     20      34.4651      0.00000
     21      35.3057      0.00000
     22      36.7859      0.00000
     23      37.0984      0.00000
     24      40.2149      0.00000
     25      47.0113      0.00000
     26      48.4927      0.00000
     27      49.5402      0.00000
     28      52.5547      0.00000
     29      52.7806      0.00000
     30      53.2324      0.00000
     31      55.2777      0.00000
     32      56.4802      0.00000
     33      56.5934      0.00000
     34      58.6817      0.00000
     35      60.5956      0.00000
     36      61.3766      0.00000
     37      62.1969      0.00000
     38      63.0868      0.00000
     39      65.1441      0.00000
     40      65.2728      0.00000

 k-point     6 :       0.4545    0.0000    0.0000
  band No.  band energies     occupation 
      1       2.0689      2.00000
      2       2.2681      2.00000
      3       2.4730      2.00000
      4       4.6151      2.00000
      5       4.7926      2.00000
      6       5.1295      2.00000
      7       5.1729      2.00000
      8       7.2017     -0.00000
      9       7.5238     -0.00000
     10       7.6225     -0.00000
     11       8.6524     -0.00000
     12      11.9362      0.00000
     13      16.0521      0.00000
     14      17.3110      0.00000
     15      20.2439      0.00000
     16      21.9614      0.00000
     17      23.7993      0.00000
     18      29.3562      0.00000
     19      31.0310      0.00000
     20      33.3776      0.00000
     21      35.0938      0.00000
     22      37.6592      0.00000
     23      39.5098      0.00000
     24      39.8808      0.00000
     25      43.6831      0.00000
     26      48.6777      0.00000
     27      50.7131      0.00000
     28      54.6793      0.00000
     29      55.2721      0.00000
     30      55.8944      0.00000
     31      56.7073      0.00000
     32      58.4900      0.00000
     33      59.1238      0.00000
     34      60.1320      0.00000
     35      60.8515      0.00000
     36      61.0276      0.00000
     37      63.8361      0.00000
     38      64.3290      0.00000
     39      64.3545      0.00000
     40      65.1932      0.00000

 k-point     7 :       0.0909    0.0909    0.0000
  band No.  band energies     occupation 
      1      -1.2887      2.00000
      2       2.2912      2.00000
      3       4.1880      2.00000
      4       4.2215      2.00000
      5       4.9071      2.00000
      6       4.9151      2.00000
      7       5.5006      2.00000
      8       5.6536      2.00000
      9       5.7576      2.00003
     10       6.0134      2.01452
     11       7.1478     -0.00000
     12       9.3922     -0.00000
     13      13.2776      0.00000
     14      26.1073      0.00000
     15      27.2304      0.00000
     16      30.0683      0.00000
     17      31.4504      0.00000
     18      32.8024      0.00000
     19      33.0423      0.00000
     20      34.1374      0.00000
     21      34.9890      0.00000
     22      39.4528      0.00000
     23      39.9639      0.00000
     24      40.3163      0.00000
     25      41.5985      0.00000
     26      41.7196      0.00000
     27      42.0036      0.00000
     28      48.0962      0.00000
     29      49.7709      0.00000
     30      49.8524      0.00000
     31      49.9547      0.00000
     32      54.0117      0.00000
     33      55.4839      0.00000
     34      56.0053      0.00000
     35      57.0438      0.00000
     36      58.5668      0.00000
     37      59.7161      0.00000
     38      62.6007      0.00000
     39      64.0936      0.00000
     40      64.5456      0.00000

 k-point     8 :       0.1818    0.0909    0.0000
  band No.  band energies     occupation 
      1      -0.1548      2.00000
      2       2.8478      2.00000
      3       3.4597      2.00000
      4       3.9477      2.00000
      5       4.6127      2.00000
      6       5.2399      2.00000
      7       5.3179      2.00000
      8       5.7757      2.00005
      9       6.1624      2.06989
     10       6.4306      0.90496
     11       7.1401     -0.00000
     12      11.1570     -0.00000
     13      13.5059      0.00000
     14      22.3874      0.00000
     15      24.9324      0.00000
     16      27.9707      0.00000
     17      30.0744      0.00000
     18      30.3460      0.00000
     19      33.2751      0.00000
     20      33.3095      0.00000
     21      34.4347      0.00000
     22      38.5471      0.00000
     23      39.2832      0.00000
     24      40.1582      0.00000
     25      43.2892      0.00000
     26      44.3557      0.00000
     27      46.2752      0.00000
     28      49.8207      0.00000
     29      52.1010      0.00000
     30      52.4437      0.00000
     31      52.7750      0.00000
     32      54.7486      0.00000
     33      55.8669      0.00000
     34      56.0573      0.00000
     35      57.0604      0.00000
     36      57.5334      0.00000
     37      60.6782      0.00000
     38      62.8684      0.00000
     39      64.7285      0.00000
     40      64.8231      0.00000

 k-point     9 :       0.2727    0.0909    0.0000
  band No.  band energies     occupation 
      1       1.1926      2.00000
      2       2.8246      2.00000
      3       2.9249      2.00000
      4       4.0102      2.00000
      5       4.6687      2.00000
      6       4.8892      2.00000
      7       5.4376      2.00000
      8       6.0443      2.02343
      9       6.8850     -0.00482
     10       7.1260     -0.00001
     11       7.3087     -0.00000
     12      13.1925      0.00000
     13      13.9095      0.00000
     14      18.7070      0.00000
     15      23.2812      0.00000
     16      24.5683      0.00000
     17      26.9530      0.00000
     18      28.9742      0.00000
     19      32.4392      0.00000
     20      33.6986      0.00000
     21      34.8140      0.00000
     22      38.1399      0.00000
     23      38.6471      0.00000
     24      41.4122      0.00000
     25      45.1500      0.00000
     26      47.9465      0.00000
     27      49.0589      0.00000
     28      49.2029      0.00000
     29      51.1852      0.00000
     30      53.3256      0.00000
     31      54.5796      0.00000
     32      56.1655      0.00000
     33      57.1756      0.00000
     34      57.9844      0.00000
     35      59.7312      0.00000
     36      61.8295      0.00000
     37      62.6375      0.00000
     38      62.7789      0.00000
     39      63.5553      0.00000
     40      65.1894      0.00000

 k-point    10 :       0.3636    0.0909    0.0000
  band No.  band energies     occupation 
      1       2.0937      2.00000
      2       2.5279      2.00000
      3       2.6132      2.00000
      4       4.3696      2.00000
      5       4.6620      2.00000
      6       5.0297      2.00000
      7       5.1516      2.00000
      8       6.9183     -0.00237
      9       7.1068     -0.00001
     10       7.3788     -0.00000
     11       8.4370     -0.00000
     12      13.2892      0.00000
     13      15.3644      0.00000
     14      17.1194      0.00000
     15      21.5820      0.00000
     16      21.9684      0.00000
     17      23.7492      0.00000
     18      28.1286      0.00000
     19      31.5049      0.00000
     20      33.2099      0.00000
     21      36.2258      0.00000
     22      38.5742      0.00000
     23      39.3333      0.00000
     24      40.8898      0.00000
     25      45.6427      0.00000
     26      47.8236      0.00000
     27      49.3238      0.00000
     28      51.3969      0.00000
     29      52.6310      0.00000
     30      55.0037      0.00000
     31      56.1499      0.00000
     32      57.9633      0.00000
     33      59.0601      0.00000
     34      60.7677      0.00000
     35      61.2191      0.00000
     36      62.1745      0.00000
     37      62.7896      0.00000
     38      63.7293      0.00000
     39      64.7519      0.00000
     40      65.4056      0.00000

 k-point    11 :       0.4545    0.0909    0.0000
  band No.  band energies     occupation 
      1       2.3039      2.00000
      2       2.3947      2.00000
      3       2.5126      2.00000
      4       4.5856      2.00000
      5       4.7433      2.00000
      6       5.0389      2.00000
      7       5.1267      2.00000
      8       7.0983     -0.00002
      9       7.4210     -0.00000
     10       7.4449     -0.00000
     11       9.6217     -0.00000
     12      11.6526     -0.00000
     13      16.8594      0.00000
     14      17.7622      0.00000
     15      19.8237      0.00000
     16      21.0125      0.00000
     17      22.4285      0.00000
     18      27.8304      0.00000
     19      31.1285      0.00000
[...]
     18      25.6993      0.00000
     19      30.9419      0.00000
     20      31.7854      0.00000
     21      34.7548      0.00000
     22      35.2504      0.00000
     23      40.2120      0.00000
     24      41.3616      0.00000
     25      46.8888      0.00000
     26      48.6232      0.00000
     27      50.7514      0.00000
     28      51.6846      0.00000
     29      53.7310      0.00000
     30      55.6227      0.00000
     31      57.8303      0.00000
     32      57.9712      0.00000
     33      59.7268      0.00000
     34      60.1460      0.00000
     35      61.5014      0.00000
     36      61.7844      0.00000
     37      62.7249      0.00000
     38      63.0857      0.00000
     39      64.7775      0.00000
     40      65.3254      0.00000

 k-point    91 :       0.4545    0.0909    0.4545
  band No.  band energies     occupation 
      1       1.9896      2.00000
      2       2.1185      2.00000
      3       3.2720      2.00000
      4       3.3440      2.00000
      5       5.4548      2.00000
      6       5.8203      2.00019
      7       6.4169      1.02022
      8       6.7020     -0.06254
      9       7.2646     -0.00000
     10       7.2986     -0.00000
     11       9.5615     -0.00000
     12      10.0181     -0.00000
     13      15.6059      0.00000
     14      15.6377      0.00000
     15      23.7997      0.00000
     16      24.5278      0.00000
     17      25.2490      0.00000
     18      25.7017      0.00000
     19      30.5085      0.00000
     20      30.8244      0.00000
     21      34.2055      0.00000
     22      34.2786      0.00000
     23      40.2579      0.00000
     24      41.4158      0.00000
     25      46.9711      0.00000
     26      48.6935      0.00000
     27      53.3277      0.00000
     28      54.8437      0.00000
     29      55.5269      0.00000
     30      55.8765      0.00000
     31      56.2124      0.00000
     32      56.5202      0.00000
     33      60.2931      0.00000
     34      60.3387      0.00000
     35      62.5179      0.00000
     36      62.5689      0.00000
     37      63.2244      0.00000
     38      63.4381      0.00000
     39      65.5913      0.00000
     40      66.1478      0.00000

 k-point    92 :       0.1818    0.1818    0.4545
  band No.  band energies     occupation 
      1       1.9158      2.00000
      2       2.1964      2.00000
      3       3.7865      2.00000
      4       3.8495      2.00000
      5       4.2642      2.00000
      6       4.3128      2.00000
      7       5.7916      2.00008
      8       6.0065      2.01294
      9       7.0642     -0.00005
     10       7.2054     -0.00000
     11       7.6539     -0.00000
     12       8.1292     -0.00000
     13      21.5554      0.00000
     14      21.8633      0.00000
     15      22.4165      0.00000
     16      23.2030      0.00000
     17      23.6801      0.00000
     18      24.6330      0.00000
     19      34.9824      0.00000
     20      36.0443      0.00000
     21      36.7685      0.00000
     22      37.8299      0.00000
     23      39.0953      0.00000
     24      39.2557      0.00000
     25      45.0313      0.00000
     26      45.4230      0.00000
     27      49.2617      0.00000
     28      50.4601      0.00000
     29      51.9926      0.00000
     30      52.7584      0.00000
     31      54.6774      0.00000
     32      55.2656      0.00000
     33      57.5362      0.00000
     34      57.6628      0.00000
     35      59.4762      0.00000
     36      59.8344      0.00000
     37      62.6282      0.00000
     38      63.5202      0.00000
     39      64.6430      0.00000
     40      64.9558      0.00000

 k-point    93 :       0.2727    0.1818    0.4545
  band No.  band energies     occupation 
      1       2.3585      2.00000
      2       2.4640      2.00000
      3       3.6095      2.00000
      4       3.7815      2.00000
      5       4.5691      2.00000
      6       4.6969      2.00000
      7       5.6901      2.00000
      8       5.9049      2.00167
      9       7.1567     -0.00000
     10       7.3999     -0.00000
     11       9.0857     -0.00000
     12       9.5706     -0.00000
     13      18.6668      0.00000
     14      19.2150      0.00000
     15      21.3344      0.00000
     16      22.0276      0.00000
     17      23.9555      0.00000
     18      25.5911      0.00000
     19      32.6701      0.00000
     20      34.2577      0.00000
     21      35.2157      0.00000
     22      36.7093      0.00000
     23      40.0161      0.00000
     24      40.4602      0.00000
     25      46.5543      0.00000
     26      47.0679      0.00000
     27      50.3643      0.00000
     28      52.2476      0.00000
     29      53.8192      0.00000
     30      55.5667      0.00000
     31      56.6839      0.00000
     32      57.5573      0.00000
     33      59.0816      0.00000
     34      59.2815      0.00000
     35      60.5788      0.00000
     36      60.7927      0.00000
     37      61.7700      0.00000
     38      62.7631      0.00000
     39      64.7854      0.00000
     40      65.1485      0.00000

 k-point    94 :       0.3636    0.1818    0.4545
  band No.  band energies     occupation 
      1       2.4268      2.00000
      2       2.5606      2.00000
      3       3.5196      2.00000
      4       3.6818      2.00000
      5       4.7009      2.00000
      6       4.9874      2.00000
      7       5.9787      2.00786
      8       6.0844      2.03935
      9       7.1339     -0.00001
     10       7.2916     -0.00000
     11      10.7526     -0.00000
     12      11.1678     -0.00000
     13      16.0733      0.00000
     14      16.4396      0.00000
     15      20.7434      0.00000
     16      21.4531      0.00000
     17      25.5385      0.00000
     18      26.5973      0.00000
     19      30.9619      0.00000
     20      31.9973      0.00000
     21      34.3621      0.00000
     22      35.8321      0.00000
     23      40.5679      0.00000
     24      40.9209      0.00000
     25      49.9733      0.00000
     26      50.7110      0.00000
     27      50.8846      0.00000
     28      52.4826      0.00000
     29      54.5542      0.00000
     30      55.2593      0.00000
     31      55.6724      0.00000
     32      56.9334      0.00000
     33      59.1347      0.00000
     34      59.9004      0.00000
     35      61.2129      0.00000
     36      62.2635      0.00000
     37      63.5429      0.00000
     38      63.6635      0.00000
     39      64.4820      0.00000
     40      64.7957      0.00000

 k-point    95 :       0.2727    0.2727    0.4545
  band No.  band energies     occupation 
      1       2.8103      2.00000
      2       2.8532      2.00000
      3       3.7119      2.00000
      4       3.9136      2.00000
      5       4.2788      2.00000
      6       4.4645      2.00000
      7       5.5791      2.00000
      8       5.7646      2.00004
      9       7.1467     -0.00000
     10       7.3184     -0.00000
     11      11.1466     -0.00000
     12      11.6472     -0.00000
     13      17.2226      0.00000
     14      17.6171      0.00000
     15      18.8719      0.00000
     16      19.2415      0.00000
     17      25.6748      0.00000
     18      27.2140      0.00000
     19      31.1063      0.00000
     20      32.4115      0.00000
     21      34.0729      0.00000
     22      35.1001      0.00000
     23      42.9986      0.00000
     24      43.3923      0.00000
     25      46.8451      0.00000
     26      46.9605      0.00000
     27      53.0057      0.00000
     28      54.1553      0.00000
     29      54.7485      0.00000
     30      55.2692      0.00000
     31      56.9285      0.00000
     32      57.1129      0.00000
     33      58.2341      0.00000
     34      58.2771      0.00000
     35      59.8704      0.00000
     36      60.7601      0.00000
     37      63.4097      0.00000
     38      63.7177      0.00000
     39      64.6315      0.00000
     40      64.6731      0.00000

 k-point    96 :       0.3636    0.2727    0.4545
  band No.  band energies     occupation 
      1       3.0078      2.00000
      2       3.1236      2.00000
      3       3.6641      2.00000
      4       3.7548      2.00000
      5       4.2687      2.00000
      6       4.3900      2.00000
      7       5.6257      2.00000
      8       5.7665      2.00004
      9       7.1276     -0.00001
     10       7.1900     -0.00000
     11      12.9408      0.00000
     12      13.0668      0.00000
     13      15.5539      0.00000
     14      15.8560      0.00000
     15      18.2267      0.00000
     16      18.6678      0.00000
     17      27.3877      0.00000
     18      27.9993      0.00000
     19      30.1284      0.00000
     20      30.5215      0.00000
     21      33.7672      0.00000
     22      34.5652      0.00000
     23      44.0859      0.00000
     24      44.6889      0.00000
     25      48.7510      0.00000
     26      49.1776      0.00000
     27      51.0485      0.00000
     28      51.4427      0.00000
     29      54.5571      0.00000
     30      55.4835      0.00000
     31      56.9920      0.00000
     32      57.8762      0.00000
     33      58.1716      0.00000
     34      58.7385      0.00000
     35      60.1196      0.00000
     36      61.0777      0.00000
     37      62.3965      0.00000
     38      62.5583      0.00000
     39      66.1597      0.00000
     40      66.1776      0.00000


--------------------------------------------------------------------------------------------------------


 soft charge-density along one line, spin component           1
         0         1         2         3         4         5         6         7         8         9
x     7.7633    0.0000    0.1114   -0.1930   -0.0606   -0.1050    0.0157    0.0000    0.0018   -0.0032
x     0.0000    0.0000
y     7.7633    0.0000    0.1114    0.1930   -0.0606    0.1050    0.0157   -0.0000    0.0018    0.0032
y     0.0000    0.0000
z     7.7633    0.0000    0.0000   -0.0000    0.5990    0.0000    0.0000    0.0000   -0.1777   -0.0000
z     0.0000   -0.0000    0.0125   -0.0000    0.0000   -0.0000    0.0091    0.0000    0.0000    0.0000
 total charge-density along one line
x    16.0000    0.0000    1.5157   -2.6252    0.3251    0.5631    0.0447    0.0000    0.0003   -0.0006
x     0.0005    0.0008   -0.0009    0.0000    0.0001   -0.0002   -0.0001   -0.0001    0.0002   -0.0000
x    -0.0000    0.0000
y    16.0000    0.0000    1.5157    2.6252    0.3251   -0.5631    0.0447   -0.0000    0.0003    0.0006
y     0.0005   -0.0008   -0.0009   -0.0000    0.0001    0.0002   -0.0001    0.0001    0.0002    0.0000
y    -0.0000   -0.0000
z    16.0000    0.0000   -0.0000    0.0000    6.3279   -0.0000   -0.0000    0.0000    1.5148   -0.0000
z    -0.0000   -0.0000    0.0760   -0.0000   -0.0000   -0.0000   -0.0016    0.0000   -0.0000    0.0000
z     0.0042   -0.0000    0.0000   -0.0000   -0.0018    0.0000    0.0000    0.0000    0.0009   -0.0000
z     0.0000    0.0000   -0.0006    0.0000   -0.0000    0.0000    0.0005   -0.0000
 
 pseudopotential strength for first ion, spin component:           1
 -4.717  -0.000  -0.000   0.000  -0.000  -5.273  -0.000  -0.000
 -0.000  -4.710   0.000  -0.000   0.000  -0.000  -5.266   0.000
 -0.000   0.000  -4.718  -0.000  -0.000  -0.000   0.000  -5.274
  0.000  -0.000  -0.000  -4.710  -0.000   0.000  -0.000  -0.000
 -0.000   0.000  -0.000  -0.000  -4.717  -0.000   0.000  -0.000
 -5.273  -0.000  -0.000   0.000  -0.000  -5.787  -0.000  -0.000
 -0.000  -5.266   0.000  -0.000   0.000  -0.000  -5.780   0.000
 -0.000   0.000  -5.274  -0.000  -0.000  -0.000   0.000  -5.788
  0.000  -0.000  -0.000  -5.266  -0.000   0.000  -0.000  -0.000
 -0.000   0.000  -0.000  -0.000  -5.273  -0.000   0.000  -0.000
  0.000  -0.000   0.001   0.000  -0.000   0.000  -0.000   0.001
  0.000  -0.000   0.002   0.000  -0.000   0.000  -0.000   0.002
 -0.000   0.000   0.000   0.000  -0.001  -0.000   0.000   0.000
  0.000  -0.000   0.000  -0.000   0.000   0.000  -0.000   0.000
 -0.001   0.000   0.000   0.000  -0.000  -0.001   0.000   0.000
 -0.000   0.000   0.000   0.000  -0.001  -0.000   0.000   0.000
  0.000  -0.000   0.000  -0.000   0.000   0.000  -0.000   0.000
 -0.001   0.000   0.000   0.000  -0.000  -0.001   0.000   0.000
 total augmentation occupancy for first ion, spin component:           1
  1.550  -0.000   0.000   0.000  -0.000  -0.814   0.000  -0.000   0.000   0.000   0.000  -0.000   0.000  -0.000   0.030  -0.000
 -0.000   2.061  -0.000  -0.000   0.000   0.000  -1.076   0.000   0.000   0.000  -0.000   0.000   0.000   0.000   0.000   0.000
  0.000  -0.000   1.280  -0.000  -0.000  -0.000   0.000  -0.579  -0.000   0.000   0.049  -0.012  -0.000   0.000   0.000   0.000
  0.000  -0.000   0.000   2.061   0.000   0.000   0.000   0.000  -1.076   0.000   0.000   0.000   0.000   0.000   0.000   0.000
 -0.000   0.000  -0.000  -0.000   1.550   0.000   0.000   0.000   0.000  -0.814  -0.000   0.000   0.030   0.000  -0.000  -0.002
 -0.814   0.000  -0.000   0.000   0.000   1.442   0.000   0.000   0.000  -0.000  -0.000   0.000  -0.000   0.000  -0.043   0.000
  0.000  -1.076   0.000   0.000  -0.000   0.000   1.426   0.000  -0.000   0.000   0.000   0.000  -0.000  -0.000   0.000   0.000
 -0.000  -0.000  -0.579   0.000   0.000   0.000   0.000   1.224  -0.000  -0.000  -0.133   0.013   0.000   0.000  -0.000  -0.000
  0.000   0.000  -0.000  -1.076   0.000  -0.000  -0.000  -0.000   1.426   0.000   0.000   0.000   0.000  -0.000   0.000   0.000
  0.000   0.000   0.000   0.000  -0.814  -0.000   0.000  -0.000   0.000   1.442   0.000  -0.000  -0.043  -0.000   0.000   0.003
  0.000   0.000   0.049  -0.000  -0.000  -0.000   0.000  -0.133  -0.000   0.000   2.534  -0.284   0.000   0.000   0.000   0.000
 -0.000   0.000  -0.012   0.000   0.000   0.000  -0.000   0.013   0.000  -0.000  -0.284   0.036   0.000   0.000  -0.000  -0.000
  0.000   0.000  -0.000  -0.000   0.030  -0.000  -0.000   0.000   0.000  -0.043   0.000   0.000   0.330  -0.000  -0.000  -0.027
  0.000   0.000   0.000  -0.000  -0.000   0.000  -0.000   0.000  -0.000   0.000   0.000   0.000   0.000   0.303   0.000  -0.000
  0.030   0.000   0.000  -0.000  -0.000  -0.043  -0.000  -0.000  -0.000   0.000   0.000   0.000  -0.000   0.000   0.330   0.000
 -0.000   0.000   0.000   0.000  -0.002   0.000  -0.000  -0.000   0.000   0.003   0.000   0.000  -0.027   0.000   0.000   0.002
  0.000   0.000   0.000   0.000   0.000  -0.000   0.000   0.000  -0.000   0.000   0.000   0.000  -0.000  -0.027  -0.000   0.000
 -0.002  -0.000  -0.000   0.000   0.000   0.003  -0.000   0.000  -0.000  -0.000   0.000  -0.000   0.000  -0.000  -0.027  -0.000


------------------------ aborting loop because EDIFF is reached ----------------------------------------


    CHARGE:  cpu time    0.0203: real time    0.0203
    FORLOC:  cpu time    0.0002: real time    0.0002
    FORNL :  cpu time    0.1017: real time    0.1017
    STRESS:  cpu time    0.1603: real time    0.1603
    FORCOR:  cpu time    0.0035: real time    0.0035
    FORHAR:  cpu time    0.0008: real time    0.0008
    MIXING:  cpu time    0.0002: real time    0.0002

  FORCE on cell =-STRESS in cart. coord.  units (eV):
  Direction    XX          YY          ZZ          XY          YZ          ZX
  --------------------------------------------------------------------------------------
  Alpha Z   129.94669   129.94669   129.94669
  Ewald    -386.66560  -386.66560  -435.64370     0.00000    -0.00000    -0.00000
  Hartree    66.34935    66.34936    47.14492    -0.00000    -0.00000    -0.00000
  E(xc)     -78.19013   -78.19022   -77.92888     0.00033     0.00000     0.00000
  Local      97.70737    97.70762   163.68195    -0.00094     0.00000     0.00000
  n-local   -53.67168   -52.75454   -55.42638    -3.68836     1.37903     0.88785
  augment    75.90855    75.90772    76.16617     0.00133    -0.00000     0.00000
  Kinetic   151.94551   145.59316   146.72932     1.51474    -0.90826     0.23813
  Fock        0.00000     0.00000     0.00000     0.00000     0.00000     0.00000
  -------------------------------------------------------------------------------------
  Total       0.61212     0.61212    -5.32992    -0.00000     0.00000     0.00000
  in kB      46.09897    46.09897  -401.39478    -0.00000     0.00000     0.00000
  external pressure =     -103.07 kB  Pullay stress =        0.00 kB


 VOLUME and BASIS-vectors are now :
 -----------------------------------------------------------------------------
  energy-cutoff  :      280.00
  volume of cell :       21.27
      direct lattice vectors                 reciprocal lattice vectors
     2.399900000  0.000000000  0.000000000     0.416684029  0.240572636  0.000000000
    -1.199950000  2.078374367  0.000000000     0.000000000  0.481145272  0.000000000
     0.000000000  0.000000000  4.265230000     0.000000000  0.000000000  0.234453945

  length of vectors
     2.399900000  2.399900000  4.265230000     0.481145272  0.481145272  0.234453945


 FORCES acting on ions
    electron-ion (+dipol)            ewald-force                    non-local-force                 convergence-correction
 -----------------------------------------------------------------------------------------------
   0.561E-06 -.129E-05 -.779E-14   0.540E-12 -.311E-12 -.233E-13   -.169E-16 -.418E-19 -.447E-19   -.267E-08 0.140E-08 -.254E-13
   0.488E-05 0.783E-05 0.272E-12   -.540E-12 0.306E-12 0.233E-13   0.112E-16 0.345E-18 -.153E-20   0.279E-08 -.146E-08 0.738E-13
 -----------------------------------------------------------------------------------------------
   0.545E-05 0.654E-05 0.264E-12   -.435E-15 -.554E-14 0.435E-17   -.568E-17 0.303E-18 -.462E-19   0.115E-09 -.664E-10 0.484E-13
 
 
 POSITION                                       TOTAL-FORCE (eV/Angst)
 -----------------------------------------------------------------------------------
      0.00000      0.00000      0.00000        -0.000000     -0.000000     -0.000000
      0.00000      1.38558      2.13261         0.000000      0.000000      0.000000
 -----------------------------------------------------------------------------------
    total drift:                                0.000005      0.000007      0.000000


--------------------------------------------------------------------------------------------------------



  FREE ENERGIE OF THE ION-ELECTRON SYSTEM (eV)
  ---------------------------------------------------
  free  energy   TOTEN  =       -16.04481746 eV

  energy  without entropy=      -16.04824766  energy(sigma->0) =      -16.04596086
 


--------------------------------------------------------------------------------------------------------


    POTLOK:  cpu time    0.0056: real time    0.0056


--------------------------------------------------------------------------------------------------------


 writing wavefunctions
     LOOP+:  cpu time   10.0816: real time   10.1114
    4ORBIT:  cpu time    0.0000: real time    0.0000

 total amount of memory used by VASP MPI-rank0    51501. kBytes
=======================================================================

   base      :      30000. kBytes
   nonl-proj :       3394. kBytes
   grid      :        812. kBytes
   one-center:         31. kBytes
   wavefun   :      17264. kBytes
 
  
  
 General timing and accounting informations for this job:
 ========================================================
  
                  Total CPU time used (sec):       10.281
                            User time (sec):       10.233
                          System time (sec):        0.048
                         Elapsed time (sec):       10.300
  
                   Maximum memory used (kb):       55540.
                   Average memory used (kb):          N/A
  
                          Minor page faults:         7689
                          Major page faults:            0
                 Voluntary context switches:           26
