 vasp.6.2.0 18Jan21 (build Mar 17 2021 09:06:54) complex                        
  
 POSCAR found type information on POSCAR Fe
 POSCAR found :  1 types and       2 ions
 LDA part: xc-table for Pade appr. of Perdew
 POSCAR, INCAR and KPOINTS ok, starting setup
 FFT: planning ...
 WAVECAR not read
 WARNING: chargedensity file is incomplete
 entering main loop
       N       E                     dE             d eps       ncg     rms          rms(c)
DAV:   1     0.612713126951E+02    0.61271E+02   -0.27498E+03  9120   0.317E+02
DAV:   2    -0.147184810476E+02   -0.75990E+02   -0.64279E+02  7880   0.946E+01
DAV:   3    -0.191862388891E+02   -0.44678E+01   -0.42293E+01  9448   0.241E+01
DAV:   4    -0.192077048651E+02   -0.21466E-01   -0.21452E-01  9144   0.175E+00
DAV:   5    -0.192077392632E+02   -0.34398E-04   -0.34397E-04  9168   0.658E-02    0.163E+01
DAV:   6    -0.163296242964E+02    0.28781E+01   -0.20152E+00 11152   0.260E+01    0.309E+00
DAV:   7    -0.160807495545E+02    0.24887E+00   -0.15647E-01 10168   0.628E+00    0.101E+00
DAV:   8    -0.160554877763E+02    0.25262E-01   -0.43434E-03 10208   0.437E-01    0.469E-01
DAV:   9    -0.160447952655E+02    0.10693E-01   -0.93311E-04 11344   0.172E-01    0.612E-02
DAV:  10    -0.160448233079E+02   -0.28042E-04   -0.35910E-05  9120   0.237E-02    0.275E-02
DAV:  11    -0.160448180221E+02    0.52858E-05   -0.52092E-07  9296   0.627E-03    0.188E-03
DAV:  12    -0.160448174554E+02    0.56673E-06   -0.42236E-08  6024   0.111E-03
   1 F= -.16044817E+02 E0= -.16045961E+02  d E =0.343021E-02
 writing wavefunctions
