<?xml version="1.0" encoding="ISO-8859-1"?>
<modeling>
 <generator>
  <i name="program" type="string">vasp </i>
  <i name="version" type="string">6.2.0  </i>
  <i name="subversion" type="string">18Jan21 (build Mar 17 2021 09:06:54) complex                          serial </i>
  <i name="platform" type="string">LinuxIFC </i>
  <i name="date" type="string">2021 09 09 </i>
  <i name="time" type="string">12:09:09 </i>
 </generator>
 <incar>
  <i type="string" name="PREC">normal</i>
  <i type="int" name="ICHARG">     1</i>
  <i type="int" name="IBRION">     1</i>
  <i name="EDIFF">      0.00000100</i>
  <i type="int" name="NSW">     0</i>
  <i type="int" name="ISIF">     2</i>
  <i name="ENCUT">    280.00000000</i>
  <i type="int" name="NBANDS">    40</i>
  <i type="int" name="ISMEAR">     1</i>
  <i name="SIGMA">      0.20000000</i>
  <i type="logical" name="LCHARG"> T  </i>
  <i type="int" name="KPAR">     1</i>
  <i type="int" name="NCORE">     1</i>
  <i type="string" name="GGA">PE</i>
 </incar>
 <primitive_cell>
  <structure name="primitive_cell" >
   <crystal>
    <varray name="basis" >
     <v>       2.39990000       0.00000000       0.00000000 </v>
     <v>      -1.19995000       2.07837437       0.00000000 </v>
     <v>       0.00000000       0.00000000       4.26523000 </v>
    </varray>
    <i name="volume">     21.27450080 </i>
    <varray name="rec_basis" >
     <v>       0.41668403       0.24057264       0.00000000 </v>
     <v>       0.00000000       0.48114527       0.00000000 </v>
     <v>       0.00000000       0.00000000       0.23445395 </v>
    </varray>
   </crystal>
   <varray name="positions" >
    <v>       0.00000000       0.00000000       0.00000000 </v>
    <v>       0.33333333       0.66666667       0.50000000 </v>
   </varray>
  </structure>
  <varray name="primitive_index" >
   <v type="int" >        1 </v>
   <v type="int" >        2 </v>
  </varray>
 </primitive_cell>
 <kpoints>
  <generation param="Monkhorst-Pack">
   <v type="int" name="divisions">      11       11       11 </v>
   <v name="usershift">      0.00000000       0.00000000       0.00000000 </v>
   <v name="genvec1">      0.09090909      -0.00000000       0.00000000 </v>
   <v name="genvec2">      0.00000000       0.09090909       0.00000000 </v>
   <v name="genvec3">      0.00000000       0.00000000       0.09090909 </v>
   <v name="shift">      0.00000000       0.00000000       0.00000000 </v>
  </generation>
  <varray name="kpointlist" >
   <v>       0.00000000       0.00000000       0.00000000 </v>
   <v>       0.09090909       0.00000000       0.00000000 </v>
   <v>       0.18181818       0.00000000       0.00000000 </v>
   <v>       0.27272727       0.00000000       0.00000000 </v>
   <v>       0.36363636       0.00000000       0.00000000 </v>
   <v>       0.45454545       0.00000000       0.00000000 </v>
   <v>       0.09090909       0.09090909       0.00000000 </v>
   <v>       0.18181818       0.09090909       0.00000000 </v>
   <v>       0.27272727       0.09090909       0.00000000 </v>
   <v>       0.36363636       0.09090909       0.00000000 </v>
   <v>       0.45454545       0.09090909       0.00000000 </v>
   <v>       0.18181818       0.18181818       0.00000000 </v>
   <v>       0.27272727       0.18181818       0.00000000 </v>
   <v>       0.36363636       0.18181818       0.00000000 </v>
   <v>       0.27272727       0.27272727       0.00000000 </v>
   <v>       0.36363636       0.27272727       0.00000000 </v>
   <v>       0.00000000       0.00000000       0.09090909 </v>
   <v>       0.09090909       0.00000000       0.09090909 </v>
   <v>       0.18181818       0.00000000       0.09090909 </v>
   <v>       0.27272727       0.00000000       0.09090909 </v>
   <v>       0.36363636       0.00000000       0.09090909 </v>
   <v>       0.45454545       0.00000000       0.09090909 </v>
   <v>       0.09090909       0.09090909       0.09090909 </v>
   <v>       0.18181818       0.09090909       0.09090909 </v>
   <v>       0.27272727       0.09090909       0.09090909 </v>
   <v>       0.36363636       0.09090909       0.09090909 </v>
   <v>       0.45454545       0.09090909       0.09090909 </v>
   <v>       0.18181818       0.18181818       0.09090909 </v>
   <v>       0.27272727       0.18181818       0.09090909 </v>
   <v>       0.36363636       0.18181818       0.09090909 </v>
   <v>       0.27272727       0.27272727       0.09090909 </v>
   <v>       0.36363636       0.27272727       0.09090909 </v>
   <v>       0.00000000       0.00000000       0.18181818 </v>
   <v>       0.09090909       0.00000000       0.18181818 </v>
   <v>       0.18181818       0.00000000       0.18181818 </v>
   <v>       0.27272727       0.00000000       0.18181818 </v>
   <v>       0.36363636       0.00000000       0.18181818 </v>
   <v>       0.45454545       0.00000000       0.18181818 </v>
   <v>       0.09090909       0.09090909       0.18181818 </v>
   <v>       0.18181818       0.09090909       0.18181818 </v>
   <v>       0.27272727       0.09090909       0.18181818 </v>
   <v>       0.36363636       0.09090909       0.18181818 </v>
   <v>       0.45454545       0.09090909       0.18181818 </v>
   <v>       0.18181818       0.18181818       0.18181818 </v>
   <v>       0.27272727       0.18181818       0.18181818 </v>
   <v>       0.36363636       0.18181818       0.18181818 </v>
   <v>       0.27272727       0.27272727       0.18181818 </v>
   <v>       0.36363636       0.27272727       0.18181818 </v>
   <v>       0.00000000       0.00000000       0.27272727 </v>
   <v>       0.09090909       0.00000000       0.27272727 </v>
   <v>       0.18181818       0.00000000       0.27272727 </v>
   <v>       0.27272727       0.00000000       0.27272727 </v>
   <v>       0.36363636       0.00000000       0.27272727 </v>
   <v>       0.45454545       0.00000000       0.27272727 </v>
   <v>       0.09090909       0.09090909       0.27272727 </v>
   <v>       0.18181818       0.09090909       0.27272727 </v>
   <v>       0.27272727       0.09090909       0.27272727 </v>
   <v>       0.36363636       0.09090909       0.27272727 </v>
   <v>       0.45454545       0.09090909       0.27272727 </v>
   <v>       0.18181818       0.18181818       0.27272727 </v>
   <v>       0.27272727       0.18181818       0.27272727 </v>
   <v>       0.36363636       0.18181818       0.27272727 </v>
   <v>       0.27272727       0.27272727       0.27272727 </v>
   <v>       0.36363636       0.27272727       0.27272727 </v>
   <v>       0.00000000       0.00000000       0.36363636 </v>
   <v>       0.09090909       0.00000000       0.36363636 </v>
   <v>       0.18181818       0.00000000       0.36363636 </v>
   <v>       0.27272727       0.00000000       0.36363636 </v>
   <v>       0.36363636       0.00000000       0.36363636 </v>
   <v>       0.45454545       0.00000000       0.36363636 </v>
   <v>       0.09090909       0.09090909       0.36363636 </v>
   <v>       0.18181818       0.09090909       0.36363636 </v>
   <v>       0.27272727       0.09090909       0.36363636 </v>
   <v>       0.36363636       0.09090909       0.36363636 </v>
   <v>       0.45454545       0.09090909       0.36363636 </v>
   <v>       0.18181818       0.18181818       0.36363636 </v>
   <v>       0.27272727       0.18181818       0.36363636 </v>
   <v>       0.36363636       0.18181818       0.36363636 </v>
   <v>       0.27272727       0.27272727       0.36363636 </v>
   <v>       0.36363636       0.27272727       0.36363636 </v>
   <v>       0.00000000       0.00000000       0.45454545 </v>
   <v>       0.09090909       0.00000000       0.45454545 </v>
   <v>       0.18181818       0.00000000       0.45454545 </v>
   <v>       0.27272727       0.00000000       0.45454545 </v>
   <v>       0.36363636       0.00000000       0.45454545 </v>
   <v>       0.45454545       0.00000000       0.45454545 </v>
   <v>       0.09090909       0.09090909       0.45454545 </v>
   <v>       0.18181818       0.09090909       0.45454545 </v>
   <v>       0.27272727       0.09090909       0.45454545 </v>
   <v>       0.36363636       0.09090909       0.45454545 </v>
   <v>       0.45454545       0.09090909       0.45454545 </v>
   <v>       0.18181818       0.18181818       0.45454545 </v>
   <v>       0.27272727       0.18181818       0.45454545 </v>
   <v>       0.36363636       0.18181818       0.45454545 </v>
   <v>       0.27272727       0.27272727       0.45454545 </v>
   <v>       0.36363636       0.27272727       0.45454545 </v>
  </varray>
  <varray name="weights" >
   <v>       0.00075131 </v>
   <v>       0.00450789 </v>
   <v>       0.00450789 </v>
   <v>       0.00450789 </v>
   <v>       0.00450789 </v>
   <v>       0.00450789 </v>
   <v>       0.00450789 </v>
   <v>       0.00901578 </v>
   <v>       0.00901578 </v>
   <v>       0.00901578 </v>
   <v>       0.00450789 </v>
   <v>       0.00450789 </v>
   <v>       0.00901578 </v>
   <v>       0.00901578 </v>
   <v>       0.00450789 </v>
   <v>       0.00450789 </v>
   <v>       0.00150263 </v>
   <v>       0.00901578 </v>
   <v>       0.00901578 </v>
   <v>       0.00901578 </v>
   <v>       0.00901578 </v>
   <v>       0.00901578 </v>
   <v>       0.00901578 </v>
   <v>       0.01803156 </v>
   <v>       0.01803156 </v>
   <v>       0.01803156 </v>
   <v>       0.00901578 </v>
   <v>       0.00901578 </v>
   <v>       0.01803156 </v>
   <v>       0.01803156 </v>
   <v>       0.00901578 </v>
   <v>       0.00901578 </v>
   <v>       0.00150263 </v>
   <v>       0.00901578 </v>
   <v>       0.00901578 </v>
   <v>       0.00901578 </v>
   <v>       0.00901578 </v>
   <v>       0.00901578 </v>
   <v>       0.00901578 </v>
   <v>       0.01803156 </v>
   <v>       0.01803156 </v>
   <v>       0.01803156 </v>
   <v>       0.00901578 </v>
   <v>       0.00901578 </v>
   <v>       0.01803156 </v>
   <v>       0.01803156 </v>
   <v>       0.00901578 </v>
   <v>       0.00901578 </v>
   <v>       0.00150263 </v>
   <v>       0.00901578 </v>
   <v>       0.00901578 </v>
   <v>       0.00901578 </v>
   <v>       0.00901578 </v>
   <v>       0.00901578 </v>
   <v>       0.00901578 </v>
   <v>       0.01803156 </v>
   <v>       0.01803156 </v>
   <v>       0.01803156 </v>
   <v>       0.00901578 </v>
   <v>       0.00901578 </v>
   <v>       0.01803156 </v>
   <v>       0.01803156 </v>
   <v>       0.00901578 </v>
   <v>       0.00901578 </v>
   <v>       0.00150263 </v>
   <v>       0.00901578 </v>
   <v>       0.00901578 </v>
   <v>       0.00901578 </v>
   <v>       0.00901578 </v>
   <v>       0.00901578 </v>
   <v>       0.00901578 </v>
   <v>       0.01803156 </v>
   <v>       0.01803156 </v>
   <v>       0.01803156 </v>
   <v>       0.00901578 </v>
   <v>       0.00901578 </v>
   <v>       0.01803156 </v>
   <v>       0.01803156 </v>
   <v>       0.00901578 </v>
   <v>       0.00901578 </v>
   <v>       0.00150263 </v>
   <v>       0.00901578 </v>
   <v>       0.00901578 </v>
   <v>       0.00901578 </v>
   <v>       0.00901578 </v>
   <v>       0.00901578 </v>
   <v>       0.00901578 </v>
   <v>       0.01803156 </v>
   <v>       0.01803156 </v>
   <v>       0.01803156 </v>
   <v>       0.00901578 </v>
   <v>       0.00901578 </v>
   <v>       0.01803156 </v>
   <v>       0.01803156 </v>
   <v>       0.00901578 </v>
   <v>       0.00901578 </v>
  </varray>
 </kpoints>
 <parameters>
  <separator name="general" >
   <i type="string" name="SYSTEM">unknown system</i>
   <i type="logical" name="LCOMPAT"> F  </i>
  </separator>
  <separator name="electronic" >
   <i type="string" name="PREC">normal</i>
   <i name="ENMAX">    280.00000000</i>
   <i name="ENAUG">    511.36800000</i>
   <i name="EDIFF">      0.00000100</i>
   <i type="int" name="IALGO">    38</i>
   <i type="int" name="IWAVPR">     0</i>
   <i type="int" name="NBANDS">    40</i>
   <i type="int" name="NBANDSLOW">    -1</i>
   <i type="int" name="NBANDSHIGH">    -1</i>
   <i name="NELECT">     16.00000000</i>
   <i type="int" name="TURBO">     0</i>
   <i type="int" name="IRESTART">     0</i>
   <i type="int" name="NREBOOT">     0</i>
   <i type="int" name="NMIN">     0</i>
   <i name="EREF">      0.00000000</i>
   <separator name="electronic smearing" >
    <i type="int" name="ISMEAR">     1</i>
    <i name="SIGMA">      0.20000000</i>
    <i name="KSPACING">      0.50000000</i>
    <i type="logical" name="KGAMMA"> T  </i>
    <i type="logical" name="KBLOWUP"> T  </i>
   </separator>
   <separator name="electronic projectors" >
    <i type="logical" name="LREAL"> F  </i>
    <v name="ROPT">      0.00000000</v>
    <i type="int" name="LMAXPAW">  -100</i>
    <i type="int" name="LMAXMIX">     2</i>
    <i type="logical" name="NLSPLINE"> F  </i>
   </separator>
   <separator name="electronic startup" >
    <i type="int" name="ISTART">     0</i>
    <i type="int" name="ICHARG">     1</i>
    <i type="int" name="INIWAV">     1</i>
   </separator>
   <separator name="electronic spin" >
    <i type="int" name="ISPIN">     1</i>
    <i type="logical" name="LNONCOLLINEAR"> F  </i>
    <v name="MAGMOM">      1.00000000      1.00000000</v>
    <i name="NUPDOWN">     -1.00000000</i>
    <i type="logical" name="LSORBIT"> F  </i>
    <v name="SAXIS">      0.00000000      0.00000000      1.00000000</v>
    <i type="logical" name="LSPIRAL"> F  </i>
    <v name="QSPIRAL">      0.00000000      0.00000000      0.00000000</v>
    <i type="logical" name="LZEROZ"> F  </i>
   </separator>
   <separator name="electronic exchange-correlation" >
    <i type="logical" name="LASPH"> F  </i>
    <i type="logical" name="LMETAGGA"> F  </i>
   </separator>
   <separator name="electronic convergence" >
    <i type="int" name="NELM">    60</i>
    <i type="int" name="NELMDL">    -5</i>
    <i type="int" name="NELMIN">     2</i>
    <i name="ENINI">    280.00000000</i>
    <separator name="electronic convergence detail" >
     <i type="logical" name="LDIAG"> T  </i>
     <i type="logical" name="LSUBROT"> F  </i>
     <i name="WEIMIN">      0.00000000</i>
     <i name="EBREAK">      0.00000001</i>
     <i name="DEPER">      0.30000000</i>
     <i type="int" name="NRMM">     4</i>
     <i name="TIME">      0.40000000</i>
    </separator>
   </separator>
   <separator name="electronic mixer" >
    <i name="AMIX">      0.40000000</i>
    <i name="BMIX">      1.00000000</i>
    <i name="AMIN">      0.10000000</i>
    <i name="AMIX_MAG">      1.60000000</i>
    <i name="BMIX_MAG">      1.00000000</i>
    <separator name="electronic mixer details" >
     <i type="int" name="IMIX">     4</i>
     <i type="logical" name="MIXFIRST"> F  </i>
     <i type="int" name="MAXMIX">   -45</i>
     <i name="WC">    100.00000000</i>
     <i type="int" name="INIMIX">     1</i>
     <i type="int" name="MIXPRE">     1</i>
     <i type="int" name="MREMOVE">     5</i>
    </separator>
   </separator>
   <separator name="electronic dipolcorrection" >
    <i type="logical" name="LDIPOL"> F  </i>
    <i type="logical" name="LMONO"> F  </i>
    <i type="int" name="IDIPOL">     0</i>
    <i name="EPSILON">      1.00000000</i>
    <v name="DIPOL">   -100.00000000   -100.00000000   -100.00000000</v>
    <i name="EFIELD">      0.00000000</i>
   </separator>
  </separator>
  <separator name="grids" >
   <i type="int" name="NGX">    10</i>
   <i type="int" name="NGY">    10</i>
   <i type="int" name="NGZ">    18</i>
   <i type="int" name="NGXF">    20</i>
   <i type="int" name="NGYF">    20</i>
   <i type="int" name="NGZF">    36</i>
   <i type="logical" name="ADDGRID"> F  </i>
  </separator>
  <separator name="ionic" >
   <i type="int" name="NSW">     0</i>
   <i type="int" name="IBRION">    -1</i>
   <i type="int" name="MDALGO">     0</i>
   <i type="int" name="ISIF">     2</i>
   <i name="PSTRESS">      0.00000000</i>
   <i name="EDIFFG">      0.00001000</i>
   <i type="int" name="NFREE">     0</i>
   <i name="POTIM">      0.50000000</i>
   <i name="SMASS">     -3.00000000</i>
   <i name="SCALEE">      1.00000000</i>
  </separator>
  <separator name="ionic md" >
   <i name="TEBEG">      0.00010000</i>
   <i name="TEEND">      0.00010000</i>
   <i type="int" name="NBLOCK">     1</i>
   <i type="int" name="KBLOCK">     1</i>
   <i type="int" name="NPACO">   256</i>
   <i name="APACO">     16.00000000</i>
  </separator>
  <separator name="symmetry" >
   <i type="int" name="ISYM">     2</i>
   <i name="SYMPREC">      0.00001000</i>
  </separator>
  <separator name="dos" >
   <i type="int" name="LORBIT">     0</i>
   <v name="RWIGS">     -1.00000000</v>
   <i type="int" name="NEDOS">   301</i>
   <i name="EMIN">     10.00000000</i>
   <i name="EMAX">    -10.00000000</i>
   <i name="EFERMI">      0.00000000</i>
  </separator>
  <separator name="writing" >
   <i type="int" name="NWRITE">     2</i>
   <i type="logical" name="LWAVE"> T  </i>
   <i type="logical" name="LDOWNSAMPLE"> F  </i>
   <i type="logical" name="LCHARG"> T  </i>
   <i type="logical" name="LPARD"> F  </i>
   <i type="logical" name="LVTOT"> F  </i>
   <i type="logical" name="LVHAR"> F  </i>
   <i type="logical" name="LELF"> F  </i>
   <i type="logical" name="LOPTICS"> F  </i>
   <v name="STM">      0.00000000      0.00000000      0.00000000      0.00000000      0.00000000      0.00000000      0.00000000</v>
  </separator>
  <separator name="performance" >
   <i type="int" name="NPAR">     1</i>
   <i type="int" name="NSIM">     4</i>
   <i type="int" name="NBLK">    -1</i>
   <i type="logical" name="LPLANE"> T  </i>
   <i type="logical" name="LSCALAPACK"> F  </i>
   <i type="logical" name="LSCAAWARE"> F  </i>
   <i type="logical" name="LSCALU"> F  </i>
   <i type="logical" name="LASYNC"> F  </i>
   <i type="logical" name="LORBITALREAL"> F  </i>
  </separator>
  <separator name="miscellaneous" >
   <i type="int" name="IDIOT">     3</i>
   <i type="int" name="PHON_NSTRUCT">    -1</i>
   <i type="logical" name="LMUSIC"> F  </i>
   <v name="POMASS">     55.84700000</v>
   <v name="DARWINR">      0.00000000</v>
   <v name="DARWINV">      1.00000000</v>
   <i type="logical" name="LCORR"> T  </i>
  </separator>
  <i type="logical" name="GGA_COMPAT"> T  </i>
  <i type="logical" name="LBERRY"> F  </i>
  <i type="int" name="ICORELEVEL">     0</i>
  <i type="logical" name="LDAU"> F  </i>
  <i type="int" name="I_CONSTRAINED_M">     0</i>
  <separator name="electronic exchange-correlation" >
   <i type="string" name="GGA">PE</i>
   <i type="int" name="VOSKOWN">     0</i>
   <i type="logical" name="LHFCALC"> F  </i>
   <i type="string" name="PRECFOCK"></i>
   <i type="logical" name="LSYMGRAD"> F  </i>
   <i type="logical" name="LHFONE"> F  </i>
   <i type="logical" name="LRHFCALC"> F  </i>
   <i type="logical" name="LTHOMAS"> F  </i>
   <i type="logical" name="LMODELHF"> F  </i>
   <i type="logical" name="LFOCKACE"> F  </i>
   <i name="ENCUT4O">     -1.00000000</i>
   <i type="int" name="EXXOEP">     0</i>
   <i type="int" name="FOURORBIT">     0</i>
   <i name="AEXX">      0.00000000</i>
   <i name="HFALPHA">      0.00000000</i>
   <i name="MCALPHA">      0.00000000</i>
   <i name="ALDAX">      1.00000000</i>
   <i name="AGGAX">      1.00000000</i>
   <i name="ALDAC">      1.00000000</i>
   <i name="AGGAC">      1.00000000</i>
   <i type="int" name="NKREDX">     1</i>
   <i type="int" name="NKREDY">     1</i>
   <i type="int" name="NKREDZ">     1</i>
   <i type="logical" name="SHIFTRED"> F  </i>
   <i type="logical" name="ODDONLY"> F  </i>
   <i type="logical" name="EVENONLY"> F  </i>
   <i type="int" name="LMAXFOCK">     0</i>
   <i type="int" name="NMAXFOCKAE">     0</i>
   <i type="logical" name="LFOCKAEDFT"> F  </i>
   <i name="HFSCREEN">      0.00000000</i>
   <i name="HFSCREENC">      0.00000000</i>
   <i type="int" name="NBANDSGWLOW">     0</i>
  </separator>
  <separator name="vdW DFT" >
   <i type="logical" name="LUSE_VDW"> F  </i>
   <i name="Zab_VDW">     -0.84910000</i>
   <i name="PARAM1">      0.12340000</i>
   <i name="PARAM2">      1.00000000</i>
   <i name="PARAM3">      0.00000000</i>
  </separator>
  <separator name="model GW" >
   <i type="int" name="MODEL_GW">     0</i>
   <i name="MODEL_EPS0">      6.38235024</i>
   <i name="MODEL_ALPHA">      1.00000000</i>
  </separator>
  <separator name="linear response parameters" >
   <i type="logical" name="LEPSILON"> F  </i>
   <i type="logical" name="LRPA"> F  </i>
   <i type="logical" name="LNABLA"> F  </i>
   <i type="logical" name="LVEL"> F  </i>
   <i type="int" name="KINTER">     0</i>
   <i name="CSHIFT">      0.10000000</i>
   <i name="OMEGAMAX">     -1.00000000</i>
   <i name="DEG_THRESHOLD">      0.00200000</i>
   <i name="RTIME">     -0.10000000</i>
   <i name="WPLASMAI">      0.00000000</i>
   <v name="DFIELD">      0.00000000      0.00000000      0.00000000</v>
   <v name="WPLASMA">      0.00000000      0.00000000      0.00000000      0.00000000      0.00000000      0.00000000      0.00000000      0.00000000      0.00000000</v>
  </separator>
  <separator name="orbital magnetization" >
   <i type="logical" name="NUCIND"> F  </i>
   <v name="MAGPOS">      0.00000000      0.00000000      0.00000000</v>
   <i type="logical" name="LNICSALL"> T  </i>
   <i type="logical" name="ORBITALMAG"> F  </i>
   <i type="logical" name="LMAGBLOCH"> F  </i>
   <i type="logical" name="LCHIMAG"> F  </i>
   <i type="logical" name="LGAUGE"> T  </i>
   <i type="int" name="MAGATOM">     0</i>
   <v name="MAGDIPOL">      0.00000000      0.00000000      0.00000000</v>
   <v name="AVECCONST">      0.00000000      0.00000000      0.00000000</v>
  </separator>
  <separator name="response functions" >
   <i type="logical" name="LFINITE_TEMPERATURE"> F  </i>
   <i type="logical" name="LADDER"> F  </i>
   <i type="logical" name="LRPAFORCE"> F  </i>
   <i type="logical" name="LFXC"> F  </i>
   <i type="logical" name="LHARTREE"> T  </i>
   <i type="int" name="IBSE">     0</i>
   <v type="int" name="KPOINT">    -1     0     0     0</v>
   <i type="logical" name="LTCTC"> F  </i>
   <i type="logical" name="LTCTE"> F  </i>
   <i type="logical" name="LTETE"> F  </i>
   <i type="logical" name="LTRIPLET"> F  </i>
   <i type="logical" name="LFXCEPS"> F  </i>
   <i type="logical" name="LFXHEG"> F  </i>
   <i type="int" name="NATURALO">     2</i>
   <i type="logical" name="LHOLEGF"> F  </i>
   <i type="logical" name="L2ORDER"> F  </i>
   <i type="logical" name="LDMP1"> F  </i>
   <i type="logical" name="LMP2LT"> F  </i>
   <i type="logical" name="LSMP2LT"> F  </i>
   <i type="logical" name="LGWLF"> F  </i>
   <i name="ENCUTGW">     -2.00000000</i>
   <i name="ENCUTGWSOFT">     -2.00000000</i>
   <i name="ENCUTLF">     -1.00000000</i>
   <i type="logical" name="LESF_SPLINES"> F  </i>
   <i type="int" name="LMAXMP2">    -1</i>
   <i name="SCISSOR">      0.00000000</i>
   <i type="int" name="NOMEGA">     0</i>
   <i type="int" name="NOMEGAR">     0</i>
   <i type="int" name="NBANDSGW">    -1</i>
   <i type="int" name="NBANDSO">    -1</i>
   <i type="int" name="NBANDSV">    -1</i>
   <i type="int" name="NELM">     1</i>
   <i type="int" name="NELMHF">     1</i>
   <i type="int" name="DIM">     3</i>
   <i type="int" name="IESPILON">     4</i>
   <i type="int" name="ANTIRES">     0</i>
   <i name="OMEGAMAX">    -30.00000000</i>
   <i name="OMEGAMIN">    -30.00000000</i>
   <i name="OMEGATL">   -200.00000000</i>
   <i type="int" name="OMEGAGRID">     0</i>
   <i name="CSHIFT">     -0.10000000</i>
   <i type="logical" name="LSELFENERGY"> F  </i>
   <i type="logical" name="LSPECTRAL"> F  </i>
   <i type="logical" name="LSPECTRALGW"> F  </i>
   <i type="logical" name="LSINGLES"> F  </i>
   <i type="logical" name="LFERMIGW"> F  </i>
   <i type="logical" name="ODDONLYGW"> F  </i>
   <i type="logical" name="EVENONLYGW"> F  </i>
   <i type="int" name="NKREDLFX">     1</i>
   <i type="int" name="NKREDLFY">     1</i>
   <i type="int" name="NKREDLFZ">     1</i>
   <i type="int" name="MAXMEM">  2800</i>
   <i type="int" name="TELESCOPE">     0</i>
   <i type="int" name="NTAUPAR">    -1</i>
   <i type="int" name="NOMEGAPAR">    -1</i>
   <i name="DAMP_NEWTON">      0.80000001</i>
   <i name="LAMBDA">      1.00000000</i>
  </separator>
  <separator name="External order field" >
   <i name="OFIELD_KAPPA">      0.00000000</i>
   <v name="OFIELD_K">      0.00000000      0.00000000      0.00000000</v>
   <i name="OFIELD_Q6_NEAR">      0.00000000</i>
   <i name="OFIELD_Q6_FAR">      0.00000000</i>
   <i name="OFIELD_A">      0.00000000</i>
  </separator>
 </parameters>
 <atominfo>
  <atoms>       2 </atoms>
  <types>       1 </types>
  <array name="atoms" >
   <dimension dim="1">ion</dimension>
   <field type="string">element</field>
   <field type="int">atomtype</field>
   <set>
    <rc><c>Fe</c><c>   1</c></rc>
    <rc><c>Fe</c><c>   1</c></rc>
   </set>
  </array>
  <array name="atomtypes" >
   <dimension dim="1">type</dimension>
   <field type="int">atomspertype</field>
   <field type="string">element</field>
   <field>mass</field>
   <field>valence</field>
   <field type="string">pseudopotential</field>
   <set>
    <rc><c>   2</c><c>Fe</c><c>     55.84700000</c><c>      8.00000000</c><c>  PAW_PBE Fe 06Sep2000                  </c></rc>
   </set>
  </array>
 </atominfo>
 <structure name="initialpos" >
  <crystal>
   <varray name="basis" >
    <v>       2.39990000       0.00000000       0.00000000 </v>
    <v>      -1.19995000       2.07837437       0.00000000 </v>
    <v>       0.00000000       0.00000000       4.26523000 </v>
   </varray>
   <i name="volume">     21.27450080 </i>
   <varray name="rec_basis" >
    <v>       0.41668403       0.24057264       0.00000000 </v>
    <v>       0.00000000       0.48114527       0.00000000 </v>
    <v>       0.00000000       0.00000000       0.23445395 </v>
   </varray>
  </crystal>
  <varray name="positions" >
   <v>       0.00000000       0.00000000       0.00000000 </v>
   <v>       0.33333333       0.66666667       0.50000000 </v>
  </varray>
 </structure>
 <calculation>
  <scstep>
   <time name="dav">    0.81    0.84</time>
   <time name="total">    0.83    0.86</time>
   <energy>
    <i name="alphaZ">    129.94669372 </i>
    <i name="ewald">  -1208.97417749 </i>
    <i name="hartreedc">   -214.19115140 </i>
    <i name="XCdc">      8.22729656 </i>
    <i name="pawpsdc">   1109.69170683 </i>
    <i name="pawaedc">  -1125.09647265 </i>
    <i name="eentropy">     -0.00418021 </i>
    <i name="bandstr">    173.09668923 </i>
    <i name="atom">   1188.57490811 </i>
    <i name="e_fr_energy">     61.27131270 </i>
    <i name="e_wo_entrp">     61.27549291 </i>
    <i name="e_0_energy">     61.27270610 </i>
   </energy>
  </scstep>
  <scstep>
   <time name="dav">    0.69    0.69</time>
   <time name="total">    0.70    0.70</time>
   <energy>
    <i name="e_fr_energy">    -14.71848105 </i>
    <i name="e_wo_entrp">    -14.72127237 </i>
    <i name="e_0_energy">    -14.71941149 </i>
   </energy>
  </scstep>
  <scstep>
   <time name="dav">    0.80    0.80</time>
   <time name="total">    0.80    0.80</time>
   <energy>
    <i name="e_fr_energy">    -19.18623889 </i>
    <i name="e_wo_entrp">    -19.18714641 </i>
    <i name="e_0_energy">    -19.18654140 </i>
   </energy>
  </scstep>
  <scstep>
   <time name="dav">    0.77    0.77</time>
   <time name="total">    0.77    0.77</time>
   <energy>
    <i name="e_fr_energy">    -19.20770487 </i>
    <i name="e_wo_entrp">    -19.20862712 </i>
    <i name="e_0_energy">    -19.20801228 </i>
   </energy>
  </scstep>
  <scstep>
   <time name="dav">    0.77    0.77</time>
   <time name="total">    0.79    0.79</time>
   <energy>
    <i name="e_fr_energy">    -19.20773926 </i>
    <i name="e_wo_entrp">    -19.20866157 </i>
    <i name="e_0_energy">    -19.20804670 </i>
   </energy>
  </scstep>
  <scstep>
   <time name="dav">    0.92    0.92</time>
   <time name="total">    0.96    0.96</time>
   <energy>
    <i name="e_fr_energy">    -16.32962430 </i>
    <i name="e_wo_entrp">    -16.33294503 </i>
    <i name="e_0_energy">    -16.33073121 </i>
   </energy>
  </scstep>
  <scstep>
   <time name="dav">    0.84    0.84</time>
   <time name="total">    0.87    0.87</time>
   <energy>
    <i name="e_fr_energy">    -16.08074955 </i>
    <i name="e_wo_entrp">    -16.08410733 </i>
    <i name="e_0_energy">    -16.08186881 </i>
   </energy>
  </scstep>
  <scstep>
   <time name="dav">    0.84    0.84</time>
   <time name="total">    0.87    0.87</time>
   <energy>
    <i name="e_fr_energy">    -16.05548778 </i>
    <i name="e_wo_entrp">    -16.05892299 </i>
    <i name="e_0_energy">    -16.05663285 </i>
   </energy>
  </scstep>
  <scstep>
   <time name="dav">    0.92    0.92</time>
   <time name="total">    0.95    0.95</time>
   <energy>
    <i name="e_fr_energy">    -16.04479527 </i>
    <i name="e_wo_entrp">    -16.04823009 </i>
    <i name="e_0_energy">    -16.04594021 </i>
   </energy>
  </scstep>
  <scstep>
   <time name="dav">    0.77    0.77</time>
   <time name="total">    0.80    0.80</time>
   <energy>
    <i name="e_fr_energy">    -16.04482331 </i>
    <i name="e_wo_entrp">    -16.04825332 </i>
    <i name="e_0_energy">    -16.04596665 </i>
   </energy>
  </scstep>
  <scstep>
   <time name="dav">    0.78    0.78</time>
   <time name="total">    0.81    0.81</time>
   <energy>
    <i name="e_fr_energy">    -16.04481802 </i>
    <i name="e_wo_entrp">    -16.04824801 </i>
    <i name="e_0_energy">    -16.04596135 </i>
   </energy>
  </scstep>
  <scstep>
   <time name="dav">    0.58    0.58</time>
   <time name="total">    0.59    0.59</time>
   <energy>
    <i name="alphaZ">    129.94669372 </i>
    <i name="ewald">  -1208.97417749 </i>
    <i name="hartreedc">   -179.84434913 </i>
    <i name="XCdc">      6.63365725 </i>
    <i name="pawpsdc">   1431.53850048 </i>
    <i name="pawaedc">  -1448.66209330 </i>
    <i name="eentropy">      0.00343021 </i>
    <i name="bandstr">     64.73861270 </i>
    <i name="atom">   1188.57490811 </i>
    <i name="e_fr_energy">    -16.04481746 </i>
    <i name="e_wo_entrp">    -16.04824766 </i>
    <i name="e_0_energy">    -16.04596086 </i>
   </energy>
  </scstep>
  <structure>
   <crystal>
    <varray name="basis" >
     <v>       2.39990000       0.00000000       0.00000000 </v>
     <v>      -1.19995000       2.07837437       0.00000000 </v>
     <v>       0.00000000       0.00000000       4.26523000 </v>
    </varray>
    <i name="volume">     21.27450080 </i>
    <varray name="rec_basis" >
     <v>       0.41668403       0.24057264       0.00000000 </v>
     <v>       0.00000000       0.48114527       0.00000000 </v>
     <v>       0.00000000       0.00000000       0.23445395 </v>
    </varray>
   </crystal>
   <varray name="positions" >
    <v>       0.00000000       0.00000000       0.00000000 </v>
    <v>       0.33333333       0.66666667       0.50000000 </v>
   </varray>
  </structure>
  <varray name="forces" >
   <v>      -0.00000000      -0.00000000      -0.00000000 </v>
   <v>       0.00000000       0.00000000       0.00000000 </v>
  </varray>
  <varray name="stress" >
   <v>      46.09896966      -0.00000000       0.00000000 </v>
   <v>      -0.00000000      46.09896966      -0.00000000 </v>
   <v>       0.00000000       0.00000000    -401.39477763 </v>
  </varray>
  <energy>
   <i name="e_fr_energy">    -16.04481746 </i>
   <i name="e_wo_entrp">    -16.04824766 </i>
   <i name="e_0_energy">    -16.04596086 </i>
  </energy>
  <time name="totalsc">   10.08   10.11</time>
  <eigenvalues>
   <array>
    <dimension dim="1">band</dimension>
    <dimension dim="2">kpoint</dimension>
    <dimension dim="3">spin</dimension>
    <field>eigene</field>
    <field>occ</field>
    <set>
     <set comment="spin 1">
      <set comment="kpoint 1">
       <r>   -2.2290    1.0000 </r>
       <r>    1.6245    1.0000 </r>
       <r>    4.3009    1.0000 </r>
       <r>    4.9468    1.0000 </r>
       <r>    4.9470    1.0000 </r>
       <r>    5.2221    1.0000 </r>
       <r>    5.2222    1.0000 </r>
       <r>    5.6697    1.0000 </r>
       <r>    6.1571    1.0344 </r>
       <r>    6.1572    1.0344 </r>
       <r>    7.1127   -0.0000 </r>
       <r>    7.1127   -0.0000 </r>
       <r>   13.1732    0.0000 </r>
       <r>   29.1374    0.0000 </r>
       <r>   29.5863    0.0000 </r>
       <r>   32.3951    0.0000 </r>
       <r>   34.3558    0.0000 </r>
       <r>   34.3559    0.0000 </r>
       <r>   35.1712    0.0000 </r>
       <r>   35.1714    0.0000 </r>
       <r>   35.4075    0.0000 </r>
       <r>   38.1314    0.0000 </r>
       <r>   38.1314    0.0000 </r>
       <r>   39.1252    0.0000 </r>
       <r>   41.4246    0.0000 </r>
       <r>   41.4246    0.0000 </r>
       <r>   41.7766    0.0000 </r>
       <r>   44.8591    0.0000 </r>
       <r>   44.8595    0.0000 </r>
       <r>   46.5794    0.0000 </r>
       <r>   46.5796    0.0000 </r>
       <r>   48.8689    0.0000 </r>
       <r>   56.5487    0.0000 </r>
       <r>   60.2762    0.0000 </r>
       <r>   60.2774    0.0000 </r>
       <r>   60.8561    0.0000 </r>
       <r>   61.3781    0.0000 </r>
       <r>   62.0035    0.0000 </r>
       <r>   62.0093    0.0000 </r>
       <r>   62.1853    0.0000 </r>
      </set>
      <set comment="kpoint 2">
       <r>   -1.9079    1.0000 </r>
       <r>    1.8659    1.0000 </r>
       <r>    4.3278    1.0000 </r>
       <r>    4.8782    1.0000 </r>
       <r>    4.9055    1.0000 </r>
       <r>    5.1146    1.0000 </r>
       <r>    5.1293    1.0000 </r>
       <r>    5.3921    1.0000 </r>
       <r>    6.0130    1.0072 </r>
       <r>    6.0554    1.0137 </r>
       <r>    7.1419   -0.0000 </r>
       <r>    8.1474   -0.0000 </r>
       <r>   13.2026    0.0000 </r>
       <r>   28.1761    0.0000 </r>
       <r>   29.5030    0.0000 </r>
       <r>   30.6500    0.0000 </r>
       <r>   31.6581    0.0000 </r>
       <r>   34.1115    0.0000 </r>
       <r>   34.1494    0.0000 </r>
       <r>   35.2725    0.0000 </r>
       <r>   37.4729    0.0000 </r>
       <r>   37.9733    0.0000 </r>
       <r>   38.0872    0.0000 </r>
       <r>   38.7429    0.0000 </r>
       <r>   42.2569    0.0000 </r>
       <r>   42.5341    0.0000 </r>
       <r>   42.6765    0.0000 </r>
       <r>   43.1321    0.0000 </r>
       <r>   46.3220    0.0000 </r>
       <r>   47.9374    0.0000 </r>
       <r>   49.0791    0.0000 </r>
       <r>   50.9629    0.0000 </r>
       <r>   56.1719    0.0000 </r>
       <r>   58.3504    0.0000 </r>
       <r>   58.8326    0.0000 </r>
       <r>   59.3348    0.0000 </r>
       <r>   60.2013    0.0000 </r>
       <r>   62.0630    0.0000 </r>
       <r>   63.3205    0.0000 </r>
       <r>   63.6843    0.0000 </r>
      </set>
      <set comment="kpoint 3">
       <r>   -0.9953    1.0000 </r>
       <r>    2.4413    1.0000 </r>
       <r>    3.9353    1.0000 </r>
       <r>    4.1913    1.0000 </r>
       <r>    4.6929    1.0000 </r>
       <r>    5.2103    1.0000 </r>
       <r>    5.6369    1.0000 </r>
       <r>    5.6677    1.0000 </r>
       <r>    5.8124    1.0001 </r>
       <r>    5.8631    1.0003 </r>
       <r>    7.1885   -0.0000 </r>
       <r>    9.8764   -0.0000 </r>
       <r>   13.3173    0.0000 </r>
       <r>   24.3323    0.0000 </r>
       <r>   28.9097    0.0000 </r>
       <r>   29.3998    0.0000 </r>
       <r>   29.7243    0.0000 </r>
       <r>   30.6169    0.0000 </r>
       <r>   34.1821    0.0000 </r>
       <r>   35.2485    0.0000 </r>
       <r>   35.5646    0.0000 </r>
       <r>   36.5061    0.0000 </r>
       <r>   38.8756    0.0000 </r>
       <r>   39.5552    0.0000 </r>
       <r>   42.4349    0.0000 </r>
       <r>   43.7978    0.0000 </r>
       <r>   45.3418    0.0000 </r>
       <r>   47.4336    0.0000 </r>
       <r>   48.8223    0.0000 </r>
       <r>   51.6427    0.0000 </r>
       <r>   51.9603    0.0000 </r>
       <r>   54.4255    0.0000 </r>
       <r>   55.0216    0.0000 </r>
       <r>   55.2218    0.0000 </r>
       <r>   57.1013    0.0000 </r>
       <r>   58.6661    0.0000 </r>
       <r>   59.8735    0.0000 </r>
       <r>   61.9210    0.0000 </r>
       <r>   64.2210    0.0000 </r>
       <r>   64.7441    0.0000 </r>
      </set>
      <set comment="kpoint 4">
       <r>    0.3160    1.0000 </r>
       <r>    2.7480    1.0000 </r>
       <r>    3.1920    1.0000 </r>
       <r>    4.1523    1.0000 </r>
       <r>    4.5109    1.0000 </r>
       <r>    5.2313    1.0000 </r>
       <r>    5.5348    1.0000 </r>
       <r>    5.9026    1.0008 </r>
       <r>    6.3577    0.7474 </r>
       <r>    6.5208    0.1259 </r>
       <r>    7.2095   -0.0000 </r>
       <r>   11.8553   -0.0000 </r>
       <r>   13.5798    0.0000 </r>
       <r>   20.3479    0.0000 </r>
       <r>   26.1199    0.0000 </r>
       <r>   26.5696    0.0000 </r>
       <r>   27.6132    0.0000 </r>
       <r>   30.7162    0.0000 </r>
       <r>   32.3104    0.0000 </r>
       <r>   35.1885    0.0000 </r>
       <r>   35.7819    0.0000 </r>
       <r>   36.0217    0.0000 </r>
       <r>   36.4499    0.0000 </r>
       <r>   39.9963    0.0000 </r>
       <r>   46.0972    0.0000 </r>
       <r>   47.5229    0.0000 </r>
       <r>   48.7826    0.0000 </r>
       <r>   49.6928    0.0000 </r>
       <r>   50.4086    0.0000 </r>
       <r>   51.9651    0.0000 </r>
       <r>   53.2835    0.0000 </r>
       <r>   54.4026    0.0000 </r>
       <r>   56.7593    0.0000 </r>
       <r>   57.0407    0.0000 </r>
       <r>   57.8882    0.0000 </r>
       <r>   59.3830    0.0000 </r>
       <r>   61.5263    0.0000 </r>
       <r>   61.6486    0.0000 </r>
       <r>   64.2420    0.0000 </r>
       <r>   64.8895    0.0000 </r>
      </set>
      <set comment="kpoint 5">
       <r>    1.5344    1.0000 </r>
       <r>    2.5124    1.0000 </r>
       <r>    2.7077    1.0000 </r>
       <r>    4.2817    1.0000 </r>
       <r>    4.8412    1.0000 </r>
       <r>    4.9052    1.0000 </r>
       <r>    5.3025    1.0000 </r>
       <r>    7.0541   -0.0000 </r>
       <r>    7.0788   -0.0000 </r>
       <r>    7.1788   -0.0000 </r>
       <r>    7.2079   -0.0000 </r>
       <r>   13.6223    0.0000 </r>
       <r>   13.9947    0.0000 </r>
       <r>   17.4005    0.0000 </r>
       <r>   22.8374    0.0000 </r>
       <r>   24.6753    0.0000 </r>
       <r>   24.7883    0.0000 </r>
       <r>   29.9422    0.0000 </r>
       <r>   31.3340    0.0000 </r>
       <r>   34.4651    0.0000 </r>
       <r>   35.3057    0.0000 </r>
       <r>   36.7859    0.0000 </r>
       <r>   37.0984    0.0000 </r>
       <r>   40.2149    0.0000 </r>
       <r>   47.0113    0.0000 </r>
       <r>   48.4927    0.0000 </r>
       <r>   49.5402    0.0000 </r>
       <r>   52.5547    0.0000 </r>
       <r>   52.7806    0.0000 </r>
       <r>   53.2324    0.0000 </r>
       <r>   55.2777    0.0000 </r>
       <r>   56.4802    0.0000 </r>
       <r>   56.5934    0.0000 </r>
       <r>   58.6817    0.0000 </r>
       <r>   60.5956    0.0000 </r>
       <r>   61.3766    0.0000 </r>
       <r>   62.1969    0.0000 </r>
       <r>   63.0868    0.0000 </r>
       <r>   65.1441    0.0000 </r>
       <r>   65.2728    0.0000 </r>
      </set>
      <set comment="kpoint 6">
       <r>    2.0689    1.0000 </r>
       <r>    2.2681    1.0000 </r>
       <r>    2.4730    1.0000 </r>
       <r>    4.6151    1.0000 </r>
       <r>    4.7926    1.0000 </r>
       <r>    5.1295    1.0000 </r>
       <r>    5.1729    1.0000 </r>
       <r>    7.2017   -0.0000 </r>
       <r>    7.5238   -0.0000 </r>
       <r>    7.6225   -0.0000 </r>
       <r>    8.6524   -0.0000 </r>
       <r>   11.9362    0.0000 </r>
       <r>   16.0521    0.0000 </r>
       <r>   17.3110    0.0000 </r>
       <r>   20.2439    0.0000 </r>
       <r>   21.9614    0.0000 </r>
       <r>   23.7993    0.0000 </r>
       <r>   29.3562    0.0000 </r>
       <r>   31.0310    0.0000 </r>
       <r>   33.3776    0.0000 </r>
       <r>   35.0938    0.0000 </r>
       <r>   37.6592    0.0000 </r>
       <r>   39.5098    0.0000 </r>
       <r>   39.8808    0.0000 </r>
       <r>   43.6831    0.0000 </r>
       <r>   48.6777    0.0000 </r>
       <r>   50.7131    0.0000 </r>
       <r>   54.6793    0.0000 </r>
       <r>   55.2721    0.0000 </r>
       <r>   55.8944    0.0000 </r>
       <r>   56.7073    0.0000 </r>
       <r>   58.4900    0.0000 </r>
       <r>   59.1238    0.0000 </r>
       <r>   60.1320    0.0000 </r>
       <r>   60.8515    0.0000 </r>
       <r>   61.0276    0.0000 </r>
       <r>   63.8361    0.0000 </r>
       <r>   64.3290    0.0000 </r>
       <r>   64.3545    0.0000 </r>
       <r>   65.1932    0.0000 </r>
      </set>
      <set comment="kpoint 7">
       <r>   -1.2887    1.0000 </r>
       <r>    2.2912    1.0000 </r>
       <r>    4.1880    1.0000 </r>
       <r>    4.2215    1.0000 </r>
       <r>    4.9071    1.0000 </r>
       <r>    4.9151    1.0000 </r>
       <r>    5.5006    1.0000 </r>
       <r>    5.6536    1.0000 </r>
       <r>    5.7576    1.0000 </r>
       <r>    6.0134    1.0073 </r>
       <r>    7.1478   -0.0000 </r>
       <r>    9.3922   -0.0000 </r>
       <r>   13.2776    0.0000 </r>
       <r>   26.1073    0.0000 </r>
       <r>   27.2304    0.0000 </r>
       <r>   30.0683    0.0000 </r>
       <r>   31.4504    0.0000 </r>
       <r>   32.8024    0.0000 </r>
       <r>   33.0423    0.0000 </r>
       <r>   34.1374    0.0000 </r>
       <r>   34.9890    0.0000 </r>
       <r>   39.4528    0.0000 </r>
       <r>   39.9639    0.0000 </r>
       <r>   40.3163    0.0000 </r>
       <r>   41.5985    0.0000 </r>
       <r>   41.7196    0.0000 </r>
       <r>   42.0036    0.0000 </r>
       <r>   48.0962    0.0000 </r>
       <r>   49.7709    0.0000 </r>
       <r>   49.8524    0.0000 </r>
       <r>   49.9547    0.0000 </r>
       <r>   54.0117    0.0000 </r>
       <r>   55.4839    0.0000 </r>
       <r>   56.0053    0.0000 </r>
       <r>   57.0438    0.0000 </r>
       <r>   58.5668    0.0000 </r>
       <r>   59.7161    0.0000 </r>
       <r>   62.6007    0.0000 </r>
       <r>   64.0936    0.0000 </r>
       <r>   64.5456    0.0000 </r>
      </set>
      <set comment="kpoint 8">
       <r>   -0.1548    1.0000 </r>
       <r>    2.8478    1.0000 </r>
       <r>    3.4597    1.0000 </r>
       <r>    3.9477    1.0000 </r>
       <r>    4.6127    1.0000 </r>
       <r>    5.2399    1.0000 </r>
       <r>    5.3179    1.0000 </r>
       <r>    5.7757    1.0000 </r>
       <r>    6.1624    1.0349 </r>
       <r>    6.4306    0.4525 </r>
       <r>    7.1401   -0.0000 </r>
       <r>   11.1570   -0.0000 </r>
       <r>   13.5059    0.0000 </r>
       <r>   22.3874    0.0000 </r>
       <r>   24.9324    0.0000 </r>
       <r>   27.9707    0.0000 </r>
       <r>   30.0744    0.0000 </r>
       <r>   30.3460    0.0000 </r>
       <r>   33.2751    0.0000 </r>
       <r>   33.3095    0.0000 </r>
       <r>   34.4347    0.0000 </r>
       <r>   38.5471    0.0000 </r>
       <r>   39.2832    0.0000 </r>
       <r>   40.1582    0.0000 </r>
       <r>   43.2892    0.0000 </r>
       <r>   44.3557    0.0000 </r>
       <r>   46.2752    0.0000 </r>
       <r>   49.8207    0.0000 </r>
       <r>   52.1010    0.0000 </r>
       <r>   52.4437    0.0000 </r>
       <r>   52.7750    0.0000 </r>
       <r>   54.7486    0.0000 </r>
       <r>   55.8669    0.0000 </r>
       <r>   56.0573    0.0000 </r>
       <r>   57.0604    0.0000 </r>
       <r>   57.5334    0.0000 </r>
       <r>   60.6782    0.0000 </r>
       <r>   62.8684    0.0000 </r>
       <r>   64.7285    0.0000 </r>
       <r>   64.8231    0.0000 </r>
      </set>
      <set comment="kpoint 9">
       <r>    1.1926    1.0000 </r>
       <r>    2.8246    1.0000 </r>
       <r>    2.9249    1.0000 </r>
       <r>    4.0102    1.0000 </r>
       <r>    4.6687    1.0000 </r>
       <r>    4.8892    1.0000 </r>
       <r>    5.4376    1.0000 </r>
       <r>    6.0443    1.0117 </r>
       <r>    6.8850   -0.0024 </r>
       <r>    7.1260   -0.0000 </r>
       <r>    7.3087   -0.0000 </r>
       <r>   13.1925    0.0000 </r>
       <r>   13.9095    0.0000 </r>
       <r>   18.7070    0.0000 </r>
       <r>   23.2812    0.0000 </r>
       <r>   24.5683    0.0000 </r>
       <r>   26.9530    0.0000 </r>
       <r>   28.9742    0.0000 </r>
       <r>   32.4392    0.0000 </r>
       <r>   33.6986    0.0000 </r>
       <r>   34.8140    0.0000 </r>
       <r>   38.1399    0.0000 </r>
       <r>   38.6471    0.0000 </r>
       <r>   41.4122    0.0000 </r>
       <r>   45.1500    0.0000 </r>
       <r>   47.9465    0.0000 </r>
       <r>   49.0589    0.0000 </r>
       <r>   49.2029    0.0000 </r>
       <r>   51.1852    0.0000 </r>
       <r>   53.3256    0.0000 </r>
       <r>   54.5796    0.0000 </r>
       <r>   56.1655    0.0000 </r>
       <r>   57.1756    0.0000 </r>
       <r>   57.9844    0.0000 </r>
       <r>   59.7312    0.0000 </r>
       <r>   61.8295    0.0000 </r>
       <r>   62.6375    0.0000 </r>
       <r>   62.7789    0.0000 </r>
       <r>   63.5553    0.0000 </r>
       <r>   65.1894    0.0000 </r>
      </set>
      <set comment="kpoint 10">
       <r>    2.0937    1.0000 </r>
       <r>    2.5279    1.0000 </r>
       <r>    2.6132    1.0000 </r>
       <r>    4.3696    1.0000 </r>
       <r>    4.6620    1.0000 </r>
       <r>    5.0297    1.0000 </r>
       <r>    5.1516    1.0000 </r>
       <r>    6.9183   -0.0012 </r>
       <r>    7.1068   -0.0000 </r>
       <r>    7.3788   -0.0000 </r>
       <r>    8.4370   -0.0000 </r>
       <r>   13.2892    0.0000 </r>
       <r>   15.3644    0.0000 </r>
       <r>   17.1194    0.0000 </r>
       <r>   21.5820    0.0000 </r>
       <r>   21.9684    0.0000 </r>
       <r>   23.7492    0.0000 </r>
       <r>   28.1286    0.0000 </r>
       <r>   31.5049    0.0000 </r>
       <r>   33.2099    0.0000 </r>
       <r>   36.2258    0.0000 </r>
       <r>   38.5742    0.0000 </r>
       <r>   39.3333    0.0000 </r>
       <r>   40.8898    0.0000 </r>
       <r>   45.6427    0.0000 </r>
       <r>   47.8236    0.0000 </r>
       <r>   49.3238    0.0000 </r>
       <r>   51.3969    0.0000 </r>
       <r>   52.6310    0.0000 </r>
       <r>   55.0037    0.0000 </r>
       <r>   56.1499    0.0000 </r>
       <r>   57.9633    0.0000 </r>
       <r>   59.0601    0.0000 </r>
       <r>   60.7677    0.0000 </r>
       <r>   61.2191    0.0000 </r>
       <r>   62.1745    0.0000 </r>
       <r>   62.7896    0.0000 </r>
       <r>   63.7293    0.0000 </r>
       <r>   64.7519    0.0000 </r>
       <r>   65.4056    0.0000 </r>
      </set>
      <set comment="kpoint 11">
       <r>    2.3039    1.0000 </r>
       <r>    2.3947    1.0000 </r>
       <r>    2.5126    1.0000 </r>
       <r>    4.5856    1.0000 </r>
       <r>    4.7433    1.0000 </r>
       <r>    5.0389    1.0000 </r>
       <r>    5.1267    1.0000 </r>
       <r>    7.0983   -0.0000 </r>
       <r>    7.4210   -0.0000 </r>
       <r>    7.4449   -0.0000 </r>
       <r>    9.6217   -0.0000 </r>
       <r>   11.6526   -0.0000 </r>
       <r>   16.8594    0.0000 </r>
       <r>   17.7622    0.0000 </r>
       <r>   19.8237    0.0000 </r>
       <r>   21.0125    0.0000 </r>
       <r>   22.4285    0.0000 </r>
       <r>   27.8304    0.0000 </r>
       <r>   31.1285    0.0000 </r>
       <r>   33.0563    0.0000 </r>
       <r>   36.5022    0.0000 </r>
       <r>   39.4393    0.0000 </r>
       <r>   39.8090    0.0000 </r>
       <r>   40.9891    0.0000 </r>
       <r>   43.3460    0.0000 </r>
       <r>   49.0342    0.0000 </r>
       <r>   49.3276    0.0000 </r>
       <r>   52.0186    0.0000 </r>
       <r>   54.9394    0.0000 </r>
       <r>   55.3462    0.0000 </r>
       <r>   58.5248    0.0000 </r>
       <r>   58.6245    0.0000 </r>
       <r>   59.4415    0.0000 </r>
       <r>   59.5647    0.0000 </r>
       <r>   60.1298    0.0000 </r>
       <r>   62.4602    0.0000 </r>
       <r>   64.6882    0.0000 </r>
       <r>   64.7121    0.0000 </r>
       <r>   65.1086    0.0000 </r>
       <r>   66.3056    0.0000 </r>
      </set>
      <set comment="kpoint 12">
       <r>    1.0816    1.0000 </r>
       <r>    3.0544    1.0000 </r>
       <r>    3.2964    1.0000 </r>
       <r>    3.5293    1.0000 </r>
       <r>    4.6596    1.0000 </r>
       <r>    4.8262    1.0000 </r>
       <r>    5.5465    1.0000 </r>
       <r>    5.5585    1.0000 </r>
       <r>    6.8594   -0.0040 </r>
       <r>    7.0309   -0.0001 </r>
       <r>    7.3723   -0.0000 </r>
       <r>   12.9369    0.0000 </r>
       <r>   14.0178    0.0000 </r>
       <r>   20.4742    0.0000 </r>
       <r>   21.1391    0.0000 </r>
       <r>   26.1936    0.0000 </r>
       <r>   27.3355    0.0000 </r>
       <r>   29.2270    0.0000 </r>
       <r>   29.8318    0.0000 </r>
       <r>   34.3553    0.0000 </r>
       <r>   36.2130    0.0000 </r>
       <r>   39.6574    0.0000 </r>
       <r>   40.0791    0.0000 </r>
       <r>   42.5716    0.0000 </r>
       <r>   43.3694    0.0000 </r>
       <r>   45.2365    0.0000 </r>
       <r>   46.2844    0.0000 </r>
       <r>   50.6190    0.0000 </r>
       <r>   51.9425    0.0000 </r>
       <r>   52.9248    0.0000 </r>
       <r>   53.0451    0.0000 </r>
       <r>   56.6880    0.0000 </r>
       <r>   57.1032    0.0000 </r>
       <r>   59.6267    0.0000 </r>
       <r>   59.9482    0.0000 </r>
       <r>   60.4630    0.0000 </r>
       <r>   60.6519    0.0000 </r>
       <r>   63.8917    0.0000 </r>
       <r>   64.1098    0.0000 </r>
       <r>   65.7141    0.0000 </r>
      </set>
      <set comment="kpoint 13">
       <r>    2.2910    1.0000 </r>
       <r>    2.8070    1.0000 </r>
       <r>    3.0452    1.0000 </r>
       <r>    3.7088    1.0000 </r>
       <r>    4.5793    1.0000 </r>
       <r>    4.9238    1.0000 </r>
       <r>    5.1844    1.0000 </r>
       <r>    6.0845    1.0197 </r>
       <r>    6.9387   -0.0007 </r>
       <r>    7.3129   -0.0000 </r>
       <r>    8.5794   -0.0000 </r>
       <r>   14.6603    0.0000 </r>
       <r>   15.0314    0.0000 </r>
       <r>   17.5461    0.0000 </r>
       <r>   19.5878    0.0000 </r>
       <r>   23.4787    0.0000 </r>
       <r>   25.7520    0.0000 </r>
       <r>   25.8467    0.0000 </r>
       <r>   28.5337    0.0000 </r>
       <r>   36.5065    0.0000 </r>
       <r>   36.6991    0.0000 </r>
       <r>   39.6559    0.0000 </r>
       <r>   42.0660    0.0000 </r>
       <r>   43.2731    0.0000 </r>
       <r>   44.2063    0.0000 </r>
       <r>   46.3323    0.0000 </r>
       <r>   47.4330    0.0000 </r>
       <r>   48.4873    0.0000 </r>
       <r>   51.7688    0.0000 </r>
       <r>   52.4732    0.0000 </r>
       <r>   55.0676    0.0000 </r>
       <r>   58.1827    0.0000 </r>
       <r>   59.4022    0.0000 </r>
       <r>   60.5270    0.0000 </r>
       <r>   62.7120    0.0000 </r>
       <r>   62.7554    0.0000 </r>
       <r>   63.4787    0.0000 </r>
       <r>   64.1508    0.0000 </r>
       <r>   65.1692    0.0000 </r>
       <r>   66.5473    0.0000 </r>
      </set>
      <set comment="kpoint 14">
       <r>    2.7027    1.0000 </r>
       <r>    2.7475    1.0000 </r>
       <r>    2.8361    1.0000 </r>
       <r>    4.1637    1.0000 </r>
       <r>    4.5471    1.0000 </r>
       <r>    4.8324    1.0000 </r>
       <r>    5.1823    1.0000 </r>
       <r>    6.7526   -0.0200 </r>
       <r>    6.8859   -0.0024 </r>
       <r>    7.3084   -0.0000 </r>
       <r>   10.1261   -0.0000 </r>
       <r>   13.0459    0.0000 </r>
       <r>   17.2000    0.0000 </r>
       <r>   17.7892    0.0000 </r>
       <r>   18.7522    0.0000 </r>
       <r>   20.8204    0.0000 </r>
       <r>   22.8308    0.0000 </r>
       <r>   25.2899    0.0000 </r>
       <r>   27.8987    0.0000 </r>
       <r>   36.6743    0.0000 </r>
       <r>   38.5864    0.0000 </r>
       <r>   40.0401    0.0000 </r>
       <r>   41.5493    0.0000 </r>
       <r>   42.4704    0.0000 </r>
       <r>   45.8197    0.0000 </r>
       <r>   46.6717    0.0000 </r>
       <r>   48.3564    0.0000 </r>
       <r>   48.9704    0.0000 </r>
       <r>   52.3514    0.0000 </r>
       <r>   53.9094    0.0000 </r>
       <r>   54.6223    0.0000 </r>
       <r>   58.1188    0.0000 </r>
       <r>   58.5701    0.0000 </r>
       <r>   59.8770    0.0000 </r>
       <r>   63.4213    0.0000 </r>
       <r>   64.2723    0.0000 </r>
       <r>   65.0490    0.0000 </r>
       <r>   65.3804    0.0000 </r>
       <r>   65.5135    0.0000 </r>
       <r>   65.9770    0.0000 </r>
      </set>
      <set comment="kpoint 15">
       <r>    2.8335    1.0000 </r>
       <r>    3.0955    1.0000 </r>
       <r>    3.3940    1.0000 </r>
       <r>    3.4517    1.0000 </r>
       <r>    4.4305    1.0000 </r>
       <r>    4.8073    1.0000 </r>
       <r>    5.2137    1.0000 </r>
       <r>    6.3333    0.8293 </r>
       <r>    6.7733   -0.0156 </r>
       <r>    7.2731   -0.0000 </r>
       <r>   10.2468   -0.0000 </r>
       <r>   15.0996    0.0000 </r>
       <r>   15.7091    0.0000 </r>
       <r>   17.2223    0.0000 </r>
       <r>   18.3931    0.0000 </r>
       <r>   22.7598    0.0000 </r>
       <r>   22.8805    0.0000 </r>
       <r>   24.5424    0.0000 </r>
       <r>   25.3769    0.0000 </r>
       <r>   38.2320    0.0000 </r>
       <r>   38.9863    0.0000 </r>
       <r>   42.5042    0.0000 </r>
       <r>   43.4210    0.0000 </r>
       <r>   43.9992    0.0000 </r>
       <r>   44.0773    0.0000 </r>
       <r>   44.8632    0.0000 </r>
       <r>   47.0247    0.0000 </r>
       <r>   49.4331    0.0000 </r>
       <r>   49.6903    0.0000 </r>
       <r>   53.8819    0.0000 </r>
       <r>   53.9599    0.0000 </r>
       <r>   56.3011    0.0000 </r>
       <r>   58.3996    0.0000 </r>
       <r>   60.0759    0.0000 </r>
       <r>   63.7863    0.0000 </r>
       <r>   64.7199    0.0000 </r>
       <r>   64.7774    0.0000 </r>
       <r>   65.9738    0.0000 </r>
       <r>   66.0691    0.0000 </r>
       <r>   66.5443    0.0000 </r>
      </set>
      <set comment="kpoint 16">
       <r>    2.8774    1.0000 </r>
       <r>    3.2539    1.0000 </r>
       <r>    3.2840    1.0000 </r>
       <r>    3.7585    1.0000 </r>
       <r>    4.4957    1.0000 </r>
       <r>    4.5176    1.0000 </r>
       <r>    5.3504    1.0000 </r>
       <r>    6.6859   -0.0339 </r>
       <r>    6.7128   -0.0291 </r>
       <r>    6.9732   -0.0003 </r>
       <r>   11.9947    0.0000 </r>
       <r>   13.1758    0.0000 </r>
       <r>   15.3259    0.0000 </r>
       <r>   19.1401    0.0000 </r>
       <r>   19.3743    0.0000 </r>
       <r>   20.6178    0.0000 </r>
       <r>   22.6427    0.0000 </r>
       <r>   22.8588    0.0000 </r>
       <r>   24.7873    0.0000 </r>
       <r>   38.6469    0.0000 </r>
       <r>   41.3875    0.0000 </r>
       <r>   42.2179    0.0000 </r>
       <r>   42.6730    0.0000 </r>
       <r>   43.3682    0.0000 </r>
       <r>   44.9987    0.0000 </r>
       <r>   45.6805    0.0000 </r>
       <r>   48.7333    0.0000 </r>
       <r>   49.0700    0.0000 </r>
       <r>   49.3688    0.0000 </r>
       <r>   52.8456    0.0000 </r>
       <r>   54.1913    0.0000 </r>
       <r>   54.6307    0.0000 </r>
       <r>   58.0204    0.0000 </r>
       <r>   58.6631    0.0000 </r>
       <r>   64.4866    0.0000 </r>
       <r>   65.1440    0.0000 </r>
       <r>   66.2330    0.0000 </r>
       <r>   66.3079    0.0000 </r>
       <r>   66.3947    0.0000 </r>
       <r>   66.4760    0.0000 </r>
      </set>
      <set comment="kpoint 17">
       <r>   -2.1533    1.0000 </r>
       <r>    1.5858    1.0000 </r>
       <r>    4.2819    1.0000 </r>
       <r>    4.9400    1.0000 </r>
       <r>    4.9402    1.0000 </r>
       <r>    5.2075    1.0000 </r>
       <r>    5.2077    1.0000 </r>
       <r>    5.4634    1.0000 </r>
       <r>    6.1898    1.0344 </r>
       <r>    6.1898    1.0344 </r>
       <r>    7.1037   -0.0000 </r>
       <r>    7.1037   -0.0000 </r>
       <r>   13.5432    0.0000 </r>
       <r>   28.3753    0.0000 </r>
       <r>   29.7216    0.0000 </r>
       <r>   32.2409    0.0000 </r>
       <r>   34.4095    0.0000 </r>
       <r>   34.4095    0.0000 </r>
       <r>   35.1863    0.0000 </r>
       <r>   35.1866    0.0000 </r>
       <r>   35.9788    0.0000 </r>
       <r>   38.0353    0.0000 </r>
       <r>   38.0354    0.0000 </r>
       <r>   39.3565    0.0000 </r>
       <r>   41.0722    0.0000 </r>
       <r>   41.0722    0.0000 </r>
       <r>   41.9795    0.0000 </r>
       <r>   45.1177    0.0000 </r>
       <r>   45.1181    0.0000 </r>
       <r>   47.0201    0.0000 </r>
       <r>   47.0203    0.0000 </r>
       <r>   48.7676    0.0000 </r>
       <r>   56.0083    0.0000 </r>
       <r>   59.9451    0.0000 </r>
       <r>   59.9462    0.0000 </r>
       <r>   59.9905    0.0000 </r>
       <r>   59.9908    0.0000 </r>
       <r>   60.7191    0.0000 </r>
       <r>   61.9453    0.0000 </r>
       <r>   61.9851    0.0000 </r>
      </set>
      <set comment="kpoint 18">
       <r>   -1.8337    1.0000 </r>
       <r>    1.8312    1.0000 </r>
       <r>    4.3169    1.0000 </r>
       <r>    4.7595    1.0000 </r>
       <r>    4.8530    1.0000 </r>
       <r>    5.1198    1.0000 </r>
       <r>    5.1422    1.0000 </r>
       <r>    5.3760    1.0000 </r>
       <r>    6.0531    1.0133 </r>
       <r>    6.0938    1.0218 </r>
       <r>    7.1309   -0.0000 </r>
       <r>    7.9984   -0.0000 </r>
       <r>   13.6083    0.0000 </r>
       <r>   28.1310    0.0000 </r>
       <r>   28.8709    0.0000 </r>
       <r>   30.6499    0.0000 </r>
       <r>   31.7262    0.0000 </r>
       <r>   33.4314    0.0000 </r>
       <r>   34.7102    0.0000 </r>
       <r>   35.7556    0.0000 </r>
       <r>   37.1505    0.0000 </r>
       <r>   38.0579    0.0000 </r>
       <r>   38.1725    0.0000 </r>
       <r>   38.9567    0.0000 </r>
       <r>   42.1965    0.0000 </r>
       <r>   42.2495    0.0000 </r>
       <r>   43.1234    0.0000 </r>
       <r>   43.4938    0.0000 </r>
       <r>   46.1346    0.0000 </r>
       <r>   48.1953    0.0000 </r>
       <r>   49.4025    0.0000 </r>
       <r>   50.9511    0.0000 </r>
       <r>   54.9959    0.0000 </r>
       <r>   58.0853    0.0000 </r>
       <r>   58.6458    0.0000 </r>
       <r>   59.4045    0.0000 </r>
       <r>   60.4174    0.0000 </r>
       <r>   61.5604    0.0000 </r>
       <r>   62.1408    0.0000 </r>
       <r>   63.2168    0.0000 </r>
      </set>
      <set comment="kpoint 19">
       <r>   -0.9275    1.0000 </r>
       <r>    2.4197    1.0000 </r>
       <r>    3.8633    1.0000 </r>
       <r>    4.2055    1.0000 </r>
       <r>    4.6657    1.0000 </r>
       <r>    5.1466    1.0000 </r>
       <r>    5.5955    1.0000 </r>
       <r>    5.7652    1.0000 </r>
       <r>    5.8097    1.0001 </r>
       <r>    5.9242    1.0013 </r>
       <r>    7.1701   -0.0000 </r>
       <r>    9.5280   -0.0000 </r>
       <r>   13.8527    0.0000 </r>
       <r>   24.3884    0.0000 </r>
       <r>   28.7889    0.0000 </r>
       <r>   28.9983    0.0000 </r>
       <r>   29.9327    0.0000 </r>
       <r>   30.1517    0.0000 </r>
       <r>   33.9540    0.0000 </r>
       <r>   35.5313    0.0000 </r>
       <r>   35.9744    0.0000 </r>
       <r>   36.0950    0.0000 </r>
       <r>   39.3257    0.0000 </r>
       <r>   40.0932    0.0000 </r>
       <r>   42.6570    0.0000 </r>
       <r>   43.7526    0.0000 </r>
       <r>   45.1256    0.0000 </r>
       <r>   47.4452    0.0000 </r>
       <r>   48.6928    0.0000 </r>
       <r>   51.6266    0.0000 </r>
       <r>   52.3030    0.0000 </r>
       <r>   53.2153    0.0000 </r>
       <r>   54.3800    0.0000 </r>
       <r>   56.4028    0.0000 </r>
       <r>   56.7570    0.0000 </r>
       <r>   58.5582    0.0000 </r>
       <r>   60.2322    0.0000 </r>
       <r>   62.1647    0.0000 </r>
       <r>   62.9413    0.0000 </r>
       <r>   64.8275    0.0000 </r>
      </set>
      <set comment="kpoint 20">
       <r>    0.3653    1.0000 </r>
       <r>    2.7366    1.0000 </r>
       <r>    3.1733    1.0000 </r>
       <r>    4.1581    1.0000 </r>
       <r>    4.4757    1.0000 </r>
       <r>    5.2392    1.0000 </r>
       <r>    5.5528    1.0000 </r>
       <r>    5.9434    1.0019 </r>
       <r>    6.3654    0.7190 </r>
       <r>    6.5074    0.1644 </r>
       <r>    7.1892   -0.0000 </r>
       <r>   11.1495   -0.0000 </r>
       <r>   14.4152    0.0000 </r>
       <r>   20.4100    0.0000 </r>
       <r>   25.6586    0.0000 </r>
       <r>   26.6710    0.0000 </r>
       <r>   27.9732    0.0000 </r>
       <r>   30.3992    0.0000 </r>
       <r>   32.2501    0.0000 </r>
       <r>   34.3781    0.0000 </r>
       <r>   34.6935    0.0000 </r>
       <r>   37.0011    0.0000 </r>
       <r>   37.5528    0.0000 </r>
       <r>   40.6194    0.0000 </r>
       <r>   46.1740    0.0000 </r>
       <r>   47.1316    0.0000 </r>
       <r>   48.2479    0.0000 </r>
       <r>   48.4215    0.0000 </r>
       <r>   51.6839    0.0000 </r>
       <r>   52.1054    0.0000 </r>
       <r>   53.5305    0.0000 </r>
       <r>   54.7866    0.0000 </r>
       <r>   55.7573    0.0000 </r>
       <r>   56.6095    0.0000 </r>
       <r>   58.3585    0.0000 </r>
       <r>   59.3802    0.0000 </r>
       <r>   61.8084    0.0000 </r>
       <r>   62.1493    0.0000 </r>
       <r>   63.3677    0.0000 </r>
       <r>   65.5925    0.0000 </r>
      </set>
      <set comment="kpoint 21">
       <r>    1.5332    1.0000 </r>
       <r>    2.4776    1.0000 </r>
       <r>    2.7829    1.0000 </r>
       <r>    4.0983    1.0000 </r>
       <r>    4.9044    1.0000 </r>
       <r>    5.0880    1.0000 </r>
       <r>    5.3334    1.0000 </r>
       <r>    7.0213   -0.0001 </r>
       <r>    7.0725   -0.0000 </r>
       <r>    7.1007   -0.0000 </r>
       <r>    7.2521   -0.0000 </r>
       <r>   12.4767    0.0000 </r>
       <r>   15.1634    0.0000 </r>
       <r>   17.5047    0.0000 </r>
       <r>   22.4158    0.0000 </r>
       <r>   24.9014    0.0000 </r>
       <r>   25.1481    0.0000 </r>
       <r>   29.8803    0.0000 </r>
       <r>   31.3130    0.0000 </r>
       <r>   33.3991    0.0000 </r>
       <r>   35.2444    0.0000 </r>
       <r>   36.4216    0.0000 </r>
       <r>   38.1857    0.0000 </r>
       <r>   40.8951    0.0000 </r>
       <r>   45.7197    0.0000 </r>
       <r>   49.3709    0.0000 </r>
       <r>   49.8484    0.0000 </r>
       <r>   51.7680    0.0000 </r>
       <r>   52.2699    0.0000 </r>
       <r>   54.2682    0.0000 </r>
       <r>   54.8655    0.0000 </r>
       <r>   56.3525    0.0000 </r>
       <r>   57.2046    0.0000 </r>
       <r>   58.4025    0.0000 </r>
       <r>   60.7257    0.0000 </r>
       <r>   61.9428    0.0000 </r>
       <r>   62.1804    0.0000 </r>
       <r>   62.7166    0.0000 </r>
       <r>   65.4142    0.0000 </r>
       <r>   65.4678    0.0000 </r>
      </set>
      <set comment="kpoint 22">
       <r>    1.9944    1.0000 </r>
       <r>    2.2047    1.0000 </r>
       <r>    2.6616    1.0000 </r>
       <r>    4.1600    1.0000 </r>
       <r>    5.0728    1.0000 </r>
       <r>    5.2076    1.0000 </r>
       <r>    5.3922    1.0000 </r>
       <r>    7.1489   -0.0000 </r>
       <r>    7.5273   -0.0000 </r>
       <r>    7.6224   -0.0000 </r>
       <r>    8.5707   -0.0000 </r>
       <r>   11.7602   -0.0000 </r>
       <r>   15.8851    0.0000 </r>
       <r>   17.4000    0.0000 </r>
       <r>   20.2864    0.0000 </r>
       <r>   22.3779    0.0000 </r>
       <r>   23.9187    0.0000 </r>
       <r>   29.3419    0.0000 </r>
       <r>   31.0097    0.0000 </r>
       <r>   32.5470    0.0000 </r>
       <r>   35.9721    0.0000 </r>
       <r>   36.8641    0.0000 </r>
       <r>   38.3363    0.0000 </r>
       <r>   41.4738    0.0000 </r>
       <r>   43.6312    0.0000 </r>
       <r>   49.4641    0.0000 </r>
       <r>   50.1675    0.0000 </r>
       <r>   53.4847    0.0000 </r>
       <r>   55.0898    0.0000 </r>
       <r>   56.2876    0.0000 </r>
       <r>   57.4363    0.0000 </r>
       <r>   58.7519    0.0000 </r>
       <r>   58.8172    0.0000 </r>
       <r>   60.2121    0.0000 </r>
       <r>   61.1379    0.0000 </r>
       <r>   61.3669    0.0000 </r>
       <r>   63.7272    0.0000 </r>
       <r>   64.3363    0.0000 </r>
       <r>   64.6367    0.0000 </r>
       <r>   65.0174    0.0000 </r>
      </set>
      <set comment="kpoint 23">
       <r>   -1.2184    1.0000 </r>
       <r>    2.2653    1.0000 </r>
       <r>    4.0983    1.0000 </r>
       <r>    4.2311    1.0000 </r>
       <r>    4.8400    1.0000 </r>
       <r>    4.9270    1.0000 </r>
       <r>    5.4768    1.0000 </r>
       <r>    5.6710    1.0000 </r>
       <r>    5.8071    1.0001 </r>
       <r>    6.0529    1.0132 </r>
       <r>    7.1335   -0.0000 </r>
       <r>    9.1078   -0.0000 </r>
       <r>   13.7654    0.0000 </r>
       <r>   26.1479    0.0000 </r>
       <r>   27.2837    0.0000 </r>
       <r>   29.3383    0.0000 </r>
       <r>   31.0023    0.0000 </r>
       <r>   32.9323    0.0000 </r>
       <r>   33.5067    0.0000 </r>
       <r>   33.5911    0.0000 </r>
       <r>   35.7340    0.0000 </r>
       <r>   39.4582    0.0000 </r>
       <r>   39.9388    0.0000 </r>
       <r>   40.7617    0.0000 </r>
       <r>   40.8362    0.0000 </r>
       <r>   42.1460    0.0000 </r>
       <r>   42.6408    0.0000 </r>
       <r>   47.9029    0.0000 </r>
       <r>   49.2923    0.0000 </r>
       <r>   50.1245    0.0000 </r>
       <r>   50.4264    0.0000 </r>
       <r>   53.6790    0.0000 </r>
       <r>   53.8402    0.0000 </r>
       <r>   56.2629    0.0000 </r>
       <r>   57.7074    0.0000 </r>
       <r>   59.2774    0.0000 </r>
       <r>   59.5059    0.0000 </r>
       <r>   61.7596    0.0000 </r>
       <r>   63.0718    0.0000 </r>
       <r>   64.9373    0.0000 </r>
      </set>
      <set comment="kpoint 24">
       <r>   -0.0957    1.0000 </r>
       <r>    2.8390    1.0000 </r>
       <r>    3.4105    1.0000 </r>
       <r>    3.9670    1.0000 </r>
       <r>    4.5919    1.0000 </r>
       <r>    5.0772    1.0000 </r>
       <r>    5.5118    1.0000 </r>
       <r>    5.7480    1.0000 </r>
       <r>    6.2107    1.0290 </r>
       <r>    6.4147    0.5196 </r>
       <r>    7.1273   -0.0000 </r>
       <r>   10.6127   -0.0000 </r>
       <r>   14.2025    0.0000 </r>
       <r>   22.4492    0.0000 </r>
       <r>   24.9950    0.0000 </r>
       <r>   27.6053    0.0000 </r>
       <r>   29.5476    0.0000 </r>
       <r>   30.7704    0.0000 </r>
       <r>   32.2496    0.0000 </r>
       <r>   33.8017    0.0000 </r>
       <r>   34.9164    0.0000 </r>
       <r>   38.6488    0.0000 </r>
       <r>   39.2964    0.0000 </r>
       <r>   40.7932    0.0000 </r>
       <r>   43.2608    0.0000 </r>
       <r>   44.2376    0.0000 </r>
       <r>   46.5005    0.0000 </r>
       <r>   49.1875    0.0000 </r>
       <r>   51.5293    0.0000 </r>
       <r>   52.2909    0.0000 </r>
       <r>   53.3541    0.0000 </r>
       <r>   54.8277    0.0000 </r>
       <r>   55.1075    0.0000 </r>
       <r>   56.5474    0.0000 </r>
       <r>   56.9713    0.0000 </r>
       <r>   58.3961    0.0000 </r>
       <r>   60.7105    0.0000 </r>
       <r>   62.5014    0.0000 </r>
       <r>   63.6303    0.0000 </r>
       <r>   64.7888    0.0000 </r>
      </set>
      <set comment="kpoint 25">
       <r>    1.2204    1.0000 </r>
       <r>    2.7954    1.0000 </r>
       <r>    2.9523    1.0000 </r>
       <r>    3.9937    1.0000 </r>
       <r>    4.6145    1.0000 </r>
       <r>    4.9868    1.0000 </r>
       <r>    5.4434    1.0000 </r>
       <r>    6.0600    1.0146 </r>
       <r>    6.9018   -0.0017 </r>
       <r>    7.0437   -0.0000 </r>
       <r>    7.3481   -0.0000 </r>
       <r>   12.1580    0.0000 </r>
       <r>   15.0482    0.0000 </r>
       <r>   18.7737    0.0000 </r>
       <r>   23.3126    0.0000 </r>
       <r>   24.2277    0.0000 </r>
       <r>   27.3401    0.0000 </r>
       <r>   28.7192    0.0000 </r>
       <r>   32.6474    0.0000 </r>
       <r>   33.2546    0.0000 </r>
       <r>   34.4114    0.0000 </r>
       <r>   38.1328    0.0000 </r>
       <r>   39.3528    0.0000 </r>
       <r>   41.9554    0.0000 </r>
       <r>   44.8819    0.0000 </r>
       <r>   46.7530    0.0000 </r>
       <r>   48.5607    0.0000 </r>
       <r>   50.4873    0.0000 </r>
       <r>   51.5573    0.0000 </r>
       <r>   52.8059    0.0000 </r>
       <r>   54.9352    0.0000 </r>
       <r>   56.1887    0.0000 </r>
       <r>   56.9929    0.0000 </r>
       <r>   58.2384    0.0000 </r>
       <r>   59.9320    0.0000 </r>
       <r>   61.3820    0.0000 </r>
       <r>   62.2477    0.0000 </r>
       <r>   63.0732    0.0000 </r>
       <r>   63.7049    0.0000 </r>
       <r>   65.0200    0.0000 </r>
      </set>
      <set comment="kpoint 26">
       <r>    2.0409    1.0000 </r>
       <r>    2.4739    1.0000 </r>
       <r>    2.7672    1.0000 </r>
       <r>    4.0752    1.0000 </r>
       <r>    4.9645    1.0000 </r>
       <r>    5.0007    1.0000 </r>
       <r>    5.2499    1.0000 </r>
       <r>    6.9057   -0.0016 </r>
       <r>    7.0510   -0.0000 </r>
       <r>    7.3913   -0.0000 </r>
       <r>    8.4223   -0.0000 </r>
       <r>   12.8260    0.0000 </r>
       <r>   15.5677    0.0000 </r>
       <r>   17.4228    0.0000 </r>
       <r>   21.1671    0.0000 </r>
       <r>   22.2263    0.0000 </r>
       <r>   24.1708    0.0000 </r>
       <r>   27.8713    0.0000 </r>
       <r>   31.7661    0.0000 </r>
       <r>   33.1483    0.0000 </r>
       <r>   35.4163    0.0000 </r>
       <r>   37.7958    0.0000 </r>
       <r>   40.2807    0.0000 </r>
       <r>   41.4802    0.0000 </r>
       <r>   45.0713    0.0000 </r>
       <r>   47.8087    0.0000 </r>
       <r>   49.4563    0.0000 </r>
       <r>   51.5073    0.0000 </r>
       <r>   53.3419    0.0000 </r>
       <r>   54.7054    0.0000 </r>
       <r>   56.0455    0.0000 </r>
       <r>   57.7698    0.0000 </r>
       <r>   59.0768    0.0000 </r>
       <r>   60.6614    0.0000 </r>
       <r>   61.6562    0.0000 </r>
       <r>   62.0840    0.0000 </r>
       <r>   62.9182    0.0000 </r>
       <r>   63.5414    0.0000 </r>
       <r>   64.8787    0.0000 </r>
       <r>   65.5514    0.0000 </r>
      </set>
      <set comment="kpoint 27">
       <r>    2.1983    1.0000 </r>
       <r>    2.3155    1.0000 </r>
       <r>    2.7575    1.0000 </r>
       <r>    4.1418    1.0000 </r>
       <r>    4.9531    1.0000 </r>
       <r>    5.2232    1.0000 </r>
       <r>    5.2564    1.0000 </r>
       <r>    7.0420   -0.0000 </r>
       <r>    7.4169   -0.0000 </r>
       <r>    7.4464   -0.0000 </r>
       <r>    9.5665   -0.0000 </r>
       <r>   11.5798   -0.0000 </r>
       <r>   16.6910    0.0000 </r>
       <r>   17.3796    0.0000 </r>
       <r>   20.3574    0.0000 </r>
       <r>   21.2519    0.0000 </r>
       <r>   22.6254    0.0000 </r>
       <r>   27.5744    0.0000 </r>
       <r>   31.3784    0.0000 </r>
       <r>   33.0330    0.0000 </r>
       <r>   36.1205    0.0000 </r>
       <r>   37.7908    0.0000 </r>
       <r>   40.0324    0.0000 </r>
       <r>   42.7946    0.0000 </r>
       <r>   43.0687    0.0000 </r>
       <r>   48.3645    0.0000 </r>
       <r>   49.6998    0.0000 </r>
       <r>   52.6545    0.0000 </r>
       <r>   55.0017    0.0000 </r>
       <r>   55.3911    0.0000 </r>
       <r>   58.0839    0.0000 </r>
       <r>   58.0975    0.0000 </r>
       <r>   59.2579    0.0000 </r>
       <r>   59.8835    0.0000 </r>
       <r>   60.3516    0.0000 </r>
       <r>   63.1994    0.0000 </r>
       <r>   64.5494    0.0000 </r>
       <r>   64.7488    0.0000 </r>
       <r>   65.2580    0.0000 </r>
       <r>   65.8862    0.0000 </r>
      </set>
      <set comment="kpoint 28">
       <r>    1.1205    1.0000 </r>
       <r>    3.0109    1.0000 </r>
       <r>    3.3245    1.0000 </r>
       <r>    3.5468    1.0000 </r>
       <r>    4.6572    1.0000 </r>
       <r>    4.7795    1.0000 </r>
       <r>    5.5360    1.0000 </r>
       <r>    5.6265    1.0000 </r>
       <r>    6.8928   -0.0021 </r>
       <r>    6.9540   -0.0005 </r>
       <r>    7.4101   -0.0000 </r>
       <r>   12.0402    0.0000 </r>
       <r>   15.0358    0.0000 </r>
       <r>   20.5390    0.0000 </r>
       <r>   21.2134    0.0000 </r>
       <r>   25.8400    0.0000 </r>
       <r>   26.9136    0.0000 </r>
       <r>   29.6934    0.0000 </r>
       <r>   30.1337    0.0000 </r>
       <r>   33.3830    0.0000 </r>
       <r>   36.7624    0.0000 </r>
       <r>   40.0428    0.0000 </r>
       <r>   40.3515    0.0000 </r>
       <r>   42.3580    0.0000 </r>
       <r>   42.7222    0.0000 </r>
       <r>   45.8993    0.0000 </r>
       <r>   46.1555    0.0000 </r>
       <r>   50.3258    0.0000 </r>
       <r>   51.0512    0.0000 </r>
       <r>   52.5932    0.0000 </r>
       <r>   54.9316    0.0000 </r>
       <r>   56.8365    0.0000 </r>
       <r>   57.0857    0.0000 </r>
       <r>   58.9458    0.0000 </r>
       <r>   59.4875    0.0000 </r>
       <r>   61.0990    0.0000 </r>
       <r>   61.1507    0.0000 </r>
       <r>   63.3199    0.0000 </r>
       <r>   63.9192    0.0000 </r>
       <r>   64.2447    0.0000 </r>
      </set>
      <set comment="kpoint 29">
       <r>    2.2773    1.0000 </r>
       <r>    2.8097    1.0000 </r>
       <r>    3.0693    1.0000 </r>
       <r>    3.7140    1.0000 </r>
       <r>    4.5936    1.0000 </r>
       <r>    4.9130    1.0000 </r>
       <r>    5.2039    1.0000 </r>
       <r>    6.1114    1.0258 </r>
       <r>    6.8767   -0.0028 </r>
       <r>    7.3386   -0.0000 </r>
       <r>    8.5949   -0.0000 </r>
       <r>   13.5436    0.0000 </r>
       <r>   16.1483    0.0000 </r>
       <r>   17.6908    0.0000 </r>
       <r>   19.6573    0.0000 </r>
       <r>   23.0627    0.0000 </r>
       <r>   25.4299    0.0000 </r>
       <r>   26.2725    0.0000 </r>
       <r>   29.0130    0.0000 </r>
       <r>   34.9587    0.0000 </r>
       <r>   37.4180    0.0000 </r>
       <r>   40.1367    0.0000 </r>
       <r>   41.7169    0.0000 </r>
       <r>   43.3860    0.0000 </r>
       <r>   44.2336    0.0000 </r>
       <r>   45.4067    0.0000 </r>
       <r>   48.3665    0.0000 </r>
       <r>   48.6153    0.0000 </r>
       <r>   51.2747    0.0000 </r>
       <r>   53.4185    0.0000 </r>
       <r>   55.3149    0.0000 </r>
       <r>   58.2144    0.0000 </r>
       <r>   59.3312    0.0000 </r>
       <r>   60.4646    0.0000 </r>
       <r>   62.3956    0.0000 </r>
       <r>   62.8999    0.0000 </r>
       <r>   63.0362    0.0000 </r>
       <r>   64.1543    0.0000 </r>
       <r>   64.8481    0.0000 </r>
       <r>   65.5206    0.0000 </r>
      </set>
      <set comment="kpoint 30">
       <r>    2.5461    1.0000 </r>
       <r>    2.7899    1.0000 </r>
       <r>    3.0141    1.0000 </r>
       <r>    3.9675    1.0000 </r>
       <r>    4.6719    1.0000 </r>
       <r>    4.8105    1.0000 </r>
       <r>    5.2783    1.0000 </r>
       <r>    6.7582   -0.0188 </r>
       <r>    6.8224   -0.0076 </r>
       <r>    7.3241   -0.0000 </r>
       <r>   10.1414   -0.0000 </r>
       <r>   12.9556    0.0000 </r>
       <r>   16.6608    0.0000 </r>
       <r>   18.2653    0.0000 </r>
       <r>   18.6987    0.0000 </r>
       <r>   20.8940    0.0000 </r>
       <r>   23.2902    0.0000 </r>
       <r>   24.8590    0.0000 </r>
       <r>   28.4299    0.0000 </r>
       <r>   36.1964    0.0000 </r>
       <r>   37.8137    0.0000 </r>
       <r>   39.3043    0.0000 </r>
       <r>   42.3831    0.0000 </r>
       <r>   43.1908    0.0000 </r>
       <r>   45.5633    0.0000 </r>
       <r>   45.8308    0.0000 </r>
       <r>   48.6172    0.0000 </r>
       <r>   50.1201    0.0000 </r>
       <r>   52.7284    0.0000 </r>
       <r>   53.7025    0.0000 </r>
       <r>   54.7312    0.0000 </r>
       <r>   58.1230    0.0000 </r>
       <r>   58.3322    0.0000 </r>
       <r>   60.1867    0.0000 </r>
       <r>   62.5504    0.0000 </r>
       <r>   64.1519    0.0000 </r>
       <r>   64.8176    0.0000 </r>
       <r>   65.3525    0.0000 </r>
       <r>   65.7492    0.0000 </r>
       <r>   66.0736    0.0000 </r>
      </set>
      <set comment="kpoint 31">
       <r>    2.8237    1.0000 </r>
       <r>    3.0997    1.0000 </r>
       <r>    3.3652    1.0000 </r>
       <r>    3.5012    1.0000 </r>
       <r>    4.4752    1.0000 </r>
       <r>    4.7391    1.0000 </r>
       <r>    5.2404    1.0000 </r>
       <r>    6.3685    0.7077 </r>
       <r>    6.7098   -0.0297 </r>
       <r>    7.2969   -0.0000 </r>
       <r>   10.2830   -0.0000 </r>
       <r>   14.7480    0.0000 </r>
       <r>   15.7799    0.0000 </r>
       <r>   17.1605    0.0000 </r>
       <r>   18.8481    0.0000 </r>
       <r>   22.3277    0.0000 </r>
       <r>   22.4783    0.0000 </r>
       <r>   25.1885    0.0000 </r>
       <r>   25.9049    0.0000 </r>
       <r>   36.6853    0.0000 </r>
       <r>   39.7775    0.0000 </r>
       <r>   41.9604    0.0000 </r>
       <r>   42.2853    0.0000 </r>
       <r>   44.1872    0.0000 </r>
       <r>   44.3704    0.0000 </r>
       <r>   45.9011    0.0000 </r>
       <r>   47.8551    0.0000 </r>
       <r>   49.3583    0.0000 </r>
       <r>   49.6413    0.0000 </r>
       <r>   54.0031    0.0000 </r>
       <r>   54.3846    0.0000 </r>
       <r>   56.5122    0.0000 </r>
       <r>   58.0766    0.0000 </r>
       <r>   60.3810    0.0000 </r>
       <r>   63.7914    0.0000 </r>
       <r>   64.5228    0.0000 </r>
       <r>   64.6878    0.0000 </r>
       <r>   65.9905    0.0000 </r>
       <r>   66.2001    0.0000 </r>
       <r>   66.3940    0.0000 </r>
      </set>
      <set comment="kpoint 32">
       <r>    2.8713    1.0000 </r>
       <r>    3.2731    1.0000 </r>
       <r>    3.3275    1.0000 </r>
       <r>    3.7128    1.0000 </r>
       <r>    4.4678    1.0000 </r>
       <r>    4.5266    1.0000 </r>
       <r>    5.3674    1.0000 </r>
       <r>    6.6448   -0.0338 </r>
       <r>    6.7110   -0.0295 </r>
       <r>    6.9992   -0.0002 </r>
       <r>   12.0609    0.0000 </r>
       <r>   13.1738    0.0000 </r>
       <r>   15.3375    0.0000 </r>
       <r>   18.7736    0.0000 </r>
       <r>   18.8919    0.0000 </r>
       <r>   21.0205    0.0000 </r>
       <r>   22.4928    0.0000 </r>
       <r>   23.2917    0.0000 </r>
       <r>   25.3676    0.0000 </r>
       <r>   37.6688    0.0000 </r>
       <r>   40.0716    0.0000 </r>
       <r>   41.8319    0.0000 </r>
       <r>   42.5463    0.0000 </r>
       <r>   44.5727    0.0000 </r>
       <r>   45.1397    0.0000 </r>
       <r>   46.9028    0.0000 </r>
       <r>   48.4292    0.0000 </r>
       <r>   49.3289    0.0000 </r>
       <r>   49.7662    0.0000 </r>
       <r>   52.6238    0.0000 </r>
       <r>   53.9416    0.0000 </r>
       <r>   54.9411    0.0000 </r>
       <r>   58.2348    0.0000 </r>
       <r>   58.8384    0.0000 </r>
       <r>   64.3558    0.0000 </r>
       <r>   65.1036    0.0000 </r>
       <r>   65.8413    0.0000 </r>
       <r>   66.2869    0.0000 </r>
       <r>   66.3324    0.0000 </r>
       <r>   66.6176    0.0000 </r>
      </set>
      <set comment="kpoint 33">
       <r>   -1.9288    1.0000 </r>
       <r>    1.4501    1.0000 </r>
       <r>    4.2280    1.0000 </r>
       <r>    4.9273    1.0000 </r>
       <r>    4.9274    1.0000 </r>
       <r>    4.9856    1.0000 </r>
       <r>    5.1678    1.0000 </r>
       <r>    5.1679    1.0000 </r>
       <r>    6.2808    0.9572 </r>
       <r>    6.2809    0.9571 </r>
       <r>    7.0791   -0.0000 </r>
       <r>    7.0791   -0.0000 </r>
       <r>   14.5330    0.0000 </r>
       <r>   26.8601    0.0000 </r>
       <r>   29.7789    0.0000 </r>
       <r>   31.8495    0.0000 </r>
       <r>   34.5678    0.0000 </r>
       <r>   34.5678    0.0000 </r>
       <r>   35.2591    0.0000 </r>
       <r>   35.2593    0.0000 </r>
       <r>   37.2691    0.0000 </r>
[...]
       <r>   20.7434    0.0000 </r>
       <r>   21.4531    0.0000 </r>
       <r>   25.5385    0.0000 </r>
       <r>   26.5973    0.0000 </r>
       <r>   30.9619    0.0000 </r>
       <r>   31.9973    0.0000 </r>
       <r>   34.3621    0.0000 </r>
       <r>   35.8321    0.0000 </r>
       <r>   40.5679    0.0000 </r>
       <r>   40.9209    0.0000 </r>
       <r>   49.9733    0.0000 </r>
       <r>   50.7110    0.0000 </r>
       <r>   50.8846    0.0000 </r>
       <r>   52.4826    0.0000 </r>
       <r>   54.5542    0.0000 </r>
       <r>   55.2593    0.0000 </r>
       <r>   55.6724    0.0000 </r>
       <r>   56.9334    0.0000 </r>
       <r>   59.1347    0.0000 </r>
       <r>   59.9004    0.0000 </r>
       <r>   61.2129    0.0000 </r>
       <r>   62.2635    0.0000 </r>
       <r>   63.5429    0.0000 </r>
       <r>   63.6635    0.0000 </r>
       <r>   64.4820    0.0000 </r>
       <r>   64.7957    0.0000 </r>
      </set>
      <set comment="kpoint 95">
       <r>    2.8103    1.0000 </r>
       <r>    2.8532    1.0000 </r>
       <r>    3.7119    1.0000 </r>
       <r>    3.9136    1.0000 </r>
       <r>    4.2788    1.0000 </r>
       <r>    4.4645    1.0000 </r>
       <r>    5.5791    1.0000 </r>
       <r>    5.7646    1.0000 </r>
       <r>    7.1467   -0.0000 </r>
       <r>    7.3184   -0.0000 </r>
       <r>   11.1466   -0.0000 </r>
       <r>   11.6472   -0.0000 </r>
       <r>   17.2226    0.0000 </r>
       <r>   17.6171    0.0000 </r>
       <r>   18.8719    0.0000 </r>
       <r>   19.2415    0.0000 </r>
       <r>   25.6748    0.0000 </r>
       <r>   27.2140    0.0000 </r>
       <r>   31.1063    0.0000 </r>
       <r>   32.4115    0.0000 </r>
       <r>   34.0729    0.0000 </r>
       <r>   35.1001    0.0000 </r>
       <r>   42.9986    0.0000 </r>
       <r>   43.3923    0.0000 </r>
       <r>   46.8451    0.0000 </r>
       <r>   46.9605    0.0000 </r>
       <r>   53.0057    0.0000 </r>
       <r>   54.1553    0.0000 </r>
       <r>   54.7485    0.0000 </r>
       <r>   55.2692    0.0000 </r>
       <r>   56.9285    0.0000 </r>
       <r>   57.1129    0.0000 </r>
       <r>   58.2341    0.0000 </r>
       <r>   58.2771    0.0000 </r>
       <r>   59.8704    0.0000 </r>
       <r>   60.7601    0.0000 </r>
       <r>   63.4097    0.0000 </r>
       <r>   63.7177    0.0000 </r>
       <r>   64.6315    0.0000 </r>
       <r>   64.6731    0.0000 </r>
      </set>
      <set comment="kpoint 96">
       <r>    3.0078    1.0000 </r>
       <r>    3.1236    1.0000 </r>
       <r>    3.6641    1.0000 </r>
       <r>    3.7548    1.0000 </r>
       <r>    4.2687    1.0000 </r>
       <r>    4.3900    1.0000 </r>
       <r>    5.6257    1.0000 </r>
       <r>    5.7665    1.0000 </r>
       <r>    7.1276   -0.0000 </r>
       <r>    7.1900   -0.0000 </r>
       <r>   12.9408    0.0000 </r>
       <r>   13.0668    0.0000 </r>
       <r>   15.5539    0.0000 </r>
       <r>   15.8560    0.0000 </r>
       <r>   18.2267    0.0000 </r>
       <r>   18.6678    0.0000 </r>
       <r>   27.3877    0.0000 </r>
       <r>   27.9993    0.0000 </r>
       <r>   30.1284    0.0000 </r>
       <r>   30.5215    0.0000 </r>
       <r>   33.7672    0.0000 </r>
       <r>   34.5652    0.0000 </r>
       <r>   44.0859    0.0000 </r>
       <r>   44.6889    0.0000 </r>
       <r>   48.7510    0.0000 </r>
       <r>   49.1776    0.0000 </r>
       <r>   51.0485    0.0000 </r>
       <r>   51.4427    0.0000 </r>
       <r>   54.5571    0.0000 </r>
       <r>   55.4835    0.0000 </r>
       <r>   56.9920    0.0000 </r>
       <r>   57.8762    0.0000 </r>
       <r>   58.1716    0.0000 </r>
       <r>   58.7385    0.0000 </r>
       <r>   60.1196    0.0000 </r>
       <r>   61.0777    0.0000 </r>
       <r>   62.3965    0.0000 </r>
       <r>   62.5583    0.0000 </r>
       <r>   66.1597    0.0000 </r>
       <r>   66.1776    0.0000 </r>
      </set>
     </set>
    </set>
   </array>
  </eigenvalues>
  <separator name="orbital magnetization" >
   <v name="MAGDIPOLOUT">      0.00000000      0.00000000      0.00000000</v>
  </separator>
  <dos>
   <i name="efermi">      6.41931298 </i>
   <total>
    <array>
     <dimension dim="1">gridpoints</dimension>
     <dimension dim="2">spin</dimension>
     <field>energy</field>
     <field>total</field>
     <field>integrated</field>
     <set>
      <set comment="spin 1">
       <r>    -5.6861     0.0000     0.0000 </r>
       <r>    -5.4326     0.0000     0.0000 </r>
       <r>    -5.1791     0.0000     0.0000 </r>
       <r>    -4.9256     0.0000     0.0000 </r>
       <r>    -4.6721     0.0000     0.0000 </r>
       <r>    -4.4185     0.0000     0.0000 </r>
       <r>    -4.1650     0.0000     0.0000 </r>
       <r>    -3.9115    -0.0000    -0.0000 </r>
       <r>    -3.6580    -0.0000    -0.0000 </r>
       <r>    -3.4045    -0.0000    -0.0000 </r>
       <r>    -3.1509    -0.0000    -0.0000 </r>
       <r>    -2.8974    -0.0000    -0.0000 </r>
       <r>    -2.6439    -0.0001    -0.0000 </r>
       <r>    -2.3904    -0.0004    -0.0001 </r>
       <r>    -2.1369     0.0087     0.0021 </r>
       <r>    -1.8833     0.0581     0.0168 </r>
       <r>    -1.6298     0.1051     0.0434 </r>
       <r>    -1.3763     0.0616     0.0591 </r>
       <r>    -1.1228     0.1597     0.0996 </r>
       <r>    -0.8693     0.1848     0.1464 </r>
       <r>    -0.6157     0.1963     0.1962 </r>
       <r>    -0.3622     0.0847     0.2177 </r>
       <r>    -0.1087     0.2652     0.2849 </r>
       <r>     0.1448     0.2932     0.3592 </r>
       <r>     0.3983     0.3188     0.4400 </r>
       <r>     0.6519     0.2986     0.5157 </r>
       <r>     0.9054     0.2288     0.5737 </r>
       <r>     1.1589     0.4318     0.6832 </r>
       <r>     1.4124     0.6769     0.8548 </r>
       <r>     1.6659     0.8364     1.0669 </r>
       <r>     1.9195     1.3045     1.3976 </r>
       <r>     2.1730     1.9616     1.8949 </r>
       <r>     2.4265     2.7689     2.5969 </r>
       <r>     2.6800     2.2524     3.1679 </r>
       <r>     2.9335     3.0726     3.9469 </r>
       <r>     3.1871     2.3928     4.5535 </r>
       <r>     3.4406     3.3625     5.4059 </r>
       <r>     3.6941     3.3263     6.2492 </r>
       <r>     3.9476     3.3455     7.0974 </r>
       <r>     4.2011     2.5281     7.7383 </r>
       <r>     4.4547     2.7929     8.4464 </r>
       <r>     4.7082     4.4134     9.5652 </r>
       <r>     4.9617     3.9866    10.5759 </r>
       <r>     5.2152     4.1409    11.6257 </r>
       <r>     5.4687     3.6832    12.5595 </r>
       <r>     5.7223     3.9833    13.5693 </r>
       <r>     5.9758     3.4261    14.4379 </r>
       <r>     6.2293     3.6772    15.3702 </r>
       <r>     6.4828     3.2151    16.1852 </r>
       <r>     6.7363     3.2633    17.0126 </r>
       <r>     6.9899     4.9877    18.2770 </r>
       <r>     7.2434     5.2458    19.6069 </r>
       <r>     7.4969     4.6403    20.7833 </r>
       <r>     7.7504     1.8161    21.2438 </r>
       <r>     8.0039     0.1745    21.2880 </r>
       <r>     8.2575     0.6137    21.4436 </r>
       <r>     8.5110     0.8275    21.6534 </r>
       <r>     8.7645     0.8112    21.8590 </r>
       <r>     9.0180     0.6364    22.0204 </r>
       <r>     9.2716     0.4863    22.1436 </r>
       <r>     9.5251     0.3710    22.2377 </r>
       <r>     9.7786     0.4568    22.3535 </r>
       <r>    10.0321     0.4491    22.4674 </r>
       <r>    10.2856     0.7039    22.6458 </r>
       <r>    10.5392     0.5277    22.7796 </r>
       <r>    10.7927     0.4188    22.8858 </r>
       <r>    11.0462     0.4651    23.0037 </r>
       <r>    11.2997     0.5735    23.1491 </r>
       <r>    11.5532     0.2143    23.2034 </r>
       <r>    11.8068     0.3250    23.2858 </r>
       <r>    12.0603     0.3378    23.3714 </r>
       <r>    12.3138     0.4750    23.4919 </r>
       <r>    12.5673     0.2932    23.5662 </r>
       <r>    12.8208     0.2726    23.6353 </r>
       <r>    13.0744     0.4975    23.7614 </r>
       <r>    13.3279     0.5693    23.9057 </r>
       <r>    13.5814     0.2742    23.9752 </r>
       <r>    13.8349     0.2638    24.0421 </r>
       <r>    14.0884     0.2411    24.1032 </r>
       <r>    14.3420     0.1518    24.1417 </r>
       <r>    14.5955     0.1080    24.1691 </r>
       <r>    14.8490     0.1753    24.2135 </r>
       <r>    15.1025     0.3559    24.3038 </r>
       <r>    15.3560     0.3396    24.3899 </r>
       <r>    15.6096     0.6167    24.5462 </r>
       <r>    15.8631     0.9141    24.7780 </r>
       <r>    16.1166     0.9296    25.0136 </r>
       <r>    16.3701     0.6720    25.1840 </r>
       <r>    16.6236     0.7238    25.3675 </r>
       <r>    16.8772     0.5182    25.4989 </r>
       <r>    17.1307     0.5352    25.6346 </r>
       <r>    17.3842     0.8956    25.8616 </r>
       <r>    17.6377     0.8184    26.0691 </r>
       <r>    17.8912     0.6684    26.2386 </r>
       <r>    18.1448     0.7795    26.4362 </r>
       <r>    18.3983     0.8214    26.6444 </r>
       <r>    18.6518     0.3666    26.7374 </r>
       <r>    18.9053     0.8296    26.9477 </r>
       <r>    19.1588     0.6367    27.1091 </r>
       <r>    19.4124     0.7033    27.2874 </r>
       <r>    19.6659     0.6068    27.4412 </r>
       <r>    19.9194     0.5151    27.5718 </r>
       <r>    20.1729     0.6802    27.7442 </r>
       <r>    20.4264     0.4231    27.8515 </r>
       <r>    20.6800     0.5333    27.9867 </r>
       <r>    20.9335     0.8789    28.2095 </r>
       <r>    21.1870     0.5100    28.3388 </r>
       <r>    21.4405     0.7884    28.5387 </r>
       <r>    21.6940     0.6663    28.7076 </r>
       <r>    21.9476     0.5838    28.8557 </r>
       <r>    22.2011     0.6418    29.0184 </r>
       <r>    22.4546     1.2293    29.3300 </r>
       <r>    22.7081     1.1408    29.6193 </r>
       <r>    22.9616     0.5769    29.7655 </r>
       <r>    23.2152     1.0219    30.0246 </r>
       <r>    23.4687     0.9371    30.2622 </r>
       <r>    23.7222     0.4368    30.3729 </r>
       <r>    23.9757     0.9308    30.6089 </r>
       <r>    24.2292     1.1561    30.9020 </r>
       <r>    24.4828     1.0110    31.1583 </r>
       <r>    24.7363     1.0103    31.4144 </r>
       <r>    24.9898     0.7403    31.6021 </r>
       <r>    25.2433     1.0989    31.8807 </r>
       <r>    25.4968     1.0738    32.1529 </r>
       <r>    25.7504     1.1303    32.4394 </r>
       <r>    26.0039     0.8038    32.6432 </r>
       <r>    26.2574     0.7109    32.8235 </r>
       <r>    26.5109     0.9135    33.0550 </r>
       <r>    26.7644     0.7348    33.2413 </r>
       <r>    27.0180     0.9423    33.4802 </r>
       <r>    27.2715     0.8948    33.7071 </r>
       <r>    27.5250     0.8214    33.9153 </r>
       <r>    27.7785     0.8123    34.1213 </r>
       <r>    28.0320     0.7676    34.3159 </r>
       <r>    28.2856     0.6962    34.4924 </r>
       <r>    28.5391     0.7725    34.6882 </r>
       <r>    28.7926     0.4389    34.7995 </r>
       <r>    29.0461     0.5665    34.9431 </r>
       <r>    29.2996     0.6957    35.1195 </r>
       <r>    29.5532     0.9652    35.3642 </r>
       <r>    29.8067     0.7590    35.5566 </r>
       <r>    30.0602     0.8446    35.7707 </r>
       <r>    30.3137     0.6176    35.9273 </r>
       <r>    30.5672     0.7645    36.1211 </r>
       <r>    30.8208     1.0441    36.3858 </r>
       <r>    31.0743     1.1127    36.6679 </r>
       <r>    31.3278     0.7348    36.8542 </r>
       <r>    31.5813     0.6659    37.0230 </r>
       <r>    31.8348     0.7599    37.2156 </r>
       <r>    32.0884     0.7031    37.3939 </r>
       <r>    32.3419     0.7840    37.5926 </r>
       <r>    32.5954     0.8713    37.8135 </r>
       <r>    32.8489     1.2465    38.1295 </r>
       <r>    33.1024     0.6963    38.3061 </r>
       <r>    33.3560     1.1190    38.5898 </r>
       <r>    33.6095     0.9221    38.8235 </r>
       <r>    33.8630     1.0719    39.0953 </r>
       <r>    34.1165     0.9046    39.3246 </r>
       <r>    34.3701     1.2377    39.6384 </r>
       <r>    34.6236     1.0754    39.9110 </r>
       <r>    34.8771     1.2948    40.2393 </r>
       <r>    35.1306     0.8794    40.4622 </r>
       <r>    35.3841     1.0804    40.7361 </r>
       <r>    35.6377     0.7503    40.9264 </r>
       <r>    35.8912     0.7665    41.1207 </r>
       <r>    36.1447     0.7303    41.3058 </r>
       <r>    36.3982     0.6600    41.4731 </r>
       <r>    36.6517     0.5512    41.6129 </r>
       <r>    36.9053     0.8596    41.8308 </r>
       <r>    37.1588     0.6796    42.0031 </r>
       <r>    37.4123     0.6389    42.1651 </r>
       <r>    37.6658     1.0122    42.4217 </r>
       <r>    37.9193     1.3150    42.7550 </r>
       <r>    38.1729     1.0291    43.0160 </r>
       <r>    38.4264     0.7833    43.2145 </r>
       <r>    38.6799     0.8315    43.4254 </r>
       <r>    38.9334     0.7790    43.6229 </r>
       <r>    39.1869     0.6677    43.7921 </r>
       <r>    39.4405     1.2109    44.0991 </r>
       <r>    39.6940     0.7637    44.2928 </r>
       <r>    39.9475     0.7890    44.4928 </r>
       <r>    40.2010     1.5441    44.8842 </r>
       <r>    40.4545     1.1576    45.1777 </r>
       <r>    40.7081     0.7758    45.3744 </r>
       <r>    40.9616     1.1363    45.6624 </r>
       <r>    41.2151     1.0065    45.9176 </r>
       <r>    41.4686     0.6890    46.0923 </r>
       <r>    41.7221     1.3183    46.4265 </r>
       <r>    41.9757     1.1637    46.7215 </r>
       <r>    42.2292     1.0108    46.9778 </r>
       <r>    42.4827     1.4273    47.3396 </r>
       <r>    42.7362     0.9515    47.5808 </r>
       <r>    42.9897     1.1349    47.8686 </r>
       <r>    43.2433     1.3275    48.2051 </r>
       <r>    43.4968     0.9582    48.4480 </r>
       <r>    43.7503     0.6999    48.6255 </r>
       <r>    44.0038     0.9604    48.8690 </r>
       <r>    44.2573     1.1673    49.1649 </r>
       <r>    44.5109     0.6882    49.3394 </r>
       <r>    44.7644     0.5880    49.4884 </r>
       <r>    45.0179     0.8102    49.6938 </r>
       <r>    45.2714     1.1806    49.9931 </r>
       <r>    45.5249     1.3137    50.3262 </r>
       <r>    45.7785     1.0943    50.6036 </r>
       <r>    46.0320     1.0221    50.8627 </r>
       <r>    46.2855     0.7667    51.0571 </r>
       <r>    46.5390     0.9391    51.2952 </r>
       <r>    46.7925     0.9966    51.5478 </r>
       <r>    47.0461     1.4214    51.9082 </r>
       <r>    47.2996     0.9428    52.1472 </r>
       <r>    47.5531     1.0055    52.4021 </r>
       <r>    47.8066     0.9679    52.6475 </r>
       <r>    48.0601     0.6645    52.8160 </r>
       <r>    48.3137     1.2001    53.1202 </r>
       <r>    48.5672     1.8169    53.5809 </r>
       <r>    48.8207     1.6142    53.9901 </r>
       <r>    49.0742     0.9830    54.2393 </r>
       <r>    49.3277     1.2698    54.5612 </r>
       <r>    49.5813     1.2538    54.8791 </r>
       <r>    49.8348     0.8084    55.0840 </r>
       <r>    50.0883     0.8465    55.2986 </r>
       <r>    50.3418     1.2723    55.6212 </r>
       <r>    50.5953     1.1664    55.9169 </r>
       <r>    50.8489     0.7696    56.1120 </r>
       <r>    51.1024     1.0804    56.3859 </r>
       <r>    51.3559     1.0753    56.6585 </r>
       <r>    51.6094     1.3119    56.9911 </r>
       <r>    51.8629     1.3408    57.3310 </r>
       <r>    52.1165     1.1386    57.6197 </r>
       <r>    52.3700     1.3815    57.9699 </r>
       <r>    52.6235     1.4153    58.3287 </r>
       <r>    52.8770     1.2029    58.6337 </r>
       <r>    53.1305     1.2848    58.9594 </r>
       <r>    53.3841     1.5625    59.3556 </r>
       <r>    53.6376     0.9680    59.6010 </r>
       <r>    53.8911     1.1916    59.9031 </r>
       <r>    54.1446     0.8786    60.1258 </r>
       <r>    54.3981     0.9483    60.3662 </r>
       <r>    54.6517     1.4272    60.7281 </r>
       <r>    54.9052     2.0916    61.2583 </r>
       <r>    55.1587     1.9476    61.7521 </r>
       <r>    55.4122     1.5743    62.1512 </r>
       <r>    55.6657     1.0733    62.4233 </r>
       <r>    55.9193     1.1507    62.7150 </r>
       <r>    56.1728     1.3836    63.0658 </r>
       <r>    56.4263     1.7953    63.5209 </r>
       <r>    56.6798     1.6300    63.9342 </r>
       <r>    56.9333     1.2418    64.2490 </r>
       <r>    57.1869     1.5458    64.6409 </r>
       <r>    57.4404     1.3848    64.9920 </r>
       <r>    57.6939     1.8497    65.4609 </r>
       <r>    57.9474     1.5372    65.8506 </r>
       <r>    58.2009     1.7517    66.2947 </r>
       <r>    58.4545     1.9935    66.8001 </r>
       <r>    58.7080     1.3897    67.1524 </r>
       <r>    58.9615     1.2394    67.4666 </r>
       <r>    59.2150     1.4028    67.8223 </r>
       <r>    59.4686     1.6656    68.2445 </r>
       <r>    59.7221     1.2413    68.5592 </r>
       <r>    59.9756     1.0967    68.8372 </r>
       <r>    60.2291     1.4571    69.2067 </r>
       <r>    60.4826     2.0466    69.7255 </r>
       <r>    60.7362     1.8371    70.1913 </r>
       <r>    60.9897     1.5662    70.5883 </r>
       <r>    61.2432     1.5972    70.9933 </r>
       <r>    61.4967     1.6019    71.3994 </r>
       <r>    61.7502     1.8160    71.8597 </r>
       <r>    62.0038     1.5500    72.2527 </r>
       <r>    62.2573     1.7512    72.6966 </r>
       <r>    62.5108     1.8826    73.1739 </r>
       <r>    62.7643     1.9505    73.6684 </r>
       <r>    63.0178     1.2367    73.9819 </r>
       <r>    63.2714     1.5122    74.3653 </r>
       <r>    63.5249     2.2174    74.9274 </r>
       <r>    63.7784     2.4124    75.5390 </r>
       <r>    64.0319     1.7841    75.9913 </r>
       <r>    64.2854     1.9457    76.4846 </r>
       <r>    64.5390     1.7605    76.9309 </r>
       <r>    64.7925     2.3917    77.5373 </r>
       <r>    65.0460     2.1596    78.0848 </r>
       <r>    65.2995     1.4370    78.4491 </r>
       <r>    65.5530     1.6817    78.8755 </r>
       <r>    65.8066     1.5520    79.2689 </r>
       <r>    66.0601     0.9593    79.5121 </r>
       <r>    66.3136     1.1184    79.7957 </r>
       <r>    66.5671     0.5907    79.9454 </r>
       <r>    66.8206     0.1438    79.9818 </r>
       <r>    67.0742     0.0731    80.0004 </r>
       <r>    67.3277    -0.0010    80.0001 </r>
       <r>    67.5812    -0.0005    80.0000 </r>
       <r>    67.8347    -0.0000    80.0000 </r>
       <r>    68.0882    -0.0000    80.0000 </r>
       <r>    68.3418    -0.0000    80.0000 </r>
       <r>    68.5953     0.0000    80.0000 </r>
       <r>    68.8488     0.0000    80.0000 </r>
       <r>    69.1023     0.0000    80.0000 </r>
       <r>    69.3558     0.0000    80.0000 </r>
       <r>    69.6094     0.0000    80.0000 </r>
       <r>    69.8629     0.0000    80.0000 </r>
       <r>    70.1164     0.0000    80.0000 </r>
       <r>    70.3699     0.0000    80.0000 </r>
      </set>
     </set>
    </array>
   </total>
  </dos>
 </calculation>
 <structure name="finalpos" >
  <crystal>
   <varray name="basis" >
    <v>       2.39990000       0.00000000       0.00000000 </v>
    <v>      -1.19995000       2.07837437       0.00000000 </v>
    <v>       0.00000000       0.00000000       4.26523000 </v>
   </varray>
   <i name="volume">     21.27450080 </i>
   <varray name="rec_basis" >
    <v>       0.41668403       0.24057264       0.00000000 </v>
    <v>       0.00000000       0.48114527       0.00000000 </v>
    <v>       0.00000000       0.00000000       0.23445395 </v>
   </varray>
  </crystal>
  <varray name="positions" >
   <v>       0.00000000       0.00000000       0.00000000 </v>
   <v>       0.33333333       0.66666667       0.50000000 </v>
  </varray>
 </structure>
</modeling>
