unknown system                          
   1.00000000000000     
     3.866000    0.000000    0.000000
     0.000000    3.866000    0.000000
     0.000000    0.000000    3.866000
   Pd   Ir   Pt   Cu
     1     1     1     1
Direct
  0.000000  0.000000  0.000000
  0.500000  0.500000  0.000000
  0.500000  0.000000  0.500000
  0.000000  0.500000  0.500000
 
   24   24   24
  322.97      298.02      238.11      172.20      117.84      77.072      47.597      27.331      14.451      10.209    
  9.3930      7.6659      6.4434      7.6659      9.3930      10.209      14.451      27.331      47.597      77.072    
  117.84      172.20      238.11      298.02      298.37      275.39      220.28      159.74      109.87      72.446    
  45.303      26.333      14.274      10.464      9.8912      8.4666      7.4109      8.4666      9.8912      10.464    
  14.274      26.333      45.303      72.446      109.87      159.74      220.28      275.39      238.19      220.14    
  176.91      129.51      90.457      61.090      39.570      23.737      13.817      10.954      10.799      9.9948    
  9.3106      9.9948      10.799      10.954      13.817      23.737      39.570      61.090      90.457      129.51    
  176.91      220.14      170.42      158.06      128.42      95.741      68.578      48.039      32.695      20.636    
  13.625      11.869      12.093      11.946      11.678      11.946      12.093      11.869      13.625      20.636    
  32.695      48.039      68.578      95.741      128.42      158.06      114.69      107.08      88.633      67.884    
  50.230      36.743      26.272      18.492      14.984      14.943      16.152      17.032      17.288      17.032    
  16.152      14.943      14.984      18.492      26.272      36.743      50.230      67.884      88.633      107.08    
  74.806      70.486      59.839      47.453      36.529      27.880      21.517      18.613      19.165      21.938    
  25.438      28.269      29.351      28.269      25.438      21.938      19.165      18.613      21.517      27.880    
  36.529      47.453      59.839      70.486      47.009      44.797      39.212      32.406      26.006      21.334    
  19.745      21.574      26.294      33.069      40.380      46.136      48.337      46.136      40.380      33.069    
  26.294      21.574      19.745      21.334      26.006      32.406      39.212      44.797      27.419      26.398    
  23.732      20.515      18.240      18.286      21.316      27.309      36.128      46.800      57.483      65.606    
  68.670      65.606      57.483      46.800      36.128      27.309      21.316      18.286      18.240      20.515    
  23.732      26.398      14.356      14.161      13.671      13.439      14.712      18.743      25.753      35.649    
  47.595      60.389      72.542      81.705      85.177      81.705      72.542      60.389      47.595      35.649    
  25.753      18.743      14.712      13.439      13.671      14.161      9.3708      9.6484      10.254      11.386    
  14.602      21.476      32.210      45.629      59.557      73.061      85.864      96.010      100.00      96.010    
  85.864      73.061      59.557      45.629      32.210      21.476      14.602      11.386      10.254      9.6484    
  7.8870      8.4337      9.5779      11.331      15.772      24.964      39.168      55.589      70.981      85.359    
  99.984      112.65      117.88      112.65      99.984      85.359      70.981      55.589      39.168      24.964    
  15.772      11.331      9.5779      8.4337      5.9298      6.7710      8.5593      11.078      16.674      27.786    
  44.631      63.206      79.827      95.648      113.11      129.18      135.98      129.18      113.11      95.648    
  79.827      63.206      44.631      27.786      16.674      11.078      8.5593      6.7710      4.7021      5.6994    
  7.8488      10.803      16.951      28.864      46.717      66.097      83.249      99.842      118.73      136.44    
  143.99      136.44      118.73      99.842      83.249      66.097      46.717      28.864      16.951      10.803    
  7.8488      5.6994      5.9298      6.7710      8.5593      11.078      16.674      27.786      44.631      63.206    
  79.827      95.648      113.11      129.18      135.98      129.18      113.11      95.648      79.827      63.206    
  44.631      27.786      16.674      11.078      8.5593      6.7710      7.8870      8.4337      9.5779      11.331    
  15.772      24.964      39.168      55.589      70.981      85.359      99.984      112.65      117.88      112.65    
  99.984      85.359      70.981      55.589      39.168      24.964      15.772      11.331      9.5779      8.4337    
  9.3708      9.6484      10.254      11.386      14.602      21.476      32.210      45.629      59.557      73.061    
  85.864      96.010      100.00      96.010      85.864      73.061      59.557      45.629      32.210      21.476    
  14.602      11.386      10.254      9.6484      14.356      14.161      13.671      13.439      14.712      18.743    
  25.753      35.649      47.595      60.389      72.542      81.705      85.177      81.705      72.542      60.389    
  47.595      35.649      25.753      18.743      14.712      13.439      13.671      14.161      27.419      26.398    
  23.732      20.515      18.240      18.286      21.316      27.309      36.128      46.800      57.483      65.606    
  68.670      65.606      57.483      46.800      36.128      27.309      21.316      18.286      18.240      20.515    
  23.732      26.398      47.009      44.797      39.212      32.406      26.006      21.334      19.745      21.574    
  26.294      33.069      40.380      46.136      48.337      46.136      40.380      33.069      26.294      21.574    
  19.745      21.334      26.006      32.406      39.212      44.797      74.806      70.486      59.839      47.453    
  36.529      27.880      21.517      18.613      19.165      21.938      25.438      28.269      29.351      28.269    
  25.438      21.938      19.165      18.613      21.517      27.880      36.529      47.453      59.839      70.486    
  114.69      107.08      88.633      67.884      50.230      36.743      26.272      18.492      14.984      14.943    
  16.152      17.032      17.288      17.032      16.152      14.943      14.984      18.492      26.272      36.743    
  50.230      67.884      88.633      107.08      170.42      158.06      128.42      95.741      68.578      48.039    
  32.695      20.636      13.625      11.869      12.093      11.946      11.678      11.946      12.093      11.869    
  13.625      20.636      32.695      48.039      68.578      95.741      128.42      158.06      238.19      220.14    
  176.91      129.51      90.457      61.090      39.570      23.737      13.817      10.954      10.799      9.9948    
  9.3106      9.9948      10.799      10.954      13.817      23.737      39.570      61.090      90.457      129.51    
  176.91      220.14      298.37      275.39      220.28      159.74      109.87      72.446      45.303      26.333    
  14.274      10.464      9.8912      8.4666      7.4109      8.4666      9.8912      10.464      14.274      26.333    
  45.303      72.446      109.87      159.74      220.28      275.39      298.69      275.82      220.90      160.36    
  110.26      72.582      45.298      26.308      14.285      10.534      10.026      8.6539      7.6187      8.6539    
  10.026      10.534      14.285      26.308      45.298      72.582      110.26      160.36      220.90      275.82    
  276.78      255.67      205.01      149.23      103.10      68.395      43.194      25.363      14.115      10.749    
  10.441      9.3255      8.4353      9.3255      10.441      10.749      14.115      25.363      43.194      68.395    
  103.10      149.23      205.01      255.67      222.85      206.14      166.10      122.03      85.555      58.058    
  37.894      22.898      13.668      11.148      11.170      10.575      10.006      10.575      11.170      11.148    
  13.668      22.898      37.894      58.058      85.555      122.03      166.10      206.14      161.25      149.71    
  121.96      91.229      65.526      46.039      31.435      19.940      13.447      11.930      12.254      12.216    
  12.011      12.216      12.254      11.930      13.447      19.940      31.435      46.039      65.526      91.229    
  121.96      149.71      109.49      102.32      84.931      65.260      48.413      35.456      25.293      17.894    
  14.680      14.747      15.970      16.866      17.133      16.866      15.970      14.747      14.680      17.894    
  25.293      35.456      48.413      65.260      84.931      102.32      71.619      67.555      57.520      45.795    
  35.365      26.963      20.799      18.043      18.625      21.318      24.658      27.338      28.359      27.338    
  24.658      21.318      18.625      18.043      20.799      26.963      35.365      45.795      57.520      67.555    
  44.976      42.897      37.643      31.211      25.107      20.687      19.207      20.973      25.448      31.836    
  38.704      44.092      46.149      44.092      38.704      31.836      25.448      20.973      19.207      20.687    
  25.107      31.211      37.643      42.897      26.118      25.136      22.598      19.600      17.570      17.775    
  20.804      26.567      34.937      45.008      55.038      62.629      65.485      62.629      55.038      45.008    
  34.937      26.567      20.804      17.775      17.570      19.600      22.598      25.136      13.820      13.605    
  13.084      12.855      14.152      18.169      25.062      34.662      46.162      58.345      69.755      78.254    
  81.454      78.254      69.755      58.345      46.162      34.662      25.062      18.169      14.152      12.855    
  13.084      13.605      9.6042      9.7807      10.152      11.033      14.027      20.708      31.199      44.372    
  58.027      71.008      82.922      92.125      95.705      92.125      82.922      71.008      58.027      44.372    
  31.199      20.708      14.027      11.033      10.152      9.7807      8.8505      9.2192      9.9364      11.201    
  15.188      23.985      37.835      54.109      69.425      83.283      96.647      107.84      112.40      107.84    
  96.647      83.283      69.425      54.109      37.835      23.985      15.188      11.201      9.9364      9.2192    
  7.5729      8.1708      9.3688      11.197      16.141      26.673      43.074      61.582      78.249      93.442    
  109.17      123.16      129.01      123.16      109.17      93.442      78.249      61.582      43.074      26.673    
  16.141      11.197      9.3688      8.1708      6.6474      7.3739      8.8639      11.040      16.454      27.709    
  45.083      64.424      81.658      97.554      114.49      129.85      136.33      129.85      114.49      97.554    
  81.658      64.424      45.083      27.709      16.454      11.040      8.8639      7.3739      7.5729      8.1708    
  9.3688      11.197      16.141      26.673      43.074      61.582      78.249      93.442      109.17      123.16    
  129.01      123.16      109.17      93.442      78.249      61.582      43.074      26.673      16.141      11.197    
  9.3688      8.1708      8.8505      9.2192      9.9364      11.201      15.188      23.985      37.835      54.109    
  69.425      83.283      96.647      107.84      112.40      107.84      96.647      83.283      69.425      54.109    
  37.835      23.985      15.188      11.201      9.9364      9.2192      9.6042      9.7807      10.152      11.033    
  14.027      20.708      31.199      44.372      58.027      71.008      82.922      92.125      95.705      92.125    
  82.922      71.008      58.027      44.372      31.199      20.708      14.027      11.033      10.152      9.7807    
  13.820      13.605      13.084      12.855      14.152      18.169      25.062      34.662      46.162      58.345    
  69.755      78.254      81.454      78.254      69.755      58.345      46.162      34.662      25.062      18.169    
  14.152      12.855      13.084      13.605      26.118      25.136      22.598      19.600      17.570      17.775    
  20.804      26.567      34.937      45.008      55.038      62.629      65.485      62.629      55.038      45.008    
  34.937      26.567      20.804      17.775      17.570      19.600      22.598      25.136      44.976      42.897    
  37.643      31.211      25.107      20.687      19.207      20.973      25.448      31.836      38.704      44.092    
  46.149      44.092      38.704      31.836      25.448      20.973      19.207      20.687      25.107      31.211    
  37.643      42.897      71.619      67.555      57.520      45.795      35.365      26.963      20.799      18.043    
  18.625      21.318      24.658      27.338      28.359      27.338      24.658      21.318      18.625      18.043    
  20.799      26.963      35.365      45.795      57.520      67.555      109.49      102.32      84.931      65.260    
  48.413      35.456      25.293      17.894      14.680      14.747      15.970      16.866      17.133      16.866    
  15.970      14.747      14.680      17.894      25.293      35.456      48.413      65.260      84.931      102.32    
  161.25      149.71      121.96      91.229      65.526      46.039      31.435      19.940      13.447      11.930    
  12.254      12.216      12.011      12.216      12.254      11.930      13.447      19.940      31.435      46.039    
  65.526      91.229      121.96      149.71      222.85      206.14      166.10      122.03      85.555      58.058    
  37.894      22.898      13.668      11.148      11.170      10.575      10.006      10.575      11.170      11.148    
  13.668      22.898      37.894      58.058      85.555      122.03      166.10      206.14      276.78      255.67    
  205.01      149.23      103.10      68.395      43.194      25.363      14.115      10.749      10.441      9.3255    
  8.4353      9.3255      10.441      10.749      14.115      25.363      43.194      68.395      103.10      149.23    
  205.01      255.67      238.97      221.24      178.53      131.13      91.448      61.367      39.489      23.612    
  13.774      11.038      11.016      10.321      9.6804      10.321      11.016      11.038      13.774      23.612    
  39.489      61.367      91.448      131.13      178.53      221.24      223.33      206.85      167.15      123.09    
  86.187      58.218      37.824      22.801      13.623      11.178      11.275      10.742      10.198      10.742    
  11.275      11.178      13.623      22.801      37.824      58.218      86.187      123.09      167.15      206.85    
  184.01      170.71      138.67      103.01      73.052      50.309      33.536      20.684      13.217      11.421    
  11.700      11.490      11.160      11.490      11.700      11.421      13.217      20.684      33.536      50.309    
  73.052      103.01      138.67      170.71      137.02      127.61      104.84      79.242      57.461      40.784    
  28.063      18.142      12.970      11.965      12.435      12.599      12.522      12.599      12.435      11.965    
  12.970      18.142      28.063      40.784      57.461      79.242      104.84      127.61      95.010      89.084    
  74.589      57.942      43.402      31.945      22.701      16.404      13.930      14.210      15.417      16.322    
  16.613      16.322      15.417      14.210      13.930      16.404      22.701      31.945      43.402      57.942    
  74.589      89.084      62.679      59.323      50.978      41.082      32.023      24.373      18.911      16.620    
  17.266      19.719      22.645      24.955      25.830      24.955      22.645      19.719      17.266      16.620    
  18.911      24.373      32.023      41.082      50.978      59.323      39.525      37.794      33.385      27.864    
  22.558      18.853      17.722      19.366      23.252      28.643      34.372      38.832      40.527      38.832    
  34.372      28.643      23.252      19.366      17.722      18.853      22.558      27.864      33.385      37.794    
  22.798      21.941      19.774      17.324      15.840      16.347      19.295      24.476      31.703      40.246    
  48.624      54.880      57.215      54.880      48.624      40.246      31.703      24.476      19.295      16.347    
  15.840      17.324      19.774      21.941      12.462      12.249      11.761      11.596      12.870      16.654    
  23.062      31.767      42.078      52.751      62.381      69.299      71.850      69.299      62.381      52.751    
  42.078      31.767      23.062      16.654      12.870      11.596      11.761      12.249      9.5683      9.6191    
  9.7069      10.249      12.763      18.783      28.347      40.583      53.423      65.226      75.206      82.322    
  84.974      82.322      75.206      65.226      53.423      40.583      28.347      18.783      12.763      10.249    
  9.7069      9.6191      9.7160      9.8543      10.043      10.671      13.827      21.551      34.089      49.523    
  64.495      77.339      88.120      96.132      99.224      96.132      88.120      77.339      64.495      49.523    
  34.089      21.551      13.827      10.671      10.043      9.8543      9.3497      9.6207      10.061      10.974    
  14.783      23.864      38.669      56.442      73.068      87.123      99.321      108.85      112.63      108.85    
  99.321      87.123      73.068      56.442      38.669      23.864      14.783      10.974      10.061      9.6207    
  8.8764      9.2314      9.8557      10.987      15.127      24.768      40.438      59.082      76.369      91.015    
  103.97      114.28      118.41      114.28      103.97      91.015      76.369      59.082      40.438      24.768    
  15.127      10.987      9.8557      9.2314      9.3497      9.6207      10.061      10.974      14.783      23.864    
  38.669      56.442      73.068      87.123      99.321      108.85      112.63      108.85      99.321      87.123    
  73.068      56.442      38.669      23.864      14.783      10.974      10.061      9.6207      9.7160      9.8543    
  10.043      10.671      13.827      21.551      34.089      49.523      64.495      77.339      88.120      96.132    
  99.224      96.132      88.120      77.339      64.495      49.523      34.089      21.551      13.827      10.671    
  10.043      9.8543      9.5683      9.6191      9.7069      10.249      12.763      18.783      28.347      40.583    
  53.423      65.226      75.206      82.322      84.974      82.322      75.206      65.226      53.423      40.583    
  28.347      18.783      12.763      10.249      9.7069      9.6191      12.462      12.249      11.761      11.596    
  12.870      16.654      23.062      31.767      42.078      52.751      62.381      69.299      71.850      69.299    
  62.381      52.751      42.078      31.767      23.062      16.654      12.870      11.596      11.761      12.249    
  22.798      21.941      19.774      17.324      15.840      16.347      19.295      24.476      31.703      40.246    
  48.624      54.880      57.215      54.880      48.624      40.246      31.703      24.476      19.295      16.347    
  15.840      17.324      19.774      21.941      39.525      37.794      33.385      27.864      22.558      18.853    
  17.722      19.366      23.252      28.643      34.372      38.832      40.527      38.832      34.372      28.643    
  23.252      19.366      17.722      18.853      22.558      27.864      33.385      37.794      62.679      59.323    
  50.978      41.082      32.023      24.373      18.911      16.620      17.266      19.719      22.645      24.955    
  25.830      24.955      22.645      19.719      17.266      16.620      18.911      24.373      32.023      41.082    
  50.978      59.323      95.010      89.084      74.589      57.942      43.402      31.945      22.701      16.404    
  13.930      14.210      15.417      16.322      16.613      16.322      15.417      14.210      13.930      16.404    
  22.701      31.945      43.402      57.942      74.589      89.084      137.02      127.61      104.84      79.242    
  57.461      40.784      28.063      18.142      12.970      11.965      12.435      12.599      12.522      12.599    
  12.435      11.965      12.970      18.142      28.063      40.784      57.461      79.242      104.84      127.61    
  184.01      170.71      138.67      103.01      73.052      50.309      33.536      20.684      13.217      11.421    
  11.700      11.490      11.160      11.490      11.700      11.421      13.217      20.684      33.536      50.309    
  73.052      103.01      138.67      170.71      223.33      206.85      167.15      123.09      86.187      58.218    
  37.824      22.801      13.623      11.178      11.275      10.742      10.198      10.742      11.275      11.178    
  13.623      22.801      37.824      58.218      86.187      123.09      167.15      206.85      171.06      159.13    
  130.16      97.451      69.483      48.111      32.406      20.318      13.400      11.757      12.093      12.046    
  11.823      12.046      12.093      11.757      13.400      20.318      32.406      48.111      69.483      97.451    
  130.16      159.13      161.71      150.50      123.29      92.525      66.185      46.049      31.174      19.661    
  13.242      11.803      12.195      12.221      12.043      12.221      12.195      11.803      13.242      19.661    
  31.174      46.049      66.185      92.525      123.29      150.50      137.14      127.88      105.34      79.728    
  57.666      40.721      27.897      17.977      12.841      11.859      12.339      12.512      12.441      12.512    
  12.339      11.859      12.841      17.977      27.897      40.721      57.666      79.728      105.34      127.88    
  105.46      98.757      82.330      63.425      46.886      33.914      23.538      16.013      12.559      12.143    
  12.756      13.153      13.231      13.153      12.756      12.143      12.559      16.013      23.538      33.914    
  46.886      63.425      82.330      98.757      74.785      70.529      59.986      47.572      36.334      26.955    
  19.347      14.726      13.202      13.702      14.878      15.815      16.150      15.815      14.878      13.702    
  13.202      14.726      19.347      26.955      36.334      47.572      59.986      70.529      50.086      47.686    
  41.626      34.186      26.927      20.631      16.484      14.972      15.710      17.808      20.262      22.185    
  22.916      22.185      20.262      17.808      15.710      14.972      16.484      20.631      26.927      34.186    
  41.626      47.686      32.129      30.832      27.427      23.002      18.888      16.227      15.660      17.232    
  20.467      24.664      29.015      32.374      33.647      32.374      29.015      24.664      20.467      17.232    
  15.660      16.227      18.888      23.002      27.427      30.832      18.582      17.949      16.362      14.619    
  13.680      14.344      16.994      21.440      27.280      33.963      40.352      45.022      46.744      45.022    
  40.352      33.963      27.280      21.440      16.994      14.344      13.680      14.619      16.362      17.949    
  10.708      10.599      10.369      10.419      11.554      14.674      20.069      27.348      36.013      44.879    
  52.550      57.781      59.643      57.781      52.550      44.879      36.013      27.348      20.069      14.674    
  11.554      10.419      10.369      10.599      8.3447      8.4550      8.7242      9.3936      11.521      16.398    
  24.233      34.577      46.002      56.550      64.833      70.110      71.930      70.110      64.833      56.550    
  46.002      34.577      24.233      16.398      11.521      9.3936      8.7242      8.4550      8.0711      8.2676    
  8.6922      9.5600      12.299      18.576      28.703      41.996      55.961      68.033      76.973      82.474    
  84.350      82.474      76.973      68.033      55.961      41.996      28.703      18.576      12.299      9.5600    
  8.6922      8.2676      7.5943      7.8943      8.5410      9.6975      13.009      20.346      32.255      47.769    
  63.688      77.112      86.918      92.966      95.044      92.966      86.918      77.112      63.688      47.769    
  32.255      20.346      13.009      9.6975      8.5410      7.8943      7.2158      7.5755      8.3603      9.6935    
  13.273      21.031      33.624      49.975      66.653      80.658      90.899      97.257      99.455      97.257    
  90.899      80.658      66.653      49.975      33.624      21.031      13.273      9.6935      8.3603      7.5755    
  7.5943      7.8943      8.5410      9.6975      13.009      20.346      32.255      47.769      63.688      77.112    
  86.918      92.966      95.044      92.966      86.918      77.112      63.688      47.769      32.255      20.346    
  13.009      9.6975      8.5410      7.8943      8.0711      8.2676      8.6922      9.5600      12.299      18.576    
  28.703      41.996      55.961      68.033      76.973      82.474      84.350      82.474      76.973      68.033    
  55.961      41.996      28.703      18.576      12.299      9.5600      8.6922      8.2676      8.3447      8.4550    
  8.7242      9.3936      11.521      16.398      24.233      34.577      46.002      56.550      64.833      70.110    
  71.930      70.110      64.833      56.550      46.002      34.577      24.233      16.398      11.521      9.3936    
  8.7242      8.4550      10.708      10.599      10.369      10.419      11.554      14.674      20.069      27.348    
  36.013      44.879      52.550      57.781      59.643      57.781      52.550      44.879      36.013      27.348    
  20.069      14.674      11.554      10.419      10.369      10.599      18.582      17.949      16.362      14.619    
  13.680      14.344      16.994      21.440      27.280      33.963      40.352      45.022      46.744      45.022    
  40.352      33.963      27.280      21.440      16.994      14.344      13.680      14.619      16.362      17.949    
  32.129      30.832      27.427      23.002      18.888      16.227      15.660      17.232      20.467      24.664    
  29.015      32.374      33.647      32.374      29.015      24.664      20.467      17.232      15.660      16.227    
  18.888      23.002      27.427      30.832      50.086      47.686      41.626      34.186      26.927      20.631    
  16.484      14.972      15.710      17.808      20.262      22.185      22.916      22.185      20.262      17.808    
  15.710      14.972      16.484      20.631      26.927      34.186      41.626      47.686      74.785      70.529    
  59.986      47.572      36.334      26.955      19.347      14.726      13.202      13.702      14.878      15.815    
  16.150      15.815      14.878      13.702      13.202      14.726      19.347      26.955      36.334      47.572    
  59.986      70.529      105.46      98.757      82.330      63.425      46.886      33.914      23.538      16.013    
  12.559      12.143      12.756      13.153      13.231      13.153      12.756      12.143      12.559      16.013    
  23.538      33.914      46.886      63.425      82.330      98.757      137.14      127.88      105.34      79.728    
  57.666      40.721      27.897      17.977      12.841      11.859      12.339      12.512      12.441      12.512    
  12.339      11.859      12.841      17.977      27.897      40.721      57.666      79.728      105.34      127.88    
  161.71      150.50      123.29      92.525      66.185      46.049      31.174      19.661      13.242      11.803    
  12.195      12.221      12.043      12.221      12.195      11.803      13.242      19.661      31.174      46.049    
  66.185      92.525      123.29      150.50      114.78      107.49      89.534      68.695      50.410      36.370    
  25.726      18.033      14.741      14.947      16.413      17.522      17.873      17.522      16.413      14.947    
  14.741      18.033      25.726      36.370      50.410      68.695      89.534      107.49      109.51      102.61    
  85.622      65.870      48.498      35.090      24.788      17.477      14.460      14.743      16.184      17.269    
  17.615      17.269      16.184      14.743      14.460      17.477      24.788      35.090      48.498      65.870    
  85.622      102.61      94.925      89.147      74.865      58.160      43.326      31.630      22.318      16.101    
  13.776      14.210      15.561      16.583      16.923      16.583      15.561      14.210      13.776      16.101    
  22.318      31.630      43.326      58.160      74.865      89.147      74.696      70.483      60.000      47.558    
  36.225      26.768      19.147      14.579      13.144      13.739      15.005      16.014      16.378      16.014    
  15.005      13.739      13.144      14.579      19.147      26.768      36.225      47.558      60.000      70.483    
  54.002      51.356      44.668      36.456      28.486      21.359      16.195      13.601      13.213      14.181    
  15.636      16.856      17.328      16.856      15.636      14.181      13.213      13.601      16.195      21.359    
  28.486      36.456      44.668      51.356      36.998      35.494      31.553      26.319      20.916      16.612    
  14.181      13.669      14.635      16.502      18.654      20.392      21.065      20.392      18.654      16.502    