unknown system                          
   1.00000000000000     
     3.866000    0.000000    0.000000
     0.000000    3.866000    0.000000
     0.000000    0.000000    3.866000
   Pd   Ir   Pt   Cu
     1     1     1     1
Direct
  0.000000  0.000000  0.000000
  0.500000  0.500000  0.000000
  0.500000  0.000000  0.500000
  0.000000  0.500000  0.500000
 
   24   24   24
 0.32297158575E+03 0.29801907957E+03 0.23811222851E+03 0.17219504938E+03 0.11784048445E+03
 0.77071889172E+02 0.47597450746E+02 0.27330845745E+02 0.14450513276E+02 0.10208768325E+02
 0.93929951804E+01 0.76659169700E+01 0.64433564098E+01 0.76659169700E+01 0.93929951804E+01
 0.10208768325E+02 0.14450513276E+02 0.27330845745E+02 0.47597450746E+02 0.77071889172E+02
 0.11784048445E+03 0.17219504938E+03 0.23811222851E+03 0.29801907957E+03 0.29836670248E+03
 0.27539020089E+03 0.22028375417E+03 0.15974182663E+03 0.10986848865E+03 0.72446488812E+02
 0.45302865825E+02 0.26332648171E+02 0.14273971955E+02 0.10463616544E+02 0.98911876363E+01
 0.84665596343E+01 0.74108700475E+01 0.84665596343E+01 0.98911876363E+01 0.10463616544E+02
 0.14273971955E+02 0.26332648171E+02 0.45302865825E+02 0.72446488812E+02 0.10986848865E+03
 0.15974182663E+03 0.22028375417E+03 0.27539020089E+03 0.23819141185E+03 0.22013639794E+03
 0.17690858080E+03 0.12950872419E+03 0.90456742369E+02 0.61090294523E+02 0.39569836626E+02
 0.23736842477E+02 0.13817486218E+02 0.10954025207E+02 0.10799115531E+02 0.99948120513E+01
 0.93105555157E+01 0.99948120513E+01 0.10799115531E+02 0.10954025207E+02 0.13817486218E+02
 0.23736842477E+02 0.39569836626E+02 0.61090294523E+02 0.90456742369E+02 0.12950872419E+03
 0.17690858080E+03 0.22013639794E+03 0.17041929788E+03 0.15805792101E+03 0.12841650732E+03
 0.95740994066E+02 0.68577582563E+02 0.48039293873E+02 0.32694862077E+02 0.20635684323E+02
 0.13624669607E+02 0.11869248045E+02 0.12093389359E+02 0.11945947375E+02 0.11678286440E+02
 0.11945947375E+02 0.12093389359E+02 0.11869248045E+02 0.13624669607E+02 0.20635684323E+02
 0.32694862077E+02 0.48039293873E+02 0.68577582563E+02 0.95740994066E+02 0.12841650732E+03
 0.15805792101E+03 0.11469370230E+03 0.10707573604E+03 0.88632509493E+02 0.67883604991E+02
 0.50230313448E+02 0.36742502864E+02 0.26272027611E+02 0.18491644033E+02 0.14984460945E+02
 0.14943061375E+02 0.16151587418E+02 0.17032490003E+02 0.17287518468E+02 0.17032490003E+02
 0.16151587418E+02 0.14943061375E+02 0.14984460945E+02 0.18491644033E+02 0.26272027611E+02
 0.36742502864E+02 0.50230313448E+02 0.67883604991E+02 0.88632509493E+02 0.10707573604E+03
 0.74806230342E+02 0.70486092972E+02 0.59838952842E+02 0.47453410947E+02 0.36528582591E+02
 0.27879981659E+02 0.21517001693E+02 0.18612726886E+02 0.19165243313E+02 0.21937914054E+02
 0.25438333727E+02 0.28268771908E+02 0.29350652189E+02 0.28268771908E+02 0.25438333727E+02
 0.21937914054E+02 0.19165243313E+02 0.18612726886E+02 0.21517001693E+02 0.27879981659E+02
 0.36528582591E+02 0.47453410947E+02 0.59838952842E+02 0.70486092972E+02 0.47009464712E+02
 0.44797081448E+02 0.39212102800E+02 0.32406305011E+02 0.26005930965E+02 0.21334228274E+02
 0.19744517574E+02 0.21574382381E+02 0.26293726293E+02 0.33069253119E+02 0.40379987345E+02
 0.46135692030E+02 0.48337367276E+02 0.46135692030E+02 0.40379987345E+02 0.33069253119E+02
 0.26293726293E+02 0.21574382381E+02 0.19744517574E+02 0.21334228274E+02 0.26005930965E+02
 0.32406305011E+02 0.39212102800E+02 0.44797081448E+02 0.27419268116E+02 0.26398287548E+02
 0.23732051538E+02 0.20515484161E+02 0.18240442959E+02 0.18285766180E+02 0.21316262266E+02
 0.27308734494E+02 0.36128063684E+02 0.46799889761E+02 0.57482505761E+02 0.65605884196E+02
 0.68670301789E+02 0.65605884196E+02 0.57482505761E+02 0.46799889761E+02 0.36128063684E+02
 0.27308734494E+02 0.21316262266E+02 0.18285766180E+02 0.18240442959E+02 0.20515484161E+02
 0.23732051538E+02 0.26398287548E+02 0.14355562009E+02 0.14161324894E+02 0.13670932010E+02
 0.13438762012E+02 0.14712311188E+02 0.18743342316E+02 0.25753047074E+02 0.35649422770E+02
 0.47595470090E+02 0.60389097114E+02 0.72541860607E+02 0.81704904165E+02 0.85176689466E+02
 0.81704904165E+02 0.72541860607E+02 0.60389097114E+02 0.47595470090E+02 0.35649422770E+02
 0.25753047074E+02 0.18743342316E+02 0.14712311188E+02 0.13438762012E+02 0.13670932010E+02
 0.14161324894E+02 0.93708058773E+01 0.96483506924E+01 0.10253939798E+02 0.11385718668E+02
 0.14602200804E+02 0.21475597965E+02 0.32209988575E+02 0.45628628594E+02 0.59557042682E+02
 0.73061198558E+02 0.85863778331E+02 0.96009515636E+02 0.10000320839E+03 0.96009515636E+02
 0.85863778331E+02 0.73061198558E+02 0.59557042682E+02 0.45628628594E+02 0.32209988575E+02
 0.21475597965E+02 0.14602200804E+02 0.11385718668E+02 0.10253939798E+02 0.96483506924E+01
 0.78869533334E+01 0.84337129055E+01 0.95778529463E+01 0.11331118598E+02 0.15771802965E+02
 0.24963846904E+02 0.39168440289E+02 0.55589192879E+02 0.70981095357E+02 0.85359391572E+02
 0.99984225149E+02 0.11265326321E+03 0.11788377845E+03 0.11265326321E+03 0.99984225149E+02
 0.85359391572E+02 0.70981095357E+02 0.55589192879E+02 0.39168440289E+02 0.24963846904E+02
 0.15771802965E+02 0.11331118598E+02 0.95778529463E+01 0.84337129055E+01 0.59298457067E+01
 0.67709730066E+01 0.85592894958E+01 0.11078207727E+02 0.16674197727E+02 0.27785888751E+02
 0.44630688188E+02 0.63206138981E+02 0.79826571181E+02 0.95648461792E+02 0.11310561460E+03
 0.12917646618E+03 0.13598099261E+03 0.12917646618E+03 0.11310561460E+03 0.95648461792E+02
 0.79826571181E+02 0.63206138981E+02 0.44630688188E+02 0.27785888751E+02 0.16674197727E+02
 0.11078207727E+02 0.85592894958E+01 0.67709730066E+01 0.47021120649E+01 0.56993865874E+01
 0.78487957777E+01 0.10802793108E+02 0.16951479433E+02 0.28863542041E+02 0.46717307525E+02
 0.66097065001E+02 0.83248593046E+02 0.99842397182E+02 0.11873451646E+03 0.13644244541E+03
 0.14398818383E+03 0.13644244541E+03 0.11873451646E+03 0.99842397182E+02 0.83248593046E+02
 0.66097065001E+02 0.46717307525E+02 0.28863542041E+02 0.16951479433E+02 0.10802793108E+02
 0.78487957777E+01 0.56993865874E+01 0.59298457067E+01 0.67709730066E+01 0.85592894958E+01
 0.11078207727E+02 0.16674197727E+02 0.27785888751E+02 0.44630688188E+02 0.63206138981E+02
 0.79826571181E+02 0.95648461792E+02 0.11310561460E+03 0.12917646618E+03 0.13598099261E+03
 0.12917646618E+03 0.11310561460E+03 0.95648461792E+02 0.79826571181E+02 0.63206138981E+02
 0.44630688188E+02 0.27785888751E+02 0.16674197727E+02 0.11078207727E+02 0.85592894958E+01
 0.67709730066E+01 0.78869533334E+01 0.84337129055E+01 0.95778529463E+01 0.11331118598E+02
 0.15771802965E+02 0.24963846904E+02 0.39168440289E+02 0.55589192879E+02 0.70981095357E+02
 0.85359391572E+02 0.99984225149E+02 0.11265326321E+03 0.11788377845E+03 0.11265326321E+03
 0.99984225149E+02 0.85359391572E+02 0.70981095357E+02 0.55589192879E+02 0.39168440289E+02
 0.24963846904E+02 0.15771802965E+02 0.11331118598E+02 0.95778529463E+01 0.84337129055E+01
 0.93708058773E+01 0.96483506924E+01 0.10253939798E+02 0.11385718668E+02 0.14602200804E+02
 0.21475597965E+02 0.32209988575E+02 0.45628628594E+02 0.59557042682E+02 0.73061198558E+02
 0.85863778331E+02 0.96009515636E+02 0.10000320839E+03 0.96009515636E+02 0.85863778331E+02
 0.73061198558E+02 0.59557042682E+02 0.45628628594E+02 0.32209988575E+02 0.21475597965E+02
 0.14602200804E+02 0.11385718668E+02 0.10253939798E+02 0.96483506924E+01 0.14355562009E+02
 0.14161324894E+02 0.13670932010E+02 0.13438762012E+02 0.14712311188E+02 0.18743342316E+02
 0.25753047074E+02 0.35649422770E+02 0.47595470090E+02 0.60389097114E+02 0.72541860607E+02
 0.81704904165E+02 0.85176689466E+02 0.81704904165E+02 0.72541860607E+02 0.60389097114E+02
 0.47595470090E+02 0.35649422770E+02 0.25753047074E+02 0.18743342316E+02 0.14712311188E+02
 0.13438762012E+02 0.13670932010E+02 0.14161324894E+02 0.27419268116E+02 0.26398287548E+02
 0.23732051538E+02 0.20515484161E+02 0.18240442959E+02 0.18285766180E+02 0.21316262266E+02
 0.27308734494E+02 0.36128063684E+02 0.46799889761E+02 0.57482505761E+02 0.65605884196E+02
 0.68670301789E+02 0.65605884196E+02 0.57482505761E+02 0.46799889761E+02 0.36128063684E+02
 0.27308734494E+02 0.21316262266E+02 0.18285766180E+02 0.18240442959E+02 0.20515484161E+02
 0.23732051538E+02 0.26398287548E+02 0.47009464712E+02 0.44797081448E+02 0.39212102800E+02
 0.32406305011E+02 0.26005930965E+02 0.21334228274E+02 0.19744517574E+02 0.21574382381E+02
 0.26293726293E+02 0.33069253119E+02 0.40379987345E+02 0.46135692030E+02 0.48337367276E+02
 0.46135692030E+02 0.40379987345E+02 0.33069253119E+02 0.26293726293E+02 0.21574382381E+02
 0.19744517574E+02 0.21334228274E+02 0.26005930965E+02 0.32406305011E+02 0.39212102800E+02
 0.44797081448E+02 0.74806230342E+02 0.70486092972E+02 0.59838952842E+02 0.47453410947E+02
 0.36528582591E+02 0.27879981659E+02 0.21517001693E+02 0.18612726886E+02 0.19165243313E+02
 0.21937914054E+02 0.25438333727E+02 0.28268771908E+02 0.29350652189E+02 0.28268771908E+02
 0.25438333727E+02 0.21937914054E+02 0.19165243313E+02 0.18612726886E+02 0.21517001693E+02
 0.27879981659E+02 0.36528582591E+02 0.47453410947E+02 0.59838952842E+02 0.70486092972E+02
 0.11469370230E+03 0.10707573604E+03 0.88632509493E+02 0.67883604991E+02 0.50230313448E+02
 0.36742502864E+02 0.26272027611E+02 0.18491644033E+02 0.14984460945E+02 0.14943061375E+02
 0.16151587418E+02 0.17032490003E+02 0.17287518468E+02 0.17032490003E+02 0.16151587418E+02
 0.14943061375E+02 0.14984460945E+02 0.18491644033E+02 0.26272027611E+02 0.36742502864E+02
 0.50230313448E+02 0.67883604991E+02 0.88632509493E+02 0.10707573604E+03 0.17041929788E+03
 0.15805792101E+03 0.12841650732E+03 0.95740994066E+02 0.68577582563E+02 0.48039293873E+02
 0.32694862077E+02 0.20635684323E+02 0.13624669607E+02 0.11869248045E+02 0.12093389359E+02
 0.11945947375E+02 0.11678286440E+02 0.11945947375E+02 0.12093389359E+02 0.11869248045E+02
 0.13624669607E+02 0.20635684323E+02 0.32694862077E+02 0.48039293873E+02 0.68577582563E+02
 0.95740994066E+02 0.12841650732E+03 0.15805792101E+03 0.23819141185E+03 0.22013639794E+03
 0.17690858080E+03 0.12950872419E+03 0.90456742369E+02 0.61090294523E+02 0.39569836626E+02
 0.23736842477E+02 0.13817486218E+02 0.10954025207E+02 0.10799115531E+02 0.99948120513E+01
 0.93105555157E+01 0.99948120513E+01 0.10799115531E+02 0.10954025207E+02 0.13817486218E+02
 0.23736842477E+02 0.39569836626E+02 0.61090294523E+02 0.90456742369E+02 0.12950872419E+03
 0.17690858080E+03 0.22013639794E+03 0.29836670248E+03 0.27539020089E+03 0.22028375417E+03
 0.15974182663E+03 0.10986848865E+03 0.72446488812E+02 0.45302865825E+02 0.26332648171E+02
 0.14273971955E+02 0.10463616544E+02 0.98911876363E+01 0.84665596343E+01 0.74108700475E+01
 0.84665596343E+01 0.98911876363E+01 0.10463616544E+02 0.14273971955E+02 0.26332648171E+02
 0.45302865825E+02 0.72446488812E+02 0.10986848865E+03 0.15974182663E+03 0.22028375417E+03
 0.27539020089E+03 0.29869218624E+03 0.27582416317E+03 0.22089669177E+03 0.16035624358E+03
 0.11026384893E+03 0.72581610456E+02 0.45298043796E+02 0.26308328504E+02 0.14284634663E+02
 0.10533775365E+02 0.10026254158E+02 0.86539144120E+01 0.76187149556E+01 0.86539144120E+01
 0.10026254158E+02 0.10533775365E+02 0.14284634663E+02 0.26308328504E+02 0.45298043796E+02
 0.72581610456E+02 0.11026384893E+03 0.16035624358E+03 0.22089669177E+03 0.27582416317E+03
 0.27677872323E+03 0.25566916397E+03 0.20500511958E+03 0.14922545016E+03 0.10310065793E+03
 0.68395345179E+02 0.43193756892E+02 0.25363080745E+02 0.14114733899E+02 0.10748911891E+02
 0.10441079073E+02 0.93255222743E+01 0.84353306693E+01 0.93255222743E+01 0.10441079073E+02
 0.10748911891E+02 0.14114733899E+02 0.25363080745E+02 0.43193756892E+02 0.68395345179E+02
 0.10310065793E+03 0.14922545016E+03 0.20500511958E+03 0.25566916397E+03 0.22284846086E+03
 0.20614424662E+03 0.16609502592E+03 0.12203249458E+03 0.85555176737E+02 0.58058346095E+02
 0.37893830779E+02 0.22897597235E+02 0.13667810642E+02 0.11148280462E+02 0.11170130109E+02
 0.10575236666E+02 0.10006430542E+02 0.10575236666E+02 0.11170130109E+02 0.11148280462E+02
 0.13667810642E+02 0.22897597235E+02 0.37893830779E+02 0.58058346095E+02 0.85555176737E+02
 0.12203249458E+03 0.16609502592E+03 0.20614424662E+03 0.16125248943E+03 0.14970829971E+03
 0.12196327642E+03 0.91228876028E+02 0.65526183284E+02 0.46038650579E+02 0.31434533164E+02
 0.19939869628E+02 0.13446900782E+02 0.11929562857E+02 0.12253673065E+02 0.12216381885E+02
 0.12010669941E+02 0.12216381885E+02 0.12253673065E+02 0.11929562857E+02 0.13446900782E+02
 0.19939869628E+02 0.31434533164E+02 0.46038650579E+02 0.65526183284E+02 0.91228876028E+02
 0.12196327642E+03 0.14970829971E+03 0.10948676867E+03 0.10232217635E+03 0.84930563738E+02
 0.65260283255E+02 0.48413496778E+02 0.35456135931E+02 0.25292539515E+02 0.17894230234E+02
 0.14680074894E+02 0.14746612410E+02 0.15970236657E+02 0.16865756845E+02 0.17133185090E+02
 0.16865756845E+02 0.15970236657E+02 0.14746612410E+02 0.14680074894E+02 0.17894230234E+02
 0.25292539515E+02 0.35456135931E+02 0.48413496778E+02 0.65260283255E+02 0.84930563738E+02
 0.10232217635E+03 0.71618675619E+02 0.67554989595E+02 0.57519824697E+02 0.45794727142E+02
 0.35365457184E+02 0.26963199659E+02 0.20799094792E+02 0.18043060366E+02 0.18625236518E+02
 0.21317567244E+02 0.24658455940E+02 0.27338488314E+02 0.28359349509E+02 0.27338488314E+02
 0.24658455940E+02 0.21317567244E+02 0.18625236518E+02 0.18043060366E+02 0.20799094792E+02
 0.26963199659E+02 0.35365457184E+02 0.45794727142E+02 0.57519824697E+02 0.67554989595E+02
 0.44976054733E+02 0.42897075484E+02 0.37642641315E+02 0.31210613736E+02 0.25107115065E+02
 0.20686604196E+02 0.19206507893E+02 0.20972523785E+02 0.25448353717E+02 0.31836414031E+02
 0.38703738956E+02 0.44091907550E+02 0.46148655845E+02 0.44091907550E+02 0.38703738956E+02
 0.31836414031E+02 0.25448353717E+02 0.20972523785E+02 0.19206507893E+02 0.20686604196E+02
 0.25107115065E+02 0.31210613736E+02 0.37642641315E+02 0.42897075484E+02 0.26117638613E+02
 0.25135563924E+02 0.22597746978E+02 0.19599635403E+02 0.17569944444E+02 0.17775421657E+02
 0.20804431068E+02 0.26567256361E+02 0.34936512710E+02 0.45007907954E+02 0.55037891945E+02
 0.62629400779E+02 0.65485286445E+02 0.62629400779E+02 0.55037891945E+02 0.45007907954E+02
 0.34936512710E+02 0.26567256361E+02 0.20804431068E+02 0.17775421657E+02 0.17569944444E+02
 0.19599635403E+02 0.22597746978E+02 0.25135563924E+02 0.13820025052E+02 0.13605012578E+02
 0.13083766204E+02 0.12855252824E+02 0.14151564935E+02 0.18169152536E+02 0.25062330741E+02
 0.34662341755E+02 0.46162426337E+02 0.58345094386E+02 0.69754991950E+02 0.78254357670E+02
 0.81453879349E+02 0.78254357670E+02 0.69754991950E+02 0.58345094386E+02 0.46162426337E+02
 0.34662341755E+02 0.25062330741E+02 0.18169152536E+02 0.14151564935E+02 0.12855252824E+02
 0.13083766204E+02 0.13605012578E+02 0.96041506018E+01 0.97806637352E+01 0.10151935217E+02
 0.11033379883E+02 0.14027112296E+02 0.20708039730E+02 0.31199262919E+02 0.44372336016E+02
 0.58026832723E+02 0.71007776874E+02 0.82921633630E+02 0.92124771613E+02 0.95704764136E+02
 0.92124771613E+02 0.82921633630E+02 0.71007776874E+02 0.58026832723E+02 0.44372336016E+02
 0.31199262919E+02 0.20708039730E+02 0.14027112296E+02 0.11033379883E+02 0.10151935217E+02
 0.97806637352E+01 0.88505239342E+01 0.92191637745E+01 0.99363959211E+01 0.11201486574E+02
 0.15187560161E+02 0.23985068542E+02 0.37834704887E+02 0.54108518576E+02 0.69425161620E+02
 0.83282538174E+02 0.96647189101E+02 0.10783606690E+03 0.11239624926E+03 0.10783606690E+03
 0.96647189101E+02 0.83282538174E+02 0.69425161620E+02 0.54108518576E+02 0.37834704887E+02
 0.23985068542E+02 0.15187560161E+02 0.11201486574E+02 0.99363959211E+01 0.92191637745E+01
 0.75728758086E+01 0.81707611619E+01 0.93687839681E+01 0.11196538469E+02 0.16140554046E+02
 0.26672937515E+02 0.43074209215E+02 0.61581919303E+02 0.78249433829E+02 0.93442067660E+02
 0.10916575933E+03 0.12315555347E+03 0.12901294881E+03 0.12315555347E+03 0.10916575933E+03
 0.93442067660E+02 0.78249433829E+02 0.61581919303E+02 0.43074209215E+02 0.26672937515E+02
 0.16140554046E+02 0.11196538469E+02 0.93687839681E+01 0.81707611619E+01 0.66473539411E+01
 0.73739454745E+01 0.88638664951E+01 0.11040477320E+02 0.16454166967E+02 0.27708714394E+02
 0.45083440296E+02 0.64423858057E+02 0.81658361775E+02 0.97553999122E+02 0.11449037301E+03
 0.12984853978E+03 0.13632521104E+03 0.12984853978E+03 0.11449037301E+03 0.97553999122E+02
 0.81658361775E+02 0.64423858057E+02 0.45083440296E+02 0.27708714394E+02 0.16454166967E+02
 0.11040477320E+02 0.88638664951E+01 0.73739454745E+01 0.75728758086E+01 0.81707611619E+01
 0.93687839681E+01 0.11196538469E+02 0.16140554046E+02 0.26672937515E+02 0.43074209215E+02
 0.61581919303E+02 0.78249433829E+02 0.93442067660E+02 0.10916575933E+03 0.12315555347E+03
 0.12901294881E+03 0.12315555347E+03 0.10916575933E+03 0.93442067660E+02 0.78249433829E+02
 0.61581919303E+02 0.43074209215E+02 0.26672937515E+02 0.16140554046E+02 0.11196538469E+02
 0.93687839681E+01 0.81707611619E+01 0.88505239342E+01 0.92191637745E+01 0.99363959211E+01
 0.11201486574E+02 0.15187560161E+02 0.23985068542E+02 0.37834704887E+02 0.54108518576E+02
 0.69425161620E+02 0.83282538174E+02 0.96647189101E+02 0.10783606690E+03 0.11239624926E+03
 0.10783606690E+03 0.96647189101E+02 0.83282538174E+02 0.69425161620E+02 0.54108518576E+02
 0.37834704887E+02 0.23985068542E+02 0.15187560161E+02 0.11201486574E+02 0.99363959211E+01
 0.92191637745E+01 0.96041506018E+01 0.97806637352E+01 0.10151935217E+02 0.11033379883E+02
 0.14027112296E+02 0.20708039730E+02 0.31199262919E+02 0.44372336016E+02 0.58026832723E+02
 0.71007776874E+02 0.82921633630E+02 0.92124771613E+02 0.95704764136E+02 0.92124771613E+02
 0.82921633630E+02 0.71007776874E+02 0.58026832723E+02 0.44372336016E+02 0.31199262919E+02
 0.20708039730E+02 0.14027112296E+02 0.11033379883E+02 0.10151935217E+02 0.97806637352E+01
 0.13820025052E+02 0.13605012578E+02 0.13083766204E+02 0.12855252824E+02 0.14151564935E+02
 0.18169152536E+02 0.25062330741E+02 0.34662341755E+02 0.46162426337E+02 0.58345094386E+02
 0.69754991950E+02 0.78254357670E+02 0.81453879349E+02 0.78254357670E+02 0.69754991950E+02
 0.58345094386E+02 0.46162426337E+02 0.34662341755E+02 0.25062330741E+02 0.18169152536E+02
 0.14151564935E+02 0.12855252824E+02 0.13083766204E+02 0.13605012578E+02 0.26117638613E+02
 0.25135563924E+02 0.22597746978E+02 0.19599635403E+02 0.17569944444E+02 0.17775421657E+02
 0.20804431068E+02 0.26567256361E+02 0.34936512710E+02 0.45007907954E+02 0.55037891945E+02
 0.62629400779E+02 0.65485286445E+02 0.62629400779E+02 0.55037891945E+02 0.45007907954E+02
 0.34936512710E+02 0.26567256361E+02 0.20804431068E+02 0.17775421657E+02 0.17569944444E+02
 0.19599635403E+02 0.22597746978E+02 0.25135563924E+02 0.44976054733E+02 0.42897075484E+02
 0.37642641315E+02 0.31210613736E+02 0.25107115065E+02 0.20686604196E+02 0.19206507893E+02
 0.20972523785E+02 0.25448353717E+02 0.31836414031E+02 0.38703738956E+02 0.44091907550E+02
 0.46148655845E+02 0.44091907550E+02 0.38703738956E+02 0.31836414031E+02 0.25448353717E+02
 0.20972523785E+02 0.19206507893E+02 0.20686604196E+02 0.25107115065E+02 0.31210613736E+02
 0.37642641315E+02 0.42897075484E+02 0.71618675619E+02 0.67554989595E+02 0.57519824697E+02
 0.45794727142E+02 0.35365457184E+02 0.26963199659E+02 0.20799094792E+02 0.18043060366E+02
 0.18625236518E+02 0.21317567244E+02 0.24658455940E+02 0.27338488314E+02 0.28359349509E+02
 0.27338488314E+02 0.24658455940E+02 0.21317567244E+02 0.18625236518E+02 0.18043060366E+02
 0.20799094792E+02 0.26963199659E+02 0.35365457184E+02 0.45794727142E+02 0.57519824697E+02
 0.67554989595E+02 0.10948676867E+03 0.10232217635E+03 0.84930563738E+02 0.65260283255E+02
 0.48413496778E+02 0.35456135931E+02 0.25292539515E+02 0.17894230234E+02 0.14680074894E+02
 0.14746612410E+02 0.15970236657E+02 0.16865756845E+02 0.17133185090E+02 0.16865756845E+02
 0.15970236657E+02 0.14746612410E+02 0.14680074894E+02 0.17894230234E+02 0.25292539515E+02
 0.35456135931E+02 0.48413496778E+02 0.65260283255E+02 0.84930563738E+02 0.10232217635E+03
 0.16125248943E+03 0.14970829971E+03 0.12196327642E+03 0.91228876028E+02 0.65526183284E+02
 0.46038650579E+02 0.31434533164E+02 0.19939869628E+02 0.13446900782E+02 0.11929562857E+02
 0.12253673065E+02 0.12216381885E+02 0.12010669941E+02 0.12216381885E+02 0.12253673065E+02
 0.11929562857E+02 0.13446900782E+02 0.19939869628E+02 0.31434533164E+02 0.46038650579E+02
 0.65526183284E+02 0.91228876028E+02 0.12196327642E+03 0.14970829971E+03 0.22284846086E+03
 0.20614424662E+03 0.16609502592E+03 0.12203249458E+03 0.85555176737E+02 0.58058346095E+02
 0.37893830779E+02 0.22897597235E+02 0.13667810642E+02 0.11148280462E+02 0.11170130109E+02
 0.10575236666E+02 0.10006430542E+02 0.10575236666E+02 0.11170130109E+02 0.11148280462E+02
 0.13667810642E+02 0.22897597235E+02 0.37893830779E+02 0.58058346095E+02 0.85555176737E+02
 0.12203249458E+03 0.16609502592E+03 0.20614424662E+03 0.27677872323E+03 0.25566916397E+03
 0.20500511958E+03 0.14922545016E+03 0.10310065793E+03 0.68395345179E+02 0.43193756892E+02
 0.25363080745E+02 0.14114733899E+02 0.10748911891E+02 0.10441079073E+02 0.93255222743E+01
 0.84353306693E+01 0.93255222743E+01 0.10441079073E+02 0.10748911891E+02 0.14114733899E+02
 0.25363080745E+02 0.43193756892E+02 0.68395345179E+02 0.10310065793E+03 0.14922545016E+03
 0.20500511958E+03 0.25566916397E+03 0.23896931069E+03 0.22123511147E+03 0.17853151767E+03
 0.13112972214E+03 0.91448197556E+02 0.61366771974E+02 0.39489109775E+02 0.23611690832E+02
 0.13773975517E+02 0.11037921929E+02 0.11016173458E+02 0.10320872770E+02 0.96804100327E+01
 0.10320872770E+02 0.11016173458E+02 0.11037921929E+02 0.13773975517E+02 0.23611690832E+02
 0.39489109775E+02 0.61366771974E+02 0.91448197556E+02 0.13112972214E+03 0.17853151767E+03
 0.22123511147E+03 0.22333438525E+03 0.20684736518E+03 0.16715185432E+03 0.12308648595E+03
 0.86186997620E+02 0.58218241237E+02 0.37824231981E+02 0.22800996494E+02 0.13622610667E+02
 0.11178313086E+02 0.11275455292E+02 0.10741950955E+02 0.10198030251E+02 0.10741950955E+02
 0.11275455292E+02 0.11178313086E+02 0.13622610667E+02 0.22800996494E+02 0.37824231981E+02
 0.58218241237E+02 0.86186997620E+02 0.12308648595E+03 0.16715185432E+03 0.20684736518E+03
 0.18400680413E+03 0.17070898139E+03 0.13866792699E+03 0.10301382862E+03 0.73052360331E+02
 0.50308798610E+02 0.33536157734E+02 0.20683563956E+02 0.13217218576E+02 0.11421199800E+02
 0.11700136802E+02 0.11489983367E+02 0.11160037567E+02 0.11489983367E+02 0.11700136802E+02
 0.11421199800E+02 0.13217218576E+02 0.20683563956E+02 0.33536157734E+02 0.50308798610E+02
 0.73052360331E+02 0.10301382862E+03 0.13866792699E+03 0.17070898139E+03 0.13701523434E+03
 0.12760702111E+03 0.10483655725E+03 0.79241875434E+02 0.57460855066E+02 0.40784493220E+02
 0.28063495884E+02 0.18142201795E+02 0.12970423806E+02 0.11964965883E+02 0.12434715157E+02
 0.12598831476E+02 0.12522221446E+02 0.12598831476E+02 0.12434715157E+02 0.11964965883E+02
 0.12970423806E+02 0.18142201795E+02 0.28063495884E+02 0.40784493220E+02 0.57460855066E+02
 0.79241875434E+02 0.10483655725E+03 0.12760702111E+03 0.95010488754E+02 0.89084418043E+02
 0.74588858574E+02 0.57941834665E+02 0.43401529506E+02 0.31945337835E+02 0.22700663421E+02
 0.16403988385E+02 0.13930016656E+02 0.14210018047E+02 0.15417331936E+02 0.16321748243E+02
 0.16613136508E+02 0.16321748243E+02 0.15417331936E+02 0.14210018047E+02 0.13930016656E+02
 0.16403988385E+02 0.22700663421E+02 0.31945337835E+02 0.43401529506E+02 0.57941834665E+02
 0.74588858574E+02 0.89084418043E+02 0.62679190286E+02 0.59322734719E+02 0.50978072258E+02
 0.41081716189E+02 0.32023335892E+02 0.24372568039E+02 0.18911316729E+02 0.16619739306E+02
 0.17266382852E+02 0.19718548770E+02 0.22645213472E+02 0.24954628990E+02 0.25829540606E+02
 0.24954628990E+02 0.22645213472E+02 0.19718548770E+02 0.17266382852E+02 0.16619739306E+02
 0.18911316729E+02 0.24372568039E+02 0.32023335892E+02 0.41081716189E+02 0.50978072258E+02
 0.59322734719E+02 0.39524558523E+02 0.37794463666E+02 0.33385332918E+02 0.27863524365E+02
 0.22558030573E+02 0.18853218535E+02 0.17721998138E+02 0.19366415547E+02 0.23251549962E+02
 0.28642752064E+02 0.34371762778E+02 0.38831857245E+02 0.40526860984E+02 0.38831857245E+02
 0.34371762778E+02 0.28642752064E+02 0.23251549962E+02 0.19366415547E+02 0.17721998138E+02
 0.18853218535E+02 0.22558030573E+02 0.27863524365E+02 0.33385332918E+02 0.37794463666E+02
 0.22797647570E+02 0.21941402211E+02 0.19773631415E+02 0.17323776929E+02 0.15839852693E+02
 0.16347478698E+02 0.19295402207E+02 0.24476483017E+02 0.31703184590E+02 0.40246286194E+02
 0.48624123299E+02 0.54879957734E+02 0.57214833656E+02 0.54879957734E+02 0.48624123299E+02
 0.40246286194E+02 0.31703184590E+02 0.24476483017E+02 0.19295402207E+02 0.16347478698E+02
 0.15839852693E+02 0.17323776929E+02 0.19773631415E+02 0.21941402211E+02 0.12462116014E+02
 0.12249109076E+02 0.11760648096E+02 0.11595846853E+02 0.12869780115E+02 0.16653727481E+02
 0.23062081389E+02 0.31767128523E+02 0.42077844978E+02 0.52751260097E+02 0.62380515263E+02
 0.69298976575E+02 0.71850002677E+02 0.69298976575E+02 0.62380515263E+02 0.52751260097E+02
 0.42077844978E+02 0.31767128523E+02 0.23062081389E+02 0.16653727481E+02 0.12869780115E+02
 0.11595846853E+02 0.11760648096E+02 0.12249109076E+02 0.95682772790E+01 0.96190607354E+01
 0.97068966812E+01 0.10248531043E+02 0.12762507218E+02 0.18782524879E+02 0.28347473231E+02
 0.40582514198E+02 0.53423417538E+02 0.65225967852E+02 0.75205589913E+02 0.82321503884E+02
 0.84974486775E+02 0.82321503884E+02 0.75205589913E+02 0.65225967852E+02 0.53423417538E+02
 0.40582514198E+02 0.28347473231E+02 0.18782524879E+02 0.12762507218E+02 0.10248531043E+02
 0.97068966812E+01 0.96190607354E+01 0.97160167302E+01 0.98543120987E+01 0.10042973144E+02
 0.10670767867E+02 0.13827365695E+02 0.21551222580E+02 0.34088586457E+02 0.49523041604E+02
 0.64494832164E+02 0.77339339896E+02 0.88120191811E+02 0.96131551376E+02 0.99223841758E+02
 0.96131551376E+02 0.88120191811E+02 0.77339339896E+02 0.64494832164E+02 0.49523041604E+02
 0.34088586457E+02 0.21551222580E+02 0.13827365695E+02 0.10670767867E+02 0.10042973144E+02
 0.98543120987E+01 0.93496622515E+01 0.96206676844E+01 0.10061100417E+02 0.10974447150E+02
 0.14782817724E+02 0.23864029747E+02 0.38669488185E+02 0.56441574501E+02 0.73068221650E+02
 0.87123180192E+02 0.99321351693E+02 0.10884982997E+03 0.11263425898E+03 0.10884982997E+03
 0.99321351693E+02 0.87123180192E+02 0.73068221650E+02 0.56441574501E+02 0.38669488185E+02
 0.23864029747E+02 0.14782817724E+02 0.10974447150E+02 0.10061100417E+02 0.96206676844E+01
 0.88764473964E+01 0.92313948020E+01 0.98556620009E+01 0.10986586592E+02 0.15127075574E+02
 0.24767862474E+02 0.40438037492E+02 0.59082445829E+02 0.76369341548E+02 0.91014527886E+02
 0.10396533593E+03 0.11427661281E+03 0.11840977424E+03 0.11427661281E+03 0.10396533593E+03
 0.91014527886E+02 0.76369341548E+02 0.59082445829E+02 0.40438037492E+02 0.24767862474E+02
 0.15127075574E+02 0.10986586592E+02 0.98556620009E+01 0.92313948020E+01 0.93496622515E+01
 0.96206676844E+01 0.10061100417E+02 0.10974447150E+02 0.14782817724E+02 0.23864029747E+02
 0.38669488185E+02 0.56441574501E+02 0.73068221650E+02 0.87123180192E+02 0.99321351693E+02
 0.10884982997E+03 0.11263425898E+03 0.10884982997E+03 0.99321351693E+02 0.87123180192E+02
 0.73068221650E+02 0.56441574501E+02 0.38669488185E+02 0.23864029747E+02 0.14782817724E+02
 0.10974447150E+02 0.10061100417E+02 0.96206676844E+01 0.97160167302E+01 0.98543120987E+01
 0.10042973144E+02 0.10670767867E+02 0.13827365695E+02 0.21551222580E+02 0.34088586457E+02
 0.49523041604E+02 0.64494832164E+02 0.77339339896E+02 0.88120191811E+02 0.96131551376E+02
 0.99223841758E+02 0.96131551376E+02 0.88120191811E+02 0.77339339896E+02 0.64494832164E+02
 0.49523041604E+02 0.34088586457E+02 0.21551222580E+02 0.13827365695E+02 0.10670767867E+02
 0.10042973144E+02 0.98543120987E+01 0.95682772790E+01 0.96190607354E+01 0.97068966812E+01
 0.10248531043E+02 0.12762507218E+02 0.18782524879E+02 0.28347473231E+02 0.40582514198E+02
 0.53423417538E+02 0.65225967852E+02 0.75205589913E+02 0.82321503884E+02 0.84974486775E+02
 0.82321503884E+02 0.75205589913E+02 0.65225967852E+02 0.53423417538E+02 0.40582514198E+02
 0.28347473231E+02 0.18782524879E+02 0.12762507218E+02 0.10248531043E+02 0.97068966812E+01
 0.96190607354E+01 0.12462116014E+02 0.12249109076E+02 0.11760648096E+02 0.11595846853E+02
 0.12869780115E+02 0.16653727481E+02 0.23062081389E+02 0.31767128523E+02 0.42077844978E+02
 0.52751260097E+02 0.62380515263E+02 0.69298976575E+02 0.71850002677E+02 0.69298976575E+02
 0.62380515263E+02 0.52751260097E+02 0.42077844978E+02 0.31767128523E+02 0.23062081389E+02
 0.16653727481E+02 0.12869780115E+02 0.11595846853E+02 0.11760648096E+02 0.12249109076E+02
 0.22797647570E+02 0.21941402211E+02 0.19773631415E+02 0.17323776929E+02 0.15839852693E+02
 0.16347478698E+02 0.19295402207E+02 0.24476483017E+02 0.31703184590E+02 0.40246286194E+02
 0.48624123299E+02 0.54879957734E+02 0.57214833656E+02 0.54879957734E+02 0.48624123299E+02
 0.40246286194E+02 0.31703184590E+02 0.24476483017E+02 0.19295402207E+02 0.16347478698E+02
 0.15839852693E+02 0.17323776929E+02 0.19773631415E+02 0.21941402211E+02 0.39524558523E+02
 0.37794463666E+02 0.33385332918E+02 0.27863524365E+02 0.22558030573E+02 0.18853218535E+02
 0.17721998138E+02 0.19366415547E+02 0.23251549962E+02 0.28642752064E+02 0.34371762778E+02
 0.38831857245E+02 0.40526860984E+02 0.38831857245E+02 0.34371762778E+02 0.28642752064E+02
 0.23251549962E+02 0.19366415547E+02 0.17721998138E+02 0.18853218535E+02 0.22558030573E+02
 0.27863524365E+02 0.33385332918E+02 0.37794463666E+02 0.62679190286E+02 0.59322734719E+02
 0.50978072258E+02 0.41081716189E+02 0.32023335892E+02 0.24372568039E+02 0.18911316729E+02
 0.16619739306E+02 0.17266382852E+02 0.19718548770E+02 0.22645213472E+02 0.24954628990E+02
 0.25829540606E+02 0.24954628990E+02 0.22645213472E+02 0.19718548770E+02 0.17266382852E+02