   4   4   0   0
  0.1444527E+02  0.3866000E-09  0.3866000E-09  0.3866000E-09  0.5000000E-15
  1.000000000000000E-004
  CAR 
 unknown system                          
     27.74053014     -1.81703279  301      9.48905504      1.00000000
     -1.817  0.0000E+00  0.0000E+00
     -1.719  0.0000E+00  0.0000E+00
     -1.620  0.0000E+00  0.0000E+00
     -1.521  0.0000E+00  0.0000E+00
     -1.423 -0.3677E-28 -0.3623E-29
     -1.324 -0.7381E-25 -0.7276E-26
     -1.226 -0.9082E-22 -0.8955E-23
     -1.127 -0.6843E-19 -0.6751E-20
     -1.029 -0.3154E-16 -0.3114E-17
     -0.930 -0.8605E-14 -0.8509E-15
     -0.832 -0.1469E-11 -0.1455E-12
     -0.733 -0.1523E-09 -0.1515E-10
     -0.635 -0.9550E-08 -0.9561E-09
     -0.536 -0.3597E-06 -0.3640E-07
     -0.438 -0.8048E-05 -0.8293E-06
     -0.339 -0.1047E-03 -0.1114E-04
     -0.241 -0.7575E-03 -0.8577E-04
     -0.142 -0.2686E-02 -0.3504E-03
     -0.044 -0.1965E-02 -0.5440E-03
      0.055  0.1567E-01  0.9994E-03
      0.153  0.5033E-01  0.5958E-02
      0.252  0.6003E-01  0.1187E-01
      0.351  0.2134E-01  0.1398E-01
      0.449 -0.5050E-02  0.1348E-01
      0.548  0.8585E-01  0.2194E-01
      0.646  0.2883E+00  0.5034E-01
      0.745  0.3662E+00  0.8643E-01
      0.843  0.1914E+00  0.1053E+00
      0.942  0.6064E-01  0.1113E+00
      1.040  0.3020E+00  0.1410E+00
      1.139  0.6961E+00  0.2096E+00
      1.237  0.6710E+00  0.2757E+00
      1.336  0.3069E+00  0.3059E+00
      1.434  0.2285E+00  0.3285E+00
      1.533  0.4540E+00  0.3732E+00
      1.631  0.4953E+00  0.4220E+00
      1.730  0.2864E+00  0.4502E+00
      1.828  0.1144E+00  0.4615E+00
      1.927  0.1102E+00  0.4723E+00
      2.025  0.2208E+00  0.4941E+00
      2.124  0.3536E+00  0.5289E+00
      2.223  0.5231E+00  0.5805E+00
      2.321  0.8792E+00  0.6671E+00
      2.420  0.1574E+01  0.8222E+00
      2.518  0.2312E+01  0.1050E+01
      2.617  0.2553E+01  0.1302E+01
      2.715  0.2091E+01  0.1508E+01
      2.814  0.1253E+01  0.1631E+01
      2.912  0.9295E+00  0.1723E+01
      3.011  0.1577E+01  0.1878E+01
      3.109  0.2585E+01  0.2133E+01
      3.208  0.3290E+01  0.2457E+01
      3.306  0.3882E+01  0.2839E+01
      3.405  0.5014E+01  0.3333E+01
      3.503  0.6502E+01  0.3974E+01
      3.602  0.7383E+01  0.4701E+01
      3.700  0.7558E+01  0.5446E+01
      3.799  0.7564E+01  0.6191E+01
      3.897  0.7670E+01  0.6947E+01
      3.996  0.7689E+01  0.7705E+01
      4.094  0.7508E+01  0.8444E+01
      4.193  0.7735E+01  0.9206E+01
      4.292  0.8428E+01  0.1004E+02
      4.390  0.9054E+01  0.1093E+02
      4.489  0.9506E+01  0.1187E+02
      4.587  0.9332E+01  0.1278E+02
      4.686  0.8687E+01  0.1364E+02
      4.784  0.9098E+01  0.1454E+02
      4.883  0.1048E+02  0.1557E+02
      4.981  0.1075E+02  0.1663E+02
      5.080  0.9978E+01  0.1761E+02
      5.178  0.9611E+01  0.1856E+02
      5.277  0.8485E+01  0.1939E+02
      5.375  0.6353E+01  0.2002E+02
      5.474  0.5164E+01  0.2053E+02
      5.572  0.4746E+01  0.2100E+02
      5.671  0.4798E+01  0.2147E+02
      5.769  0.6559E+01  0.2212E+02
      5.868  0.8824E+01  0.2299E+02
      5.966  0.9173E+01  0.2389E+02
      6.065  0.8049E+01  0.2468E+02
      6.164  0.7209E+01  0.2539E+02
      6.262  0.7132E+01  0.2609E+02
      6.361  0.6984E+01  0.2678E+02
      6.459  0.6168E+01  0.2739E+02
      6.558  0.5154E+01  0.2790E+02
      6.656  0.4312E+01  0.2832E+02
      6.755  0.3783E+01  0.2870E+02
      6.853  0.3906E+01  0.2908E+02
      6.952  0.4349E+01  0.2951E+02
      7.050  0.4348E+01  0.2994E+02
      7.149  0.3936E+01  0.3033E+02
      7.247  0.3793E+01  0.3070E+02
      7.346  0.4362E+01  0.3113E+02
      7.444  0.5237E+01  0.3165E+02
      7.543  0.5159E+01  0.3215E+02
      7.641  0.3883E+01  0.3254E+02
      7.740  0.3148E+01  0.3285E+02
      7.838  0.3789E+01  0.3322E+02
      7.937  0.4522E+01  0.3366E+02
      8.035  0.4477E+01  0.3411E+02
      8.134  0.4311E+01  0.3453E+02
      8.233  0.4406E+01  0.3496E+02
      8.331  0.4746E+01  0.3543E+02
      8.430  0.5449E+01  0.3597E+02
      8.528  0.5458E+01  0.3651E+02
      8.627  0.4135E+01  0.3691E+02
      8.725  0.3010E+01  0.3721E+02
      8.824  0.3318E+01  0.3754E+02
      8.922  0.4155E+01  0.3795E+02
      9.021  0.4288E+01  0.3837E+02
      9.119  0.3750E+01  0.3874E+02
      9.218  0.3158E+01  0.3905E+02
      9.316  0.3059E+01  0.3935E+02
      9.415  0.3490E+01  0.3970E+02
      9.513  0.4207E+01  0.4011E+02
      9.612  0.5043E+01  0.4061E+02
      9.710  0.5179E+01  0.4112E+02
      9.809  0.4303E+01  0.4154E+02
      9.907  0.3427E+01  0.4188E+02
     10.006  0.2843E+01  0.4216E+02
     10.105  0.2200E+01  0.4238E+02
     10.203  0.1767E+01  0.4255E+02
     10.302  0.1749E+01  0.4272E+02
     10.400  0.1801E+01  0.4290E+02
     10.499  0.1763E+01  0.4307E+02
     10.597  0.2020E+01  0.4327E+02
     10.696  0.2277E+01  0.4350E+02
     10.794  0.1682E+01  0.4366E+02
     10.893  0.7676E+00  0.4374E+02
     10.991  0.5727E+00  0.4379E+02
     11.090  0.8632E+00  0.4388E+02
     11.188  0.9873E+00  0.4398E+02
     11.287  0.1062E+01  0.4408E+02
     11.385  0.1412E+01  0.4422E+02
     11.484  0.1651E+01  0.4438E+02
     11.582  0.1242E+01  0.4451E+02
     11.681  0.5437E+00  0.4456E+02
     11.779  0.2497E+00  0.4458E+02
     11.878  0.4914E+00  0.4463E+02
     11.976  0.7786E+00  0.4471E+02
     12.075  0.5768E+00  0.4477E+02
     12.174  0.1502E+00  0.4478E+02
     12.272  0.1431E+00  0.4479E+02
     12.371  0.6831E+00  0.4486E+02
     12.469  0.1410E+01  0.4500E+02
     12.568  0.1937E+01  0.4519E+02
     12.666  0.2022E+01  0.4539E+02
     12.765  0.1912E+01  0.4558E+02
     12.863  0.1970E+01  0.4577E+02
     12.962  0.1689E+01  0.4594E+02
     13.060  0.9866E+00  0.4604E+02
     13.159  0.6787E+00  0.4610E+02
     13.257  0.8671E+00  0.4619E+02
     13.356  0.1273E+01  0.4631E+02
     13.454  0.1903E+01  0.4650E+02
     13.553  0.2253E+01  0.4672E+02
     13.651  0.1739E+01  0.4690E+02
     13.750  0.9451E+00  0.4699E+02
     13.848  0.7708E+00  0.4706E+02
     13.947  0.9185E+00  0.4715E+02
     14.046  0.6572E+00  0.4722E+02
     14.144  0.1733E+00  0.4724E+02
     14.243 -0.2180E-01  0.4723E+02
     14.341  0.1163E+00  0.4725E+02
     14.440  0.3876E+00  0.4728E+02
     14.538  0.5651E+00  0.4734E+02
     14.637  0.5559E+00  0.4739E+02
     14.735  0.6924E+00  0.4746E+02
     14.834  0.1319E+01  0.4759E+02
     14.932  0.1997E+01  0.4779E+02
     15.031  0.1945E+01  0.4798E+02
     15.129  0.1321E+01  0.4811E+02
     15.228  0.1084E+01  0.4822E+02
     15.326  0.1523E+01  0.4837E+02
     15.425  0.1974E+01  0.4856E+02
     15.523  0.1771E+01  0.4874E+02
     15.622  0.1022E+01  0.4884E+02
     15.720  0.5272E+00  0.4889E+02
     15.819  0.8928E+00  0.4898E+02
     15.918  0.1785E+01  0.4915E+02
     16.016  0.2197E+01  0.4937E+02
     16.115  0.1628E+01  0.4953E+02
     16.213  0.6737E+00  0.4960E+02
     16.312  0.1766E+00  0.4961E+02
     16.410  0.3334E+00  0.4965E+02
     16.509  0.6892E+00  0.4971E+02
     16.607  0.7502E+00  0.4979E+02
     16.706  0.4653E+00  0.4983E+02
     16.804  0.2183E+00  0.4986E+02
     16.903  0.4603E+00  0.4990E+02
     17.001  0.1136E+01  0.5001E+02
     17.100  0.1589E+01  0.5017E+02
     17.198  0.1401E+01  0.5031E+02
     17.297  0.1091E+01  0.5042E+02
     17.395  0.1357E+01  0.5055E+02
     17.494  0.1858E+01  0.5073E+02
     17.592  0.1925E+01  0.5092E+02
     17.691  0.1950E+01  0.5111E+02
     17.789  0.2428E+01  0.5135E+02
     17.888  0.2625E+01  0.5161E+02
     17.987  0.1884E+01  0.5180E+02
     18.085  0.9601E+00  0.5189E+02
     18.184  0.6494E+00  0.5196E+02
     18.282  0.8828E+00  0.5204E+02
     18.381  0.1298E+01  0.5217E+02
     18.479  0.1435E+01  0.5231E+02
     18.578  0.1142E+01  0.5242E+02
     18.676  0.8405E+00  0.5251E+02
     18.775  0.8918E+00  0.5260E+02
     18.873  0.1062E+01  0.5270E+02
     18.972  0.8743E+00  0.5279E+02
     19.070  0.4314E+00  0.5283E+02
     19.169  0.3376E+00  0.5286E+02
     19.267  0.6522E+00  0.5293E+02
     19.366  0.8520E+00  0.5301E+02
     19.464  0.9424E+00  0.5310E+02
     19.563  0.1319E+01  0.5323E+02
     19.661  0.1816E+01  0.5341E+02
     19.760  0.2017E+01  0.5361E+02
     19.859  0.1915E+01  0.5380E+02
     19.957  0.1848E+01  0.5398E+02
     20.056  0.1902E+01  0.5417E+02
     20.154  0.2091E+01  0.5438E+02
     20.253  0.2567E+01  0.5463E+02
     20.351  0.2973E+01  0.5492E+02
     20.450  0.2804E+01  0.5520E+02
     20.548  0.2017E+01  0.5540E+02
     20.647  0.9950E+00  0.5549E+02
     20.745  0.3106E+00  0.5552E+02
     20.844  0.2594E+00  0.5555E+02
     20.942  0.6391E+00  0.5561E+02
     21.041  0.1182E+01  0.5573E+02
     21.139  0.1889E+01  0.5592E+02
     21.238  0.2606E+01  0.5617E+02
     21.336  0.2759E+01  0.5644E+02
     21.435  0.2209E+01  0.5666E+02
     21.533  0.1457E+01  0.5681E+02
     21.632  0.1002E+01  0.5690E+02
     21.730  0.1227E+01  0.5703E+02
     21.829  0.1829E+01  0.5721E+02
     21.928  0.2001E+01  0.5740E+02
     22.026  0.1860E+01  0.5759E+02
     22.125  0.2010E+01  0.5778E+02
     22.223  0.2355E+01  0.5802E+02
     22.322  0.2389E+01  0.5825E+02
     22.420  0.1950E+01  0.5844E+02
     22.519  0.1363E+01  0.5858E+02
     22.617  0.1054E+01  0.5868E+02
     22.716  0.1093E+01  0.5879E+02
     22.814  0.1058E+01  0.5889E+02
     22.913  0.6711E+00  0.5896E+02
     23.011  0.3517E+00  0.5899E+02
     23.110  0.5256E+00  0.5905E+02
     23.208  0.8324E+00  0.5913E+02
     23.307  0.7315E+00  0.5920E+02
     23.405  0.4331E+00  0.5924E+02
     23.504  0.4159E+00  0.5928E+02
     23.602  0.4813E+00  0.5933E+02
     23.701  0.2907E+00  0.5936E+02
     23.800  0.5018E-01  0.5936E+02
     23.898 -0.2637E-01  0.5936E+02
     23.997 -0.1526E-01  0.5936E+02
     24.095 -0.4161E-02  0.5936E+02
     24.194 -0.8055E-02  0.5936E+02
     24.292 -0.3407E-01  0.5936E+02
     24.391 -0.5581E-01  0.5935E+02
     24.489  0.1115E+00  0.5936E+02
     24.588  0.6482E+00  0.5943E+02
     24.686  0.1200E+01  0.5954E+02
     24.785  0.1194E+01  0.5966E+02
     24.883  0.7014E+00  0.5973E+02
     24.982  0.2085E+00  0.5975E+02
     25.080 -0.1613E-01  0.5975E+02
     25.179 -0.4311E-01  0.5974E+02
     25.277 -0.3718E-01  0.5974E+02
     25.376 -0.3351E-01  0.5974E+02
     25.474  0.9327E-01  0.5975E+02
     25.573  0.4467E+00  0.5979E+02
     25.672  0.8104E+00  0.5987E+02
     25.770  0.8158E+00  0.5995E+02
     25.869  0.4570E+00  0.6000E+02
     25.967  0.9941E-01  0.6001E+02
     26.066 -0.3044E-01  0.6000E+02
     26.164 -0.2458E-01  0.6000E+02
     26.263 -0.6400E-02  0.6000E+02
     26.361 -0.8588E-03  0.6000E+02
     26.460 -0.6516E-04  0.6000E+02
     26.558 -0.2895E-05  0.6000E+02
     26.657 -0.7663E-07  0.6000E+02
     26.755 -0.1220E-08  0.6000E+02
     26.854 -0.1176E-10  0.6000E+02
     26.952 -0.6866E-13  0.6000E+02
     27.051 -0.2885E-15  0.6000E+02
     27.149  0.0000E+00  0.6000E+02
     27.248  0.0000E+00  0.6000E+02
     27.346  0.0000E+00  0.6000E+02
     27.445  0.0000E+00  0.6000E+02
     27.543  0.0000E+00  0.6000E+02
     27.642  0.0000E+00  0.6000E+02
     27.741  0.0000E+00  0.6000E+02
