    4    4    1    1
  0.1444527E+02  0.3866000E-09  0.3866000E-09  0.3866000E-09  0.5000000E-15
  1.000000000000000E-004
  CAR 
 unknown system                          
     40     27     30
 
  0.0000000E+00  0.0000000E+00  0.0000000E+00  0.8000000E-02
    1        0.182967   1.000000
    2        2.303611   1.000000
    3        3.259493   1.000000
    4        3.496259   1.000000
    5        3.549261   1.000000
    6        3.696084   1.000000
    7        3.842928   1.000000
    8        4.837157   1.000000
    9        4.987993   1.000000
   10        5.543585   1.000000
   11        6.467229   1.000000
   12        6.783589   1.000000
   13       10.057718  -0.000218
   14       10.668046  -0.000000
   15       10.745311  -0.000000
   16       10.810963  -0.000000
   17       11.003201  -0.000000
   18       11.048428  -0.000000
   19       11.285330  -0.000000
   20       11.435541  -0.000000
   21       11.468387  -0.000000
   22       11.471244  -0.000000
   23       11.911775  -0.000000
   24       12.448636  -0.000000
   25       17.388222   0.000000
   26       17.746405   0.000000
   27       19.431687   0.000000
   28       20.197466   0.000000
   29       20.400425   0.000000
   30       20.723149   0.000000
 
  0.2000000E+00  0.0000000E+00  0.0000000E+00  0.1600000E-01
    1        0.648545   1.000000
    2        2.679061   1.000000
    3        3.218808   1.000000
    4        3.507591   1.000000
    5        3.521922   1.000000
    6        3.556515   1.000000
    7        3.898313   1.000000
    8        3.990749   1.000000
    9        4.470800   1.000000
   10        4.585992   1.000000
   11        5.692850   1.000000
   12        6.011126   1.000000
   13        6.800557   1.000000
   14        6.891378   1.000000
   15        7.392736   1.000000
   16        7.501183   1.000000
   17        8.926142   1.000254
   18        9.232436   1.034974
   19        9.371104   0.915364
   20        9.572611   0.178339
   21        9.709387  -0.032715
   22       11.005977  -0.000000
   23       13.116443  -0.000000
   24       13.150896  -0.000000
   25       17.372491   0.000000
   26       17.665651   0.000000
   27       20.367039   0.000000
   28       20.371473   0.000000
   29       20.437855   0.000000
   30       21.067382   0.000000
 
  0.0000000E+00  0.2000000E+00  0.0000000E+00  0.1600000E-01
    1        0.695423   1.000000
    2        2.649058   1.000000
    3        3.229336   1.000000
    4        3.521782   1.000000
    5        3.634589   1.000000
    6        3.693846   1.000000
    7        3.730995   1.000000
    8        3.820761   1.000000
    9        4.323183   1.000000
   10        4.431405   1.000000
   11        5.822069   1.000000
   12        5.967575   1.000000
   13        6.904808   1.000000
   14        7.274159   1.000000
   15        7.781611   1.000000
   16        8.367312   1.000000
   17        8.520593   1.000000
   18        9.188800   1.027595
   19        9.217808   1.033244
   20        9.354845   0.949358
   21        9.496156   0.469973
   22        9.746970  -0.034866
   23       13.271004  -0.000000
   24       13.448430  -0.000000
   25       16.878300   0.000000
   26       18.365294   0.000000
   27       20.277817   0.000000
   28       20.317982   0.000000
   29       20.518947   0.000000
   30       21.268748   0.000000
 
  0.0000000E+00  0.0000000E+00  0.2000000E+00  0.1600000E-01
    1        0.696733   1.000000
    2        2.706030   1.000000
    3        3.274686   1.000000
    4        3.495600   1.000000
    5        3.516776   1.000000
    6        3.540631   1.000000
    7        3.884277   1.000000
    8        3.963326   1.000000
    9        4.368036   1.000000
   10        4.564854   1.000000
   11        5.750328   1.000000
   12        5.943789   1.000000
   13        6.730056   1.000000
   14        7.344398   1.000000
   15        7.629530   1.000000
   16        7.642107   1.000000
   17        8.865320   1.000047
   18        8.979360   1.000930
   19        9.104291   1.010146
   20        9.631063   0.036670
   21        9.755844  -0.033881
   22       10.258964  -0.000000
   23       13.200851  -0.000000
   24       13.416939  -0.000000
   25       16.505131   0.000000
   26       18.666866   0.000000
   27       20.378988   0.000000
   28       20.400174   0.000000
   29       20.568044   0.000000
   30       21.252784   0.000000
 
  0.4000000E+00  0.0000000E+00  0.0000000E+00  0.1600000E-01
    1        1.723800   1.000000
    2        3.443864   1.000000
    3        3.525153   1.000000
    4        3.757880   1.000000
    5        3.797997   1.000000
    6        4.449536   1.000000
    7        4.462395   1.000000
    8        4.648302   1.000000
    9        5.078443   1.000000
   10        5.246895   1.000000
   11        5.325231   1.000000
   12        5.929580   1.000000
   13        6.144409   1.000000
   14        6.153355   1.000000
   15        6.569955   1.000000
   16        6.700654   1.000000
   17        7.182937   1.000000
   18        8.433206   1.000000
   19        8.483572   1.000000
   20        8.600756   1.000000
   21        9.122165   1.013143
   22       10.918639  -0.000000
   23       15.708118   0.000000
   24       15.783886   0.000000
   25       16.419064   0.000000
   26       17.921143   0.000000
   27       18.574545   0.000000
   28       18.697661   0.000000
   29       19.212936   0.000000
   30       22.034303   0.000000
 
  0.0000000E+00  0.4000000E+00  0.0000000E+00  0.1600000E-01
    1        2.005875   1.000000
    2        3.326568   1.000000
    3        3.427529   1.000000
    4        3.600577   1.000000
    5        3.693715   1.000000
    6        4.288171   1.000000
    7        4.399016   1.000000
    8        4.845579   1.000000
    9        4.897064   1.000000
   10        5.169900   1.000000
   11        5.275995   1.000000
   12        6.559193   1.000000
   13        6.574318   1.000000
   14        6.677882   1.000000
   15        6.819742   1.000000
   16        7.658715   1.000000
   17        7.858019   1.000000
   18        7.906204   1.000000
   19        7.958504   1.000000
   20        8.132499   1.000000
   21        8.150252   1.000000
   22        9.236099   1.035224
   23       15.989918   0.000000
   24       16.014680   0.000000
   25       16.142225   0.000000
   26       18.285244   0.000000
   27       18.367076   0.000000
   28       18.523652   0.000000
   29       20.495905   0.000000
   30       21.141739   0.000000
 
  0.0000000E+00  0.0000000E+00  0.4000000E+00  0.1600000E-01
    1        2.022838   1.000000
    2        3.369597   1.000000
    3        3.517732   1.000000
    4        3.773791   1.000000
    5        3.805774   1.000000
    6        4.346812   1.000000
    7        4.450651   1.000000
    8        4.588932   1.000000
    9        4.954413   1.000000
   10        5.293379   1.000000
   11        5.346980   1.000000
   12        6.169845   1.000000
   13        6.192713   1.000000
   14        6.310850   1.000000
   15        6.897587   1.000000
   16        7.100083   1.000000
   17        7.139912   1.000000
   18        8.178374   1.000000
   19        8.266414   1.000000
   20        8.462792   1.000000
   21        8.522794   1.000000
   22       10.142820  -0.000019
   23       15.622777   0.000000
   24       15.954092   0.000000
   25       16.051876   0.000000
   26       18.347361   0.000000
   27       18.635080   0.000000
   28       18.880438   0.000000
   29       20.124015   0.000000
   30       21.427469   0.000000
 
  0.2000000E+00  0.2000000E+00  0.0000000E+00  0.3200000E-01
    1        1.127657   1.000000
    2        3.006556   1.000000
    3        3.503038   1.000000
    4        3.508742   1.000000
    5        3.546255   1.000000
    6        4.003138   1.000000
    7        4.106324   1.000000
    8        4.262345   1.000000
    9        4.378008   1.000000
   10        4.569092   1.000000
   11        5.832510   1.000000
   12        6.204343   1.000000
   13        6.605114   1.000000
   14        6.806870   1.000000
   15        7.446846   1.000000
   16        7.748025   1.000000
   17        7.908867   1.000000
   18        8.674982   1.000000
   19        9.057371   1.004636
   20        9.100470   1.009571
   21        9.942204  -0.003091
   22       10.552780  -0.000000
   23       11.905435  -0.000000
   24       14.543213  -0.000000
   25       16.640567   0.000000
   26       18.842917   0.000000
   27       19.779741   0.000000
   28       20.215954   0.000000
   29       21.211237   0.000000
   30       21.817508   0.000000
 
  0.0000000E+00  0.2000000E+00  0.2000000E+00  0.3200000E-01
    1        1.152701   1.000000
    2        3.009489   1.000000
    3        3.473905   1.000000
    4        3.547504   1.000000
    5        3.651113   1.000000
    6        3.968697   1.000000
    7        4.109677   1.000000
    8        4.196592   1.000000
    9        4.252766   1.000000
   10        4.642418   1.000000
   11        5.961676   1.000000
   12        6.097583   1.000000
   13        6.646976   1.000000
   14        6.797747   1.000000
   15        7.466565   1.000000
   16        7.787431   1.000000
   17        8.139050   1.000000
   18        8.609626   1.000000
   19        8.835657   1.000019
   20        8.913936   1.000184
   21        9.694076  -0.027540
   22       10.643073  -0.000000
   23       12.365112  -0.000000
   24       14.398372  -0.000000
   25       16.442507   0.000000
   26       18.876276   0.000000
   27       19.334665   0.000000
   28       20.862855   0.000000
   29       21.315668   0.000000
   30       21.880475   0.000000
 
  0.2000000E+00  0.0000000E+00  0.2000000E+00  0.3200000E-01
    1        1.126237   1.000000
    2        3.055448   1.000000
    3        3.460422   1.000000
    4        3.496910   1.000000
    5        3.556386   1.000000
    6        3.995460   1.000000
    7        4.142387   1.000000
    8        4.300964   1.000000
    9        4.474229   1.000000
   10        4.590001   1.000000
   11        5.772047   1.000000
   12        6.203422   1.000000
   13        6.419828   1.000000
   14        6.917554   1.000000
   15        7.271255   1.000000
   16        7.511110   1.000000
   17        7.686376   1.000000
   18        8.854326   1.000034
   19        9.327873   0.991544
   20        9.363510   0.932067
   21       10.124520  -0.000033
   22       10.731968  -0.000000
   23       11.489189  -0.000000
   24       14.562016  -0.000000
   25       16.558990   0.000000
   26       18.782389   0.000000
   27       19.680422   0.000000
   28       20.446844   0.000000
   29       21.382595   0.000000
   30       21.943111   0.000000
 
  0.4000000E+00  0.2000000E+00  0.0000000E+00  0.3200000E-01
    1        2.224949   1.000000
    2        3.764571   1.000000
    3        3.955040   1.000000
    4        4.142969   1.000000
    5        4.338237   1.000000
    6        4.369589   1.000000
    7        4.738746   1.000000
    8        4.861499   1.000000
    9        5.135080   1.000000
   10        5.449385   1.000000
   11        5.930718   1.000000
   12        5.933394   1.000000
   13        6.313939   1.000000
   14        6.315160   1.000000
   15        6.965786   1.000000
   16        7.495303   1.000000
   17        8.197433   1.000000
   18        8.550547   1.000000
   19        8.655054   1.000000
   20        8.830163   1.000016
   21        9.636508   0.027787
   22       10.448136  -0.000000
   23       12.870734  -0.000000
   24       14.950345   0.000000
   25       17.207014   0.000000
   26       17.732729   0.000000
   27       19.773092   0.000000
   28       19.853183   0.000000
   29       22.030067   0.000000
   30       23.179508   0.000000
 
  0.0000000E+00  0.4000000E+00  0.2000000E+00  0.3200000E-01
    1        2.418584   1.000000
    2        3.668086   1.000000
    3        3.780303   1.000000
    4        3.904393   1.000000
    5        4.282321   1.000000
    6        4.533724   1.000000
    7        4.915544   1.000000
    8        4.959104   1.000000
    9        5.166967   1.000000
   10        5.812085   1.000000
   11        5.838472   1.000000
   12        6.064688   1.000000
   13        6.392293   1.000000
   14        6.724095   1.000000
   15        7.234141   1.000000
   16        7.460834   1.000000
   17        7.865196   1.000000
   18        7.890231   1.000000
   19        8.359094   1.000000
   20        8.998760   1.001434
   21        9.393989   0.856249
   22        9.908534  -0.005763
   23       13.415712  -0.000000
   24       14.903113  -0.000000
   25       17.000641   0.000000
   26       18.101873   0.000000
   27       19.511133   0.000000
   28       19.587050   0.000000
   29       21.833377   0.000000
   30       23.534161   0.000000
 
  0.2000000E+00  0.0000000E+00  0.4000000E+00  0.3200000E-01
    1        2.451274   1.000000
    2        3.723326   1.000000
    3        3.991274   1.000000
    4        4.089316   1.000000
    5        4.317565   1.000000
    6        4.568132   1.000000
    7        4.746879   1.000000
    8        4.859020   1.000000
    9        5.146059   1.000000
   10        5.398397   1.000000
   11        5.723136   1.000000
   12        6.122078   1.000000
   13        6.238547   1.000000
   14        6.608936   1.000000
   15        7.177689   1.000000
   16        7.367045   1.000000
   17        8.164723   1.000000
   18        8.413773   1.000000
   19        8.509750   1.000000
   20        8.579209   1.000000
   21        9.278862   1.029640
   22       10.176893  -0.000007
   23       13.169786  -0.000000
   24       14.933185  -0.000000
   25       17.126639   0.000000
   26       17.650224   0.000000
   27       19.567771   0.000000
   28       20.183032   0.000000
   29       22.016919   0.000000
   30       23.194903   0.000000
 
 -0.2000000E+00  0.4000000E+00  0.0000000E+00  0.3200000E-01
    1        2.453104   1.000000
    2        3.648984   1.000000
    3        3.779380   1.000000
    4        3.966906   1.000000
    5        4.306266   1.000000
    6        4.581905   1.000000
    7        4.892660   1.000000
    8        4.922942   1.000000
    9        5.168965   1.000000
   10        5.832684   1.000000
   11        5.844807   1.000000
   12        6.087717   1.000000
   13        6.442309   1.000000
   14        6.700217   1.000000
   15        7.155201   1.000000
   16        7.512026   1.000000
   17        7.909839   1.000000
   18        7.935711   1.000000
   19        8.401424   1.000000
   20        8.803273   1.000007
   21        9.236957   1.035270
   22        9.834202  -0.017440
   23       13.282404  -0.000000
   24       14.955037   0.000000
   25       17.091647   0.000000
   26       18.050818   0.000000
   27       19.521716   0.000000
   28       19.775495   0.000000
   29       22.037944   0.000000
   30       23.259837   0.000000
 
 -0.4000000E+00  0.0000000E+00  0.2000000E+00  0.3200000E-01
    1        2.218230   1.000000
    2        3.799030   1.000000
    3        3.916146   1.000000
    4        4.159317   1.000000
    5        4.226449   1.000000
    6        4.428806   1.000000
    7        4.790768   1.000000
    8        4.920433   1.000000
    9        5.178704   1.000000
   10        5.326839   1.000000
   11        5.698987   1.000000
   12        5.976736   1.000000
   13        6.265469   1.000000
   14        6.566739   1.000000
   15        7.061640   1.000000
   16        7.469992   1.000000
   17        8.362693   1.000000
   18        8.381795   1.000000
   19        8.660039   1.000000
   20        8.895037   1.000110
   21        9.599106   0.103558
   22       10.416220  -0.000000
   23       12.788604  -0.000000
   24       15.014043   0.000000
   25       17.172753   0.000000
   26       17.694837   0.000000
   27       19.688224   0.000000
   28       19.742471   0.000000
   29       22.097930   0.000000
   30       23.086793   0.000000
 
  0.0000000E+00  0.2000000E+00  0.4000000E+00  0.3200000E-01
    1        2.424933   1.000000
    2        3.669764   1.000000
    3        4.055581   1.000000
    4        4.120944   1.000000
    5        4.327839   1.000000
    6        4.377190   1.000000
    7        4.797328   1.000000
    8        4.843429   1.000000
    9        5.104562   1.000000
   10        5.510514   1.000000
   11        5.908636   1.000000
   12        6.047883   1.000000
   13        6.224075   1.000000
   14        6.367335   1.000000
   15        7.105554   1.000000
   16        7.424491   1.000000
   17        8.032337   1.000000
   18        8.337332   1.000000
   19        8.454512   1.000000
   20        8.825797   1.000014
   21        9.517246   0.382018
   22       10.279947  -0.000000
   23       13.368601  -0.000000
   24       14.810219  -0.000000
   25       17.070176   0.000000
   26       17.733943   0.000000
   27       19.643245   0.000000
   28       20.086863   0.000000
   29       21.766096   0.000000
   30       23.542283   0.000000
 
  0.4000000E+00  0.4000000E+00  0.0000000E+00  0.3200000E-01
    1        3.314077   1.000000
    2        3.928397   1.000000
    3        4.182244   1.000000
    4        4.297850   1.000000
    5        4.500099   1.000000
    6        4.526405   1.000000
    7        4.819116   1.000000
    8        4.860395   1.000000
    9        4.967501   1.000000
   10        5.203379   1.000000
   11        5.389100   1.000000
   12        5.473671   1.000000
   13        5.709069   1.000000
   14        6.134704   1.000000
   15        6.446936   1.000000
   16        6.710689   1.000000
   17        7.155587   1.000000
   18        8.014487   1.000000
   19        8.131708   1.000000
   20        8.174475   1.000000
   21        8.761860   1.000002
   22       10.109034  -0.000053
   23       11.647882  -0.000000
   24       12.828666  -0.000000
   25       18.422578   0.000000
   26       19.273285   0.000000
   27       20.543315   0.000000
   28       21.042666   0.000000
   29       21.103908   0.000000
   30       21.821708   0.000000
 
  0.0000000E+00  0.4000000E+00  0.4000000E+00  0.3200000E-01
    1        3.208735   1.000000
    2        3.893967   1.000000
    3        4.083952   1.000000
    4        4.274340   1.000000
    5        4.449567   1.000000
    6        4.534997   1.000000
    7        4.754798   1.000000
    8        4.970946   1.000000
    9        4.997477   1.000000
   10        5.194364   1.000000
   11        5.230705   1.000000
   12        5.547922   1.000000
   13        5.781004   1.000000
   14        6.015947   1.000000
   15        6.371377   1.000000
   16        6.677540   1.000000
   17        7.032319   1.000000
   18        8.117242   1.000000
   19        8.382918   1.000000
   20        8.444965   1.000000
   21        9.122290   1.013165
   22        9.619734   0.057462
   23       12.378447  -0.000000
   24       12.864938  -0.000000
   25       18.206973   0.000000
   26       18.950141   0.000000
   27       20.394972   0.000000
   28       20.418305   0.000000
   29       20.945936   0.000000
   30       22.184068   0.000000
 
  0.4000000E+00  0.0000000E+00  0.4000000E+00  0.3200000E-01
    1        3.246190   1.000000
    2        4.076514   1.000000
    3        4.186083   1.000000
    4        4.243027   1.000000
    5        4.335309   1.000000
    6        4.484947   1.000000
    7        4.758452   1.000000
    8        4.763883   1.000000
    9        4.918693   1.000000
   10        5.223257   1.000000
   11        5.349701   1.000000
   12        5.595410   1.000000
   13        5.755491   1.000000
   14        6.129412   1.000000
   15        6.785479   1.000000
   16        7.126279   1.000000
   17        7.144096   1.000000
   18        7.311102   1.000000
   19        7.957408   1.000000
   20        8.283461   1.000000
   21        9.324720   0.995387
   22       10.391626  -0.000000
   23       11.157823  -0.000000
   24       12.547760  -0.000000
   25       18.333768   0.000000
   26       19.264816   0.000000
   27       20.552412   0.000000
   28       21.015575   0.000000
   29       21.280650   0.000000
   30       21.678059   0.000000
 
  0.2000000E+00  0.2000000E+00  0.2000000E+00  0.6400000E-01
    1        1.524844   1.000000
    2        3.208179   1.000000
    3        3.655708   1.000000
    4        3.863334   1.000000
    5        3.922543   1.000000
    6        4.469873   1.000000
    7        4.557279   1.000000
    8        4.804512   1.000000
    9        4.903604   1.000000
   10        5.157169   1.000000
   11        6.101669   1.000000
   12        6.230585   1.000000
   13        6.870407   1.000000
   14        6.955887   1.000000
   15        7.270096   1.000000
   16        7.360050   1.000000
   17        8.197772   1.000000
   18        8.471209   1.000000
   19        8.932590   1.000299
   20        9.512091   0.403240
   21       10.668727  -0.000000
   22       11.455269  -0.000000
   23       12.621139  -0.000000
   24       12.922566  -0.000000
   25       17.386225   0.000000
   26       17.817605   0.000000
   27       18.468670   0.000000
   28       21.218246   0.000000
   29       21.535790   0.000000
   30       21.797500   0.000000
 
  0.4000000E+00  0.2000000E+00  0.2000000E+00  0.6400000E-01
    1        2.452027   1.000000
    2        3.524293   1.000000
    3        3.901224   1.000000
    4        3.977818   1.000000
    5        4.407549   1.000000
    6        4.485240   1.000000
    7        4.525270   1.000000
    8        4.760271   1.000000
    9        4.921253   1.000000
   10        5.094442   1.000000
   11        5.176604   1.000000
   12        5.555828   1.000000
   13        5.829159   1.000000
   14        5.859039   1.000000
   15        5.955691   1.000000
   16        7.016862   1.000000
   17        7.290713   1.000000
   18        7.947943   1.000000
   19        8.372191   1.000000
   20        9.038905   1.003277
   21        9.653032   0.005038
   22       10.009914  -0.000718
   23       13.547027  -0.000000
   24       13.639697  -0.000000
   25       15.401546   0.000000
   26       15.927683   0.000000
   27       20.242873   0.000000
   28       21.325676   0.000000
   29       22.172520   0.000000
   30       22.342745   0.000000
 
  0.2000000E+00  0.4000000E+00  0.2000000E+00  0.6400000E-01
    1        2.577295   1.000000
    2        3.454283   1.000000
    3        3.697034   1.000000
    4        4.220086   1.000000
    5        4.222757   1.000000
    6        4.315801   1.000000
    7        4.471623   1.000000
    8        4.723328   1.000000
    9        4.899513   1.000000
   10        5.190060   1.000000
   11        5.237509   1.000000
   12        5.459106   1.000000
   13        5.867650   1.000000
   14        6.261687   1.000000
   15        6.350150   1.000000
   16        6.944453   1.000000
   17        7.472250   1.000000
   18        7.980349   1.000000
   19        8.239941   1.000000
   20        8.483753   1.000000
   21        9.562773   0.210323
   22        9.709795  -0.032812
   23       13.513764  -0.000000
   24       13.937756  -0.000000
   25       15.329192   0.000000
   26       15.951480   0.000000
   27       20.336946   0.000000
   28       21.458046   0.000000
   29       22.250808   0.000000
   30       22.378910   0.000000
 
  0.2000000E+00  0.2000000E+00  0.4000000E+00  0.6400000E-01
    1        2.582667   1.000000
    2        3.491411   1.000000
    3        3.823595   1.000000
    4        4.033407   1.000000
    5        4.246548   1.000000
    6        4.508758   1.000000
    7        4.624560   1.000000
    8        4.698608   1.000000
    9        4.988485   1.000000
   10        5.046414   1.000000
   11        5.169775   1.000000
   12        5.494955   1.000000
   13        5.822131   1.000000
   14        5.975891   1.000000
   15        6.057274   1.000000
   16        7.027794   1.000000
   17        7.525404   1.000000
   18        7.878120   1.000000
   19        8.185314   1.000000
   20        8.884815   1.000083
   21        9.566356   0.198425
   22        9.867749  -0.011106
   23       13.495978  -0.000000
   24       13.864772  -0.000000
   25       15.296612   0.000000
   26       16.067347   0.000000
   27       20.223940   0.000000
   28       21.202950   0.000000
   29       22.227802   0.000000
   30       22.465938   0.000000
 
  0.4000000E+00  0.4000000E+00  0.2000000E+00  0.6400000E-01
    1        3.145338   1.000000
    2        3.313164   1.000000
    3        3.709046   1.000000
    4        4.192995   1.000000
    5        4.608626   1.000000
    6        4.825726   1.000000
    7        4.908354   1.000000
    8        5.067063   1.000000
    9        5.183522   1.000000
   10        5.487824   1.000000
   11        5.747123   1.000000
   12        5.853455   1.000000
   13        5.919857   1.000000
   14        6.290960   1.000000
   15        6.428678   1.000000
   16        6.493194   1.000000
   17        7.565445   1.000000
   18        8.081765   1.000000
   19        9.147153   1.018135
   20        9.352509   0.953700
   21        9.641473   0.020297
   22       10.268824  -0.000000
   23       11.964639  -0.000000
   24       12.640510  -0.000000
   25       15.499458   0.000000
   26       17.510816   0.000000
   27       17.836553   0.000000
   28       19.950955   0.000000
   29       22.729140   0.000000
   30       24.799264   0.000000
 
  0.2000000E+00  0.4000000E+00  0.4000000E+00  0.6400000E-01
    1        3.076280   1.000000
    2        3.331877   1.000000
    3        3.667949   1.000000
    4        4.096876   1.000000
    5        4.645407   1.000000
    6        4.714737   1.000000
    7        4.904134   1.000000
    8        4.948775   1.000000
    9        5.238112   1.000000
   10        5.475764   1.000000
   11        5.789022   1.000000
   12        5.820608   1.000000
   13        6.002756   1.000000
   14        6.196714   1.000000
   15        6.332324   1.000000
   16        6.568471   1.000000
   17        7.699805   1.000000
   18        8.452820   1.000000
   19        9.082988   1.007239
   20        9.408182   0.813155
   21        9.684646  -0.022686
   22       10.004177  -0.000821
   23       12.578514  -0.000000
   24       12.848411  -0.000000
   25       15.146679   0.000000
   26       16.990189   0.000000
   27       17.884649   0.000000
   28       19.972121   0.000000
   29       22.813336   0.000000
   30       24.659867   0.000000
 
  0.4000000E+00  0.2000000E+00  0.4000000E+00  0.6400000E-01
    1        3.132202   1.000000
    2        3.412545   1.000000
    3        3.645157   1.000000
    4        4.006507   1.000000
    5        4.640123   1.000000
    6        4.809008   1.000000
    7        4.907517   1.000000
    8        5.117151   1.000000
    9        5.279348   1.000000
   10        5.373345   1.000000
   11        5.744524   1.000000
   12        5.996728   1.000000
   13        6.110819   1.000000
   14        6.292429   1.000000
   15        6.384505   1.000000
   16        6.547966   1.000000
   17        7.509037   1.000000
   18        7.805302   1.000000
   19        8.956982   1.000549
   20        9.704128  -0.031284
   21        9.873484  -0.010197
   22       10.620311  -0.000000
   23       11.425310  -0.000000
   24       12.450878  -0.000000
   25       15.479718   0.000000
   26       17.537519   0.000000
   27       17.862449   0.000000
   28       20.029568   0.000000
   29       22.605977   0.000000
   30       24.630520   0.000000
 
  0.4000000E+00  0.4000000E+00  0.4000000E+00  0.6400000E-01
    1        2.647127   1.000000
    2        2.746573   1.000000
    3        2.947286   1.000000
    4        3.392921   1.000000
    5        3.763128   1.000000
    6        3.870866   1.000000
    7        4.428244   1.000000
    8        4.967639   1.000000
    9        5.063180   1.000000
   10        5.186334   1.000000
   11        5.535367   1.000000
   12        5.623754   1.000000
   13        6.542206   1.000000
   14        6.864762   1.000000
   15        7.405389   1.000000
   16        7.798905   1.000000
   17        8.553128   1.000000
   18        8.769795   1.000002
   19        9.455403   0.640184
   20        9.886228  -0.008366
   21       10.390141  -0.000000
   22       10.673301  -0.000000
   23       11.070141  -0.000000
   24       11.280118  -0.000000
   25       14.790103  -0.000000
   26       14.953886   0.000000
   27       15.860198   0.000000
   28       17.449114   0.000000
   29       25.604849   0.000000
   30       25.740530   0.000000
