       N       E                     dE             d eps       ncg     rms          rms(c)
DAV:   1     0.187666776679E+02    0.18767E+02   -0.38350E-03  1770   0.379E-01    0.711E-02
DAV:   2     0.187864762860E+02    0.19799E-01   -0.50564E-03  1800   0.461E-01    0.995E-02
DAV:   3     0.187866359423E+02    0.15966E-03   -0.26963E-04  1728   0.193E-01    0.354E-02
DAV:   4     0.187866396021E+02    0.36598E-05   -0.11675E-05  1854   0.255E-02    0.262E-02
DAV:   5     0.187866402750E+02    0.67286E-06   -0.68187E-07   900   0.108E-02
   1 F= 0.18786640E+02 E0= 0.18787427E+02  d E =-.236160E-02
