 vasp.6.2.0 18Jan21 (build Mar 17 2021 09:06:54) complex                        
  
 executed on             LinuxIFC date 2021.06.11  12:20:38
 serial version


--------------------------------------------------------------------------------------------------------


 INCAR:
   ENCUT = 140.000000
   SIGMA = 0.200000
   EDIFF = 1.00e-06
   GGA = PE
   PREC = normal
   IBRION = -1
   ICHARG = 1
   ISMEAR = 1
   KPAR = 1
   NBANDS = 30
   NSW = 0
   NCORE = 1
   LCHARG = .TRUE.

 POTCAR:    PAW_PBE Pd 04Jan2005                  
 POTCAR:    PAW_PBE Ir 06Sep2000                  
 POTCAR:    PAW_PBE Pt 04Feb2005                  
 POTCAR:    PAW_PBE Cu 22Jun2005                  
 POTCAR:    PAW_PBE Pd 04Jan2005                  
   SHA256 =  dd6f6f02930356371984e2b707ff5e456046761dc76b07c1eba30abd15eb3c39 Pd/POTCAR             
   COPYR  = (c) Copyright 04Jan2005 Georg Kresse                                                    
   COPYR  = This file is part of the software VASP. Any use, copying, and all other rights are regul
   COPYR  = If you do not have a valid VASP license, you may not use, copy or distribute this file. 
   VRHFIN =Pd : s1 d9                                                                               
   LEXCH  = PE                                                                                      
   EATOM  =   809.7530 eV,   59.5152 Ry                                                             
                                                                                                    
   TITEL  = PAW_PBE Pd 04Jan2005                                                                    
   LULTRA =        F    use ultrasoft PP ?                                                          
   IUNSCR =        1    unscreen: 0-lin 1-nonlin 2-no                                               
   RPACOR =    2.000    partial core radius                                                         
   POMASS =  106.420; ZVAL   =   10.000    mass and valenz                                          
   RCORE  =    2.600    outmost cutoff radius                                                       
   RWIGS  =    2.710; RWIGS  =    1.434    wigner-seitz radius (au A)                               
   ENMAX  =  250.925; ENMIN  =  188.194 eV                                                          
   ICORE  =        3    local potential                                                             
   LCOR   =        T    correct aug charges                                                         
   LPAW   =        T    paw PP                                                                      
   EAUG   =  416.230                                                                                
   DEXC   =    0.000                                                                                
   RMAX   =    2.653    core radius for proj-oper                                                   
   RAUG   =    1.300    factor for augmentation sphere                                              
   RDEP   =    2.734    radius for radial grids                                                     
   RDEPT  =    2.103    core radius for aug-charge                                                  
                                                                                                    
   Atomic configuration                                                                             
   12 entries                                                                                       
     n  l   j            E        occ.                                                              
     1  0  0.50    -24164.6631   2.0000                                                             
     2  0  0.50     -3530.9218   2.0000                                                             
     2  1  1.50     -3165.6822   6.0000                                                             
     3  0  0.50      -639.4577   2.0000                                                             
     3  1  1.50      -519.4532   6.0000                                                             
     3  2  2.50      -328.9757  10.0000                                                             
     4  0  0.50       -88.7014   2.0000                                                             
     4  1  1.50       -54.4540   6.0000                                                             
     4  2  2.50        -6.6878   9.0000                                                             
     5  0  0.50        -4.3543   1.0000                                                             
     5  1  0.50        -1.3606   0.0000                                                             
     4  3  2.50        -1.3606   0.0000                                                             
   Description                                                                                      
     l       E           TYP  RCUT    TYP  RCUT                                                     
     2     -6.6878251     23  2.400                                                                 
     2     -8.0484077     23  2.400                                                                 
     0     -4.3542939     23  2.400                                                                 
     0      4.3406793     23  2.400                                                                 
     1     -4.0817478     23  2.600                                                                 
     1     15.8380318     23  2.600                                                                 
     3     -4.0817478     23  2.400                                                                 
  local pseudopotential read in
  partial core-charges read in
  partial kinetic energy density read in
  atomic valenz-charges read in
  non local Contribution for L=           2  read in
    real space projection operators read in
  non local Contribution for L=           2  read in
    real space projection operators read in
  non local Contribution for L=           0  read in
    real space projection operators read in
  non local Contribution for L=           0  read in
    real space projection operators read in
  non local Contribution for L=           1  read in
    real space projection operators read in
  non local Contribution for L=           1  read in
    real space projection operators read in
    PAW grid and wavefunctions read in
 
   number of l-projection  operators is LMAX  =           6
   number of lm-projection operators is LMMAX =          18
 
 POTCAR:    PAW_PBE Ir 06Sep2000                  
   SHA256 =  7c6af8d4d487b237782eb51e6f62977b27a1da78c3c96acd1cebefd6c308f120 Ir/POTCAR             
   COPYR  = (c) Copyright 06Sep2000 Georg Kresse                                                    
   COPYR  = This file is part of the software VASP. Any use, copying, and all other rights are regul
   COPYR  = If you do not have a valid VASP license, you may not use, copy or distribute this file. 
   VRHFIN =Ir: s1d8                                                                                 
   LEXCH  = PE                                                                                      
   EATOM  =   560.1833 eV,   41.1723 Ry                                                             
                                                                                                    
   TITEL  = PAW_PBE Ir 06Sep2000                                                                    
   LULTRA =        F    use ultrasoft PP ?                                                          
   IUNSCR =        1    unscreen: 0-lin 1-nonlin 2-no                                               
   RPACOR =    2.250    partial core radius                                                         
   POMASS =  192.220; ZVAL   =    9.000    mass and valenz                                          
   RCORE  =    2.600    outmost cutoff radius                                                       
   RWIGS  =    2.690; RWIGS  =    1.423    wigner-seitz radius (au A)                               
   ENMAX  =  210.864; ENMIN  =  158.148 eV                                                          
   RCLOC  =    1.857    cutoff for local pot                                                        
   LCOR   =        T    correct aug charges                                                         
   LPAW   =        T    paw PP                                                                      
   EAUG   =  318.962                                                                                
   DEXC   =    0.000                                                                                
   RMAX   =    2.667    core radius for proj-oper                                                   
   RAUG   =    1.300    factor for augmentation sphere                                              
   RDEP   =    2.748    radius for radial grids                                                     
   RDEPT  =    2.300    core radius for aug-charge                                                  
                                                                                                    
   Atomic configuration                                                                             
   16 entries                                                                                       
     n  l   j            E        occ.                                                              
     1  0  0.50    -76100.0449   2.0000                                                             
     2  0  0.50    -13308.1683   2.0000                                                             
     2  1  1.50    -11558.0021   6.0000                                                             
     3  0  0.50     -3110.7274   2.0000                                                             
     3  1  1.50     -2599.2109   6.0000                                                             
     3  2  2.50     -2037.1515  10.0000                                                             
     4  0  0.50      -661.6001   2.0000                                                             
     4  1  1.50      -493.8981   6.0000                                                             
     4  2  2.50      -288.1909  10.0000                                                             
     4  3  3.50       -59.5718  14.0000                                                             
     5  0  0.50       -95.3879   2.0000                                                             
     5  1  1.50       -52.2747   6.0000                                                             
     5  2  2.50        -5.4180   8.0000                                                             
     6  0  0.50        -5.5479   1.0000                                                             
     6  1  1.50        -6.8029   0.0000                                                             
     5  3  2.50        -1.3606   0.0000                                                             
   Description                                                                                      
     l       E           TYP  RCUT    TYP  RCUT                                                     
     2     -5.4179967     23  2.600                                                                 
     2     -6.7785793     23  2.600                                                                 
     0     -5.5478636     23  2.600                                                                 
     0      2.2542272     23  2.600                                                                 
     1     -2.7211652     23  2.600                                                                 
     1     20.4087390     23  2.600                                                                 
  local pseudopotential read in
  partial core-charges read in
  partial kinetic energy density read in
  atomic valenz-charges read in
  non local Contribution for L=           2  read in
    real space projection operators read in
  non local Contribution for L=           2  read in
    real space projection operators read in
  non local Contribution for L=           0  read in
    real space projection operators read in
  non local Contribution for L=           0  read in
    real space projection operators read in
  non local Contribution for L=           1  read in
    real space projection operators read in
  non local Contribution for L=           1  read in
    real space projection operators read in
    PAW grid and wavefunctions read in
 
   number of l-projection  operators is LMAX  =           6
   number of lm-projection operators is LMMAX =          18
 
 POTCAR:    PAW_PBE Pt 04Feb2005                  
   SHA256 =  3ed90460adef76debcff1cfb73ee1349b515b1a3db03439735b44de3a8db7dc8 Pt/POTCAR             
   COPYR  = (c) Copyright 04Feb2005 Georg Kresse                                                    
   COPYR  = This file is part of the software VASP. Any use, copying, and all other rights are regul
   COPYR  = If you do not have a valid VASP license, you may not use, copy or distribute this file. 
   VRHFIN =Pt: s1d9                                                                                 
   LEXCH  = PE                                                                                      
   EATOM  =   729.1176 eV,   53.5886 Ry                                                             
                                                                                                    
   TITEL  = PAW_PBE Pt 04Feb2005                                                                    
   LULTRA =        F    use ultrasoft PP ?                                                          
   IUNSCR =        1    unscreen: 0-lin 1-nonlin 2-no                                               
   RPACOR =    2.330    partial core radius                                                         
   POMASS =  195.080; ZVAL   =   10.000    mass and valenz                                          
   RCORE  =    2.600    outmost cutoff radius                                                       
   RWIGS  =    2.750; RWIGS  =    1.455    wigner-seitz radius (au A)                               
   ENMAX  =  230.283; ENMIN  =  172.712 eV                                                          
   ICORE  =        3    local potential                                                             
   LCOR   =        T    correct aug charges                                                         
   LPAW   =        T    paw PP                                                                      
   EAUG   =  358.966                                                                                
   DEXC   =    0.000                                                                                
   RMAX   =    2.658    core radius for proj-oper                                                   
   RAUG   =    1.300    factor for augmentation sphere                                              
   RDEP   =    2.761    radius for radial grids                                                     
   RDEPT  =    2.203    core radius for aug-charge                                                  
                                                                                                    
   Atomic configuration                                                                             
   16 entries                                                                                       
     n  l   j            E        occ.                                                              
     1  0  0.50    -78401.1885   2.0000                                                             
     2  0  0.50    -13770.7750   2.0000                                                             
     2  1  1.50    -11931.0468   6.0000                                                             
     3  0  0.50     -3234.7234   2.0000                                                             
     3  1  1.50     -2699.2216   6.0000                                                             
     3  2  2.50     -2119.5714  10.0000                                                             
     4  0  0.50      -695.1528   2.0000                                                             
     4  1  1.50      -519.6034   6.0000                                                             
     4  2  2.50      -306.6786  10.0000                                                             
     4  3  3.50       -70.1041  14.0000                                                             
     5  0  0.50      -101.7747   2.0000                                                             
     5  1  1.50       -55.9873   6.0000                                                             
     5  2  2.50        -6.1423   9.0000                                                             
     6  0  0.50        -5.6573   1.0000                                                             
     6  1  1.50        -6.8029   0.0000                                                             
     5  3  2.50        -1.3606   0.0000                                                             
   Description                                                                                      
     l       E           TYP  RCUT    TYP  RCUT                                                     
     2     -6.1423404     23  2.500                                                                 
     2     -7.5029230     23  2.500                                                                 
     0     -5.6573207     23  2.500                                                                 
     0      0.7416693     23  2.500                                                                 
     1     -2.7211652     23  2.600                                                                 
     1     20.4087390     23  2.600                                                                 
     3     -1.3605826     23  2.500                                                                 
  local pseudopotential read in
  partial core-charges read in
  partial kinetic energy density read in
  atomic valenz-charges read in
  non local Contribution for L=           2  read in
    real space projection operators read in
  non local Contribution for L=           2  read in
    real space projection operators read in
  non local Contribution for L=           0  read in
    real space projection operators read in
  non local Contribution for L=           0  read in
    real space projection operators read in
  non local Contribution for L=           1  read in
    real space projection operators read in
  non local Contribution for L=           1  read in
    real space projection operators read in
    PAW grid and wavefunctions read in
 
   number of l-projection  operators is LMAX  =           6
   number of lm-projection operators is LMMAX =          18
 
 POTCAR:    PAW_PBE Cu 22Jun2005                  
   SHA256 =  0e71e558f37a4e8407882b4609ceaae59938afaad9ced71dfe8490308a0ab630 Cu/POTCAR             
   COPYR  = (c) Copyright 22Jun2005 Georg Kresse                                                    
   COPYR  = This file is part of the software VASP. Any use, copying, and all other rights are regul
   COPYR  = If you do not have a valid VASP license, you may not use, copy or distribute this file. 
   VRHFIN =Cu: d10 p1                                                                               
   LEXCH  = PE                                                                                      
   EATOM  =  1390.9808 eV,  102.2342 Ry                                                             
                                                                                                    
   TITEL  = PAW_PBE Cu 22Jun2005                                                                    
   LULTRA =        F    use ultrasoft PP ?                                                          
   IUNSCR =        1    unscreen: 0-lin 1-nonlin 2-no                                               
   RPACOR =    2.000    partial core radius                                                         
   POMASS =   63.546; ZVAL   =   11.000    mass and valenz                                          
   RCORE  =    2.300    outmost cutoff radius                                                       
   RWIGS  =    2.200; RWIGS  =    1.164    wigner-seitz radius (au A)                               
   ENMAX  =  295.446; ENMIN  =  221.585 eV                                                          
   ICORE  =        3    local potential                                                             
   LCOR   =        T    correct aug charges                                                         
   LPAW   =        T    paw PP                                                                      
   EAUG   =  586.980                                                                                
   DEXC   =    0.000                                                                                
   RMAX   =    2.344    core radius for proj-oper                                                   
   RAUG   =    1.300    factor for augmentation sphere                                              
   RDEP   =    2.302    radius for radial grids                                                     
   RDEPT  =    1.771    core radius for aug-charge                                                  
                                                                                                    
   Atomic configuration                                                                             
    9 entries                                                                                       
     n  l   j            E        occ.                                                              
     1  0  0.50     -8850.2468   2.0000                                                             
     2  0  0.50     -1062.3498   2.0000                                                             
     2  1  1.50      -916.8226   6.0000                                                             
     3  0  0.50      -114.6929   2.0000                                                             
     3  1  1.50       -72.1325   6.0000                                                             
     3  2  2.50        -5.0394  10.0000                                                             
     4  0  0.50        -4.6097   1.0000                                                             
     4  1  0.50        -4.0817   0.0000                                                             
     4  3  2.50        -1.3606   0.0000                                                             
   Description                                                                                      
     l       E           TYP  RCUT    TYP  RCUT                                                     
     2     -5.0393973     23  2.200                                                                 
     2     10.8846608     23  2.200                                                                 
     0     -4.6097109     23  2.200                                                                 
     0      8.2520465     23  2.200                                                                 
     1     -2.7211652     23  2.200                                                                 
     1     21.7055443     23  2.200                                                                 
     3      2.7211652     23  2.300                                                                 
  local pseudopotential read in
  partial core-charges read in
  partial kinetic energy density read in
  atomic valenz-charges read in
  non local Contribution for L=           2  read in
    real space projection operators read in
  non local Contribution for L=           2  read in
    real space projection operators read in
  non local Contribution for L=           0  read in
    real space projection operators read in
  non local Contribution for L=           0  read in
    real space projection operators read in
  non local Contribution for L=           1  read in
    real space projection operators read in
  non local Contribution for L=           1  read in
    real space projection operators read in
    PAW grid and wavefunctions read in
 
   number of l-projection  operators is LMAX  =           6
   number of lm-projection operators is LMMAX =          18
 
  PAW_PBE Pd 04Jan2005                  :
 energy of atom  1       EATOM= -809.7530
 kinetic energy error for atom=    9.5028 (will be added to EATOM!!)
  PAW_PBE Ir 06Sep2000                  :
 energy of atom  2       EATOM= -560.1833
 kinetic energy error for atom=    2.7978 (will be added to EATOM!!)
  PAW_PBE Pt 04Feb2005                  :
 energy of atom  3       EATOM= -729.1176
 kinetic energy error for atom=    6.2088 (will be added to EATOM!!)
  PAW_PBE Cu 22Jun2005                  :
 energy of atom  4       EATOM=-1390.9808
 kinetic energy error for atom=   13.2306 (will be added to EATOM!!)
 
 
 POSCAR: Pd Ir Pt Cu
  positions in cartesian coordinates
  No initial velocities read in
 exchange correlation table for  LEXCH =        8
   RHO(1)=    0.500       N(1)  =     2000
   RHO(2)=  100.500       N(2)  =     4000
 


--------------------------------------------------------------------------------------------------------


 ion  position               nearest neighbor table
   1  0.000  0.000  0.000-   2 2.73   3 2.73   4 2.73   3 2.73   4 2.73   2 2.73   4 2.73   4 2.73
                             2 2.73   3 2.73   3 2.73   2 2.73
   2  0.500  0.500  0.000-   1 2.73   3 2.73   4 2.73   3 2.73   4 2.73   1 2.73   3 2.73   3 2.73
                             1 2.73   4 2.73   4 2.73   1 2.73
   3  0.500  0.000  0.500-   1 2.73   2 2.73   4 2.73   1 2.73   2 2.73   2 2.73   4 2.73   2 2.73
                             1 2.73   4 2.73   1 2.73   4 2.73
   4  0.000  0.500  0.500-   1 2.73   2 2.73   3 2.73   1 2.73   2 2.73   1 2.73   3 2.73   1 2.73
                             2 2.73   3 2.73   2 2.73   3 2.73
 
  LATTYP: Found a simple cubic cell.
 ALAT       =     3.8660000000
  
  Lattice vectors:
  
 A1 = (   3.8660000000,   0.0000000000,   0.0000000000)
 A2 = (   0.0000000000,   3.8660000000,   0.0000000000)
 A3 = (   0.0000000000,   0.0000000000,   3.8660000000)


Analysis of symmetry for initial positions (statically):
=====================================================================
 Subroutine PRICEL returns:
 Original cell was already a primitive cell.
 

 Routine SETGRP: Setting up the symmetry group for a 
 simple cubic supercell.


 Subroutine GETGRP returns: Found  8 space group operations
 (whereof  8 operations were pure point group operations)
 out of a pool of 48 trial point group operations.


The static configuration has the point symmetry D_2h.


Analysis of symmetry for dynamics (positions and initial velocities):
=====================================================================
 Subroutine PRICEL returns:
 Original cell was already a primitive cell.
 

 Routine SETGRP: Setting up the symmetry group for a 
 simple cubic supercell.


 Subroutine GETGRP returns: Found  8 space group operations
 (whereof  8 operations were pure point group operations)
 out of a pool of 48 trial point group operations.


The dynamic configuration has the point symmetry D_2h.


 Subroutine INISYM returns: Found  8 space group operations
 (whereof  8 operations are pure point group operations),
 and found     1 'primitive' translations


----------------------------------------------------------------------------------------

                                     Primitive cell                                     

  volume of cell :      57.7811

  direct lattice vectors                    reciprocal lattice vectors
     3.866000000  0.000000000  0.000000000     0.258665287  0.000000000  0.000000000
     0.000000000  3.866000000  0.000000000     0.000000000  0.258665287  0.000000000
     0.000000000  0.000000000  3.866000000     0.000000000  0.000000000  0.258665287

  length of vectors
     3.866000000  3.866000000  3.866000000     0.258665287  0.258665287  0.258665287

  position of ions in fractional coordinates (direct lattice)
     0.000000000  0.000000000  0.000000000
     0.500000000  0.500000000  0.000000000
     0.500000000  0.000000000  0.500000000
     0.000000000  0.500000000  0.500000000

  ion indices of the primitive-cell ions
   primitive index   ion index
                 1           1
                 2           2
                 3           3
                 4           4

----------------------------------------------------------------------------------------

 
 
 KPOINTS: KPOINTS created by Atomic Simulation Env

Automatic generation of k-mesh.
 Grid dimensions read from file:
 generate k-points for:    5    5    5

 Generating k-lattice:

  Cartesian coordinates                     Fractional coordinates (reciprocal lattice)
     0.051733057  0.000000000  0.000000000     0.200000000  0.000000000  0.000000000
     0.000000000  0.051733057  0.000000000     0.000000000  0.200000000  0.000000000
     0.000000000  0.000000000  0.051733057     0.000000000  0.000000000  0.200000000

  Length of vectors
     0.051733057  0.051733057  0.051733057

  Shift w.r.t. Gamma in fractional coordinates (k-lattice)
     0.000000000  0.000000000  0.000000000

 
 Subroutine IBZKPT returns following result:
 ===========================================
 
 Found     27 irreducible k-points:
 
 Following reciprocal coordinates:
            Coordinates               Weight
  0.000000  0.000000  0.000000      1.000000
  0.200000  0.000000  0.000000      2.000000
  0.000000  0.200000  0.000000      2.000000
  0.000000  0.000000  0.200000      2.000000
  0.400000  0.000000  0.000000      2.000000
  0.000000  0.400000  0.000000      2.000000
  0.000000  0.000000  0.400000      2.000000
  0.200000  0.200000  0.000000      4.000000
  0.000000  0.200000  0.200000      4.000000
  0.200000  0.000000  0.200000      4.000000
  0.400000  0.200000  0.000000      4.000000
  0.000000  0.400000  0.200000      4.000000
  0.200000  0.000000  0.400000      4.000000
 -0.200000  0.400000  0.000000      4.000000
 -0.400000  0.000000  0.200000      4.000000
  0.000000  0.200000  0.400000      4.000000
  0.400000  0.400000  0.000000      4.000000
  0.000000  0.400000  0.400000      4.000000
  0.400000  0.000000  0.400000      4.000000
  0.200000  0.200000  0.200000      8.000000
  0.400000  0.200000  0.200000      8.000000
  0.200000  0.400000  0.200000      8.000000
  0.200000  0.200000  0.400000      8.000000
  0.400000  0.400000  0.200000      8.000000
  0.200000  0.400000  0.400000      8.000000
  0.400000  0.200000  0.400000      8.000000
  0.400000  0.400000  0.400000      8.000000
 
 Following cartesian coordinates:
            Coordinates               Weight
  0.000000  0.000000  0.000000      1.000000
  0.051733  0.000000  0.000000      2.000000
  0.000000  0.051733  0.000000      2.000000
  0.000000  0.000000  0.051733      2.000000
  0.103466  0.000000  0.000000      2.000000
  0.000000  0.103466  0.000000      2.000000
  0.000000  0.000000  0.103466      2.000000
  0.051733  0.051733  0.000000      4.000000
  0.000000  0.051733  0.051733      4.000000
  0.051733  0.000000  0.051733      4.000000
  0.103466  0.051733  0.000000      4.000000
  0.000000  0.103466  0.051733      4.000000
  0.051733  0.000000  0.103466      4.000000
 -0.051733  0.103466  0.000000      4.000000
 -0.103466  0.000000  0.051733      4.000000
  0.000000  0.051733  0.103466      4.000000
  0.103466  0.103466  0.000000      4.000000
  0.000000  0.103466  0.103466      4.000000
  0.103466  0.000000  0.103466      4.000000
  0.051733  0.051733  0.051733      8.000000
  0.103466  0.051733  0.051733      8.000000
  0.051733  0.103466  0.051733      8.000000
  0.051733  0.051733  0.103466      8.000000
  0.103466  0.103466  0.051733      8.000000
  0.051733  0.103466  0.103466      8.000000
  0.103466  0.051733  0.103466      8.000000
  0.103466  0.103466  0.103466      8.000000
 


--------------------------------------------------------------------------------------------------------




 Dimension of arrays:
   k-points           NKPTS =     27   k-points in BZ     NKDIM =     27   number of bands    NBANDS=     30
   number of dos      NEDOS =    301   number of ions     NIONS =      4
   non local maximal  LDIM  =      6   non local SUM 2l+1 LMDIM =     18
   total plane-waves  NPLWV =   1728
   max r-space proj   IRMAX =      1   max aug-charges    IRDMAX=   2362
   dimension x,y,z NGX =    12 NGY =   12 NGZ =   12
   dimension x,y,z NGXF=    24 NGYF=   24 NGZF=   24
   support grid    NGXF=    24 NGYF=   24 NGZF=   24
   ions per type =               1   1   1   1
   NGX,Y,Z   is equivalent  to a cutoff of   5.16,  5.16,  5.16 a.u.
   NGXF,Y,Z  is equivalent  to a cutoff of  10.32, 10.32, 10.32 a.u.

 SYSTEM =  unknown system                          
 POSCAR =  Pd Ir Pt Cu                             

 Startparameter for this run:
   NWRITE =      2    write-flag & timer
   PREC   = normal    normal or accurate (medium, high low for compatibility)
   ISTART =      1    job   : 0-new  1-cont  2-samecut
   ICHARG =      1    charge: 1-file 2-atom 10-const
   ISPIN  =      1    spin polarized calculation?
   LNONCOLLINEAR =      F non collinear calculations
   LSORBIT =      F    spin-orbit coupling
   INIWAV =      1    electr: 0-lowe 1-rand  2-diag
   LASPH  =      F    aspherical Exc in radial PAW
   METAGGA=      F    non-selfconsistent MetaGGA calc.

 Electronic Relaxation 1
   ENCUT  =  140.0 eV  10.29 Ry    3.21 a.u.   3.73  3.73  3.73*2*pi/ulx,y,z
   ENINI  =  140.0     initial cutoff
   ENAUG  =  587.0 eV  augmentation charge cutoff
   NELM   =     60;   NELMIN=  2; NELMDL=  0     # of ELM steps 
   EDIFF  = 0.1E-05   stopping-criterion for ELM
   LREAL  =      F    real-space projection
   NLSPLINE    = F    spline interpolate recip. space projectors
   LCOMPAT=      F    compatible to vasp.4.4
   GGA_COMPAT  = T    GGA compatible to vasp.4.4-vasp.4.6
   LMAXPAW     = -100 max onsite density
   LMAXMIX     =    2 max onsite mixed and CHGCAR
   VOSKOWN=      0    Vosko Wilk Nusair interpolation
   ROPT   =    0.00000   0.00000   0.00000   0.00000
 Ionic relaxation
   EDIFFG = 0.1E-04   stopping-criterion for IOM
   NSW    =      0    number of steps for IOM
   NBLOCK =      1;   KBLOCK =      1    inner block; outer block 
   IBRION =     -1    ionic relax: 0-MD 1-quasi-New 2-CG
   NFREE  =      0    steps in history (QN), initial steepest desc. (CG)
   ISIF   =      2    stress and relaxation
   IWAVPR =      0    prediction:  0-non 1-charg 2-wave 3-comb
   ISYM   =      2    0-nonsym 1-usesym 2-fastsym
   LCORR  =      T    Harris-Foulkes like correction to forces

   POTIM  = 0.5000    time-step for ionic-motion
   TEIN   =    0.0    initial temperature
   TEBEG  =    0.0;   TEEND  =   0.0 temperature during run
   SMASS  =  -3.00    Nose mass-parameter (am)
   estimated Nose-frequenzy (Omega)   =  0.10E-29 period in steps = 0.13E+47 mass=  -0.342E-27a.u.
   SCALEE = 1.0000    scale energy and forces
   NPACO  =    256;   APACO  = 16.0  distance and # of slots for P.C.
   PSTRESS=    0.0 pullay stress

  Mass of Ions in am
   POMASS = 106.42192.22195.08 63.55
  Ionic Valenz
   ZVAL   =  10.00  9.00 10.00 11.00
  Atomic Wigner-Seitz radii
   RWIGS  =  -1.00 -1.00 -1.00 -1.00
  virtual crystal weights 
   VCA    =   1.00  1.00  1.00  1.00
   NELECT =      40.0000    total number of electrons
   NUPDOWN=      -1.0000    fix difference up-down

 DOS related values:
   EMIN   =  10.00;   EMAX   =-10.00  energy-range for DOS
   EFERMI =   0.00
   ISMEAR =     1;   SIGMA  =   0.20  broadening in eV -4-tet -1-fermi 0-gaus

 Electronic relaxation 2 (details)
   IALGO  =     38    algorithm
   LDIAG  =      T    sub-space diagonalisation (order eigenvalues)
   LSUBROT=      F    optimize rotation matrix (better conditioning)
   TURBO    =      0    0=normal 1=particle mesh
   IRESTART =      0    0=no restart 2=restart with 2 vectors
   NREBOOT  =      0    no. of reboots
   NMIN     =      0    reboot dimension
   EREF     =   0.00    reference energy to select bands
   IMIX   =      4    mixing-type and parameters
     AMIX     =   0.40;   BMIX     =  1.00
     AMIX_MAG =   1.60;   BMIX_MAG =  1.00
     AMIN     =   0.10
     WC   =   100.;   INIMIX=   1;  MIXPRE=   1;  MAXMIX= -45

 Intra band minimization:
   WEIMIN = 0.0000     energy-eigenvalue tresh-hold
   EBREAK =  0.83E-08  absolut break condition
   DEPER  =   0.30     relativ break condition  

   TIME   =   0.40     timestep for ELM

  volume/ion in A,a.u.               =      14.45        97.48
  Fermi-wavevector in a.u.,A,eV,Ry     =   1.448215  2.736729 28.535854  2.097326
  Thomas-Fermi vector in A             =   2.566081
 
 Write flags
   LWAVE        =      T    write WAVECAR
   LDOWNSAMPLE  =      F    k-point downsampling of WAVECAR
   LCHARG       =      T    write CHGCAR
   LVTOT        =      F    write LOCPOT, total local potential
   LVHAR        =      F    write LOCPOT, Hartree potential only
   LELF         =      F    write electronic localiz. function (ELF)
   LORBIT       =      0    0 simple, 1 ext, 2 COOP (PROOUT), +10 PAW based schemes


 Dipole corrections
   LMONO  =      F    monopole corrections only (constant potential shift)
   LDIPOL =      F    correct potential (dipole corrections)
   IDIPOL =      0    1-x, 2-y, 3-z, 4-all directions 
   EPSILON=  1.0000000 bulk dielectric constant

 Exchange correlation treatment:
   GGA     =    PE    GGA type
   LEXCH   =     8    internal setting for exchange type
   VOSKOWN=      0    Vosko Wilk Nusair interpolation
   LHFCALC =     F    Hartree Fock is set to
   LHFONE  =     F    Hartree Fock one center treatment
   AEXX    =    0.0000 exact exchange contribution

 Linear response parameters
   LEPSILON=     F    determine dielectric tensor
   LRPA    =     F    only Hartree local field effects (RPA)
   LNABLA  =     F    use nabla operator in PAW spheres
   LVEL    =     F    velocity operator in full k-point grid
   LINTERFAST=   F  fast interpolation
   KINTER  =     0    interpolate to denser k-point grid
   CSHIFT  =0.1000    complex shift for real part using Kramers Kronig
   OMEGAMAX=  -1.0    maximum frequency
   DEG_THRESHOLD= 0.2000000E-02 threshold for treating states as degnerate
   RTIME   =   -0.100 relaxation time in fs
  (WPLASMAI=    0.000 imaginary part of plasma frequency in eV, 0.658/RTIME)
   DFIELD  = 0.0000000 0.0000000 0.0000000 field for delta impulse in time
 
 Orbital magnetization related:
   ORBITALMAG=     F  switch on orbital magnetization
   LCHIMAG   =     F  perturbation theory with respect to B field
   DQ        =  0.001000  dq finite difference perturbation B field
   LLRAUG    =     F  two centre corrections for induced B field



--------------------------------------------------------------------------------------------------------


 Static calculation
 charge density and potential will be updated during run
 non-spin polarized calculation
 Variant of blocked Davidson
 Davidson routine will perform the subspace rotation
 perform sub-space diagonalisation
    after iterative eigenvector-optimisation
 modified Broyden-mixing scheme, WC =      100.0
 initial mixing is a Kerker type mixing with AMIX =  0.4000 and BMIX =      1.0000
 Hartree-type preconditioning will be used
 using additional bands           10
 reciprocal scheme for non local part
 use partial core corrections
 calculate Harris-corrections to forces 
   (improved forces if not selfconsistent)
 use gradient corrections 
 use of overlap-Matrix (Vanderbilt PP)
 Methfessel and Paxton  Order N= 1 SIGMA  =   0.20


--------------------------------------------------------------------------------------------------------


  energy-cutoff  :      140.00
  volume of cell :       57.78
      direct lattice vectors                 reciprocal lattice vectors
     3.866000000  0.000000000  0.000000000     0.258665287  0.000000000  0.000000000
     0.000000000  3.866000000  0.000000000     0.000000000  0.258665287  0.000000000
     0.000000000  0.000000000  3.866000000     0.000000000  0.000000000  0.258665287

  length of vectors
     3.866000000  3.866000000  3.866000000     0.258665287  0.258665287  0.258665287


 
 old parameters found on file WAVECAR:
  energy-cutoff  :      140.00
  volume of cell :       57.78
      direct lattice vectors                 reciprocal lattice vectors
     3.866000000  0.000000000  0.000000000     0.258665287  0.000000000  0.000000000
     0.000000000  3.866000000  0.000000000     0.000000000  0.258665287  0.000000000
     0.000000000  0.000000000  3.866000000     0.000000000  0.000000000  0.258665287

  length of vectors

 
 k-points in units of 2pi/SCALE and weight: KPOINTS created by Atomic Simulation Env
   0.00000000  0.00000000  0.00000000       0.008
   0.05173306  0.00000000  0.00000000       0.016
   0.00000000  0.05173306  0.00000000       0.016
   0.00000000  0.00000000  0.05173306       0.016
   0.10346611  0.00000000  0.00000000       0.016
   0.00000000  0.10346611  0.00000000       0.016
   0.00000000  0.00000000  0.10346611       0.016
   0.05173306  0.05173306  0.00000000       0.032
   0.00000000  0.05173306  0.05173306       0.032
   0.05173306  0.00000000  0.05173306       0.032
   0.10346611  0.05173306  0.00000000       0.032
   0.00000000  0.10346611  0.05173306       0.032
   0.05173306  0.00000000  0.10346611       0.032
  -0.05173306  0.10346611  0.00000000       0.032
  -0.10346611  0.00000000  0.05173306       0.032
   0.00000000  0.05173306  0.10346611       0.032
   0.10346611  0.10346611  0.00000000       0.032
   0.00000000  0.10346611  0.10346611       0.032
   0.10346611  0.00000000  0.10346611       0.032
   0.05173306  0.05173306  0.05173306       0.064
   0.10346611  0.05173306  0.05173306       0.064
   0.05173306  0.10346611  0.05173306       0.064
   0.05173306  0.05173306  0.10346611       0.064
   0.10346611  0.10346611  0.05173306       0.064
   0.05173306  0.10346611  0.10346611       0.064
   0.10346611  0.05173306  0.10346611       0.064
   0.10346611  0.10346611  0.10346611       0.064
 
 k-points in reciprocal lattice and weights: KPOINTS created by Atomic Simulation Env
   0.00000000  0.00000000  0.00000000       0.008
   0.20000000  0.00000000  0.00000000       0.016
   0.00000000  0.20000000  0.00000000       0.016
   0.00000000  0.00000000  0.20000000       0.016
   0.40000000  0.00000000  0.00000000       0.016
   0.00000000  0.40000000  0.00000000       0.016
   0.00000000  0.00000000  0.40000000       0.016
   0.20000000  0.20000000  0.00000000       0.032
   0.00000000  0.20000000  0.20000000       0.032
   0.20000000  0.00000000  0.20000000       0.032
   0.40000000  0.20000000  0.00000000       0.032
   0.00000000  0.40000000  0.20000000       0.032
   0.20000000  0.00000000  0.40000000       0.032
  -0.20000000  0.40000000  0.00000000       0.032
  -0.40000000  0.00000000  0.20000000       0.032
   0.00000000  0.20000000  0.40000000       0.032
   0.40000000  0.40000000  0.00000000       0.032
   0.00000000  0.40000000  0.40000000       0.032
   0.40000000  0.00000000  0.40000000       0.032
   0.20000000  0.20000000  0.20000000       0.064
   0.40000000  0.20000000  0.20000000       0.064
   0.20000000  0.40000000  0.20000000       0.064
   0.20000000  0.20000000  0.40000000       0.064
   0.40000000  0.40000000  0.20000000       0.064
   0.20000000  0.40000000  0.40000000       0.064
   0.40000000  0.20000000  0.40000000       0.064
   0.40000000  0.40000000  0.40000000       0.064
 
 position of ions in fractional coordinates (direct lattice) 
   0.00000000  0.00000000  0.00000000
   0.50000000  0.50000000  0.00000000
   0.50000000  0.00000000  0.50000000
   0.00000000  0.50000000  0.50000000
 
 position of ions in cartesian coordinates  (Angst):
   0.00000000  0.00000000  0.00000000
   1.93300000  1.93300000  0.00000000
   1.93300000  0.00000000  1.93300000
   0.00000000  1.93300000  1.93300000
 


--------------------------------------------------------------------------------------------------------


 k-point   1 :   0.0000 0.0000 0.0000  plane waves:     203
 k-point   2 :   0.2000 0.0000 0.0000  plane waves:     223
 k-point   3 :   0.0000 0.2000 0.0000  plane waves:     223
 k-point   4 :   0.0000 0.0000 0.2000  plane waves:     223
 k-point   5 :   0.4000 0.0000 0.0000  plane waves:     220
 k-point   6 :   0.0000 0.4000 0.0000  plane waves:     220
 k-point   7 :   0.0000 0.0000 0.4000  plane waves:     220
 k-point   8 :   0.2000 0.2000 0.0000  plane waves:     221
 k-point   9 :   0.0000 0.2000 0.2000  plane waves:     221
 k-point  10 :   0.2000 0.0000 0.2000  plane waves:     221
 k-point  11 :   0.4000 0.2000 0.0000  plane waves:     212
 k-point  12 :   0.0000 0.4000 0.2000  plane waves:     212
 k-point  13 :   0.2000 0.0000 0.4000  plane waves:     212
 k-point  14 :  -0.2000 0.4000 0.0000  plane waves:     212
 k-point  15 :  -0.4000 0.0000 0.2000  plane waves:     212
 k-point  16 :   0.0000 0.2000 0.4000  plane waves:     212
 k-point  17 :   0.4000 0.4000 0.0000  plane waves:     218
 k-point  18 :   0.0000 0.4000 0.4000  plane waves:     218
 k-point  19 :   0.4000 0.0000 0.4000  plane waves:     218
 k-point  20 :   0.2000 0.2000 0.2000  plane waves:     214
 k-point  21 :   0.4000 0.2000 0.2000  plane waves:     221
 k-point  22 :   0.2000 0.4000 0.2000  plane waves:     221
 k-point  23 :   0.2000 0.2000 0.4000  plane waves:     221
 k-point  24 :   0.4000 0.4000 0.2000  plane waves:     216
 k-point  25 :   0.2000 0.4000 0.4000  plane waves:     216
 k-point  26 :   0.4000 0.2000 0.4000  plane waves:     216
 k-point  27 :   0.4000 0.4000 0.4000  plane waves:     223

 maximum number of plane-waves:       223
 maximum index in each direction: 
   IXMAX=    4   IYMAX=    3   IZMAX=    3
   IXMIN=   -4   IYMIN=   -4   IZMIN=   -4


 total amount of memory used by VASP MPI-rank0    38498. kBytes
=======================================================================

   base      :      30000. kBytes
   nonl-proj :       3482. kBytes
   grid      :       1131. kBytes
   one-center:         62. kBytes
   wavefun   :       3823. kBytes
 
     INWAV:  cpu time    0.0042: real time    0.0042
 Broyden mixing: mesh for mixing (old mesh)
   NGX =  7   NGY =  7   NGZ =  7
  (NGX  = 24   NGY  = 24   NGZ  = 24)
  gives a total of    343 points

 initial charge density was supplied:
 number of electron      39.9998724 magnetization 
 keeping initial charge density in first step


--------------------------------------------------------------------------------------------------------


 Maximum index for augmentation-charges         2103 (set IRDMAX)


--------------------------------------------------------------------------------------------------------


 First call to EWALD:  gamma=   0.458
 Maximum number of real-space cells 3x 3x 3
 Maximum number of reciprocal cells 3x 3x 3

    FEWALD:  cpu time    0.0009: real time    0.0009


--------------------------------------- Iteration      1(   1)  ---------------------------------------


    POTLOK:  cpu time    0.0036: real time    0.0036
    SETDIJ:  cpu time    0.0037: real time    0.0037
     EDDAV:  cpu time    0.1764: real time    0.1978
       DOS:  cpu time    0.0024: real time    0.0024
    CHARGE:  cpu time    0.0103: real time    0.0103
    MIXING:  cpu time    0.0001: real time    0.0001
    --------------------------------------------
      LOOP:  cpu time    0.1966: real time    0.2180

 eigenvalue-minimisations  :  1770
 total energy-change (2. order) : 0.1876668E+02  (-0.3834998E-03)
 number of electron      39.9998724 magnetization 
 augmentation part       15.3031757 magnetization 

 Broyden mixing:
  rms(total) = 0.71073E-02    rms(broyden)= 0.56086E-02
  rms(prec ) = 0.11971E-01
  weight for this iteration     100.00
  WARNING: grid for Broyden might be to small

 Free energy of the ion-electron system (eV)
  ---------------------------------------------------
  alpha Z        PSCENC =       244.65455147
  Ewald energy   TEWEN  =     -3423.86860972
  -Hartree energ DENC   =      -530.75301984
  -exchange      EXHF   =         0.00000000
  -V(xc)+E(xc)   XCENC  =        -0.87185363
  PAW double counting   =      5438.39415803    -5393.74567616
  entropy T*S    EENTRO =        -0.00130629
  eigenvalues    EBANDS =       226.66376009
  atomic energy  EATOM  =      3458.29467373
  Solvation  Ediel_sol  =         0.00000000
  ---------------------------------------------------
  free energy    TOTEN  =        18.76667767 eV

  energy without entropy =       18.76798396  energy(sigma->0) =       18.76711310


--------------------------------------------------------------------------------------------------------




--------------------------------------- Iteration      1(   2)  ---------------------------------------


    POTLOK:  cpu time    0.0034: real time    0.0034
    SETDIJ:  cpu time    0.0036: real time    0.0036
     EDDAV:  cpu time    0.1514: real time    0.1514
       DOS:  cpu time    0.0023: real time    0.0023
    CHARGE:  cpu time    0.0103: real time    0.0103
    MIXING:  cpu time    0.0002: real time    0.0002
    --------------------------------------------
      LOOP:  cpu time    0.1713: real time    0.1713

 eigenvalue-minimisations  :  1800
 total energy-change (2. order) : 0.1979862E-01  (-0.5056364E-03)
 number of electron      39.9998724 magnetization 
 augmentation part       15.3030654 magnetization 

 Broyden mixing:
  rms(total) = 0.99480E-02    rms(broyden)= 0.90471E-02
  rms(prec ) = 0.23282E-01
  weight for this iteration     100.00

 eigenvalues of (default mixing * dielectric matrix)
  average eigenvalue GAMMA=   0.3811
  0.3811

 Free energy of the ion-electron system (eV)
  ---------------------------------------------------
  alpha Z        PSCENC =       244.65455147
  Ewald energy   TEWEN  =     -3423.86860972
  -Hartree energ DENC   =      -530.81040718
  -exchange      EXHF   =         0.00000000
  -V(xc)+E(xc)   XCENC  =        -0.86743931
  PAW double counting   =      5438.77854868    -5394.17629097
  entropy T*S    EENTRO =        -0.00266926
  eigenvalues    EBANDS =       226.78411886
  atomic energy  EATOM  =      3458.29467373
  Solvation  Ediel_sol  =         0.00000000
  ---------------------------------------------------
  free energy    TOTEN  =        18.78647629 eV

  energy without entropy =       18.78914555  energy(sigma->0) =       18.78736604


--------------------------------------------------------------------------------------------------------




--------------------------------------- Iteration      1(   3)  ---------------------------------------


    POTLOK:  cpu time    0.0034: real time    0.0034
    SETDIJ:  cpu time    0.0036: real time    0.0036
     EDDAV:  cpu time    0.1455: real time    0.1455
       DOS:  cpu time    0.0024: real time    0.0024
    CHARGE:  cpu time    0.0102: real time    0.0102
    MIXING:  cpu time    0.0002: real time    0.0002
    --------------------------------------------
      LOOP:  cpu time    0.1652: real time    0.1652

 eigenvalue-minimisations  :  1728
 total energy-change (2. order) : 0.1596564E-03  (-0.2696253E-04)
 number of electron      39.9998724 magnetization 
 augmentation part       15.3040835 magnetization 

 Broyden mixing:
  rms(total) = 0.35406E-02    rms(broyden)= 0.34980E-02
  rms(prec ) = 0.78662E-02
  weight for this iteration     100.00

 eigenvalues of (default mixing * dielectric matrix)
  average eigenvalue GAMMA=   0.4810
  0.4810  0.4810

 Free energy of the ion-electron system (eV)
  ---------------------------------------------------
  alpha Z        PSCENC =       244.65455147
  Ewald energy   TEWEN  =     -3423.86860972
  -Hartree energ DENC   =      -530.75594130
  -exchange      EXHF   =         0.00000000
  -V(xc)+E(xc)   XCENC  =        -0.87144681
  PAW double counting   =      5438.67357024    -5394.04606357
  entropy T*S    EENTRO =        -0.00237794
  eigenvalues    EBANDS =       226.70827984
  atomic energy  EATOM  =      3458.29467373
  Solvation  Ediel_sol  =         0.00000000
  ---------------------------------------------------
  free energy    TOTEN  =        18.78663594 eV

  energy without entropy =       18.78901388  energy(sigma->0) =       18.78742859


--------------------------------------------------------------------------------------------------------




--------------------------------------- Iteration      1(   4)  ---------------------------------------


    POTLOK:  cpu time    0.0034: real time    0.0034
    SETDIJ:  cpu time    0.0036: real time    0.0036
     EDDAV:  cpu time    0.1679: real time    0.1679
       DOS:  cpu time    0.0024: real time    0.0024
    CHARGE:  cpu time    0.0106: real time    0.0106
    MIXING:  cpu time    0.0002: real time    0.0002
    --------------------------------------------
      LOOP:  cpu time    0.1881: real time    0.1881

 eigenvalue-minimisations  :  1854
 total energy-change (2. order) : 0.3659812E-05  (-0.1167471E-05)
 number of electron      39.9998724 magnetization 
 augmentation part       15.3038367 magnetization 

 Broyden mixing:
  rms(total) = 0.26175E-02    rms(broyden)= 0.26144E-02
  rms(prec ) = 0.56268E-02
  weight for this iteration     100.00

 eigenvalues of (default mixing * dielectric matrix)
  average eigenvalue GAMMA=   0.4680
  0.5350  0.5350  0.3340

 Free energy of the ion-electron system (eV)
  ---------------------------------------------------
  alpha Z        PSCENC =       244.65455147
  Ewald energy   TEWEN  =     -3423.86860972
  -Hartree energ DENC   =      -530.76158170
  -exchange      EXHF   =         0.00000000
  -V(xc)+E(xc)   XCENC  =        -0.87134178
  PAW double counting   =      5438.52780460    -5393.89938647
  entropy T*S    EENTRO =        -0.00238477
  eigenvalues    EBANDS =       226.71291425
  atomic energy  EATOM  =      3458.29467373
  Solvation  Ediel_sol  =         0.00000000
  ---------------------------------------------------
  free energy    TOTEN  =        18.78663960 eV

  energy without entropy =       18.78902438  energy(sigma->0) =       18.78743453


--------------------------------------------------------------------------------------------------------




--------------------------------------- Iteration      1(   5)  ---------------------------------------


    POTLOK:  cpu time    0.0034: real time    0.0034
    SETDIJ:  cpu time    0.0037: real time    0.0037
     EDDAV:  cpu time    0.1111: real time    0.1111
       DOS:  cpu time    0.0025: real time    0.0025
    --------------------------------------------
      LOOP:  cpu time    0.1208: real time    0.1208

 eigenvalue-minimisations  :   900
 total energy-change (2. order) : 0.6728624E-06  (-0.6818721E-07)
 number of electron      39.9998724 magnetization 
 augmentation part       15.3038367 magnetization 

 Free energy of the ion-electron system (eV)
  ---------------------------------------------------
  alpha Z        PSCENC =       244.65455147
  Ewald energy   TEWEN  =     -3423.86860972
  -Hartree energ DENC   =      -530.75710122
  -exchange      EXHF   =         0.00000000
  -V(xc)+E(xc)   XCENC  =        -0.87154745
  PAW double counting   =      5438.48001399    -5393.85016751
  entropy T*S    EENTRO =        -0.00236160
  eigenvalues    EBANDS =       226.70718859
  atomic energy  EATOM  =      3458.29467373
  Solvation  Ediel_sol  =         0.00000000
  ---------------------------------------------------
  free energy    TOTEN  =        18.78664027 eV

  energy without entropy =       18.78900187  energy(sigma->0) =       18.78742747


--------------------------------------------------------------------------------------------------------




 average (electrostatic) potential at core
  the test charge radii are     1.1199  1.2793  1.2059  0.9430
  (the norm of the test charge is              1.0000)
       1 -75.3284       2 -50.1173       3 -67.1059       4 -69.4239
 
 
 
 E-fermi :   9.4891     XC(G=0): -13.1130     alpha+bet :-15.1862

 Fermi energy:         9.4890550413

 k-point     1 :       0.0000    0.0000    0.0000
  band No.  band energies     occupation 
      1       0.1830      2.00000
      2       2.3036      2.00000
      3       3.2595      2.00000
      4       3.4963      2.00000
      5       3.5493      2.00000
      6       3.6961      2.00000
      7       3.8429      2.00000
      8       4.8372      2.00000
      9       4.9880      2.00000
     10       5.5436      2.00000
     11       6.4672      2.00000
     12       6.7836      2.00000
     13      10.0577     -0.00044
     14      10.6680     -0.00000
     15      10.7453     -0.00000
     16      10.8110     -0.00000
     17      11.0032     -0.00000
     18      11.0484     -0.00000
     19      11.2853     -0.00000
     20      11.4355     -0.00000
     21      11.4684     -0.00000
     22      11.4712     -0.00000
     23      11.9118     -0.00000
     24      12.4486     -0.00000
     25      17.3882      0.00000
     26      17.7464      0.00000
     27      19.4317      0.00000
     28      20.1975      0.00000
     29      20.4004      0.00000
     30      20.7231      0.00000

 k-point     2 :       0.2000    0.0000    0.0000
  band No.  band energies     occupation 
      1       0.6485      2.00000
      2       2.6791      2.00000
      3       3.2188      2.00000
      4       3.5076      2.00000
      5       3.5219      2.00000
      6       3.5565      2.00000
      7       3.8983      2.00000
      8       3.9907      2.00000
      9       4.4708      2.00000
     10       4.5860      2.00000
     11       5.6929      2.00000
     12       6.0111      2.00000
     13       6.8006      2.00000
     14       6.8914      2.00000
     15       7.3927      2.00000
     16       7.5012      2.00000
     17       8.9261      2.00051
     18       9.2324      2.06995
     19       9.3711      1.83073
     20       9.5726      0.35668
     21       9.7094     -0.06543
     22      11.0060     -0.00000
     23      13.1164     -0.00000
     24      13.1509     -0.00000
     25      17.3725      0.00000
     26      17.6657      0.00000
     27      20.3670      0.00000
     28      20.3715      0.00000
     29      20.4379      0.00000
     30      21.0674      0.00000

 k-point     3 :       0.0000    0.2000    0.0000
  band No.  band energies     occupation 
      1       0.6954      2.00000
      2       2.6491      2.00000
      3       3.2293      2.00000
      4       3.5218      2.00000
      5       3.6346      2.00000
      6       3.6938      2.00000
      7       3.7310      2.00000
      8       3.8208      2.00000
      9       4.3232      2.00000
     10       4.4314      2.00000
     11       5.8221      2.00000
     12       5.9676      2.00000
     13       6.9048      2.00000
     14       7.2742      2.00000
     15       7.7816      2.00000
     16       8.3673      2.00000
     17       8.5206      2.00000
     18       9.1888      2.05519
     19       9.2178      2.06649
     20       9.3548      1.89872
     21       9.4962      0.93995
     22       9.7470     -0.06973
     23      13.2710     -0.00000
     24      13.4484     -0.00000
     25      16.8783      0.00000
     26      18.3653      0.00000
     27      20.2778      0.00000
     28      20.3180      0.00000
     29      20.5189      0.00000
     30      21.2687      0.00000

 k-point     4 :       0.0000    0.0000    0.2000
  band No.  band energies     occupation 
      1       0.6967      2.00000
      2       2.7060      2.00000
      3       3.2747      2.00000
      4       3.4956      2.00000
      5       3.5168      2.00000
      6       3.5406      2.00000
      7       3.8843      2.00000
      8       3.9633      2.00000
      9       4.3680      2.00000
     10       4.5649      2.00000
     11       5.7503      2.00000
     12       5.9438      2.00000
     13       6.7301      2.00000
     14       7.3444      2.00000
     15       7.6295      2.00000
     16       7.6421      2.00000
     17       8.8653      2.00009
     18       8.9794      2.00186
     19       9.1043      2.02029
     20       9.6311      0.07334
     21       9.7558     -0.06776
     22      10.2590     -0.00000
     23      13.2009     -0.00000
     24      13.4169     -0.00000
     25      16.5051      0.00000
     26      18.6669      0.00000
     27      20.3790      0.00000
     28      20.4002      0.00000
     29      20.5680      0.00000
     30      21.2528      0.00000

 k-point     5 :       0.4000    0.0000    0.0000
  band No.  band energies     occupation 
      1       1.7238      2.00000
      2       3.4439      2.00000
      3       3.5252      2.00000
      4       3.7579      2.00000
      5       3.7980      2.00000
      6       4.4495      2.00000
      7       4.4624      2.00000
      8       4.6483      2.00000
      9       5.0784      2.00000
     10       5.2469      2.00000
     11       5.3252      2.00000
     12       5.9296      2.00000
     13       6.1444      2.00000
     14       6.1534      2.00000
     15       6.5700      2.00000
     16       6.7007      2.00000
     17       7.1829      2.00000
     18       8.4332      2.00000
     19       8.4836      2.00000
     20       8.6008      2.00000
     21       9.1222      2.02629
     22      10.9186     -0.00000
     23      15.7081      0.00000
     24      15.7839      0.00000
     25      16.4191      0.00000
     26      17.9211      0.00000
     27      18.5745      0.00000
     28      18.6977      0.00000
     29      19.2129      0.00000
     30      22.0343      0.00000

 k-point     6 :       0.0000    0.4000    0.0000
  band No.  band energies     occupation 
      1       2.0059      2.00000
      2       3.3266      2.00000
      3       3.4275      2.00000
      4       3.6006      2.00000
      5       3.6937      2.00000
      6       4.2882      2.00000
      7       4.3990      2.00000
      8       4.8456      2.00000
      9       4.8971      2.00000
     10       5.1699      2.00000
     11       5.2760      2.00000
     12       6.5592      2.00000
     13       6.5743      2.00000
     14       6.6779      2.00000
     15       6.8197      2.00000
     16       7.6587      2.00000
     17       7.8580      2.00000
     18       7.9062      2.00000
     19       7.9585      2.00000
     20       8.1325      2.00000
     21       8.1503      2.00000
     22       9.2361      2.07045
     23      15.9899      0.00000
     24      16.0147      0.00000
     25      16.1422      0.00000
     26      18.2852      0.00000
     27      18.3671      0.00000
     28      18.5237      0.00000
     29      20.4959      0.00000
     30      21.1417      0.00000

 k-point     7 :       0.0000    0.0000    0.4000
  band No.  band energies     occupation 
      1       2.0228      2.00000
      2       3.3696      2.00000
      3       3.5177      2.00000
      4       3.7738      2.00000
      5       3.8058      2.00000
      6       4.3468      2.00000
      7       4.4507      2.00000
      8       4.5889      2.00000
      9       4.9544      2.00000
     10       5.2934      2.00000
     11       5.3470      2.00000
     12       6.1698      2.00000
     13       6.1927      2.00000
     14       6.3108      2.00000
     15       6.8976      2.00000
     16       7.1001      2.00000
     17       7.1399      2.00000
     18       8.1784      2.00000
     19       8.2664      2.00000
     20       8.4628      2.00000
     21       8.5228      2.00000
     22      10.1428     -0.00004
     23      15.6228      0.00000
     24      15.9541      0.00000
     25      16.0519      0.00000
     26      18.3474      0.00000
     27      18.6351      0.00000
     28      18.8804      0.00000
     29      20.1240      0.00000
     30      21.4275      0.00000

 k-point     8 :       0.2000    0.2000    0.0000
  band No.  band energies     occupation 
      1       1.1277      2.00000
      2       3.0066      2.00000
      3       3.5030      2.00000
      4       3.5087      2.00000
      5       3.5463      2.00000
      6       4.0031      2.00000
      7       4.1063      2.00000
      8       4.2623      2.00000
      9       4.3780      2.00000
     10       4.5691      2.00000
     11       5.8325      2.00000
     12       6.2043      2.00000
     13       6.6051      2.00000
     14       6.8069      2.00000
     15       7.4468      2.00000
     16       7.7480      2.00000
     17       7.9089      2.00000
     18       8.6750      2.00000
     19       9.0574      2.00927
     20       9.1005      2.01914
     21       9.9422     -0.00618
     22      10.5528     -0.00000
     23      11.9054     -0.00000
     24      14.5432     -0.00000
     25      16.6406      0.00000
     26      18.8429      0.00000
     27      19.7797      0.00000
     28      20.2160      0.00000
     29      21.2112      0.00000
     30      21.8175      0.00000

 k-point     9 :       0.0000    0.2000    0.2000
  band No.  band energies     occupation 
      1       1.1527      2.00000
      2       3.0095      2.00000
      3       3.4739      2.00000
      4       3.5475      2.00000
      5       3.6511      2.00000
      6       3.9687      2.00000
      7       4.1097      2.00000
      8       4.1966      2.00000
      9       4.2528      2.00000
     10       4.6424      2.00000
     11       5.9617      2.00000
     12       6.0976      2.00000
     13       6.6470      2.00000
     14       6.7977      2.00000
     15       7.4666      2.00000
     16       7.7874      2.00000
     17       8.1390      2.00000
     18       8.6096      2.00000
     19       8.8357      2.00004
     20       8.9139      2.00037
     21       9.6941     -0.05508
     22      10.6431     -0.00000
     23      12.3651     -0.00000
     24      14.3984     -0.00000
     25      16.4425      0.00000
     26      18.8763      0.00000
     27      19.3347      0.00000
     28      20.8629      0.00000
     29      21.3157      0.00000
     30      21.8805      0.00000

 k-point    10 :       0.2000    0.0000    0.2000
  band No.  band energies     occupation 
      1       1.1262      2.00000
      2       3.0554      2.00000
      3       3.4604      2.00000
      4       3.4969      2.00000
      5       3.5564      2.00000
      6       3.9955      2.00000
      7       4.1424      2.00000
      8       4.3010      2.00000
      9       4.4742      2.00000
     10       4.5900      2.00000
     11       5.7720      2.00000
     12       6.2034      2.00000
     13       6.4198      2.00000
     14       6.9176      2.00000
     15       7.2713      2.00000
     16       7.5111      2.00000
     17       7.6864      2.00000
     18       8.8543      2.00007
     19       9.3279      1.98309
     20       9.3635      1.86413
     21      10.1245     -0.00007
     22      10.7320     -0.00000
     23      11.4892     -0.00000
     24      14.5620     -0.00000
     25      16.5590      0.00000
     26      18.7824      0.00000
     27      19.6804      0.00000
     28      20.4468      0.00000
     29      21.3826      0.00000
     30      21.9431      0.00000

 k-point    11 :       0.4000    0.2000    0.0000
  band No.  band energies     occupation 
      1       2.2249      2.00000
      2       3.7646      2.00000
      3       3.9550      2.00000
      4       4.1430      2.00000
      5       4.3382      2.00000
      6       4.3696      2.00000
      7       4.7387      2.00000
      8       4.8615      2.00000
      9       5.1351      2.00000
     10       5.4494      2.00000
     11       5.9307      2.00000
     12       5.9334      2.00000
     13       6.3139      2.00000
     14       6.3152      2.00000
     15       6.9658      2.00000
     16       7.4953      2.00000
     17       8.1974      2.00000
     18       8.5505      2.00000
     19       8.6551      2.00000
     20       8.8302      2.00003
     21       9.6365      0.05557
     22      10.4481     -0.00000
     23      12.8707     -0.00000
     24      14.9503      0.00000
     25      17.2070      0.00000
     26      17.7327      0.00000
     27      19.7731      0.00000
     28      19.8532      0.00000
     29      22.0301      0.00000
     30      23.1795      0.00000

 k-point    12 :       0.0000    0.4000    0.2000
  band No.  band energies     occupation 
      1       2.4186      2.00000
      2       3.6681      2.00000
      3       3.7803      2.00000
      4       3.9044      2.00000
      5       4.2823      2.00000
      6       4.5337      2.00000
      7       4.9155      2.00000
      8       4.9591      2.00000
      9       5.1670      2.00000
     10       5.8121      2.00000
     11       5.8385      2.00000
     12       6.0647      2.00000
     13       6.3923      2.00000
     14       6.7241      2.00000
     15       7.2341      2.00000
     16       7.4608      2.00000
     17       7.8652      2.00000
     18       7.8902      2.00000
     19       8.3591      2.00000
     20       8.9988      2.00287
     21       9.3940      1.71250
     22       9.9085     -0.01153
     23      13.4157     -0.00000
     24      14.9031     -0.00000
     25      17.0006      0.00000
     26      18.1019      0.00000
     27      19.5111      0.00000
     28      19.5870      0.00000
     29      21.8334      0.00000
     30      23.5342      0.00000

 k-point    13 :       0.2000    0.0000    0.4000
  band No.  band energies     occupation 
      1       2.4513      2.00000
      2       3.7233      2.00000
      3       3.9913      2.00000
      4       4.0893      2.00000
      5       4.3176      2.00000
      6       4.5681      2.00000
      7       4.7469      2.00000
      8       4.8590      2.00000
      9       5.1461      2.00000
     10       5.3984      2.00000
     11       5.7231      2.00000
     12       6.1221      2.00000
     13       6.2385      2.00000
     14       6.6089      2.00000
     15       7.1777      2.00000
     16       7.3670      2.00000
     17       8.1647      2.00000
     18       8.4138      2.00000
     19       8.5097      2.00000
     20       8.5792      2.00000
     21       9.2789      2.05928
     22      10.1769     -0.00001
     23      13.1698     -0.00000
     24      14.9332     -0.00000
     25      17.1266      0.00000
     26      17.6502      0.00000
     27      19.5678      0.00000
     28      20.1830      0.00000
     29      22.0169      0.00000
     30      23.1949      0.00000

 k-point    14 :      -0.2000    0.4000    0.0000
  band No.  band energies     occupation 
      1       2.4531      2.00000
      2       3.6490      2.00000
      3       3.7794      2.00000
      4       3.9669      2.00000
      5       4.3063      2.00000
      6       4.5819      2.00000
      7       4.8927      2.00000
      8       4.9229      2.00000
      9       5.1690      2.00000
     10       5.8327      2.00000
     11       5.8448      2.00000
     12       6.0877      2.00000
     13       6.4423      2.00000
     14       6.7002      2.00000
     15       7.1552      2.00000
     16       7.5120      2.00000
     17       7.9098      2.00000
     18       7.9357      2.00000
     19       8.4014      2.00000
     20       8.8033      2.00001
     21       9.2370      2.07054
     22       9.8342     -0.03488
     23      13.2824     -0.00000
     24      14.9550      0.00000
     25      17.0916      0.00000
     26      18.0508      0.00000
     27      19.5217      0.00000
     28      19.7755      0.00000
     29      22.0379      0.00000
     30      23.2598      0.00000

 k-point    15 :      -0.4000    0.0000    0.2000
  band No.  band energies     occupation 
      1       2.2182      2.00000
      2       3.7990      2.00000
      3       3.9161      2.00000
      4       4.1593      2.00000
      5       4.2264      2.00000
      6       4.4288      2.00000
      7       4.7908      2.00000
      8       4.9204      2.00000
      9       5.1787      2.00000
     10       5.3268      2.00000
     11       5.6990      2.00000
     12       5.9767      2.00000
     13       6.2655      2.00000
     14       6.5667      2.00000
     15       7.0616      2.00000
     16       7.4700      2.00000
     17       8.3627      2.00000
     18       8.3818      2.00000
     19       8.6600      2.00000
     20       8.8950      2.00022
     21       9.5991      0.20712
     22      10.4162     -0.00000
     23      12.7886     -0.00000
     24      15.0140      0.00000
     25      17.1728      0.00000
     26      17.6948      0.00000
     27      19.6882      0.00000
     28      19.7425      0.00000
     29      22.0979      0.00000
     30      23.0868      0.00000

 k-point    16 :       0.0000    0.2000    0.4000
  band No.  band energies     occupation 
      1       2.4249      2.00000
      2       3.6698      2.00000
      3       4.0556      2.00000
      4       4.1209      2.00000
      5       4.3278      2.00000
      6       4.3772      2.00000
      7       4.7973      2.00000
      8       4.8434      2.00000
      9       5.1046      2.00000
     10       5.5105      2.00000
     11       5.9086      2.00000
     12       6.0479      2.00000
     13       6.2241      2.00000
     14       6.3673      2.00000
     15       7.1056      2.00000
     16       7.4245      2.00000
     17       8.0323      2.00000
     18       8.3373      2.00000
     19       8.4545      2.00000
     20       8.8258      2.00003
     21       9.5172      0.76404
     22      10.2799     -0.00000
     23      13.3686     -0.00000
     24      14.8102     -0.00000
     25      17.0702      0.00000
     26      17.7339      0.00000
     27      19.6432      0.00000
     28      20.0869      0.00000
     29      21.7661      0.00000
     30      23.5423      0.00000

 k-point    17 :       0.4000    0.4000    0.0000
  band No.  band energies     occupation 
      1       3.3141      2.00000
      2       3.9284      2.00000
      3       4.1822      2.00000
      4       4.2979      2.00000
      5       4.5001      2.00000
      6       4.5264      2.00000
      7       4.8191      2.00000
      8       4.8604      2.00000
      9       4.9675      2.00000
     10       5.2034      2.00000
     11       5.3891      2.00000
     12       5.4737      2.00000
     13       5.7091      2.00000
     14       6.1347      2.00000
     15       6.4469      2.00000
     16       6.7107      2.00000
     17       7.1556      2.00000
     18       8.0145      2.00000
     19       8.1317      2.00000
     20       8.1745      2.00000
     21       8.7619      2.00000
     22      10.1090     -0.00011
     23      11.6479     -0.00000
     24      12.8287     -0.00000
     25      18.4226      0.00000
     26      19.2733      0.00000
     27      20.5433      0.00000
     28      21.0427      0.00000
     29      21.1039      0.00000
     30      21.8217      0.00000

 k-point    18 :       0.0000    0.4000    0.4000
  band No.  band energies     occupation 
      1       3.2087      2.00000
      2       3.8940      2.00000
      3       4.0840      2.00000
      4       4.2743      2.00000
      5       4.4496      2.00000
      6       4.5350      2.00000
      7       4.7548      2.00000
      8       4.9709      2.00000
      9       4.9975      2.00000
     10       5.1944      2.00000
     11       5.2307      2.00000
     12       5.5479      2.00000
     13       5.7810      2.00000
     14       6.0159      2.00000
     15       6.3714      2.00000
     16       6.6775      2.00000
     17       7.0323      2.00000
     18       8.1172      2.00000
     19       8.3829      2.00000
     20       8.4450      2.00000
     21       9.1223      2.02633
     22       9.6197      0.11492
     23      12.3784     -0.00000
     24      12.8649     -0.00000
     25      18.2070      0.00000
     26      18.9501      0.00000
     27      20.3950      0.00000
     28      20.4183      0.00000
     29      20.9459      0.00000
     30      22.1841      0.00000

 k-point    19 :       0.4000    0.0000    0.4000
  band No.  band energies     occupation 
      1       3.2462      2.00000
      2       4.0765      2.00000
      3       4.1861      2.00000
      4       4.2430      2.00000
      5       4.3353      2.00000
      6       4.4849      2.00000
      7       4.7585      2.00000
      8       4.7639      2.00000
      9       4.9187      2.00000
     10       5.2233      2.00000
     11       5.3497      2.00000
     12       5.5954      2.00000
     13       5.7555      2.00000
     14       6.1294      2.00000
     15       6.7855      2.00000
     16       7.1263      2.00000
     17       7.1441      2.00000
     18       7.3111      2.00000
     19       7.9574      2.00000
     20       8.2835      2.00000
     21       9.3247      1.99077
     22      10.3916     -0.00000
     23      11.1578     -0.00000
     24      12.5478     -0.00000
     25      18.3338      0.00000
     26      19.2648      0.00000
     27      20.5524      0.00000
     28      21.0156      0.00000
     29      21.2806      0.00000
     30      21.6781      0.00000

 k-point    20 :       0.2000    0.2000    0.2000
  band No.  band energies     occupation 
      1       1.5248      2.00000
      2       3.2082      2.00000
      3       3.6557      2.00000
      4       3.8633      2.00000
      5       3.9225      2.00000
      6       4.4699      2.00000
      7       4.5573      2.00000
      8       4.8045      2.00000
      9       4.9036      2.00000
     10       5.1572      2.00000
     11       6.1017      2.00000
     12       6.2306      2.00000
     13       6.8704      2.00000
     14       6.9559      2.00000
     15       7.2701      2.00000
     16       7.3600      2.00000
     17       8.1978      2.00000
     18       8.4712      2.00000
     19       8.9326      2.00060
     20       9.5121      0.80648
     21      10.6687     -0.00000
     22      11.4553     -0.00000
     23      12.6211     -0.00000
     24      12.9226     -0.00000
     25      17.3862      0.00000
     26      17.8176      0.00000
     27      18.4687      0.00000
     28      21.2182      0.00000
     29      21.5358      0.00000
     30      21.7975      0.00000

 k-point    21 :       0.4000    0.2000    0.2000
  band No.  band energies     occupation 
      1       2.4520      2.00000
      2       3.5243      2.00000
      3       3.9012      2.00000
      4       3.9778      2.00000
      5       4.4075      2.00000
      6       4.4852      2.00000
      7       4.5253      2.00000
      8       4.7603      2.00000
      9       4.9213      2.00000
     10       5.0944      2.00000
     11       5.1766      2.00000
     12       5.5558      2.00000
     13       5.8292      2.00000
     14       5.8590      2.00000
     15       5.9557      2.00000
     16       7.0169      2.00000
     17       7.2907      2.00000
     18       7.9479      2.00000
     19       8.3722      2.00000
     20       9.0389      2.00655
     21       9.6530      0.01008
     22      10.0099     -0.00144
     23      13.5470     -0.00000
     24      13.6397     -0.00000
     25      15.4015      0.00000
     26      15.9277      0.00000
     27      20.2429      0.00000
     28      21.3257      0.00000
     29      22.1725      0.00000
     30      22.3427      0.00000

 k-point    22 :       0.2000    0.4000    0.2000
  band No.  band energies     occupation 
      1       2.5773      2.00000
      2       3.4543      2.00000
      3       3.6970      2.00000
      4       4.2201      2.00000
      5       4.2228      2.00000
      6       4.3158      2.00000
      7       4.4716      2.00000
      8       4.7233      2.00000
      9       4.8995      2.00000
     10       5.1901      2.00000
     11       5.2375      2.00000
     12       5.4591      2.00000
     13       5.8677      2.00000
     14       6.2617      2.00000
     15       6.3502      2.00000
     16       6.9445      2.00000
     17       7.4723      2.00000
     18       7.9803      2.00000
     19       8.2399      2.00000
     20       8.4838      2.00000
     21       9.5628      0.42065
     22       9.7098     -0.06562
     23      13.5138     -0.00000
     24      13.9378     -0.00000
     25      15.3292      0.00000
     26      15.9515      0.00000
     27      20.3369      0.00000
     28      21.4580      0.00000
     29      22.2508      0.00000
     30      22.3789      0.00000

 k-point    23 :       0.2000    0.2000    0.4000
  band No.  band energies     occupation 
      1       2.5827      2.00000
      2       3.4914      2.00000
      3       3.8236      2.00000
      4       4.0334      2.00000
      5       4.2465      2.00000
      6       4.5088      2.00000
      7       4.6246      2.00000
      8       4.6986      2.00000
      9       4.9885      2.00000
     10       5.0464      2.00000
     11       5.1698      2.00000
     12       5.4950      2.00000
     13       5.8221      2.00000
     14       5.9759      2.00000
     15       6.0573      2.00000
     16       7.0278      2.00000
     17       7.5254      2.00000
     18       7.8781      2.00000
     19       8.1853      2.00000
     20       8.8848      2.00017
     21       9.5664      0.39685
     22       9.8677     -0.02221
     23      13.4960     -0.00000
     24      13.8648     -0.00000
     25      15.2966      0.00000
     26      16.0673      0.00000
     27      20.2239      0.00000
     28      21.2029      0.00000
     29      22.2278      0.00000
     30      22.4659      0.00000

 k-point    24 :       0.4000    0.4000    0.2000
  band No.  band energies     occupation 
      1       3.1453      2.00000
      2       3.3132      2.00000
      3       3.7090      2.00000
      4       4.1930      2.00000
      5       4.6086      2.00000
      6       4.8257      2.00000
      7       4.9084      2.00000
      8       5.0671      2.00000
      9       5.1835      2.00000
     10       5.4878      2.00000
     11       5.7471      2.00000
     12       5.8535      2.00000
     13       5.9199      2.00000
     14       6.2910      2.00000
     15       6.4287      2.00000
     16       6.4932      2.00000
     17       7.5654      2.00000
     18       8.0818      2.00000
     19       9.1472      2.03627
     20       9.3525      1.90740
     21       9.6415      0.04059
     22      10.2688     -0.00000
     23      11.9646     -0.00000
     24      12.6405     -0.00000
     25      15.4995      0.00000
     26      17.5108      0.00000
     27      17.8366      0.00000
     28      19.9510      0.00000
     29      22.7291      0.00000
     30      24.7993      0.00000

 k-point    25 :       0.2000    0.4000    0.4000
  band No.  band energies     occupation 
      1       3.0763      2.00000
      2       3.3319      2.00000
      3       3.6679      2.00000
      4       4.0969      2.00000
      5       4.6454      2.00000
      6       4.7147      2.00000
      7       4.9041      2.00000
      8       4.9488      2.00000
      9       5.2381      2.00000
     10       5.4758      2.00000
     11       5.7890      2.00000
     12       5.8206      2.00000
     13       6.0028      2.00000
     14       6.1967      2.00000
     15       6.3323      2.00000
     16       6.5685      2.00000
     17       7.6998      2.00000
     18       8.4528      2.00000
     19       9.0830      2.01448
     20       9.4082      1.62631
     21       9.6846     -0.04537
     22      10.0042     -0.00164
     23      12.5785     -0.00000
     24      12.8484     -0.00000
     25      15.1467      0.00000
     26      16.9902      0.00000
     27      17.8846      0.00000
     28      19.9721      0.00000
     29      22.8133      0.00000
     30      24.6599      0.00000

 k-point    26 :       0.4000    0.2000    0.4000
  band No.  band energies     occupation 
      1       3.1322      2.00000
      2       3.4125      2.00000
      3       3.6452      2.00000
      4       4.0065      2.00000
      5       4.6401      2.00000
      6       4.8090      2.00000
      7       4.9075      2.00000
      8       5.1172      2.00000
      9       5.2793      2.00000
     10       5.3733      2.00000
     11       5.7445      2.00000
     12       5.9967      2.00000
     13       6.1108      2.00000
     14       6.2924      2.00000
     15       6.3845      2.00000
     16       6.5480      2.00000
     17       7.5090      2.00000
     18       7.8053      2.00000
     19       8.9570      2.00110
     20       9.7041     -0.06257
     21       9.8735     -0.02039
     22      10.6203     -0.00000
     23      11.4253     -0.00000
     24      12.4509     -0.00000
     25      15.4797      0.00000
     26      17.5375      0.00000
     27      17.8624      0.00000
     28      20.0296      0.00000
     29      22.6060      0.00000
     30      24.6305      0.00000

 k-point    27 :       0.4000    0.4000    0.4000
  band No.  band energies     occupation 
      1       2.6471      2.00000
      2       2.7466      2.00000
      3       2.9473      2.00000
      4       3.3929      2.00000
      5       3.7631      2.00000
      6       3.8709      2.00000
      7       4.4282      2.00000
      8       4.9676      2.00000
      9       5.0632      2.00000
     10       5.1863      2.00000
     11       5.5354      2.00000
     12       5.6238      2.00000
     13       6.5422      2.00000
     14       6.8648      2.00000
     15       7.4054      2.00000
     16       7.7989      2.00000
     17       8.5531      2.00000
     18       8.7698      2.00000
     19       9.4554      1.28037
     20       9.8862     -0.01673
     21      10.3901     -0.00000
     22      10.6733     -0.00000
     23      11.0701     -0.00000
     24      11.2801     -0.00000
     25      14.7901     -0.00000
     26      14.9539      0.00000
     27      15.8602      0.00000
     28      17.4491      0.00000
     29      25.6048      0.00000
     30      25.7405      0.00000


--------------------------------------------------------------------------------------------------------


 soft charge-density along one line, spin component           1
         0         1         2         3         4         5         6         7         8         9
x    24.6960    0.0000   -0.9675    0.0000    0.9891    0.0000    0.1595    0.0000   -0.4354    0.0000
x    -0.0256    0.0000    0.0000    0.0000
y    24.6960    0.0000    1.2297    0.0000    1.0168    0.0000   -0.3356   -0.0000   -0.4149    0.0000
y     0.0515    0.0000    0.0000    0.0000
z    24.6960    0.0000    0.1536    0.0000    1.0244    0.0000   -0.1430   -0.0000   -0.4206    0.0000
z     0.0232    0.0000    0.0000    0.0000
 total charge-density along one line
x    39.9999    0.0000    3.7181    0.0000   10.1179   -0.0000    2.7957    0.0000    1.2557   -0.0000
x     0.3799   -0.0000    0.0351    0.0000   -0.0192   -0.0000    0.0003    0.0000    0.0057    0.0000
x     0.0018    0.0000   -0.0010   -0.0000   -0.0017    0.0000
y    39.9999    0.0000   -0.9274   -0.0000   10.1640   -0.0000   -1.7253   -0.0000    1.2854   -0.0000
y    -0.2565    0.0000    0.0191   -0.0000    0.0366    0.0000   -0.0033   -0.0000   -0.0079    0.0000
y     0.0020   -0.0000    0.0018    0.0000   -0.0017    0.0000
z    39.9999    0.0000   -2.6995   -0.0000   10.1489    0.0000   -1.9183    0.0000    1.2638    0.0000
z    -0.3213    0.0000    0.0270   -0.0000    0.0241    0.0000   -0.0011   -0.0000   -0.0063    0.0000
z     0.0020   -0.0000    0.0013    0.0000   -0.0017    0.0000
 
 pseudopotential strength for first ion, spin component:           1
 -4.366   0.000  -0.000  -0.000   0.000  -4.510   0.000  -0.000
  0.000  -4.303  -0.000   0.000   0.000   0.000  -4.450  -0.000
 -0.000  -0.000  -4.297   0.000  -0.003  -0.000  -0.000  -4.444
 -0.000   0.000   0.000  -4.347   0.000  -0.000   0.000   0.000
  0.000   0.000  -0.003   0.000  -4.304   0.000   0.000  -0.003
 -4.510   0.000  -0.000  -0.000   0.000  -4.625   0.000  -0.000
  0.000  -4.450  -0.000   0.000   0.000   0.000  -4.568  -0.000
 -0.000  -0.000  -4.444   0.000  -0.003  -0.000  -0.000  -4.562
 -0.000   0.000   0.000  -4.492   0.000  -0.000   0.000   0.000
  0.000   0.000  -0.003   0.000  -4.450   0.000   0.000  -0.003
 -0.000   0.000  -0.007  -0.000   0.007  -0.000   0.000  -0.007
 -0.000   0.000  -0.013  -0.000   0.012  -0.000   0.000  -0.012
  0.000  -0.000  -0.000  -0.000   0.000   0.000  -0.000  -0.000
 -0.000  -0.000  -0.000   0.000   0.000  -0.000  -0.000  -0.000
 -0.000  -0.000  -0.000  -0.000   0.000  -0.000  -0.000  -0.000
  0.000  -0.000  -0.000  -0.000   0.000   0.000  -0.000  -0.000
 -0.000  -0.000  -0.000   0.000   0.000  -0.000  -0.000  -0.000
 -0.000  -0.000  -0.000  -0.000   0.000  -0.000  -0.000  -0.000
 total augmentation occupancy for first ion, spin component:           1
  5.294   0.000   0.000   0.000   0.000  -7.729   0.000   0.000   0.000  -0.000   0.000   0.000   0.000   0.000   0.000   0.000
  0.000   4.423   0.000  -0.000   0.000   0.000  -6.629   0.000  -0.000   0.000   0.000   0.000   0.000   0.000   0.000   0.000
  0.000   0.000   4.551   0.000   0.084   0.000   0.000  -6.796   0.000  -0.142   0.016   0.076   0.000   0.000   0.000   0.000
  0.000   0.000   0.000   5.248   0.000   0.000   0.000   0.000  -7.521   0.000   0.000   0.000   0.000   0.000   0.000   0.000
 -0.000   0.000   0.084   0.000   4.609   0.000   0.000  -0.137   0.000  -6.723  -0.086  -0.020   0.000   0.000   0.000   0.000
 -7.729   0.000   0.000   0.000   0.000  11.949   0.000   0.000   0.000  -0.000  -0.000   0.000   0.000   0.000   0.000   0.000
  0.000  -6.629   0.000   0.000   0.000   0.000  10.818   0.000   0.000   0.000   0.000   0.000   0.000   0.000   0.000   0.000
  0.000   0.000  -6.796   0.000  -0.137   0.000   0.000  11.034   0.000   0.150   0.001  -0.072   0.000   0.000   0.000   0.000
  0.000  -0.000   0.000  -7.521   0.000   0.000   0.000   0.000  11.616   0.000   0.000   0.000   0.000   0.000   0.000   0.000
 -0.000   0.000  -0.142   0.000  -6.723  -0.000   0.000   0.150   0.000  10.880   0.132  -0.043   0.000   0.000   0.000   0.000
  0.000   0.000   0.016   0.000  -0.086  -0.000   0.000   0.001   0.000   0.132   9.045  -4.106   0.000   0.000   0.000   0.000
  0.000   0.000   0.076   0.000  -0.020   0.000   0.000  -0.072   0.000  -0.043  -4.106   2.149   0.000   0.000   0.000   0.000
  0.000   0.000   0.000   0.000   0.000   0.000   0.000   0.000   0.000   0.000   0.000   0.000   0.886   0.000   0.000  -0.374
  0.000   0.000   0.000   0.000   0.000   0.000   0.000   0.000   0.000   0.000   0.000   0.000   0.000   0.889   0.000   0.000
  0.000   0.000   0.000   0.000   0.000   0.000   0.000   0.000   0.000   0.000   0.000   0.000   0.000   0.000   0.663   0.000
  0.000   0.000   0.000   0.000   0.000   0.000   0.000   0.000   0.000   0.000   0.000   0.000  -0.374   0.000   0.000   0.210
  0.000   0.000   0.000   0.000   0.000   0.000   0.000   0.000   0.000   0.000   0.000   0.000   0.000  -0.380   0.000   0.000
  0.000   0.000   0.000   0.000   0.000   0.000   0.000   0.000   0.000   0.000   0.000   0.000   0.000   0.000  -0.185  -0.000


------------------------ aborting loop because EDIFF is reached ----------------------------------------


    CHARGE:  cpu time    0.0108: real time    0.0108
    FORLOC:  cpu time    0.0007: real time    0.0007
    FORNL :  cpu time    0.0534: real time    0.0534
    STRESS:  cpu time    0.0951: real time    0.0951
    FORCOR:  cpu time    0.0048: real time    0.0048
    FORHAR:  cpu time    0.0019: real time    0.0019
    MIXING:  cpu time    0.0002: real time    0.0002

  FORCE on cell =-STRESS in cart. coord.  units (eV):
  Direction    XX          YY          ZZ          XY          YZ          ZX
  --------------------------------------------------------------------------------------
  Alpha Z   244.65455   244.65455   244.65455
  Ewald   -1143.04101 -1137.78808 -1143.04101     0.00000     0.00000     0.00000
  Hartree   171.85104   183.29139   175.54565    -0.00000    -0.00000    -0.00000
  E(xc)    -201.37439  -201.33786  -201.42462     0.00000     0.00000    -0.00000
  Local     129.03765   113.72025   126.72967     0.00000     0.00000     0.00000
  n-local  -372.36300  -372.06773  -374.43442     4.70316     5.82351     5.10289
  augment   261.19195   260.68064   261.53527     0.00000     0.00000     0.00000
  Kinetic   589.30937   586.67469   588.44834     4.55867     3.83629     4.05002
  Fock        0.00000     0.00000     0.00000     0.00000     0.00000     0.00000
  -------------------------------------------------------------------------------------
  Total    -320.73384  -322.17215  -321.98656     0.00000     0.00000     0.00000
  in kB   -8893.44080 -8933.32275 -8928.17671     0.00000     0.00000     0.00000
  external pressure =    -8918.31 kB  Pullay stress =        0.00 kB


 VOLUME and BASIS-vectors are now :
 -----------------------------------------------------------------------------
  energy-cutoff  :      140.00
  volume of cell :       57.78
      direct lattice vectors                 reciprocal lattice vectors
     3.866000000  0.000000000  0.000000000     0.258665287  0.000000000  0.000000000
     0.000000000  3.866000000  0.000000000     0.000000000  0.258665287  0.000000000
     0.000000000  0.000000000  3.866000000     0.000000000  0.000000000  0.258665287

  length of vectors
     3.866000000  3.866000000  3.866000000     0.258665287  0.258665287  0.258665287


 FORCES acting on ions
    electron-ion (+dipol)            ewald-force                    non-local-force                 convergence-correction
 -----------------------------------------------------------------------------------------------
   -.957E-13 -.611E-14 0.538E-14   0.892E-14 -.838E-14 -.466E-14   0.768E-25 0.111E-24 -.188E-25   -.132E-13 0.245E-13 0.123E-11
   0.301E-13 0.875E-13 -.142E-13   0.112E-14 0.145E-13 -.285E-14   0.176E-26 -.802E-25 0.183E-25   0.799E-14 -.362E-13 0.916E-12
   0.552E-13 -.169E-13 0.151E-12   -.749E-14 -.139E-13 0.598E-14   -.231E-24 -.120E-25 -.236E-25   0.530E-13 0.522E-13 -.624E-12
   -.250E-12 0.725E-12 0.701E-12   -.120E-14 0.656E-14 0.190E-14   -.634E-25 0.204E-24 -.235E-24   0.133E-13 -.328E-12 -.669E-11
 -----------------------------------------------------------------------------------------------
   -.261E-12 0.790E-12 0.843E-12   0.135E-14 -.120E-14 0.371E-15   -.216E-24 0.222E-24 -.259E-24   0.611E-13 -.288E-12 -.516E-11
 
 
 POSITION                                       TOTAL-FORCE (eV/Angst)
 -----------------------------------------------------------------------------------
      0.00000      0.00000      0.00000         0.000000      0.000000      0.000000
      1.93300      1.93300      0.00000        -0.000000     -0.000000      0.000000
      1.93300      0.00000      1.93300        -0.000000      0.000000     -0.000000
      0.00000      1.93300      1.93300        -0.000000     -0.000000      0.000000
 -----------------------------------------------------------------------------------
    total drift:                               -0.000000      0.000000     -0.000000


--------------------------------------------------------------------------------------------------------



  FREE ENERGIE OF THE ION-ELECTRON SYSTEM (eV)
  ---------------------------------------------------
  free  energy   TOTEN  =        18.78664027 eV

  energy  without entropy=       18.78900187  energy(sigma->0) =       18.78742747
 


--------------------------------------------------------------------------------------------------------


    POTLOK:  cpu time    0.0072: real time    0.0072


--------------------------------------------------------------------------------------------------------


 writing wavefunctions
     LOOP+:  cpu time    1.0354: real time    1.0567
    4ORBIT:  cpu time    0.0000: real time    0.0000

 total amount of memory used by VASP MPI-rank0    38498. kBytes
=======================================================================

   base      :      30000. kBytes
   nonl-proj :       3482. kBytes
   grid      :       1131. kBytes
   one-center:         62. kBytes
   wavefun   :       3823. kBytes
 
  
  
 General timing and accounting informations for this job:
 ========================================================
  
                  Total CPU time used (sec):        1.216
                            User time (sec):        1.180
                          System time (sec):        0.036
                         Elapsed time (sec):        1.227
  
                   Maximum memory used (kb):       45124.
                   Average memory used (kb):          N/A
  
                          Minor page faults:         4791
                          Major page faults:            0
                 Voluntary context switches:           29
