<?xml version="1.0" encoding="ISO-8859-1"?>
<modeling>
 <generator>
  <i name="program" type="string">vasp </i>
  <i name="version" type="string">6.2.0  </i>
  <i name="subversion" type="string">18Jan21 (build Mar 17 2021 09:06:54) complex                          serial </i>
  <i name="platform" type="string">LinuxIFC </i>
  <i name="date" type="string">2021 06 11 </i>
  <i name="time" type="string">12:20:38 </i>
 </generator>
 <incar>
  <i type="string" name="PREC">normal</i>
  <i type="int" name="ICHARG">     1</i>
  <i type="int" name="IBRION">    -1</i>
  <i name="EDIFF">      0.00000100</i>
  <i type="int" name="NSW">     0</i>
  <i name="ENCUT">    140.00000000</i>
  <i type="int" name="NBANDS">    30</i>
  <i type="int" name="ISMEAR">     1</i>
  <i name="SIGMA">      0.20000000</i>
  <i type="logical" name="LCHARG"> T  </i>
  <i type="int" name="KPAR">     1</i>
  <i type="int" name="NCORE">     1</i>
  <i type="string" name="GGA">PE</i>
 </incar>
 <primitive_cell>
  <structure name="primitive_cell" >
   <crystal>
    <varray name="basis" >
     <v>       3.86600000       0.00000000       0.00000000 </v>
     <v>       0.00000000       3.86600000       0.00000000 </v>
     <v>       0.00000000       0.00000000       3.86600000 </v>
    </varray>
    <i name="volume">     57.78106590 </i>
    <varray name="rec_basis" >
     <v>       0.25866529       0.00000000       0.00000000 </v>
     <v>       0.00000000       0.25866529       0.00000000 </v>
     <v>       0.00000000       0.00000000       0.25866529 </v>
    </varray>
   </crystal>
   <varray name="positions" >
    <v>       0.00000000       0.00000000       0.00000000 </v>
    <v>       0.50000000       0.50000000       0.00000000 </v>
    <v>       0.50000000       0.00000000       0.50000000 </v>
    <v>       0.00000000       0.50000000       0.50000000 </v>
   </varray>
  </structure>
  <varray name="primitive_index" >
   <v type="int" >        1 </v>
   <v type="int" >        2 </v>
   <v type="int" >        3 </v>
   <v type="int" >        4 </v>
  </varray>
 </primitive_cell>
 <kpoints>
  <generation param="Monkhorst-Pack">
   <v type="int" name="divisions">       5        5        5 </v>
   <v name="usershift">      0.00000000       0.00000000       0.00000000 </v>
   <v name="genvec1">      0.20000000       0.00000000       0.00000000 </v>
   <v name="genvec2">      0.00000000       0.20000000       0.00000000 </v>
   <v name="genvec3">      0.00000000       0.00000000       0.20000000 </v>
   <v name="shift">      0.00000000       0.00000000       0.00000000 </v>
  </generation>
  <varray name="kpointlist" >
   <v>       0.00000000       0.00000000       0.00000000 </v>
   <v>       0.20000000       0.00000000       0.00000000 </v>
   <v>       0.00000000       0.20000000       0.00000000 </v>
   <v>       0.00000000       0.00000000       0.20000000 </v>
   <v>       0.40000000       0.00000000       0.00000000 </v>
   <v>       0.00000000       0.40000000       0.00000000 </v>
   <v>       0.00000000       0.00000000       0.40000000 </v>
   <v>       0.20000000       0.20000000       0.00000000 </v>
   <v>       0.00000000       0.20000000       0.20000000 </v>
   <v>       0.20000000       0.00000000       0.20000000 </v>
   <v>       0.40000000       0.20000000       0.00000000 </v>
   <v>       0.00000000       0.40000000       0.20000000 </v>
   <v>       0.20000000       0.00000000       0.40000000 </v>
   <v>      -0.20000000       0.40000000       0.00000000 </v>
   <v>      -0.40000000       0.00000000       0.20000000 </v>
   <v>       0.00000000       0.20000000       0.40000000 </v>
   <v>       0.40000000       0.40000000       0.00000000 </v>
   <v>       0.00000000       0.40000000       0.40000000 </v>
   <v>       0.40000000       0.00000000       0.40000000 </v>
   <v>       0.20000000       0.20000000       0.20000000 </v>
   <v>       0.40000000       0.20000000       0.20000000 </v>
   <v>       0.20000000       0.40000000       0.20000000 </v>
   <v>       0.20000000       0.20000000       0.40000000 </v>
   <v>       0.40000000       0.40000000       0.20000000 </v>
   <v>       0.20000000       0.40000000       0.40000000 </v>
   <v>       0.40000000       0.20000000       0.40000000 </v>
   <v>       0.40000000       0.40000000       0.40000000 </v>
  </varray>
  <varray name="weights" >
   <v>       0.00800000 </v>
   <v>       0.01600000 </v>
   <v>       0.01600000 </v>
   <v>       0.01600000 </v>
   <v>       0.01600000 </v>
   <v>       0.01600000 </v>
   <v>       0.01600000 </v>
   <v>       0.03200000 </v>
   <v>       0.03200000 </v>
   <v>       0.03200000 </v>
   <v>       0.03200000 </v>
   <v>       0.03200000 </v>
   <v>       0.03200000 </v>
   <v>       0.03200000 </v>
   <v>       0.03200000 </v>
   <v>       0.03200000 </v>
   <v>       0.03200000 </v>
   <v>       0.03200000 </v>
   <v>       0.03200000 </v>
   <v>       0.06400000 </v>
   <v>       0.06400000 </v>
   <v>       0.06400000 </v>
   <v>       0.06400000 </v>
   <v>       0.06400000 </v>
   <v>       0.06400000 </v>
   <v>       0.06400000 </v>
   <v>       0.06400000 </v>
  </varray>
 </kpoints>
 <parameters>
  <separator name="general" >
   <i type="string" name="SYSTEM">unknown system</i>
   <i type="logical" name="LCOMPAT"> F  </i>
  </separator>
  <separator name="electronic" >
   <i type="string" name="PREC">normal</i>
   <i name="ENMAX">    140.00000000</i>
   <i name="ENAUG">    586.98000000</i>
   <i name="EDIFF">      0.00000100</i>
   <i type="int" name="IALGO">    38</i>
   <i type="int" name="IWAVPR">     0</i>
   <i type="int" name="NBANDS">    30</i>
   <i type="int" name="NBANDSLOW">    -1</i>
   <i type="int" name="NBANDSHIGH">    -1</i>
   <i name="NELECT">     40.00000000</i>
   <i type="int" name="TURBO">     0</i>
   <i type="int" name="IRESTART">     0</i>
   <i type="int" name="NREBOOT">     0</i>
   <i type="int" name="NMIN">     0</i>
   <i name="EREF">      0.00000000</i>
   <separator name="electronic smearing" >
    <i type="int" name="ISMEAR">     1</i>
    <i name="SIGMA">      0.20000000</i>
    <i name="KSPACING">      0.50000000</i>
    <i type="logical" name="KGAMMA"> T  </i>
    <i type="logical" name="KBLOWUP"> T  </i>
   </separator>
   <separator name="electronic projectors" >
    <i type="logical" name="LREAL"> F  </i>
    <v name="ROPT">      0.00000000      0.00000000      0.00000000      0.00000000</v>
    <i type="int" name="LMAXPAW">  -100</i>
    <i type="int" name="LMAXMIX">     2</i>
    <i type="logical" name="NLSPLINE"> F  </i>
   </separator>
   <separator name="electronic startup" >
    <i type="int" name="ISTART">     1</i>
    <i type="int" name="ICHARG">     1</i>
    <i type="int" name="INIWAV">     1</i>
   </separator>
   <separator name="electronic spin" >
    <i type="int" name="ISPIN">     1</i>
    <i type="logical" name="LNONCOLLINEAR"> F  </i>
    <v name="MAGMOM">      1.00000000      1.00000000      1.00000000      1.00000000</v>
    <i name="NUPDOWN">     -1.00000000</i>
    <i type="logical" name="LSORBIT"> F  </i>
    <v name="SAXIS">      0.00000000      0.00000000      1.00000000</v>
    <i type="logical" name="LSPIRAL"> F  </i>
    <v name="QSPIRAL">      0.00000000      0.00000000      0.00000000</v>
    <i type="logical" name="LZEROZ"> F  </i>
   </separator>
   <separator name="electronic exchange-correlation" >
    <i type="logical" name="LASPH"> F  </i>
    <i type="logical" name="LMETAGGA"> F  </i>
   </separator>
   <separator name="electronic convergence" >
    <i type="int" name="NELM">    60</i>
    <i type="int" name="NELMDL">     0</i>
    <i type="int" name="NELMIN">     2</i>
    <i name="ENINI">    140.00000000</i>
    <separator name="electronic convergence detail" >
     <i type="logical" name="LDIAG"> T  </i>
     <i type="logical" name="LSUBROT"> F  </i>
     <i name="WEIMIN">      0.00000000</i>
     <i name="EBREAK">      0.00000001</i>
     <i name="DEPER">      0.30000000</i>
     <i type="int" name="NRMM">     4</i>
     <i name="TIME">      0.40000000</i>
    </separator>
   </separator>
   <separator name="electronic mixer" >
    <i name="AMIX">      0.40000000</i>
    <i name="BMIX">      1.00000000</i>
    <i name="AMIN">      0.10000000</i>
    <i name="AMIX_MAG">      1.60000000</i>
    <i name="BMIX_MAG">      1.00000000</i>
    <separator name="electronic mixer details" >
     <i type="int" name="IMIX">     4</i>
     <i type="logical" name="MIXFIRST"> F  </i>
     <i type="int" name="MAXMIX">   -45</i>
     <i name="WC">    100.00000000</i>
     <i type="int" name="INIMIX">     1</i>
     <i type="int" name="MIXPRE">     1</i>
     <i type="int" name="MREMOVE">     5</i>
    </separator>
   </separator>
   <separator name="electronic dipolcorrection" >
    <i type="logical" name="LDIPOL"> F  </i>
    <i type="logical" name="LMONO"> F  </i>
    <i type="int" name="IDIPOL">     0</i>
    <i name="EPSILON">      1.00000000</i>
    <v name="DIPOL">   -100.00000000   -100.00000000   -100.00000000</v>
    <i name="EFIELD">      0.00000000</i>
   </separator>
  </separator>
  <separator name="grids" >
   <i type="int" name="NGX">    12</i>
   <i type="int" name="NGY">    12</i>
   <i type="int" name="NGZ">    12</i>
   <i type="int" name="NGXF">    24</i>
   <i type="int" name="NGYF">    24</i>
   <i type="int" name="NGZF">    24</i>
   <i type="logical" name="ADDGRID"> F  </i>
  </separator>
  <separator name="ionic" >
   <i type="int" name="NSW">     0</i>
   <i type="int" name="IBRION">    -1</i>
   <i type="int" name="MDALGO">     0</i>
   <i type="int" name="ISIF">     2</i>
   <i name="PSTRESS">      0.00000000</i>
   <i name="EDIFFG">      0.00001000</i>
   <i type="int" name="NFREE">     0</i>
   <i name="POTIM">      0.50000000</i>
   <i name="SMASS">     -3.00000000</i>
   <i name="SCALEE">      1.00000000</i>
  </separator>
  <separator name="ionic md" >
   <i name="TEBEG">      0.00010000</i>
   <i name="TEEND">      0.00010000</i>
   <i type="int" name="NBLOCK">     1</i>
   <i type="int" name="KBLOCK">     1</i>
   <i type="int" name="NPACO">   256</i>
   <i name="APACO">     16.00000000</i>
  </separator>
  <separator name="symmetry" >
   <i type="int" name="ISYM">     2</i>
   <i name="SYMPREC">      0.00001000</i>
  </separator>
  <separator name="dos" >
   <i type="int" name="LORBIT">     0</i>
   <v name="RWIGS">     -1.00000000     -1.00000000     -1.00000000     -1.00000000</v>
   <i type="int" name="NEDOS">   301</i>
   <i name="EMIN">     10.00000000</i>
   <i name="EMAX">    -10.00000000</i>
   <i name="EFERMI">      0.00000000</i>
  </separator>
  <separator name="writing" >
   <i type="int" name="NWRITE">     2</i>
   <i type="logical" name="LWAVE"> T  </i>
   <i type="logical" name="LDOWNSAMPLE"> F  </i>
   <i type="logical" name="LCHARG"> T  </i>
   <i type="logical" name="LPARD"> F  </i>
   <i type="logical" name="LVTOT"> F  </i>
   <i type="logical" name="LVHAR"> F  </i>
   <i type="logical" name="LELF"> F  </i>
   <i type="logical" name="LOPTICS"> F  </i>
   <v name="STM">      0.00000000      0.00000000      0.00000000      0.00000000      0.00000000      0.00000000      0.00000000</v>
  </separator>
  <separator name="performance" >
   <i type="int" name="NPAR">     1</i>
   <i type="int" name="NSIM">     4</i>
   <i type="int" name="NBLK">    -1</i>
   <i type="logical" name="LPLANE"> T  </i>
   <i type="logical" name="LSCALAPACK"> F  </i>
   <i type="logical" name="LSCAAWARE"> F  </i>
   <i type="logical" name="LSCALU"> F  </i>
   <i type="logical" name="LASYNC"> F  </i>
   <i type="logical" name="LORBITALREAL"> F  </i>
  </separator>
  <separator name="miscellaneous" >
   <i type="int" name="IDIOT">     3</i>
   <i type="int" name="PHON_NSTRUCT">    -1</i>
   <i type="logical" name="LMUSIC"> F  </i>
   <v name="POMASS">    106.42000000    192.22000000    195.08000000     63.54600000</v>
   <v name="DARWINR">      0.00000000      0.00000000      0.00000000      0.00000000</v>
   <v name="DARWINV">      1.00000000      1.00000000      1.00000000      1.00000000</v>
   <i type="logical" name="LCORR"> T  </i>
  </separator>
  <i type="logical" name="GGA_COMPAT"> T  </i>
  <i type="logical" name="LBERRY"> F  </i>
  <i type="int" name="ICORELEVEL">     0</i>
  <i type="logical" name="LDAU"> F  </i>
  <i type="int" name="I_CONSTRAINED_M">     0</i>
  <separator name="electronic exchange-correlation" >
   <i type="string" name="GGA">PE</i>
   <i type="int" name="VOSKOWN">     0</i>
   <i type="logical" name="LHFCALC"> F  </i>
   <i type="string" name="PRECFOCK"></i>
   <i type="logical" name="LSYMGRAD"> F  </i>
   <i type="logical" name="LHFONE"> F  </i>
   <i type="logical" name="LRHFCALC"> F  </i>
   <i type="logical" name="LTHOMAS"> F  </i>
   <i type="logical" name="LMODELHF"> F  </i>
   <i type="logical" name="LFOCKACE"> F  </i>
   <i name="ENCUT4O">     -1.00000000</i>
   <i type="int" name="EXXOEP">     0</i>
   <i type="int" name="FOURORBIT">     0</i>
   <i name="AEXX">      0.00000000</i>
   <i name="HFALPHA">      0.00000000</i>
   <i name="MCALPHA">      0.00000000</i>
   <i name="ALDAX">      1.00000000</i>
   <i name="AGGAX">      1.00000000</i>
   <i name="ALDAC">      1.00000000</i>
   <i name="AGGAC">      1.00000000</i>
   <i type="int" name="NKREDX">     1</i>
   <i type="int" name="NKREDY">     1</i>
   <i type="int" name="NKREDZ">     1</i>
   <i type="logical" name="SHIFTRED"> F  </i>
   <i type="logical" name="ODDONLY"> F  </i>
   <i type="logical" name="EVENONLY"> F  </i>
   <i type="int" name="LMAXFOCK">     0</i>
   <i type="int" name="NMAXFOCKAE">     0</i>
   <i type="logical" name="LFOCKAEDFT"> F  </i>
   <i name="HFSCREEN">      0.00000000</i>
   <i name="HFSCREENC">      0.00000000</i>
   <i type="int" name="NBANDSGWLOW">     0</i>
  </separator>
  <separator name="vdW DFT" >
   <i type="logical" name="LUSE_VDW"> F  </i>
   <i name="Zab_VDW">     -0.84910000</i>
   <i name="PARAM1">      0.12340000</i>
   <i name="PARAM2">      1.00000000</i>
   <i name="PARAM3">      0.00000000</i>
  </separator>
  <separator name="model GW" >
   <i type="int" name="MODEL_GW">     0</i>
   <i name="MODEL_EPS0">      8.66715988</i>
   <i name="MODEL_ALPHA">      1.00000000</i>
  </separator>
  <separator name="linear response parameters" >
   <i type="logical" name="LEPSILON"> F  </i>
   <i type="logical" name="LRPA"> F  </i>
   <i type="logical" name="LNABLA"> F  </i>
   <i type="logical" name="LVEL"> F  </i>
   <i type="int" name="KINTER">     0</i>
   <i name="CSHIFT">      0.10000000</i>
   <i name="OMEGAMAX">     -1.00000000</i>
   <i name="DEG_THRESHOLD">      0.00200000</i>
   <i name="RTIME">     -0.10000000</i>
   <i name="WPLASMAI">      0.00000000</i>
   <v name="DFIELD">      0.00000000      0.00000000      0.00000000</v>
   <v name="WPLASMA">      0.00000000      0.00000000      0.00000000      0.00000000      0.00000000      0.00000000      0.00000000      0.00000000      0.00000000</v>
  </separator>
  <separator name="orbital magnetization" >
   <i type="logical" name="NUCIND"> F  </i>
   <v name="MAGPOS">      0.00000000      0.00000000      0.00000000</v>
   <i type="logical" name="LNICSALL"> T  </i>
   <i type="logical" name="ORBITALMAG"> F  </i>
   <i type="logical" name="LMAGBLOCH"> F  </i>
   <i type="logical" name="LCHIMAG"> F  </i>
   <i type="logical" name="LGAUGE"> T  </i>
   <i type="int" name="MAGATOM">     0</i>
   <v name="MAGDIPOL">      0.00000000      0.00000000      0.00000000</v>
   <v name="AVECCONST">      0.00000000      0.00000000      0.00000000</v>
  </separator>
  <separator name="response functions" >
   <i type="logical" name="LFINITE_TEMPERATURE"> F  </i>
   <i type="logical" name="LADDER"> F  </i>
   <i type="logical" name="LRPAFORCE"> F  </i>
   <i type="logical" name="LFXC"> F  </i>
   <i type="logical" name="LHARTREE"> T  </i>
   <i type="int" name="IBSE">     0</i>
   <v type="int" name="KPOINT">    -1     0     0     0</v>
   <i type="logical" name="LTCTC"> F  </i>
   <i type="logical" name="LTCTE"> F  </i>
   <i type="logical" name="LTETE"> F  </i>
   <i type="logical" name="LTRIPLET"> F  </i>
   <i type="logical" name="LFXCEPS"> F  </i>
   <i type="logical" name="LFXHEG"> F  </i>
   <i type="int" name="NATURALO">     2</i>
   <i type="logical" name="LHOLEGF"> F  </i>
   <i type="logical" name="L2ORDER"> F  </i>
   <i type="logical" name="LDMP1"> F  </i>
   <i type="logical" name="LMP2LT"> F  </i>
   <i type="logical" name="LSMP2LT"> F  </i>
   <i type="logical" name="LGWLF"> F  </i>
   <i name="ENCUTGW">     -2.00000000</i>
   <i name="ENCUTGWSOFT">     -2.00000000</i>
   <i name="ENCUTLF">     -1.00000000</i>
   <i type="logical" name="LESF_SPLINES"> F  </i>
   <i type="int" name="LMAXMP2">    -1</i>
   <i name="SCISSOR">      0.00000000</i>
   <i type="int" name="NOMEGA">     0</i>
   <i type="int" name="NOMEGAR">     0</i>
   <i type="int" name="NBANDSGW">    -1</i>
   <i type="int" name="NBANDSO">    -1</i>
   <i type="int" name="NBANDSV">    -1</i>
   <i type="int" name="NELM">     1</i>
   <i type="int" name="NELMHF">     1</i>
   <i type="int" name="DIM">     3</i>
   <i type="int" name="IESPILON">     4</i>
   <i type="int" name="ANTIRES">     0</i>
   <i name="OMEGAMAX">    -30.00000000</i>
   <i name="OMEGAMIN">    -30.00000000</i>
   <i name="OMEGATL">   -200.00000000</i>
   <i type="int" name="OMEGAGRID">     0</i>
   <i name="CSHIFT">     -0.10000000</i>
   <i type="logical" name="LSELFENERGY"> F  </i>
   <i type="logical" name="LSPECTRAL"> F  </i>
   <i type="logical" name="LSPECTRALGW"> F  </i>
   <i type="logical" name="LSINGLES"> F  </i>
   <i type="logical" name="LFERMIGW"> F  </i>
   <i type="logical" name="ODDONLYGW"> F  </i>
   <i type="logical" name="EVENONLYGW"> F  </i>
   <i type="int" name="NKREDLFX">     1</i>
   <i type="int" name="NKREDLFY">     1</i>
   <i type="int" name="NKREDLFZ">     1</i>
   <i type="int" name="MAXMEM">  2800</i>
   <i type="int" name="TELESCOPE">     0</i>
   <i type="int" name="NTAUPAR">    -1</i>
   <i type="int" name="NOMEGAPAR">    -1</i>
   <i name="DAMP_NEWTON">      0.80000001</i>
   <i name="LAMBDA">      1.00000000</i>
  </separator>
  <separator name="External order field" >
   <i name="OFIELD_KAPPA">      0.00000000</i>
   <v name="OFIELD_K">      0.00000000      0.00000000      0.00000000</v>
   <i name="OFIELD_Q6_NEAR">      0.00000000</i>
   <i name="OFIELD_Q6_FAR">      0.00000000</i>
   <i name="OFIELD_A">      0.00000000</i>
  </separator>
 </parameters>
 <atominfo>
  <atoms>       4 </atoms>
  <types>       4 </types>
  <array name="atoms" >
   <dimension dim="1">ion</dimension>
   <field type="string">element</field>
   <field type="int">atomtype</field>
   <set>
    <rc><c>Pd</c><c>   1</c></rc>
    <rc><c>Ir</c><c>   2</c></rc>
    <rc><c>Pt</c><c>   3</c></rc>
    <rc><c>Cu</c><c>   4</c></rc>
   </set>
  </array>
  <array name="atomtypes" >
   <dimension dim="1">type</dimension>
   <field type="int">atomspertype</field>
   <field type="string">element</field>
   <field>mass</field>
   <field>valence</field>
   <field type="string">pseudopotential</field>
   <set>
    <rc><c>   1</c><c>Pd</c><c>    106.42000000</c><c>     10.00000000</c><c>  PAW_PBE Pd 04Jan2005                  </c></rc>
    <rc><c>   1</c><c>Ir</c><c>    192.22000000</c><c>      9.00000000</c><c>  PAW_PBE Ir 06Sep2000                  </c></rc>
    <rc><c>   1</c><c>Pt</c><c>    195.08000000</c><c>     10.00000000</c><c>  PAW_PBE Pt 04Feb2005                  </c></rc>
    <rc><c>   1</c><c>Cu</c><c>     63.54600000</c><c>     11.00000000</c><c>  PAW_PBE Cu 22Jun2005                  </c></rc>
   </set>
  </array>
 </atominfo>
 <structure name="initialpos" >
  <crystal>
   <varray name="basis" >
    <v>       3.86600000       0.00000000       0.00000000 </v>
    <v>       0.00000000       3.86600000       0.00000000 </v>
    <v>       0.00000000       0.00000000       3.86600000 </v>
   </varray>
   <i name="volume">     57.78106590 </i>
   <varray name="rec_basis" >
    <v>       0.25866529       0.00000000       0.00000000 </v>
    <v>       0.00000000       0.25866529       0.00000000 </v>
    <v>       0.00000000       0.00000000       0.25866529 </v>
   </varray>
  </crystal>
  <varray name="positions" >
   <v>       0.00000000       0.00000000       0.00000000 </v>
   <v>       0.50000000       0.50000000       0.00000000 </v>
   <v>       0.50000000       0.00000000       0.50000000 </v>
   <v>       0.00000000       0.50000000       0.50000000 </v>
  </varray>
 </structure>
 <calculation>
  <scstep>
   <time name="dav">    0.18    0.20</time>
   <time name="total">    0.20    0.22</time>
   <energy>
    <i name="alphaZ">    244.65455147 </i>
    <i name="ewald">  -3423.86860972 </i>
    <i name="hartreedc">   -530.75301984 </i>
    <i name="XCdc">     -0.87185363 </i>
    <i name="pawpsdc">   5438.39415803 </i>
    <i name="pawaedc">  -5393.74567616 </i>
    <i name="eentropy">     -0.00130629 </i>
    <i name="bandstr">    226.66376009 </i>
    <i name="atom">   3458.29467373 </i>
    <i name="e_fr_energy">     18.76667767 </i>
    <i name="e_wo_entrp">     18.76798396 </i>
    <i name="e_0_energy">     18.76711310 </i>
   </energy>
  </scstep>
  <scstep>
   <time name="dav">    0.15    0.15</time>
   <time name="total">    0.17    0.17</time>
   <energy>
    <i name="e_fr_energy">     18.78647629 </i>
    <i name="e_wo_entrp">     18.78914555 </i>
    <i name="e_0_energy">     18.78736604 </i>
   </energy>
  </scstep>
  <scstep>
   <time name="dav">    0.15    0.15</time>
   <time name="total">    0.17    0.17</time>
   <energy>
    <i name="e_fr_energy">     18.78663594 </i>
    <i name="e_wo_entrp">     18.78901388 </i>
    <i name="e_0_energy">     18.78742859 </i>
   </energy>
  </scstep>
  <scstep>
   <time name="dav">    0.17    0.17</time>
   <time name="total">    0.19    0.19</time>
   <energy>
    <i name="e_fr_energy">     18.78663960 </i>
    <i name="e_wo_entrp">     18.78902438 </i>
    <i name="e_0_energy">     18.78743453 </i>
   </energy>
  </scstep>
  <scstep>
   <time name="dav">    0.11    0.11</time>
   <time name="total">    0.12    0.12</time>
   <energy>
    <i name="alphaZ">    244.65455147 </i>
    <i name="ewald">  -3423.86860972 </i>
    <i name="hartreedc">   -530.75710122 </i>
    <i name="XCdc">     -0.87154745 </i>
    <i name="pawpsdc">   5438.48001399 </i>
    <i name="pawaedc">  -5393.85016751 </i>
    <i name="eentropy">     -0.00236160 </i>
    <i name="bandstr">    226.70718859 </i>
    <i name="atom">   3458.29467373 </i>
    <i name="e_fr_energy">     18.78664027 </i>
    <i name="e_wo_entrp">     18.78900187 </i>
    <i name="e_0_energy">     18.78742747 </i>
   </energy>
  </scstep>
  <structure>
   <crystal>
    <varray name="basis" >
     <v>       3.86600000       0.00000000       0.00000000 </v>
     <v>       0.00000000       3.86600000       0.00000000 </v>
     <v>       0.00000000       0.00000000       3.86600000 </v>
    </varray>
    <i name="volume">     57.78106590 </i>
    <varray name="rec_basis" >
     <v>       0.25866529       0.00000000       0.00000000 </v>
     <v>       0.00000000       0.25866529       0.00000000 </v>
     <v>       0.00000000       0.00000000       0.25866529 </v>
    </varray>
   </crystal>
   <varray name="positions" >
    <v>       0.00000000       0.00000000       0.00000000 </v>
    <v>       0.50000000       0.50000000       0.00000000 </v>
    <v>       0.50000000       0.00000000       0.50000000 </v>
    <v>       0.00000000       0.50000000       0.50000000 </v>
   </varray>
  </structure>
  <varray name="forces" >
   <v>       0.00000000       0.00000000       0.00000000 </v>
   <v>      -0.00000000      -0.00000000       0.00000000 </v>
   <v>      -0.00000000       0.00000000      -0.00000000 </v>
   <v>      -0.00000000      -0.00000000       0.00000000 </v>
  </varray>
  <varray name="stress" >
   <v>   -8893.44080337       0.00000000       0.00000000 </v>
   <v>       0.00000000   -8933.32275066       0.00000000 </v>
   <v>       0.00000000       0.00000000   -8928.17671192 </v>
  </varray>
  <energy>
   <i name="e_fr_energy">     18.78664027 </i>
   <i name="e_wo_entrp">     18.78900187 </i>
   <i name="e_0_energy">     18.78742747 </i>
  </energy>
  <time name="totalsc">    1.04    1.06</time>
  <eigenvalues>
   <array>
    <dimension dim="1">band</dimension>
    <dimension dim="2">kpoint</dimension>
    <dimension dim="3">spin</dimension>
    <field>eigene</field>
    <field>occ</field>
    <set>
     <set comment="spin 1">
      <set comment="kpoint 1">
       <r>    0.1830    1.0000 </r>
       <r>    2.3036    1.0000 </r>
       <r>    3.2595    1.0000 </r>
       <r>    3.4963    1.0000 </r>
       <r>    3.5493    1.0000 </r>
       <r>    3.6961    1.0000 </r>
       <r>    3.8429    1.0000 </r>
       <r>    4.8372    1.0000 </r>
       <r>    4.9880    1.0000 </r>
       <r>    5.5436    1.0000 </r>
       <r>    6.4672    1.0000 </r>
       <r>    6.7836    1.0000 </r>
       <r>   10.0577   -0.0002 </r>
       <r>   10.6680   -0.0000 </r>
       <r>   10.7453   -0.0000 </r>
       <r>   10.8110   -0.0000 </r>
       <r>   11.0032   -0.0000 </r>
       <r>   11.0484   -0.0000 </r>
       <r>   11.2853   -0.0000 </r>
       <r>   11.4355   -0.0000 </r>
       <r>   11.4684   -0.0000 </r>
       <r>   11.4712   -0.0000 </r>
       <r>   11.9118   -0.0000 </r>
       <r>   12.4486   -0.0000 </r>
       <r>   17.3882    0.0000 </r>
       <r>   17.7464    0.0000 </r>
       <r>   19.4317    0.0000 </r>
       <r>   20.1975    0.0000 </r>
       <r>   20.4004    0.0000 </r>
       <r>   20.7231    0.0000 </r>
      </set>
      <set comment="kpoint 2">
       <r>    0.6485    1.0000 </r>
       <r>    2.6791    1.0000 </r>
       <r>    3.2188    1.0000 </r>
       <r>    3.5076    1.0000 </r>
       <r>    3.5219    1.0000 </r>
       <r>    3.5565    1.0000 </r>
       <r>    3.8983    1.0000 </r>
       <r>    3.9907    1.0000 </r>
       <r>    4.4708    1.0000 </r>
       <r>    4.5860    1.0000 </r>
       <r>    5.6929    1.0000 </r>
       <r>    6.0111    1.0000 </r>
       <r>    6.8006    1.0000 </r>
       <r>    6.8914    1.0000 </r>
       <r>    7.3927    1.0000 </r>
       <r>    7.5012    1.0000 </r>
       <r>    8.9261    1.0003 </r>
       <r>    9.2324    1.0350 </r>
       <r>    9.3711    0.9154 </r>
       <r>    9.5726    0.1783 </r>
       <r>    9.7094   -0.0327 </r>
       <r>   11.0060   -0.0000 </r>
       <r>   13.1164   -0.0000 </r>
       <r>   13.1509   -0.0000 </r>
       <r>   17.3725    0.0000 </r>
       <r>   17.6657    0.0000 </r>
       <r>   20.3670    0.0000 </r>
       <r>   20.3715    0.0000 </r>
       <r>   20.4379    0.0000 </r>
       <r>   21.0674    0.0000 </r>
      </set>
      <set comment="kpoint 3">
       <r>    0.6954    1.0000 </r>
       <r>    2.6491    1.0000 </r>
       <r>    3.2293    1.0000 </r>
       <r>    3.5218    1.0000 </r>
       <r>    3.6346    1.0000 </r>
       <r>    3.6938    1.0000 </r>
       <r>    3.7310    1.0000 </r>
       <r>    3.8208    1.0000 </r>
       <r>    4.3232    1.0000 </r>
       <r>    4.4314    1.0000 </r>
       <r>    5.8221    1.0000 </r>
       <r>    5.9676    1.0000 </r>
       <r>    6.9048    1.0000 </r>
       <r>    7.2742    1.0000 </r>
       <r>    7.7816    1.0000 </r>
       <r>    8.3673    1.0000 </r>
       <r>    8.5206    1.0000 </r>
       <r>    9.1888    1.0276 </r>
       <r>    9.2178    1.0332 </r>
       <r>    9.3548    0.9494 </r>
       <r>    9.4962    0.4700 </r>
       <r>    9.7470   -0.0349 </r>
       <r>   13.2710   -0.0000 </r>
       <r>   13.4484   -0.0000 </r>
       <r>   16.8783    0.0000 </r>
       <r>   18.3653    0.0000 </r>
       <r>   20.2778    0.0000 </r>
       <r>   20.3180    0.0000 </r>
       <r>   20.5189    0.0000 </r>
       <r>   21.2687    0.0000 </r>
      </set>
      <set comment="kpoint 4">
       <r>    0.6967    1.0000 </r>
       <r>    2.7060    1.0000 </r>
       <r>    3.2747    1.0000 </r>
       <r>    3.4956    1.0000 </r>
       <r>    3.5168    1.0000 </r>
       <r>    3.5406    1.0000 </r>
       <r>    3.8843    1.0000 </r>
       <r>    3.9633    1.0000 </r>
       <r>    4.3680    1.0000 </r>
       <r>    4.5649    1.0000 </r>
       <r>    5.7503    1.0000 </r>
       <r>    5.9438    1.0000 </r>
       <r>    6.7301    1.0000 </r>
       <r>    7.3444    1.0000 </r>
       <r>    7.6295    1.0000 </r>
       <r>    7.6421    1.0000 </r>
       <r>    8.8653    1.0000 </r>
       <r>    8.9794    1.0009 </r>
       <r>    9.1043    1.0101 </r>
       <r>    9.6311    0.0367 </r>
       <r>    9.7558   -0.0339 </r>
       <r>   10.2590   -0.0000 </r>
       <r>   13.2009   -0.0000 </r>
       <r>   13.4169   -0.0000 </r>
       <r>   16.5051    0.0000 </r>
       <r>   18.6669    0.0000 </r>
       <r>   20.3790    0.0000 </r>
       <r>   20.4002    0.0000 </r>
       <r>   20.5680    0.0000 </r>
       <r>   21.2528    0.0000 </r>
      </set>
      <set comment="kpoint 5">
       <r>    1.7238    1.0000 </r>
       <r>    3.4439    1.0000 </r>
       <r>    3.5252    1.0000 </r>
       <r>    3.7579    1.0000 </r>
       <r>    3.7980    1.0000 </r>
       <r>    4.4495    1.0000 </r>
       <r>    4.4624    1.0000 </r>
       <r>    4.6483    1.0000 </r>
       <r>    5.0784    1.0000 </r>
       <r>    5.2469    1.0000 </r>
       <r>    5.3252    1.0000 </r>
       <r>    5.9296    1.0000 </r>
       <r>    6.1444    1.0000 </r>
       <r>    6.1534    1.0000 </r>
       <r>    6.5700    1.0000 </r>
       <r>    6.7007    1.0000 </r>
       <r>    7.1829    1.0000 </r>
       <r>    8.4332    1.0000 </r>
       <r>    8.4836    1.0000 </r>
       <r>    8.6008    1.0000 </r>
       <r>    9.1222    1.0131 </r>
       <r>   10.9186   -0.0000 </r>
       <r>   15.7081    0.0000 </r>
       <r>   15.7839    0.0000 </r>
       <r>   16.4191    0.0000 </r>
       <r>   17.9211    0.0000 </r>
       <r>   18.5745    0.0000 </r>
       <r>   18.6977    0.0000 </r>
       <r>   19.2129    0.0000 </r>
       <r>   22.0343    0.0000 </r>
      </set>
      <set comment="kpoint 6">
       <r>    2.0059    1.0000 </r>
       <r>    3.3266    1.0000 </r>
       <r>    3.4275    1.0000 </r>
       <r>    3.6006    1.0000 </r>
       <r>    3.6937    1.0000 </r>
       <r>    4.2882    1.0000 </r>
       <r>    4.3990    1.0000 </r>
       <r>    4.8456    1.0000 </r>
       <r>    4.8971    1.0000 </r>
       <r>    5.1699    1.0000 </r>
       <r>    5.2760    1.0000 </r>
       <r>    6.5592    1.0000 </r>
       <r>    6.5743    1.0000 </r>
       <r>    6.6779    1.0000 </r>
       <r>    6.8197    1.0000 </r>
       <r>    7.6587    1.0000 </r>
       <r>    7.8580    1.0000 </r>
       <r>    7.9062    1.0000 </r>
       <r>    7.9585    1.0000 </r>
       <r>    8.1325    1.0000 </r>
       <r>    8.1503    1.0000 </r>
       <r>    9.2361    1.0352 </r>
       <r>   15.9899    0.0000 </r>
       <r>   16.0147    0.0000 </r>
       <r>   16.1422    0.0000 </r>
       <r>   18.2852    0.0000 </r>
       <r>   18.3671    0.0000 </r>
       <r>   18.5237    0.0000 </r>
       <r>   20.4959    0.0000 </r>
       <r>   21.1417    0.0000 </r>
      </set>
      <set comment="kpoint 7">
       <r>    2.0228    1.0000 </r>
       <r>    3.3696    1.0000 </r>
       <r>    3.5177    1.0000 </r>
       <r>    3.7738    1.0000 </r>
       <r>    3.8058    1.0000 </r>
       <r>    4.3468    1.0000 </r>
       <r>    4.4507    1.0000 </r>
       <r>    4.5889    1.0000 </r>
       <r>    4.9544    1.0000 </r>
       <r>    5.2934    1.0000 </r>
       <r>    5.3470    1.0000 </r>
       <r>    6.1698    1.0000 </r>
       <r>    6.1927    1.0000 </r>
       <r>    6.3108    1.0000 </r>
       <r>    6.8976    1.0000 </r>
       <r>    7.1001    1.0000 </r>
       <r>    7.1399    1.0000 </r>
       <r>    8.1784    1.0000 </r>
       <r>    8.2664    1.0000 </r>
       <r>    8.4628    1.0000 </r>
       <r>    8.5228    1.0000 </r>
       <r>   10.1428   -0.0000 </r>
       <r>   15.6228    0.0000 </r>
       <r>   15.9541    0.0000 </r>
       <r>   16.0519    0.0000 </r>
       <r>   18.3474    0.0000 </r>
       <r>   18.6351    0.0000 </r>
       <r>   18.8804    0.0000 </r>
       <r>   20.1240    0.0000 </r>
       <r>   21.4275    0.0000 </r>
      </set>
      <set comment="kpoint 8">
       <r>    1.1277    1.0000 </r>
       <r>    3.0066    1.0000 </r>
       <r>    3.5030    1.0000 </r>
       <r>    3.5087    1.0000 </r>
       <r>    3.5463    1.0000 </r>
       <r>    4.0031    1.0000 </r>
       <r>    4.1063    1.0000 </r>
       <r>    4.2623    1.0000 </r>
       <r>    4.3780    1.0000 </r>
       <r>    4.5691    1.0000 </r>
       <r>    5.8325    1.0000 </r>
       <r>    6.2043    1.0000 </r>
       <r>    6.6051    1.0000 </r>
       <r>    6.8069    1.0000 </r>
       <r>    7.4468    1.0000 </r>
       <r>    7.7480    1.0000 </r>
       <r>    7.9089    1.0000 </r>
       <r>    8.6750    1.0000 </r>
       <r>    9.0574    1.0046 </r>
       <r>    9.1005    1.0096 </r>
       <r>    9.9422   -0.0031 </r>
       <r>   10.5528   -0.0000 </r>
       <r>   11.9054   -0.0000 </r>
       <r>   14.5432   -0.0000 </r>
       <r>   16.6406    0.0000 </r>
       <r>   18.8429    0.0000 </r>
       <r>   19.7797    0.0000 </r>
       <r>   20.2160    0.0000 </r>
       <r>   21.2112    0.0000 </r>
       <r>   21.8175    0.0000 </r>
      </set>
      <set comment="kpoint 9">
       <r>    1.1527    1.0000 </r>
       <r>    3.0095    1.0000 </r>
       <r>    3.4739    1.0000 </r>
       <r>    3.5475    1.0000 </r>
       <r>    3.6511    1.0000 </r>
       <r>    3.9687    1.0000 </r>
       <r>    4.1097    1.0000 </r>
       <r>    4.1966    1.0000 </r>
       <r>    4.2528    1.0000 </r>
       <r>    4.6424    1.0000 </r>
       <r>    5.9617    1.0000 </r>
       <r>    6.0976    1.0000 </r>
       <r>    6.6470    1.0000 </r>
       <r>    6.7977    1.0000 </r>
       <r>    7.4666    1.0000 </r>
       <r>    7.7874    1.0000 </r>
       <r>    8.1390    1.0000 </r>
       <r>    8.6096    1.0000 </r>
       <r>    8.8357    1.0000 </r>
       <r>    8.9139    1.0002 </r>
       <r>    9.6941   -0.0275 </r>
       <r>   10.6431   -0.0000 </r>
       <r>   12.3651   -0.0000 </r>
       <r>   14.3984   -0.0000 </r>
       <r>   16.4425    0.0000 </r>
       <r>   18.8763    0.0000 </r>
       <r>   19.3347    0.0000 </r>
       <r>   20.8629    0.0000 </r>
       <r>   21.3157    0.0000 </r>
       <r>   21.8805    0.0000 </r>
      </set>
      <set comment="kpoint 10">
       <r>    1.1262    1.0000 </r>
       <r>    3.0554    1.0000 </r>
       <r>    3.4604    1.0000 </r>
       <r>    3.4969    1.0000 </r>
       <r>    3.5564    1.0000 </r>
       <r>    3.9955    1.0000 </r>
       <r>    4.1424    1.0000 </r>
       <r>    4.3010    1.0000 </r>
       <r>    4.4742    1.0000 </r>
       <r>    4.5900    1.0000 </r>
       <r>    5.7720    1.0000 </r>
       <r>    6.2034    1.0000 </r>
       <r>    6.4198    1.0000 </r>
       <r>    6.9176    1.0000 </r>
       <r>    7.2713    1.0000 </r>
       <r>    7.5111    1.0000 </r>
       <r>    7.6864    1.0000 </r>
       <r>    8.8543    1.0000 </r>
       <r>    9.3279    0.9915 </r>
       <r>    9.3635    0.9321 </r>
       <r>   10.1245   -0.0000 </r>
       <r>   10.7320   -0.0000 </r>
       <r>   11.4892   -0.0000 </r>
       <r>   14.5620   -0.0000 </r>
       <r>   16.5590    0.0000 </r>
       <r>   18.7824    0.0000 </r>
       <r>   19.6804    0.0000 </r>
       <r>   20.4468    0.0000 </r>
       <r>   21.3826    0.0000 </r>
       <r>   21.9431    0.0000 </r>
      </set>
      <set comment="kpoint 11">
       <r>    2.2249    1.0000 </r>
       <r>    3.7646    1.0000 </r>
       <r>    3.9550    1.0000 </r>
       <r>    4.1430    1.0000 </r>
       <r>    4.3382    1.0000 </r>
       <r>    4.3696    1.0000 </r>
       <r>    4.7387    1.0000 </r>
       <r>    4.8615    1.0000 </r>
       <r>    5.1351    1.0000 </r>
       <r>    5.4494    1.0000 </r>
       <r>    5.9307    1.0000 </r>
       <r>    5.9334    1.0000 </r>
       <r>    6.3139    1.0000 </r>
       <r>    6.3152    1.0000 </r>
       <r>    6.9658    1.0000 </r>
       <r>    7.4953    1.0000 </r>
       <r>    8.1974    1.0000 </r>
       <r>    8.5505    1.0000 </r>
       <r>    8.6551    1.0000 </r>
       <r>    8.8302    1.0000 </r>
       <r>    9.6365    0.0278 </r>
       <r>   10.4481   -0.0000 </r>
       <r>   12.8707   -0.0000 </r>
       <r>   14.9503    0.0000 </r>
       <r>   17.2070    0.0000 </r>
       <r>   17.7327    0.0000 </r>
       <r>   19.7731    0.0000 </r>
       <r>   19.8532    0.0000 </r>
       <r>   22.0301    0.0000 </r>
       <r>   23.1795    0.0000 </r>
      </set>
      <set comment="kpoint 12">
       <r>    2.4186    1.0000 </r>
       <r>    3.6681    1.0000 </r>
       <r>    3.7803    1.0000 </r>
       <r>    3.9044    1.0000 </r>
       <r>    4.2823    1.0000 </r>
       <r>    4.5337    1.0000 </r>
       <r>    4.9155    1.0000 </r>
       <r>    4.9591    1.0000 </r>
       <r>    5.1670    1.0000 </r>
       <r>    5.8121    1.0000 </r>
       <r>    5.8385    1.0000 </r>
       <r>    6.0647    1.0000 </r>
       <r>    6.3923    1.0000 </r>
       <r>    6.7241    1.0000 </r>
       <r>    7.2341    1.0000 </r>
       <r>    7.4608    1.0000 </r>
       <r>    7.8652    1.0000 </r>
       <r>    7.8902    1.0000 </r>
       <r>    8.3591    1.0000 </r>
       <r>    8.9988    1.0014 </r>
       <r>    9.3940    0.8562 </r>
       <r>    9.9085   -0.0058 </r>
       <r>   13.4157   -0.0000 </r>
       <r>   14.9031   -0.0000 </r>
       <r>   17.0006    0.0000 </r>
       <r>   18.1019    0.0000 </r>
       <r>   19.5111    0.0000 </r>
       <r>   19.5870    0.0000 </r>
       <r>   21.8334    0.0000 </r>
       <r>   23.5342    0.0000 </r>
      </set>
      <set comment="kpoint 13">
       <r>    2.4513    1.0000 </r>
       <r>    3.7233    1.0000 </r>
       <r>    3.9913    1.0000 </r>
       <r>    4.0893    1.0000 </r>
       <r>    4.3176    1.0000 </r>
       <r>    4.5681    1.0000 </r>
       <r>    4.7469    1.0000 </r>
       <r>    4.8590    1.0000 </r>
       <r>    5.1461    1.0000 </r>
       <r>    5.3984    1.0000 </r>
       <r>    5.7231    1.0000 </r>
       <r>    6.1221    1.0000 </r>
       <r>    6.2385    1.0000 </r>
       <r>    6.6089    1.0000 </r>
       <r>    7.1777    1.0000 </r>
       <r>    7.3670    1.0000 </r>
       <r>    8.1647    1.0000 </r>
       <r>    8.4138    1.0000 </r>
       <r>    8.5097    1.0000 </r>
       <r>    8.5792    1.0000 </r>
       <r>    9.2789    1.0296 </r>
       <r>   10.1769   -0.0000 </r>
       <r>   13.1698   -0.0000 </r>
       <r>   14.9332   -0.0000 </r>
       <r>   17.1266    0.0000 </r>
       <r>   17.6502    0.0000 </r>
       <r>   19.5678    0.0000 </r>
       <r>   20.1830    0.0000 </r>
       <r>   22.0169    0.0000 </r>
       <r>   23.1949    0.0000 </r>
      </set>
      <set comment="kpoint 14">
       <r>    2.4531    1.0000 </r>
       <r>    3.6490    1.0000 </r>
       <r>    3.7794    1.0000 </r>
       <r>    3.9669    1.0000 </r>
       <r>    4.3063    1.0000 </r>
       <r>    4.5819    1.0000 </r>
       <r>    4.8927    1.0000 </r>
       <r>    4.9229    1.0000 </r>
       <r>    5.1690    1.0000 </r>
       <r>    5.8327    1.0000 </r>
       <r>    5.8448    1.0000 </r>
       <r>    6.0877    1.0000 </r>
       <r>    6.4423    1.0000 </r>
       <r>    6.7002    1.0000 </r>
       <r>    7.1552    1.0000 </r>
       <r>    7.5120    1.0000 </r>
       <r>    7.9098    1.0000 </r>
       <r>    7.9357    1.0000 </r>
       <r>    8.4014    1.0000 </r>
       <r>    8.8033    1.0000 </r>
       <r>    9.2370    1.0353 </r>
       <r>    9.8342   -0.0174 </r>
       <r>   13.2824   -0.0000 </r>
       <r>   14.9550    0.0000 </r>
       <r>   17.0916    0.0000 </r>
       <r>   18.0508    0.0000 </r>
       <r>   19.5217    0.0000 </r>
       <r>   19.7755    0.0000 </r>
       <r>   22.0379    0.0000 </r>
       <r>   23.2598    0.0000 </r>
      </set>
      <set comment="kpoint 15">
       <r>    2.2182    1.0000 </r>
       <r>    3.7990    1.0000 </r>
       <r>    3.9161    1.0000 </r>
       <r>    4.1593    1.0000 </r>
       <r>    4.2264    1.0000 </r>
       <r>    4.4288    1.0000 </r>
       <r>    4.7908    1.0000 </r>
       <r>    4.9204    1.0000 </r>
       <r>    5.1787    1.0000 </r>
       <r>    5.3268    1.0000 </r>
       <r>    5.6990    1.0000 </r>
       <r>    5.9767    1.0000 </r>
       <r>    6.2655    1.0000 </r>
       <r>    6.5667    1.0000 </r>
       <r>    7.0616    1.0000 </r>
       <r>    7.4700    1.0000 </r>
       <r>    8.3627    1.0000 </r>
       <r>    8.3818    1.0000 </r>
       <r>    8.6600    1.0000 </r>
       <r>    8.8950    1.0001 </r>
       <r>    9.5991    0.1036 </r>
       <r>   10.4162   -0.0000 </r>
       <r>   12.7886   -0.0000 </r>
       <r>   15.0140    0.0000 </r>
       <r>   17.1728    0.0000 </r>
       <r>   17.6948    0.0000 </r>
       <r>   19.6882    0.0000 </r>
       <r>   19.7425    0.0000 </r>
       <r>   22.0979    0.0000 </r>
       <r>   23.0868    0.0000 </r>
      </set>
      <set comment="kpoint 16">
       <r>    2.4249    1.0000 </r>
       <r>    3.6698    1.0000 </r>
       <r>    4.0556    1.0000 </r>
       <r>    4.1209    1.0000 </r>
       <r>    4.3278    1.0000 </r>
       <r>    4.3772    1.0000 </r>
       <r>    4.7973    1.0000 </r>
       <r>    4.8434    1.0000 </r>
       <r>    5.1046    1.0000 </r>
       <r>    5.5105    1.0000 </r>
       <r>    5.9086    1.0000 </r>
       <r>    6.0479    1.0000 </r>
       <r>    6.2241    1.0000 </r>
       <r>    6.3673    1.0000 </r>
       <r>    7.1056    1.0000 </r>
       <r>    7.4245    1.0000 </r>
       <r>    8.0323    1.0000 </r>
       <r>    8.3373    1.0000 </r>
       <r>    8.4545    1.0000 </r>
       <r>    8.8258    1.0000 </r>
       <r>    9.5172    0.3820 </r>
       <r>   10.2799   -0.0000 </r>
       <r>   13.3686   -0.0000 </r>
       <r>   14.8102   -0.0000 </r>
       <r>   17.0702    0.0000 </r>
       <r>   17.7339    0.0000 </r>
       <r>   19.6432    0.0000 </r>
       <r>   20.0869    0.0000 </r>
       <r>   21.7661    0.0000 </r>
       <r>   23.5423    0.0000 </r>
      </set>
      <set comment="kpoint 17">
       <r>    3.3141    1.0000 </r>
       <r>    3.9284    1.0000 </r>
       <r>    4.1822    1.0000 </r>
       <r>    4.2979    1.0000 </r>
       <r>    4.5001    1.0000 </r>
       <r>    4.5264    1.0000 </r>
       <r>    4.8191    1.0000 </r>
       <r>    4.8604    1.0000 </r>
       <r>    4.9675    1.0000 </r>
       <r>    5.2034    1.0000 </r>
       <r>    5.3891    1.0000 </r>
       <r>    5.4737    1.0000 </r>
       <r>    5.7091    1.0000 </r>
       <r>    6.1347    1.0000 </r>
       <r>    6.4469    1.0000 </r>
       <r>    6.7107    1.0000 </r>
       <r>    7.1556    1.0000 </r>
       <r>    8.0145    1.0000 </r>
       <r>    8.1317    1.0000 </r>
       <r>    8.1745    1.0000 </r>
       <r>    8.7619    1.0000 </r>
       <r>   10.1090   -0.0001 </r>
       <r>   11.6479   -0.0000 </r>
       <r>   12.8287   -0.0000 </r>
       <r>   18.4226    0.0000 </r>
       <r>   19.2733    0.0000 </r>
       <r>   20.5433    0.0000 </r>
       <r>   21.0427    0.0000 </r>
       <r>   21.1039    0.0000 </r>
       <r>   21.8217    0.0000 </r>
      </set>
      <set comment="kpoint 18">
       <r>    3.2087    1.0000 </r>
       <r>    3.8940    1.0000 </r>
       <r>    4.0840    1.0000 </r>
       <r>    4.2743    1.0000 </r>
       <r>    4.4496    1.0000 </r>
       <r>    4.5350    1.0000 </r>
       <r>    4.7548    1.0000 </r>
       <r>    4.9709    1.0000 </r>
       <r>    4.9975    1.0000 </r>
       <r>    5.1944    1.0000 </r>
       <r>    5.2307    1.0000 </r>
       <r>    5.5479    1.0000 </r>
       <r>    5.7810    1.0000 </r>
       <r>    6.0159    1.0000 </r>
       <r>    6.3714    1.0000 </r>
       <r>    6.6775    1.0000 </r>
       <r>    7.0323    1.0000 </r>
       <r>    8.1172    1.0000 </r>
       <r>    8.3829    1.0000 </r>
       <r>    8.4450    1.0000 </r>
       <r>    9.1223    1.0132 </r>
       <r>    9.6197    0.0575 </r>
       <r>   12.3784   -0.0000 </r>
       <r>   12.8649   -0.0000 </r>
       <r>   18.2070    0.0000 </r>
       <r>   18.9501    0.0000 </r>
       <r>   20.3950    0.0000 </r>
       <r>   20.4183    0.0000 </r>
       <r>   20.9459    0.0000 </r>
       <r>   22.1841    0.0000 </r>
      </set>
      <set comment="kpoint 19">
       <r>    3.2462    1.0000 </r>
       <r>    4.0765    1.0000 </r>
       <r>    4.1861    1.0000 </r>
       <r>    4.2430    1.0000 </r>
       <r>    4.3353    1.0000 </r>
       <r>    4.4849    1.0000 </r>
       <r>    4.7585    1.0000 </r>
       <r>    4.7639    1.0000 </r>
       <r>    4.9187    1.0000 </r>
       <r>    5.2233    1.0000 </r>
       <r>    5.3497    1.0000 </r>
       <r>    5.5954    1.0000 </r>
       <r>    5.7555    1.0000 </r>
       <r>    6.1294    1.0000 </r>
       <r>    6.7855    1.0000 </r>
       <r>    7.1263    1.0000 </r>
       <r>    7.1441    1.0000 </r>
       <r>    7.3111    1.0000 </r>
       <r>    7.9574    1.0000 </r>
       <r>    8.2835    1.0000 </r>
       <r>    9.3247    0.9954 </r>
       <r>   10.3916   -0.0000 </r>
       <r>   11.1578   -0.0000 </r>
       <r>   12.5478   -0.0000 </r>
       <r>   18.3338    0.0000 </r>
       <r>   19.2648    0.0000 </r>
       <r>   20.5524    0.0000 </r>
       <r>   21.0156    0.0000 </r>
       <r>   21.2806    0.0000 </r>
       <r>   21.6781    0.0000 </r>
      </set>
      <set comment="kpoint 20">
       <r>    1.5248    1.0000 </r>
       <r>    3.2082    1.0000 </r>
       <r>    3.6557    1.0000 </r>
       <r>    3.8633    1.0000 </r>
       <r>    3.9225    1.0000 </r>
       <r>    4.4699    1.0000 </r>
       <r>    4.5573    1.0000 </r>
       <r>    4.8045    1.0000 </r>
       <r>    4.9036    1.0000 </r>
       <r>    5.1572    1.0000 </r>
       <r>    6.1017    1.0000 </r>
       <r>    6.2306    1.0000 </r>
       <r>    6.8704    1.0000 </r>
       <r>    6.9559    1.0000 </r>
       <r>    7.2701    1.0000 </r>
       <r>    7.3600    1.0000 </r>
       <r>    8.1978    1.0000 </r>
       <r>    8.4712    1.0000 </r>
       <r>    8.9326    1.0003 </r>
       <r>    9.5121    0.4032 </r>
       <r>   10.6687   -0.0000 </r>
       <r>   11.4553   -0.0000 </r>
       <r>   12.6211   -0.0000 </r>
       <r>   12.9226   -0.0000 </r>
       <r>   17.3862    0.0000 </r>
       <r>   17.8176    0.0000 </r>
       <r>   18.4687    0.0000 </r>
       <r>   21.2182    0.0000 </r>
       <r>   21.5358    0.0000 </r>
       <r>   21.7975    0.0000 </r>
      </set>
      <set comment="kpoint 21">
       <r>    2.4520    1.0000 </r>
       <r>    3.5243    1.0000 </r>
       <r>    3.9012    1.0000 </r>
       <r>    3.9778    1.0000 </r>
       <r>    4.4075    1.0000 </r>
       <r>    4.4852    1.0000 </r>
       <r>    4.5253    1.0000 </r>
       <r>    4.7603    1.0000 </r>
       <r>    4.9213    1.0000 </r>
       <r>    5.0944    1.0000 </r>
       <r>    5.1766    1.0000 </r>
       <r>    5.5558    1.0000 </r>
       <r>    5.8292    1.0000 </r>
       <r>    5.8590    1.0000 </r>
       <r>    5.9557    1.0000 </r>
       <r>    7.0169    1.0000 </r>
       <r>    7.2907    1.0000 </r>
       <r>    7.9479    1.0000 </r>
       <r>    8.3722    1.0000 </r>
       <r>    9.0389    1.0033 </r>
       <r>    9.6530    0.0050 </r>
       <r>   10.0099   -0.0007 </r>
       <r>   13.5470   -0.0000 </r>
       <r>   13.6397   -0.0000 </r>
       <r>   15.4015    0.0000 </r>
       <r>   15.9277    0.0000 </r>
       <r>   20.2429    0.0000 </r>
       <r>   21.3257    0.0000 </r>
       <r>   22.1725    0.0000 </r>
       <r>   22.3427    0.0000 </r>
      </set>
      <set comment="kpoint 22">
       <r>    2.5773    1.0000 </r>
       <r>    3.4543    1.0000 </r>
       <r>    3.6970    1.0000 </r>
       <r>    4.2201    1.0000 </r>
       <r>    4.2228    1.0000 </r>
       <r>    4.3158    1.0000 </r>
       <r>    4.4716    1.0000 </r>
       <r>    4.7233    1.0000 </r>
       <r>    4.8995    1.0000 </r>
       <r>    5.1901    1.0000 </r>
       <r>    5.2375    1.0000 </r>
       <r>    5.4591    1.0000 </r>
       <r>    5.8677    1.0000 </r>
       <r>    6.2617    1.0000 </r>
       <r>    6.3502    1.0000 </r>
       <r>    6.9445    1.0000 </r>
       <r>    7.4723    1.0000 </r>
       <r>    7.9803    1.0000 </r>
       <r>    8.2399    1.0000 </r>
       <r>    8.4838    1.0000 </r>
       <r>    9.5628    0.2103 </r>
       <r>    9.7098   -0.0328 </r>
       <r>   13.5138   -0.0000 </r>
       <r>   13.9378   -0.0000 </r>
       <r>   15.3292    0.0000 </r>
       <r>   15.9515    0.0000 </r>
       <r>   20.3369    0.0000 </r>
       <r>   21.4580    0.0000 </r>
       <r>   22.2508    0.0000 </r>
       <r>   22.3789    0.0000 </r>
      </set>
      <set comment="kpoint 23">
       <r>    2.5827    1.0000 </r>
       <r>    3.4914    1.0000 </r>
       <r>    3.8236    1.0000 </r>
       <r>    4.0334    1.0000 </r>
       <r>    4.2465    1.0000 </r>
       <r>    4.5088    1.0000 </r>
       <r>    4.6246    1.0000 </r>
       <r>    4.6986    1.0000 </r>
       <r>    4.9885    1.0000 </r>
       <r>    5.0464    1.0000 </r>
       <r>    5.1698    1.0000 </r>
       <r>    5.4950    1.0000 </r>
       <r>    5.8221    1.0000 </r>
       <r>    5.9759    1.0000 </r>
       <r>    6.0573    1.0000 </r>
       <r>    7.0278    1.0000 </r>
       <r>    7.5254    1.0000 </r>
       <r>    7.8781    1.0000 </r>
       <r>    8.1853    1.0000 </r>
       <r>    8.8848    1.0001 </r>
       <r>    9.5664    0.1984 </r>
       <r>    9.8677   -0.0111 </r>
       <r>   13.4960   -0.0000 </r>
       <r>   13.8648   -0.0000 </r>
       <r>   15.2966    0.0000 </r>
       <r>   16.0673    0.0000 </r>
       <r>   20.2239    0.0000 </r>
       <r>   21.2029    0.0000 </r>
       <r>   22.2278    0.0000 </r>
       <r>   22.4659    0.0000 </r>
      </set>
      <set comment="kpoint 24">
       <r>    3.1453    1.0000 </r>
       <r>    3.3132    1.0000 </r>
       <r>    3.7090    1.0000 </r>
       <r>    4.1930    1.0000 </r>
       <r>    4.6086    1.0000 </r>
       <r>    4.8257    1.0000 </r>
       <r>    4.9084    1.0000 </r>
       <r>    5.0671    1.0000 </r>
       <r>    5.1835    1.0000 </r>
       <r>    5.4878    1.0000 </r>
       <r>    5.7471    1.0000 </r>
       <r>    5.8535    1.0000 </r>
       <r>    5.9199    1.0000 </r>
       <r>    6.2910    1.0000 </r>
       <r>    6.4287    1.0000 </r>
       <r>    6.4932    1.0000 </r>
       <r>    7.5654    1.0000 </r>
       <r>    8.0818    1.0000 </r>
       <r>    9.1472    1.0181 </r>
       <r>    9.3525    0.9537 </r>
       <r>    9.6415    0.0203 </r>
       <r>   10.2688   -0.0000 </r>
       <r>   11.9646   -0.0000 </r>
       <r>   12.6405   -0.0000 </r>
       <r>   15.4995    0.0000 </r>
       <r>   17.5108    0.0000 </r>
       <r>   17.8366    0.0000 </r>
       <r>   19.9510    0.0000 </r>
       <r>   22.7291    0.0000 </r>
       <r>   24.7993    0.0000 </r>
      </set>
      <set comment="kpoint 25">
       <r>    3.0763    1.0000 </r>
       <r>    3.3319    1.0000 </r>
       <r>    3.6679    1.0000 </r>
       <r>    4.0969    1.0000 </r>
       <r>    4.6454    1.0000 </r>
       <r>    4.7147    1.0000 </r>
       <r>    4.9041    1.0000 </r>
       <r>    4.9488    1.0000 </r>
       <r>    5.2381    1.0000 </r>
       <r>    5.4758    1.0000 </r>
       <r>    5.7890    1.0000 </r>
       <r>    5.8206    1.0000 </r>
       <r>    6.0028    1.0000 </r>
       <r>    6.1967    1.0000 </r>
       <r>    6.3323    1.0000 </r>
       <r>    6.5685    1.0000 </r>
       <r>    7.6998    1.0000 </r>
       <r>    8.4528    1.0000 </r>
       <r>    9.0830    1.0072 </r>
       <r>    9.4082    0.8132 </r>
       <r>    9.6846   -0.0227 </r>
       <r>   10.0042   -0.0008 </r>
       <r>   12.5785   -0.0000 </r>
       <r>   12.8484   -0.0000 </r>
       <r>   15.1467    0.0000 </r>
       <r>   16.9902    0.0000 </r>
       <r>   17.8846    0.0000 </r>
       <r>   19.9721    0.0000 </r>
       <r>   22.8133    0.0000 </r>
       <r>   24.6599    0.0000 </r>
      </set>
      <set comment="kpoint 26">
       <r>    3.1322    1.0000 </r>
       <r>    3.4125    1.0000 </r>
       <r>    3.6452    1.0000 </r>
       <r>    4.0065    1.0000 </r>
       <r>    4.6401    1.0000 </r>
       <r>    4.8090    1.0000 </r>
       <r>    4.9075    1.0000 </r>
       <r>    5.1172    1.0000 </r>
       <r>    5.2793    1.0000 </r>
       <r>    5.3733    1.0000 </r>
       <r>    5.7445    1.0000 </r>
       <r>    5.9967    1.0000 </r>
       <r>    6.1108    1.0000 </r>
       <r>    6.2924    1.0000 </r>
       <r>    6.3845    1.0000 </r>
       <r>    6.5480    1.0000 </r>
       <r>    7.5090    1.0000 </r>
       <r>    7.8053    1.0000 </r>
       <r>    8.9570    1.0005 </r>
       <r>    9.7041   -0.0313 </r>
       <r>    9.8735   -0.0102 </r>
       <r>   10.6203   -0.0000 </r>
       <r>   11.4253   -0.0000 </r>
       <r>   12.4509   -0.0000 </r>
       <r>   15.4797    0.0000 </r>
       <r>   17.5375    0.0000 </r>
       <r>   17.8624    0.0000 </r>
       <r>   20.0296    0.0000 </r>
       <r>   22.6060    0.0000 </r>
       <r>   24.6305    0.0000 </r>
      </set>
      <set comment="kpoint 27">
       <r>    2.6471    1.0000 </r>
       <r>    2.7466    1.0000 </r>
       <r>    2.9473    1.0000 </r>
       <r>    3.3929    1.0000 </r>
       <r>    3.7631    1.0000 </r>
       <r>    3.8709    1.0000 </r>
       <r>    4.4282    1.0000 </r>
       <r>    4.9676    1.0000 </r>
       <r>    5.0632    1.0000 </r>
       <r>    5.1863    1.0000 </r>
       <r>    5.5354    1.0000 </r>
       <r>    5.6238    1.0000 </r>
       <r>    6.5422    1.0000 </r>
       <r>    6.8648    1.0000 </r>
       <r>    7.4054    1.0000 </r>
       <r>    7.7989    1.0000 </r>
       <r>    8.5531    1.0000 </r>
       <r>    8.7698    1.0000 </r>
       <r>    9.4554    0.6402 </r>
       <r>    9.8862   -0.0084 </r>
       <r>   10.3901   -0.0000 </r>
       <r>   10.6733   -0.0000 </r>
       <r>   11.0701   -0.0000 </r>
       <r>   11.2801   -0.0000 </r>
       <r>   14.7901   -0.0000 </r>
       <r>   14.9539    0.0000 </r>
       <r>   15.8602    0.0000 </r>
       <r>   17.4491    0.0000 </r>
       <r>   25.6048    0.0000 </r>
       <r>   25.7405    0.0000 </r>
      </set>
     </set>
    </set>
   </array>
  </eigenvalues>
  <separator name="orbital magnetization" >
   <v name="MAGDIPOLOUT">      0.00000000      0.00000000      0.00000000</v>
  </separator>
  <dos>
   <i name="efermi">      9.48905504 </i>
   <total>
    <array>
     <dimension dim="1">gridpoints</dimension>
     <dimension dim="2">spin</dimension>
     <field>energy</field>
     <field>total</field>
     <field>integrated</field>
     <set>
      <set comment="spin 1">
       <r>    -1.8170     0.0000     0.0000 </r>
       <r>    -1.7185     0.0000     0.0000 </r>
       <r>    -1.6200     0.0000     0.0000 </r>
       <r>    -1.5215     0.0000     0.0000 </r>
       <r>    -1.4229    -0.0000    -0.0000 </r>
       <r>    -1.3244    -0.0000    -0.0000 </r>
       <r>    -1.2259    -0.0000    -0.0000 </r>
       <r>    -1.1274    -0.0000    -0.0000 </r>
       <r>    -1.0288    -0.0000    -0.0000 </r>
       <r>    -0.9303    -0.0000    -0.0000 </r>
       <r>    -0.8318    -0.0000    -0.0000 </r>
       <r>    -0.7333    -0.0000    -0.0000 </r>
       <r>    -0.6347    -0.0000    -0.0000 </r>
       <r>    -0.5362    -0.0000    -0.0000 </r>
       <r>    -0.4377    -0.0000    -0.0000 </r>
       <r>    -0.3392    -0.0001    -0.0000 </r>
       <r>    -0.2406    -0.0008    -0.0001 </r>
       <r>    -0.1421    -0.0027    -0.0004 </r>
       <r>    -0.0436    -0.0020    -0.0005 </r>
       <r>     0.0549     0.0157     0.0010 </r>
       <r>     0.1535     0.0503     0.0060 </r>
       <r>     0.2520     0.0600     0.0119 </r>
       <r>     0.3505     0.0213     0.0140 </r>
       <r>     0.4490    -0.0050     0.0135 </r>
       <r>     0.5476     0.0858     0.0219 </r>
       <r>     0.6461     0.2883     0.0503 </r>
       <r>     0.7446     0.3662     0.0864 </r>
       <r>     0.8431     0.1914     0.1053 </r>
       <r>     0.9417     0.0606     0.1113 </r>
       <r>     1.0402     0.3020     0.1410 </r>
       <r>     1.1387     0.6961     0.2096 </r>
       <r>     1.2372     0.6710     0.2757 </r>
       <r>     1.3358     0.3069     0.3059 </r>
       <r>     1.4343     0.2285     0.3285 </r>
       <r>     1.5328     0.4540     0.3732 </r>
       <r>     1.6313     0.4953     0.4220 </r>
       <r>     1.7299     0.2864     0.4502 </r>
       <r>     1.8284     0.1144     0.4615 </r>
       <r>     1.9269     0.1102     0.4723 </r>
       <r>     2.0255     0.2208     0.4941 </r>
       <r>     2.1240     0.3536     0.5289 </r>
       <r>     2.2225     0.5231     0.5805 </r>
       <r>     2.3210     0.8792     0.6671 </r>
       <r>     2.4196     1.5742     0.8222 </r>
       <r>     2.5181     2.3122     1.0500 </r>
       <r>     2.6166     2.5528     1.3015 </r>
       <r>     2.7151     2.0910     1.5075 </r>
       <r>     2.8137     1.2533     1.6310 </r>
       <r>     2.9122     0.9295     1.7226 </r>
       <r>     3.0107     1.5768     1.8779 </r>
       <r>     3.1092     2.5855     2.1327 </r>
       <r>     3.2078     3.2902     2.4568 </r>
       <r>     3.3063     3.8819     2.8393 </r>
       <r>     3.4048     5.0145     3.3334 </r>
       <r>     3.5033     6.5018     3.9739 </r>
       <r>     3.6019     7.3830     4.7014 </r>
       <r>     3.7004     7.5581     5.4460 </r>
       <r>     3.7989     7.5639     6.1912 </r>
       <r>     3.8974     7.6699     6.9469 </r>
       <r>     3.9960     7.6893     7.7045 </r>
       <r>     4.0945     7.5078     8.4442 </r>
       <r>     4.1930     7.7353     9.2063 </r>
       <r>     4.2915     8.4283    10.0367 </r>
       <r>     4.3901     9.0542    10.9288 </r>
       <r>     4.4886     9.5063    11.8654 </r>
       <r>     4.5871     9.3316    12.7848 </r>
       <r>     4.6856     8.6872    13.6407 </r>
       <r>     4.7842     9.0980    14.5371 </r>
       <r>     4.8827    10.4792    15.5696 </r>
       <r>     4.9812    10.7481    16.6285 </r>
       <r>     5.0797     9.9778    17.6116 </r>
       <r>     5.1783     9.6114    18.5586 </r>
       <r>     5.2768     8.4853    19.3946 </r>
       <r>     5.3753     6.3533    20.0205 </r>
       <r>     5.4738     5.1642    20.5293 </r>
       <r>     5.5724     4.7457    20.9969 </r>
       <r>     5.6709     4.7976    21.4696 </r>
       <r>     5.7694     6.5594    22.1158 </r>
       <r>     5.8679     8.8238    22.9852 </r>
       <r>     5.9665     9.1730    23.8890 </r>
       <r>     6.0650     8.0486    24.6820 </r>
       <r>     6.1635     7.2095    25.3923 </r>
       <r>     6.2620     7.1321    26.0950 </r>
       <r>     6.3606     6.9844    26.7831 </r>
       <r>     6.4591     6.1676    27.3908 </r>
       <r>     6.5576     5.1537    27.8985 </r>
       <r>     6.6561     4.3125    28.3234 </r>
       <r>     6.7547     3.7825    28.6961 </r>
       <r>     6.8532     3.9061    29.0810 </r>
       <r>     6.9517     4.3487    29.5094 </r>
       <r>     7.0502     4.3485    29.9379 </r>
       <r>     7.1488     3.9355    30.3256 </r>
       <r>     7.2473     3.7932    30.6993 </r>
       <r>     7.3458     4.3619    31.1291 </r>
       <r>     7.4443     5.2375    31.6451 </r>
       <r>     7.5429     5.1594    32.1534 </r>
       <r>     7.6414     3.8832    32.5360 </r>
       <r>     7.7399     3.1477    32.8462 </r>
       <r>     7.8384     3.7890    33.2195 </r>
       <r>     7.9370     4.5217    33.6650 </r>
       <r>     8.0355     4.4773    34.1061 </r>
       <r>     8.1340     4.3114    34.5309 </r>
       <r>     8.2325     4.4060    34.9650 </r>
       <r>     8.3311     4.7457    35.4326 </r>
       <r>     8.4296     5.4487    35.9694 </r>
       <r>     8.5281     5.4578    36.5071 </r>
       <r>     8.6266     4.1351    36.9145 </r>
       <r>     8.7252     3.0099    37.2111 </r>
       <r>     8.8237     3.3176    37.5380 </r>
       <r>     8.9222     4.1553    37.9474 </r>
       <r>     9.0207     4.2876    38.3698 </r>
       <r>     9.1193     3.7501    38.7393 </r>
       <r>     9.2178     3.1582    39.0504 </r>
       <r>     9.3163     3.0593    39.3518 </r>
       <r>     9.4148     3.4904    39.6957 </r>
       <r>     9.5134     4.2071    40.1102 </r>
       <r>     9.6119     5.0428    40.6071 </r>
       <r>     9.7104     5.1790    41.1173 </r>
       <r>     9.8089     4.3032    41.5413 </r>
       <r>     9.9075     3.4266    41.8789 </r>
       <r>    10.0060     2.8428    42.1590 </r>
       <r>    10.1045     2.2003    42.3758 </r>
       <r>    10.2030     1.7669    42.5499 </r>
       <r>    10.3016     1.7487    42.7222 </r>
       <r>    10.4001     1.8009    42.8996 </r>
       <r>    10.4986     1.7626    43.0732 </r>
       <r>    10.5971     2.0196    43.2722 </r>
       <r>    10.6957     2.2766    43.4965 </r>
       <r>    10.7942     1.6822    43.6623 </r>
       <r>    10.8927     0.7676    43.7379 </r>
       <r>    10.9912     0.5727    43.7943 </r>
       <r>    11.0898     0.8632    43.8794 </r>
       <r>    11.1883     0.9873    43.9766 </r>
       <r>    11.2868     1.0623    44.0813 </r>
       <r>    11.3853     1.4116    44.2204 </r>
       <r>    11.4839     1.6513    44.3831 </r>
       <r>    11.5824     1.2416    44.5054 </r>
       <r>    11.6809     0.5437    44.5590 </r>
       <r>    11.7794     0.2497    44.5836 </r>
       <r>    11.8780     0.4914    44.6320 </r>
       <r>    11.9765     0.7786    44.7087 </r>
       <r>    12.0750     0.5768    44.7655 </r>
       <r>    12.1735     0.1502    44.7803 </r>
       <r>    12.2721     0.1431    44.7944 </r>
       <r>    12.3706     0.6831    44.8617 </r>
       <r>    12.4691     1.4096    45.0006 </r>
       <r>    12.5676     1.9366    45.1914 </r>
       <r>    12.6662     2.0220    45.3906 </r>
       <r>    12.7647     1.9119    45.5790 </r>
       <r>    12.8632     1.9704    45.7731 </r>
       <r>    12.9617     1.6894    45.9396 </r>
       <r>    13.0603     0.9866    46.0368 </r>
       <r>    13.1588     0.6787    46.1037 </r>
       <r>    13.2573     0.8671    46.1891 </r>
       <r>    13.3558     1.2733    46.3145 </r>
       <r>    13.4544     1.9027    46.5020 </r>
       <r>    13.5529     2.2529    46.7240 </r>
       <r>    13.6514     1.7392    46.8953 </r>
       <r>    13.7500     0.9451    46.9884 </r>
       <r>    13.8485     0.7708    47.0644 </r>
       <r>    13.9470     0.9185    47.1549 </r>
       <r>    14.0455     0.6572    47.2196 </r>
       <r>    14.1441     0.1733    47.2367 </r>
       <r>    14.2426    -0.0218    47.2345 </r>
       <r>    14.3411     0.1163    47.2460 </r>
       <r>    14.4396     0.3876    47.2842 </r>
       <r>    14.5382     0.5651    47.3399 </r>
       <r>    14.6367     0.5559    47.3946 </r>
       <r>    14.7352     0.6924    47.4628 </r>
       <r>    14.8337     1.3186    47.5928 </r>
       <r>    14.9323     1.9965    47.7895 </r>
       <r>    15.0308     1.9452    47.9811 </r>
       <r>    15.1293     1.3214    48.1113 </r>
       <r>    15.2278     1.0840    48.2181 </r>
       <r>    15.3264     1.5229    48.3682 </r>
       <r>    15.4249     1.9738    48.5626 </r>
       <r>    15.5234     1.7715    48.7372 </r>
       <r>    15.6219     1.0217    48.8378 </r>
       <r>    15.7205     0.5272    48.8898 </r>
       <r>    15.8190     0.8928    48.9777 </r>
       <r>    15.9175     1.7853    49.1536 </r>
       <r>    16.0160     2.1967    49.3701 </r>
       <r>    16.1146     1.6281    49.5305 </r>
       <r>    16.2131     0.6737    49.5968 </r>
       <r>    16.3116     0.1766    49.6143 </r>
       <r>    16.4101     0.3334    49.6471 </r>
       <r>    16.5087     0.6892    49.7150 </r>
       <r>    16.6072     0.7502    49.7889 </r>
       <r>    16.7057     0.4653    49.8348 </r>
       <r>    16.8042     0.2183    49.8563 </r>
       <r>    16.9028     0.4603    49.9016 </r>
       <r>    17.0013     1.1360    50.0135 </r>
       <r>    17.0998     1.5887    50.1701 </r>
       <r>    17.1983     1.4012    50.3081 </r>
       <r>    17.2969     1.0913    50.4156 </r>
       <r>    17.3954     1.3573    50.5494 </r>
       <r>    17.4939     1.8578    50.7324 </r>
       <r>    17.5924     1.9246    50.9220 </r>
       <r>    17.6910     1.9499    51.1141 </r>
       <r>    17.7895     2.4279    51.3533 </r>
       <r>    17.8880     2.6248    51.6120 </r>
       <r>    17.9865     1.8842    51.7976 </r>
       <r>    18.0851     0.9601    51.8922 </r>
       <r>    18.1836     0.6494    51.9562 </r>
       <r>    18.2821     0.8828    52.0431 </r>
       <r>    18.3806     1.2975    52.1710 </r>
       <r>    18.4792     1.4351    52.3124 </r>
       <r>    18.5777     1.1423    52.4249 </r>
       <r>    18.6762     0.8405    52.5077 </r>
       <r>    18.7747     0.8918    52.5956 </r>
       <r>    18.8733     1.0618    52.7002 </r>
       <r>    18.9718     0.8743    52.7864 </r>
       <r>    19.0703     0.4314    52.8289 </r>
       <r>    19.1688     0.3376    52.8621 </r>
       <r>    19.2674     0.6522    52.9264 </r>
       <r>    19.3659     0.8520    53.0103 </r>
       <r>    19.4644     0.9424    53.1032 </r>
       <r>    19.5629     1.3192    53.2331 </r>
       <r>    19.6615     1.8162    53.4121 </r>
       <r>    19.7600     2.0170    53.6108 </r>
       <r>    19.8585     1.9154    53.7995 </r>
       <r>    19.9570     1.8481    53.9816 </r>
       <r>    20.0556     1.9019    54.1690 </r>
       <r>    20.1541     2.0915    54.3751 </r>
       <r>    20.2526     2.5668    54.6280 </r>
       <r>    20.3511     2.9731    54.9209 </r>
       <r>    20.4497     2.8043    55.1972 </r>
       <r>    20.5482     2.0170    55.3959 </r>
       <r>    20.6467     0.9950    55.4939 </r>
       <r>    20.7452     0.3106    55.5245 </r>
       <r>    20.8438     0.2594    55.5501 </r>
       <r>    20.9423     0.6391    55.6131 </r>
       <r>    21.0408     1.1819    55.7295 </r>
       <r>    21.1393     1.8894    55.9157 </r>
       <r>    21.2379     2.6062    56.1724 </r>
       <r>    21.3364     2.7587    56.4442 </r>
       <r>    21.4349     2.2090    56.6619 </r>
       <r>    21.5334     1.4573    56.8055 </r>
       <r>    21.6320     1.0016    56.9041 </r>
       <r>    21.7305     1.2269    57.0250 </r>
       <r>    21.8290     1.8288    57.2052 </r>
       <r>    21.9275     2.0008    57.4023 </r>
       <r>    22.0261     1.8599    57.5856 </r>
       <r>    22.1246     2.0102    57.7836 </r>
       <r>    22.2231     2.3555    58.0157 </r>
       <r>    22.3216     2.3886    58.2511 </r>
       <r>    22.4202     1.9501    58.4432 </r>
       <r>    22.5187     1.3625    58.5774 </r>
       <r>    22.6172     1.0538    58.6813 </r>
       <r>    22.7157     1.0929    58.7889 </r>
       <r>    22.8143     1.0577    58.8931 </r>
       <r>    22.9128     0.6711    58.9593 </r>
       <r>    23.0113     0.3517    58.9939 </r>
       <r>    23.1098     0.5256    59.0457 </r>
       <r>    23.2084     0.8324    59.1277 </r>
       <r>    23.3069     0.7315    59.1998 </r>
       <r>    23.4054     0.4331    59.2425 </r>
       <r>    23.5039     0.4159    59.2834 </r>
       <r>    23.6025     0.4813    59.3309 </r>
       <r>    23.7010     0.2907    59.3595 </r>
       <r>    23.7995     0.0502    59.3645 </r>
       <r>    23.8980    -0.0264    59.3619 </r>
       <r>    23.9966    -0.0153    59.3604 </r>
       <r>    24.0951    -0.0042    59.3599 </r>
       <r>    24.1936    -0.0081    59.3591 </r>
       <r>    24.2921    -0.0341    59.3558 </r>
       <r>    24.3907    -0.0558    59.3503 </r>
       <r>    24.4892     0.1115    59.3613 </r>
       <r>    24.5877     0.6482    59.4251 </r>
       <r>    24.6862     1.2002    59.5434 </r>
       <r>    24.7848     1.1941    59.6610 </r>
       <r>    24.8833     0.7014    59.7302 </r>
       <r>    24.9818     0.2085    59.7507 </r>
       <r>    25.0803    -0.0161    59.7491 </r>
       <r>    25.1789    -0.0431    59.7449 </r>
       <r>    25.2774    -0.0372    59.7412 </r>
       <r>    25.3759    -0.0335    59.7379 </r>
       <r>    25.4745     0.0933    59.7471 </r>
       <r>    25.5730     0.4467    59.7911 </r>
       <r>    25.6715     0.8104    59.8709 </r>
       <r>    25.7700     0.8158    59.9513 </r>
       <r>    25.8686     0.4570    59.9963 </r>
       <r>    25.9671     0.0994    60.0061 </r>
       <r>    26.0656    -0.0304    60.0031 </r>
       <r>    26.1641    -0.0246    60.0007 </r>
       <r>    26.2627    -0.0064    60.0001 </r>
       <r>    26.3612    -0.0009    60.0000 </r>
       <r>    26.4597    -0.0001    60.0000 </r>
       <r>    26.5582    -0.0000    60.0000 </r>
       <r>    26.6568    -0.0000    60.0000 </r>
       <r>    26.7553    -0.0000    60.0000 </r>
       <r>    26.8538    -0.0000    60.0000 </r>
       <r>    26.9523    -0.0000    60.0000 </r>
       <r>    27.0509    -0.0000    60.0000 </r>
       <r>    27.1494     0.0000    60.0000 </r>
       <r>    27.2479     0.0000    60.0000 </r>
       <r>    27.3464     0.0000    60.0000 </r>
       <r>    27.4450     0.0000    60.0000 </r>
       <r>    27.5435     0.0000    60.0000 </r>
       <r>    27.6420     0.0000    60.0000 </r>
       <r>    27.7405     0.0000    60.0000 </r>
      </set>
     </set>
    </array>
   </total>
  </dos>
 </calculation>
 <structure name="finalpos" >
  <crystal>
   <varray name="basis" >
    <v>       3.86600000       0.00000000       0.00000000 </v>
    <v>       0.00000000       3.86600000       0.00000000 </v>
    <v>       0.00000000       0.00000000       3.86600000 </v>
   </varray>
   <i name="volume">     57.78106590 </i>
   <varray name="rec_basis" >
    <v>       0.25866529       0.00000000       0.00000000 </v>
    <v>       0.00000000       0.25866529       0.00000000 </v>
    <v>       0.00000000       0.00000000       0.25866529 </v>
   </varray>
  </crystal>
  <varray name="positions" >
   <v>       0.00000000       0.00000000       0.00000000 </v>
   <v>       0.50000000       0.50000000       0.00000000 </v>
   <v>       0.50000000       0.00000000       0.50000000 </v>
   <v>       0.00000000       0.50000000       0.50000000 </v>
  </varray>
 </structure>
</modeling>
