   2   2   0   0
  0.9632503E+01  0.2306700E-09  0.2306700E-09  0.4180770E-09  0.5000000E-15
  1.000000000000000E-004
  CAR 
 unknown system                          
     74.67540347     -5.29583732  301      7.57166487      1.00000000
     -5.296  0.0000E+00  0.0000E+00
     -5.029  0.0000E+00  0.0000E+00
     -4.763  0.0000E+00  0.0000E+00
     -4.496  0.0000E+00  0.0000E+00
     -4.230  0.0000E+00  0.0000E+00
     -3.963  0.0000E+00  0.0000E+00
     -3.696  0.0000E+00  0.0000E+00
     -3.430 -0.1479E-35 -0.3942E-36
     -3.163 -0.3706E-26 -0.9879E-27
     -2.897 -0.2591E-18 -0.6906E-19
     -2.630 -0.4817E-12 -0.1284E-12
     -2.364 -0.2495E-07 -0.6652E-08
     -2.097 -0.3306E-04 -0.8818E-05
     -1.830 -0.4207E-03 -0.1210E-03
     -1.564  0.8834E-02  0.2234E-02
     -1.297  0.4882E-01  0.1525E-01
     -1.031  0.1020E+00  0.4244E-01
     -0.764  0.5423E-01  0.5689E-01
     -0.498  0.1420E+00  0.9475E-01
     -0.231  0.1674E+00  0.1394E+00
      0.036  0.1993E+00  0.1925E+00
      0.302  0.8515E-01  0.2152E+00
      0.569  0.2027E+00  0.2692E+00
      0.835  0.3046E+00  0.3504E+00
      1.102  0.2971E+00  0.4296E+00
      1.368  0.3127E+00  0.5130E+00
      1.635  0.2503E+00  0.5797E+00
      1.902  0.3392E+00  0.6701E+00
      2.168  0.8635E+00  0.9003E+00
      2.435  0.1425E+01  0.1280E+01
      2.701  0.1769E+01  0.1751E+01
      2.968  0.2372E+01  0.2384E+01
      3.234  0.2463E+01  0.3040E+01
      3.501  0.2705E+01  0.3761E+01
      3.768  0.2261E+01  0.4364E+01
      4.034  0.2719E+01  0.5089E+01
      4.301  0.2927E+01  0.5869E+01
      4.567  0.3216E+01  0.6727E+01
      4.834  0.2515E+01  0.7397E+01
      5.100  0.2190E+01  0.7981E+01
      5.367  0.2751E+01  0.8714E+01
      5.634  0.3779E+01  0.9721E+01
      5.900  0.3396E+01  0.1063E+02
      6.167  0.3493E+01  0.1156E+02
      6.433  0.2928E+01  0.1234E+02
      6.700  0.3383E+01  0.1324E+02
      6.966  0.3261E+01  0.1411E+02
      7.233  0.3181E+01  0.1496E+02
      7.500  0.3150E+01  0.1580E+02
      7.766  0.2786E+01  0.1654E+02
      8.033  0.3467E+01  0.1746E+02
      8.299  0.4463E+01  0.1865E+02
      8.566  0.4109E+01  0.1975E+02
      8.832  0.3904E+01  0.2079E+02
      9.099  0.1652E+01  0.2123E+02
      9.366  0.2521E+00  0.2130E+02
      9.632  0.5198E+00  0.2144E+02
      9.899  0.5049E+00  0.2157E+02
     10.165  0.7348E+00  0.2177E+02
     10.432  0.8648E+00  0.2200E+02
     10.698  0.4242E+00  0.2211E+02
     10.965  0.3503E+00  0.2220E+02
     11.232  0.4498E+00  0.2232E+02
     11.498  0.4169E+00  0.2243E+02
     11.765  0.3259E+00  0.2252E+02
     12.031  0.5939E+00  0.2268E+02
     12.298  0.5597E+00  0.2283E+02
     12.564  0.4574E+00  0.2295E+02
     12.831  0.4599E+00  0.2307E+02
     13.098  0.3879E+00  0.2318E+02
     13.364  0.1186E+00  0.2321E+02
     13.631  0.4432E+00  0.2333E+02
     13.897  0.3034E+00  0.2341E+02
     14.164  0.4453E+00  0.2353E+02
     14.430  0.1561E+00  0.2357E+02
     14.697  0.3255E+00  0.2365E+02
     14.964  0.3719E+00  0.2375E+02
     15.230  0.5661E+00  0.2390E+02
     15.497  0.4215E+00  0.2402E+02
     15.763  0.2106E+00  0.2407E+02
     16.030  0.2087E+00  0.2413E+02
     16.296  0.1102E+00  0.2416E+02
     16.563  0.9908E-01  0.2418E+02
     16.830  0.3030E+00  0.2426E+02
     17.096  0.3139E+00  0.2435E+02
     17.363  0.1497E+00  0.2439E+02
     17.629  0.5258E+00  0.2453E+02
     17.896  0.6158E+00  0.2469E+02
     18.162  0.9870E+00  0.2496E+02
     18.429  0.8736E+00  0.2519E+02
     18.696  0.6644E+00  0.2537E+02
     18.962  0.3756E+00  0.2547E+02
     19.229  0.6305E+00  0.2563E+02
     19.495  0.6544E+00  0.2581E+02
     19.762  0.6636E+00  0.2599E+02
     20.028  0.8204E+00  0.2620E+02
     20.295  0.8569E+00  0.2643E+02
     20.562  0.6893E+00  0.2662E+02
     20.828  0.3101E+00  0.2670E+02
     21.095  0.6519E+00  0.2687E+02
     21.361  0.7400E+00  0.2707E+02
     21.628  0.7203E+00  0.2726E+02
     21.894  0.5414E+00  0.2741E+02
     22.161  0.4802E+00  0.2753E+02
     22.428  0.7040E+00  0.2772E+02
     22.694  0.4177E+00  0.2783E+02
     22.961  0.6162E+00  0.2800E+02
     23.227  0.8214E+00  0.2822E+02
     23.494  0.5936E+00  0.2837E+02
     23.760  0.5541E+00  0.2852E+02
     24.027  0.7661E+00  0.2873E+02
     24.294  0.4303E+00  0.2884E+02
     24.560  0.6996E+00  0.2903E+02
     24.827  0.1347E+01  0.2939E+02
     25.093  0.8633E+00  0.2962E+02
     25.360  0.6406E+00  0.2979E+02
     25.626  0.8399E+00  0.3001E+02
     25.893  0.8736E+00  0.3024E+02
     26.160  0.7716E+00  0.3045E+02
     26.426  0.8937E+00  0.3069E+02
     26.693  0.9616E+00  0.3094E+02
     26.959  0.9721E+00  0.3120E+02
     27.226  0.8464E+00  0.3143E+02
     27.492  0.6558E+00  0.3160E+02
     27.759  0.1140E+01  0.3191E+02
     28.026  0.1524E+01  0.3231E+02
     28.292  0.9441E+00  0.3257E+02
     28.559  0.3322E+00  0.3265E+02
     28.825  0.7987E+00  0.3287E+02
     29.092  0.8909E+00  0.3310E+02
     29.358  0.8083E+00  0.3332E+02
     29.625  0.7794E+00  0.3353E+02
     29.892  0.8863E+00  0.3376E+02
     30.158  0.6907E+00  0.3395E+02
     30.425  0.1081E+01  0.3424E+02
     30.691  0.8490E+00  0.3446E+02
     30.958  0.2436E+00  0.3453E+02
     31.224  0.7770E+00  0.3474E+02
     31.491  0.5464E+00  0.3488E+02
     31.758  0.5321E+00  0.3502E+02
     32.024  0.7647E+00  0.3523E+02
     32.291  0.9175E+00  0.3547E+02
     32.557  0.5992E+00  0.3563E+02
     32.824  0.7022E+00  0.3582E+02
     33.090  0.7023E+00  0.3601E+02
     33.357  0.6701E+00  0.3618E+02
     33.623  0.1000E+01  0.3645E+02
     33.890  0.8459E+00  0.3668E+02
     34.157  0.5989E+00  0.3684E+02
     34.423  0.7284E+00  0.3703E+02
     34.690  0.6573E+00  0.3720E+02
     34.956  0.6772E+00  0.3739E+02
     35.223  0.6513E+00  0.3756E+02
     35.489  0.1202E+01  0.3788E+02
     35.756  0.1064E+01  0.3816E+02
     36.023  0.5614E+00  0.3831E+02
     36.289  0.8105E+00  0.3853E+02
     36.556  0.1084E+01  0.3882E+02
     36.822  0.1011E+01  0.3909E+02
     37.089  0.8495E+00  0.3931E+02
     37.355  0.1052E+01  0.3959E+02
     37.622  0.1198E+01  0.3991E+02
     37.889  0.1038E+01  0.4019E+02
     38.155  0.1302E+01  0.4054E+02
     38.422  0.9063E+00  0.4078E+02
     38.688  0.6490E+00  0.4095E+02
     38.955  0.1112E+01  0.4125E+02
     39.221  0.6421E+00  0.4142E+02
     39.488  0.3966E+00  0.4153E+02
     39.755  0.8931E+00  0.4176E+02
     40.021  0.6407E+00  0.4193E+02
     40.288  0.5790E+00  0.4209E+02
     40.554  0.4735E+00  0.4221E+02
     40.821  0.1024E+01  0.4249E+02
     41.087  0.1044E+01  0.4277E+02
     41.354  0.9990E+00  0.4303E+02
     41.621  0.5999E+00  0.4319E+02
     41.887  0.7688E+00  0.4340E+02
     42.154  0.6455E+00  0.4357E+02
     42.420  0.8697E+00  0.4380E+02
     42.687  0.7357E+00  0.4400E+02
     42.953  0.7372E+00  0.4419E+02
     43.220  0.9202E+00  0.4444E+02
     43.487  0.1145E+01  0.4474E+02
     43.753  0.1233E+01  0.4507E+02
     44.020  0.8445E+00  0.4530E+02
     44.286  0.1277E+01  0.4564E+02
     44.553  0.1007E+01  0.4591E+02
     44.819  0.8878E+00  0.4614E+02
     45.086  0.1061E+01  0.4643E+02
     45.353  0.1208E+01  0.4675E+02
     45.619  0.1248E+01  0.4708E+02
     45.886  0.7758E+00  0.4729E+02
     46.152  0.1111E+01  0.4758E+02
     46.419  0.1118E+01  0.4788E+02
     46.685  0.9318E+00  0.4813E+02
     46.952  0.8235E+00  0.4835E+02
     47.219  0.7387E+00  0.4855E+02
     47.485  0.9273E+00  0.4879E+02
     47.752  0.1111E+01  0.4909E+02
     48.018  0.1040E+01  0.4937E+02
     48.285  0.7234E+00  0.4956E+02
     48.551  0.6526E+00  0.4973E+02
     48.818  0.1140E+01  0.5004E+02
     49.085  0.1392E+01  0.5041E+02
     49.351  0.9412E+00  0.5066E+02
     49.618  0.5243E+00  0.5080E+02
     49.884  0.7168E+00  0.5099E+02
     50.151  0.1282E+01  0.5133E+02
     50.417  0.1213E+01  0.5166E+02
     50.684  0.8149E+00  0.5187E+02
     50.951  0.7592E+00  0.5208E+02
     51.217  0.8754E+00  0.5231E+02
     51.484  0.1024E+01  0.5258E+02
     51.750  0.1012E+01  0.5285E+02
     52.017  0.9286E+00  0.5310E+02
     52.283  0.1634E+01  0.5353E+02
     52.550  0.1347E+01  0.5389E+02
     52.817  0.1188E+01  0.5421E+02
     53.083  0.9874E+00  0.5447E+02
     53.350  0.1203E+01  0.5479E+02
     53.616  0.1133E+01  0.5510E+02
     53.883  0.1135E+01  0.5540E+02
     54.149  0.1198E+01  0.5572E+02
     54.416  0.7370E+00  0.5591E+02
     54.683  0.8636E+00  0.5614E+02
     54.949  0.9232E+00  0.5639E+02
     55.216  0.1039E+01  0.5667E+02
     55.482  0.1493E+01  0.5707E+02
     55.749  0.1090E+01  0.5736E+02
     56.015  0.1358E+01  0.5772E+02
     56.282  0.1218E+01  0.5804E+02
     56.549  0.1170E+01  0.5835E+02
     56.815  0.1616E+01  0.5879E+02
     57.082  0.1224E+01  0.5911E+02
     57.348  0.1757E+01  0.5958E+02
     57.615  0.8879E+00  0.5982E+02
     57.881  0.9595E+00  0.6007E+02
     58.148  0.1406E+01  0.6045E+02
     58.415  0.1292E+01  0.6079E+02
     58.681  0.1609E+01  0.6122E+02
     58.948  0.1950E+01  0.6174E+02
     59.214  0.1781E+01  0.6222E+02
     59.481  0.1295E+01  0.6256E+02
     59.747  0.1345E+01  0.6292E+02
     60.014  0.1569E+01  0.6334E+02
     60.281  0.1711E+01  0.6379E+02
     60.547  0.1529E+01  0.6420E+02
     60.814  0.2148E+01  0.6477E+02
     61.080  0.1989E+01  0.6530E+02
     61.347  0.2258E+01  0.6591E+02
     61.613  0.1973E+01  0.6643E+02
     61.880  0.1831E+01  0.6692E+02
     62.147  0.2162E+01  0.6750E+02
     62.413  0.1940E+01  0.6801E+02
     62.680  0.1400E+01  0.6839E+02
     62.946  0.1674E+01  0.6883E+02
     63.213  0.1200E+01  0.6915E+02
     63.479  0.1944E+01  0.6967E+02
     63.746  0.1570E+01  0.7009E+02
     64.013  0.1671E+01  0.7053E+02
     64.279  0.1346E+01  0.7089E+02
     64.546  0.1688E+01  0.7134E+02
     64.812  0.1750E+01  0.7181E+02
     65.079  0.1638E+01  0.7225E+02
     65.345  0.1371E+01  0.7261E+02
     65.612  0.1138E+01  0.7292E+02
     65.879  0.1419E+01  0.7329E+02
     66.145  0.1391E+01  0.7366E+02
     66.412  0.1975E+01  0.7419E+02
     66.678  0.2106E+01  0.7475E+02
     66.945  0.1916E+01  0.7526E+02
     67.211  0.1468E+01  0.7565E+02
     67.478  0.1824E+01  0.7614E+02
     67.745  0.1777E+01  0.7661E+02
     68.011  0.1663E+01  0.7706E+02
     68.278  0.1701E+01  0.7751E+02
     68.544  0.1021E+01  0.7778E+02
     68.811  0.1551E+01  0.7820E+02
     69.077  0.1571E+01  0.7862E+02
     69.344  0.1225E+01  0.7894E+02
     69.611  0.1459E+01  0.7933E+02
     69.877  0.8893E+00  0.7957E+02
     70.144  0.7737E+00  0.7977E+02
     70.410  0.4411E+00  0.7989E+02
     70.677  0.3124E+00  0.7998E+02
     70.943  0.6506E-01  0.7999E+02
     71.210  0.2842E-01  0.8000E+02
     71.477 -0.2376E-03  0.8000E+02
     71.743 -0.1445E-03  0.8000E+02
     72.010 -0.1342E-06  0.8000E+02
     72.276 -0.2783E-11  0.8000E+02
     72.543  0.0000E+00  0.8000E+02
     72.809  0.0000E+00  0.8000E+02
     73.076  0.0000E+00  0.8000E+02
     73.343  0.0000E+00  0.8000E+02
     73.609  0.0000E+00  0.8000E+02
     73.876  0.0000E+00  0.8000E+02
     74.142  0.0000E+00  0.8000E+02
     74.409  0.0000E+00  0.8000E+02
     74.675  0.0000E+00  0.8000E+02
