    2    2    1    1
  0.9632503E+01  0.2306700E-09  0.2306700E-09  0.4180770E-09  0.5000000E-15
  1.000000000000000E-004
  CAR 
 unknown system                          
     16     96     40
 
  0.0000000E+00  0.0000000E+00  0.0000000E+00  0.7513148E-03
    1       -1.660781   1.000000
    2        2.196177   1.000000
    3        4.986306   1.000000
    4        5.862315   1.000000
    5        5.862381   1.000000
    6        6.157980   1.000000
    7        6.158058   1.000000
    8        6.493560   1.000000
    9        7.359995   1.030171
   10        7.360014   1.030164
   11        8.387259  -0.000000
   12        8.387277  -0.000000
   13       14.979900   0.000000
   14       30.732618   0.000000
   15       31.896897   0.000000
   16       34.830253   0.000000
   17       37.903790   0.000000
   18       37.959291   0.000000
   19       37.959355   0.000000
   20       38.689497   0.000000
   21       38.689663   0.000000
   22       41.091390   0.000000
   23       41.091407   0.000000
   24       42.078941   0.000000
   25       44.832827   0.000000
   26       44.832834   0.000000
   27       45.386490   0.000000
   28       49.079901   0.000000
   29       49.080312   0.000000
   30       50.981669   0.000000
   31       50.981827   0.000000
   32       53.172213   0.000000
   33       60.616959   0.000000
   34       62.831141   0.000000
   35       62.831936   0.000000
   36       62.890399   0.000000
   37       63.820989   0.000000
   38       65.359638   0.000000
   39       65.360594   0.000000
   40       65.934801   0.000000
 
  0.9090909E-01 -0.1834352E-18  0.0000000E+00  0.4507889E-02
    1       -1.308084   1.000000
    2        2.471018   1.000000
    3        5.051169   1.000000
    4        5.714827   1.000000
    5        5.750546   1.000000
    6        6.025964   1.000000
    7        6.077767   1.000000
    8        6.361085   1.000000
    9        7.169319   1.007696
   10        7.241018   1.020627
   11        8.416553  -0.000000
   12        9.448083  -0.000000
   13       15.006003   0.000000
   14       30.743975   0.000000
   15       31.157437   0.000000
   16       33.388991   0.000000
   17       35.035489   0.000000
   18       36.803274   0.000000
   19       37.081998   0.000000
   20       37.822236   0.000000
   21       40.453761   0.000000
   22       41.171403   0.000000
   23       41.802954   0.000000
   24       42.396783   0.000000
   25       46.101184   0.000000
   26       46.415107   0.000000
   27       46.477589   0.000000
   28       46.759904   0.000000
   29       50.074239   0.000000
   30       52.306296   0.000000
   31       53.501539   0.000000
   32       55.239704   0.000000
   33       59.660806   0.000000
   34       61.585068   0.000000
   35       61.722667   0.000000
   36       62.446500   0.000000
   37       62.594623   0.000000
   38       66.090969   0.000000
   39       66.270499   0.000000
   40       66.455200   0.000000
 
  0.1818182E+00  0.2395890E-18  0.0000000E+00  0.4507889E-02
    1       -0.315772   1.000000
    2        3.112409   1.000000
    3        4.648826   1.000000
    4        4.978056   1.000000
    5        5.494422   1.000000
    6        6.100928   1.000000
    7        6.673836   1.000000
    8        6.722108   1.000000
    9        6.918817   1.000020
   10        6.956986   1.000062
   11        8.455475  -0.000000
   12       11.294488  -0.000000
   13       15.109794   0.000000
   14       26.995380   0.000000
   15       31.936265   0.000000
   16       32.060793   0.000000
   17       32.093181   0.000000
   18       32.631527   0.000000
   19       37.114135   0.000000
   20       38.083732   0.000000
   21       38.498124   0.000000
   22       39.480124   0.000000
   23       42.613210   0.000000
   24       43.308125   0.000000
   25       46.592208   0.000000
   26       47.569506   0.000000
   27       48.885320   0.000000
   28       51.119609   0.000000
   29       52.995354   0.000000
   30       55.323430   0.000000
   31       56.162512   0.000000
   32       58.253407   0.000000
   33       58.577681   0.000000
   34       58.932992   0.000000
   35       60.003865   0.000000
   36       61.270857   0.000000
   37       63.563747   0.000000
   38       66.385496   0.000000
   39       66.506300   0.000000
   40       67.281216   0.000000
 
  0.2727273E+00 -0.2072005E-17  0.0000000E+00  0.4507889E-02
    1        1.069612   1.000000
    2        3.382893   1.000000
    3        3.809941   1.000000
    4        4.995211   1.000000
    5        5.302416   1.000000
    6        6.169545   1.000000
    7        6.635199   1.000000
    8        6.927334   1.000026
    9        7.522875   0.699791
   10        7.701648   0.058842
   11        8.468093  -0.000000
   12       13.411188   0.000000
   13       15.358786   0.000000
   14       22.872441   0.000000
   15       28.383920   0.000000
   16       29.527214   0.000000
   17       30.332509   0.000000
   18       32.808011   0.000000
   19       35.563552   0.000000
   20       37.838475   0.000000
   21       38.772776   0.000000
   22       38.863912   0.000000
   23       40.061162   0.000000
   24       43.319392   0.000000
   25       50.279856   0.000000
   26       51.410086   0.000000
   27       52.538028   0.000000
   28       53.344035   0.000000
   29       53.675352   0.000000
   30       55.945930   0.000000
   31       57.042674   0.000000
   32       58.948270   0.000000
   33       59.645072   0.000000
   34       59.988335   0.000000
   35       61.333113   0.000000
   36       63.798189   0.000000
   37       64.476744   0.000000
   38       66.319745   0.000000
   39       67.106362   0.000000
   40       67.981409   0.000000
 
  0.3636364E+00 -0.1272813E-18  0.0000000E+00  0.4507889E-02
    1        2.238413   1.000000
    2        3.071226   1.000000
    3        3.254734   1.000000
    4        5.136334   1.000000
    5        5.679413   1.000000
    6        5.858475   1.000000
    7        6.367614   1.000000
    8        8.305058  -0.000001
    9        8.382174  -0.000000
   10        8.456418  -0.000000
   11        8.489405  -0.000000
   12       15.399349   0.000000
   13       15.685857   0.000000
   14       19.763737   0.000000
   15       24.959756   0.000000
   16       27.352769   0.000000
   17       27.589961   0.000000
   18       32.148072   0.000000
   19       34.625217   0.000000
   20       37.907102   0.000000
   21       38.325723   0.000000
   22       39.656774   0.000000
   23       39.715734   0.000000
   24       43.281198   0.000000
   25       50.231426   0.000000
   26       52.239975   0.000000
   27       53.507830   0.000000
   28       56.692740   0.000000
   29       56.774765   0.000000
   30       56.905010   0.000000
   31       58.390492   0.000000
   32       60.520544   0.000000
   33       60.961772   0.000000
   34       61.409606   0.000000
   35       63.390878   0.000000
   36       64.821020   0.000000
   37       66.177270   0.000000
   38       67.067487   0.000000
   39       67.346224   0.000000
   40       68.671383   0.000000
 
  0.4545455E+00  0.9917213E-17  0.0000000E+00  0.4507889E-02
    1        2.607260   1.000000
    2        2.837046   1.000000
    3        2.982550   1.000000
    4        5.394536   1.000000
    5        5.768696   1.000000
    6        6.123229   1.000000
    7        6.218372   1.000000
    8        8.443068  -0.000000
    9        8.919252  -0.000000
   10        9.017777  -0.000000
   11       10.135412  -0.000000
   12       13.727727   0.000000
   13       17.847630   0.000000
   14       19.534664   0.000000
   15       22.239320   0.000000
   16       24.522301   0.000000
   17       26.505085   0.000000
   18       31.546784   0.000000
   19       34.316303   0.000000
   20       36.701043   0.000000
   21       38.122074   0.000000
   22       40.679539   0.000000
   23       42.240584   0.000000
   24       42.552643   0.000000
   25       46.828041   0.000000
   26       52.686586   0.000000
   27       54.124356   0.000000
   28       57.671875   0.000000
   29       59.115310   0.000000
   30       59.895655   0.000000
   31       60.825443   0.000000
   32       61.803738   0.000000
   33       61.853903   0.000000
   34       63.328533   0.000000
   35       64.583779   0.000000
   36       65.915120   0.000000
   37       66.970221   0.000000
   38       67.118077   0.000000
   39       69.066028   0.000000
   40       69.705748   0.000000
 
  0.9090909E-01  0.9090909E-01  0.0000000E+00  0.4507889E-02
    1       -0.632271   1.000000
    2        2.952367   1.000000
    3        4.929976   1.000000
    4        4.992783   1.000000
    5        5.733310   1.000000
    6        5.774088   1.000000
    7        6.514854   1.000000
    8        6.738408   1.000000
    9        6.792526   1.000000
   10        7.176385   1.008622
   11        8.409399  -0.000000
   12       10.777486  -0.000000
   13       15.074724   0.000000
   14       28.744954   0.000000
   15       30.179369   0.000000
   16       31.857985   0.000000
   17       33.896891   0.000000
   18       35.837586   0.000000
   19       35.939901   0.000000
   20       37.027985   0.000000
   21       37.645937   0.000000
   22       43.131126   0.000000
   23       43.455181   0.000000
   24       44.206528   0.000000
   25       44.961074   0.000000
   26       45.512458   0.000000
   27       45.832365   0.000000
   28       51.749697   0.000000
   29       53.725913   0.000000
   30       54.114177   0.000000
   31       54.293768   0.000000
   32       57.871125   0.000000
   33       58.645291   0.000000
   34       59.420715   0.000000
   35       60.664055   0.000000
   36       61.350863   0.000000
   37       62.816774   0.000000
   38       66.168061   0.000000
   39       66.928860   0.000000
   40       67.459991   0.000000
 
  0.1818182E+00  0.9090909E-01  0.0000000E+00  0.9015778E-02
    1        0.588158   1.000000
    2        3.555095   1.000000
    3        4.114365   1.000000
    4        4.724253   1.000000
    5        5.406452   1.000000
    6        6.206887   1.000000
    7        6.226937   1.000000
    8        6.888974   1.000008
    9        7.297209   1.032736
   10        7.599131   0.384988
   11        8.384404  -0.000000
   12       12.672136  -0.000000
   13       15.297529   0.000000
   14       24.990922   0.000000
   15       27.723430   0.000000
   16       30.275016   0.000000
   17       32.289781   0.000000
   18       33.260718   0.000000
   19       35.732053   0.000000
   20       36.308148   0.000000
   21       37.513975   0.000000
   22       42.025681   0.000000
   23       42.444961   0.000000
   24       44.041199   0.000000
   25       47.044773   0.000000
   26       47.847259   0.000000
   27       50.101167   0.000000
   28       53.784857   0.000000
   29       55.365113   0.000000
   30       56.247452   0.000000
   31       56.774887   0.000000
   32       58.710274   0.000000
   33       59.309724   0.000000
   34       59.676182   0.000000
   35       60.963211   0.000000
   36       61.306100   0.000000
   37       63.703509   0.000000
   38       66.447218   0.000000
   39       67.530363   0.000000
   40       68.031447   0.000000
 
  0.2727273E+00  0.9090909E-01  0.0000000E+00  0.9015778E-02
    1        1.973902   1.000000
    2        3.445387   1.000000
    3        3.506663   1.000000
    4        4.838311   1.000000
    5        5.512441   1.000000
    6        5.780124   1.000000
    7        6.492789   1.000000
    8        7.088287   1.001665
    9        8.148220  -0.000177
   10        8.351646  -0.000000
   11        8.646323  -0.000000
   12       14.846829   0.000000
   13       15.705821   0.000000
   14       21.145512   0.000000
   15       25.956308   0.000000
   16       26.771111   0.000000
   17       29.799275   0.000000
   18       31.311279   0.000000
   19       35.579235   0.000000
   20       36.959064   0.000000
   21       37.225205   0.000000
   22       41.168622   0.000000
   23       41.741882   0.000000
   24       44.879425   0.000000
   25       49.028983   0.000000
   26       51.494462   0.000000
   27       52.599831   0.000000
   28       52.636157   0.000000
   29       55.301084   0.000000
   30       57.226081   0.000000
   31       57.749389   0.000000
   32       60.410141   0.000000
   33       61.421152   0.000000
   34       61.493314   0.000000
   35       62.621039   0.000000
   36       64.336925   0.000000
   37       66.296331   0.000000
   38       67.195867   0.000000
   39       67.203406   0.000000
   40       67.918612   0.000000
 
  0.3636364E+00  0.9090909E-01  0.0000000E+00  0.9015778E-02
    1        2.750392   1.000000
    2        3.108682   1.000000
    3        3.147810   1.000000
    4        5.303824   1.000000
    5        5.473519   1.000000
    6        5.966958   1.000000
    7        6.169315   1.000000
    8        8.142794  -0.000205
    9        8.319523  -0.000001
   10        8.723240  -0.000000
   11        9.950059  -0.000000
   12       15.141162   0.000000
   13       17.143685   0.000000
   14       19.384997   0.000000
   15       23.647317   0.000000
   16       24.510549   0.000000
   17       26.484902   0.000000
   18       30.407406   0.000000
   19       34.673323   0.000000
   20       36.488489   0.000000
   21       38.945375   0.000000
   22       41.393196   0.000000
   23       42.185826   0.000000
   24       44.038318   0.000000
   25       48.862199   0.000000
   26       51.643742   0.000000
   27       52.971620   0.000000
   28       54.902312   0.000000
   29       56.850021   0.000000
   30       58.575535   0.000000
   31       59.993721   0.000000
   32       61.393993   0.000000
   33       62.029319   0.000000
   34       64.268728   0.000000
   35       64.875181   0.000000
   36       65.809434   0.000000
   37       65.999477   0.000000
   38       67.876791   0.000000
   39       67.964736   0.000000
   40       69.602345   0.000000
 
  0.4545455E+00  0.9090909E-01  0.0000000E+00  0.4507889E-02
    1        2.821857   1.000000
    2        3.030014   1.000000
    3        3.031126   1.000000
    4        5.365642   1.000000
    5        5.786334   1.000000
    6        6.046949   1.000000
    7        6.047156   1.000000
    8        8.306570  -0.000001
    9        8.757047  -0.000000
   10        8.789848  -0.000000
   11       11.233132  -0.000000
   12       13.499739   0.000000
   13       18.709869   0.000000
   14       19.983400   0.000000
   15       21.811363   0.000000
   16       23.462279   0.000000
   17       25.121916   0.000000
   18       30.090819   0.000000
   19       34.277028   0.000000
   20       36.347728   0.000000
   21       39.392528   0.000000
   22       42.061875   0.000000
   23       42.974080   0.000000
   24       43.590504   0.000000
   25       46.681148   0.000000
   26       52.666246   0.000000
   27       53.128584   0.000000
   28       55.275982   0.000000
   29       59.083881   0.000000
   30       59.263307   0.000000
   31       62.008202   0.000000
   32       62.136214   0.000000
   33       62.218469   0.000000
   34       62.980805   0.000000
   35       64.256047   0.000000
   36       66.934687   0.000000
   37       67.947019   0.000000
   38       67.956655   0.000000
   39       67.968806   0.000000
   40       69.557849   0.000000
 
  0.1818182E+00  0.1818182E+00  0.0000000E+00  0.4507889E-02
    1        1.903530   1.000000
    2        3.656425   1.000000
    3        4.058526   1.000000
    4        4.234319   1.000000
    5        5.479756   1.000000
    6        5.731328   1.000000
    7        6.465935   1.000000
    8        6.614790   1.000000
    9        8.119682  -0.000371
   10        8.233283  -0.000015
   11        8.727718  -0.000000
   12       14.584875   0.000000
   13       15.839519   0.000000
   14       22.933731   0.000000
   15       23.783446   0.000000
   16       28.340489   0.000000
   17       29.823708   0.000000
   18       32.235938   0.000000
   19       32.800121   0.000000
   20       36.594217   0.000000
   21       39.061261   0.000000
   22       43.213451   0.000000
   23       44.032116   0.000000
   24       45.840637   0.000000
   25       46.835137   0.000000
   26       48.846061   0.000000
   27       49.688447   0.000000
   28       53.883400   0.000000
   29       56.186223   0.000000
   30       56.250117   0.000000
   31       56.758405   0.000000
   32       60.807724   0.000000
   33       61.015235   0.000000
   34       63.224075   0.000000
   35       63.615872   0.000000
   36       64.084381   0.000000
   37       64.360601   0.000000
   38       66.727016   0.000000
   39       67.278492   0.000000
   40       69.152206   0.000000
 
  0.2727273E+00  0.1818182E+00  0.0000000E+00  0.9015778E-02
    1        3.120328   1.000000
    2        3.377296   1.000000
    3        3.702913   1.000000
    4        4.519016   1.000000
    5        5.425100   1.000000
    6        5.801890   1.000000
    7        6.162367   1.000000
    8        7.117258   1.003016
    9        8.103501  -0.000552
   10        8.632854  -0.000000
   11       10.135634  -0.000000
   12       16.559556   0.000000
   13       16.817616   0.000000
   14       19.872236   0.000000
   15       22.073182   0.000000
   16       25.625856   0.000000
   17       28.175804   0.000000
   18       28.588253   0.000000
   19       31.521598   0.000000
   20       38.918742   0.000000
   21       39.554604   0.000000
   22       43.082010   0.000000
   23       45.238100   0.000000
   24       47.013207   0.000000
   25       47.611186   0.000000
   26       49.715419   0.000000
   27       50.936378   0.000000
   28       51.962090   0.000000
   29       55.300843   0.000000
   30       56.638743   0.000000
   31       59.216318   0.000000
   32       61.549765   0.000000
   33       62.497232   0.000000
   34       64.122809   0.000000
   35       65.741587   0.000000
   36       65.811871   0.000000
   37       67.358831   0.000000
   38       67.503102   0.000000
   39       69.080361   0.000000
   40       70.195205   0.000000
 
  0.3636364E+00  0.1818182E+00  0.0000000E+00  0.9015778E-02
    1        3.260118   1.000000
    2        3.381220   1.000000
    3        3.552850   1.000000
    4        5.107010   1.000000
    5        5.357606   1.000000
    6        5.756828   1.000000
    7        6.104638   1.000000
    8        7.923247  -0.016100
    9        8.030165  -0.002781
   10        8.598742  -0.000000
   11       11.844905  -0.000000
   12       15.023090   0.000000
   13       19.105762   0.000000
   14       20.020611   0.000000
   15       21.120943   0.000000
   16       22.864310   0.000000
   17       25.519955   0.000000
   18       27.552188   0.000000
   19       30.864156   0.000000
   20       39.642497   0.000000
   21       41.261743   0.000000
   22       43.180552   0.000000
   23       44.339524   0.000000
   24       45.590184   0.000000
   25       49.351364   0.000000
   26       50.080223   0.000000
   27       51.593064   0.000000
   28       53.003638   0.000000
   29       56.731766   0.000000
   30       57.870549   0.000000
   31       58.810090   0.000000
   32       61.457411   0.000000
   33       62.412277   0.000000
   34       62.435318   0.000000
   35       66.674118   0.000000
   36       67.307576   0.000000
   37       68.539326   0.000000
   38       68.895533   0.000000
   39       68.987413   0.000000
   40       69.377099   0.000000
 
  0.2727273E+00  0.2727273E+00  0.0000000E+00  0.4507889E-02
    1        3.420164   1.000000
    2        3.869300   1.000000
    3        4.211578   1.000000
    4        4.226476   1.000000
    5        5.251940   1.000000
    6        5.694199   1.000000
    7        6.128940   1.000000
    8        7.405793   0.997182
    9        7.883654  -0.024920
   10        8.551182  -0.000000
   11       12.004454  -0.000000
   12       17.179511   0.000000
   13       17.878252   0.000000
   14       19.148453   0.000000
   15       20.734810   0.000000
   16       24.926399   0.000000
   17       25.060555   0.000000
   18       27.337916   0.000000
   19       28.174152   0.000000
   20       40.687908   0.000000
   21       41.564660   0.000000
   22       46.075117   0.000000
   23       46.869191   0.000000
   24       47.105352   0.000000
   25       47.393789   0.000000
   26       48.089494   0.000000
   27       50.801946   0.000000
   28       53.262129   0.000000
   29       53.495024   0.000000
   30       58.028992   0.000000
   31       58.046280   0.000000
   32       60.657908   0.000000
   33       62.347894   0.000000
   34       62.553481   0.000000
   35       66.737644   0.000000
   36       67.624866   0.000000
   37       67.830288   0.000000
   38       68.631657   0.000000
   39       68.967812   0.000000
   40       71.040347   0.000000
 
  0.3636364E+00  0.2727273E+00  0.0000000E+00  0.4507889E-02
    1        3.479284   1.000000
    2        3.983487   1.000000
    3        4.087906   1.000000
    4        4.620961   1.000000
    5        5.331197   1.000000
    6        5.335094   1.000000
    7        6.281438   1.000000
    8        7.799222  -0.034150
    9        7.828849  -0.034928
   10        8.176161  -0.000082
   11       13.848783   0.000000
   12       15.242484   0.000000
   13       17.489520   0.000000
   14       21.191048   0.000000
   15       21.700876   0.000000
   16       22.689991   0.000000
   17       24.759816   0.000000
   18       25.550106   0.000000
   19       27.567472   0.000000
   20       41.039816   0.000000
   21       44.218874   0.000000
   22       44.859653   0.000000
   23       46.182991   0.000000
   24       46.426580   0.000000
   25       47.993480   0.000000
   26       49.309063   0.000000
   27       52.666516   0.000000
   28       53.393917   0.000000
   29       53.586970   0.000000
   30       56.928991   0.000000
   31       58.032923   0.000000
   32       58.740455   0.000000
   33       61.655911   0.000000
   34       61.963332   0.000000
   35       66.600522   0.000000
   36       67.903313   0.000000
   37       68.790239   0.000000
   38       68.815533   0.000000
   39       69.814961   0.000000
   40       70.441832   0.000000
 
  0.0000000E+00  0.0000000E+00  0.9090909E-01  0.1502630E-02
    1       -1.580753   1.000000
    2        2.162867   1.000000
    3        4.966330   1.000000
    4        5.857060   1.000000
    5        5.857126   1.000000
    6        6.143350   1.000000
    7        6.143428   1.000000
    8        6.288545   1.000000
    9        7.393139   1.010100
   10        7.393158   1.010083
   11        8.376773  -0.000000
   12        8.376792  -0.000000
   13       15.342464   0.000000
   14       30.051634   0.000000
   15       32.025488   0.000000
   16       34.670515   0.000000
   17       38.000064   0.000000
   18       38.000120   0.000000
   19       38.418142   0.000000
   20       38.695373   0.000000
   21       38.695534   0.000000
   22       41.041053   0.000000
   23       41.041068   0.000000
   24       42.333733   0.000000
   25       44.537240   0.000000
   26       44.537255   0.000000
   27       45.583550   0.000000
   28       49.311819   0.000000
   29       49.312212   0.000000
   30       51.355842   0.000000
   31       51.355990   0.000000
   32       52.978670   0.000000
   33       59.783156   0.000000
   34       62.628636   0.000000
   35       62.629399   0.000000
   36       63.058019   0.000000
   37       63.894043   0.000000
   38       63.894530   0.000000
   39       64.316349   0.000000
   40       64.740959   0.000000
 
  0.9090909E-01 -0.1834352E-18  0.9090909E-01  0.9015778E-02
    1       -1.229991   1.000000
    2        2.441495   1.000000
    3        5.036369   1.000000
    4        5.568627   1.000000
    5        5.730127   1.000000
    6        6.046056   1.000000
    7        6.069387   1.000000
    8        6.344794   1.000000
    9        7.211868   1.014471
   10        7.279145   1.029283
   11        8.401369  -0.000000
   12        9.304899  -0.000000
   13       15.404108   0.000000
   14       30.322360   0.000000
   15       30.983583   0.000000
   16       33.347497   0.000000
   17       35.100279   0.000000
   18       36.264214   0.000000
   19       37.571732   0.000000
   20       38.263626   0.000000
   21       40.193757   0.000000
   22       41.285193   0.000000
   23       41.846537   0.000000
   24       42.563424   0.000000
   25       45.782798   0.000000
   26       46.012149   0.000000
   27       47.166466   0.000000
   28       47.223645   0.000000
   29       49.938210   0.000000
   30       52.500171   0.000000
   31       53.771718   0.000000
   32       55.084987   0.000000
   33       58.434900   0.000000
   34       61.269634   0.000000
   35       62.057013   0.000000
   36       62.543268   0.000000
   37       63.056226   0.000000
   38       64.605822   0.000000
   39       65.008926   0.000000
   40       66.299221   0.000000
 
  0.1818182E+00  0.2395890E-18  0.9090909E-01  0.9015778E-02
    1       -0.245706   1.000000
    2        3.095208   1.000000
    3        4.574754   1.000000
    4        4.991576   1.000000
    5        5.464227   1.000000
    6        6.039953   1.000000
    7        6.642007   1.000000
    8        6.822006   1.000001
    9        6.878093   1.000005
   10        7.048639   1.000682
   11        8.436202  -0.000000
   12       10.949252  -0.000000
   13       15.638587   0.000000
   14       27.050283   0.000000
   15       31.108107   0.000000
   16       32.049496   0.000000
   17       32.147169   0.000000
   18       32.719679   0.000000
   19       36.779458   0.000000
   20       38.494065   0.000000
   21       39.011236   0.000000
   22       39.052951   0.000000
   23       42.963839   0.000000
   24       43.741676   0.000000
   25       46.810017   0.000000
   26       47.482409   0.000000
   27       48.688005   0.000000
   28       51.146983   0.000000
   29       52.671914   0.000000
   30       55.481298   0.000000
   31       56.456046   0.000000
   32       57.064120   0.000000
   33       58.117714   0.000000
   34       59.527130   0.000000
   35       60.118175   0.000000
   36       61.647702   0.000000
   37       63.488710   0.000000
   38       65.428867   0.000000
   39       65.974569   0.000000
   40       67.947931   0.000000
 
  0.2727273E+00 -0.2072005E-17  0.9090909E-01  0.9015778E-02
    1        1.115847   1.000000
    2        3.371398   1.000000
    3        3.797048   1.000000
    4        4.982169   1.000000
    5        5.281158   1.000000
    6        6.185882   1.000000
    7        6.655959   1.000000
    8        6.971090   1.000092
    9        7.531026   0.668083
   10        7.688770   0.086586
   11        8.445543  -0.000000
   12       12.703165  -0.000000
   13       16.196418   0.000000
   14       22.934547   0.000000
   15       28.010587   0.000000
   16       29.633211   0.000000
   17       30.548543   0.000000
   18       32.550336   0.000000
   19       35.288592   0.000000
   20       37.367454   0.000000
   21       37.875973   0.000000
   22       39.802473   0.000000
   23       40.970742   0.000000
   24       43.855552   0.000000
   25       50.367057   0.000000
   26       50.797288   0.000000
   27       51.900438   0.000000
   28       52.162033   0.000000
   29       55.329989   0.000000
   30       56.107010   0.000000
   31       57.294713   0.000000
   32       58.947622   0.000000
   33       59.124956   0.000000
   34       59.790407   0.000000
   35       61.785226   0.000000
   36       63.215956   0.000000
   37       64.860939   0.000000
   38       66.127210   0.000000
   39       66.388621   0.000000
   40       68.280564   0.000000
 
  0.3636364E+00 -0.1272813E-18  0.9090909E-01  0.9015778E-02
    1        2.221597   1.000000
    2        3.021777   1.000000
    3        3.360511   1.000000
    4        4.894317   1.000000
    5        5.808858   1.000000
    6        6.045864   1.000000
    7        6.401779   1.000000
    8        8.266458  -0.000005
    9        8.343322  -0.000000
   10        8.397095  -0.000000
   11        8.543365  -0.000000
   12       14.140136   0.000000
   13       16.980483   0.000000
   14       19.849242   0.000000
   15       24.625909   0.000000
   16       27.709802   0.000000
   17       27.712192   0.000000
   18       32.115539   0.000000
   19       34.542991   0.000000
   20       36.630426   0.000000
   21       37.983087   0.000000
   22       39.642917   0.000000
   23       41.137395   0.000000
   24       43.801693   0.000000
   25       49.133998   0.000000
   26       53.208434   0.000000
   27       53.392576   0.000000
   28       55.751167   0.000000
   29       56.035743   0.000000
   30       58.099427   0.000000
   31       58.608554   0.000000
   32       60.379643   0.000000
   33       61.358551   0.000000
   34       61.412609   0.000000
   35       63.442361   0.000000
   36       64.768466   0.000000
   37       65.837534   0.000000
   38       66.400740   0.000000
   39       68.350912   0.000000
   40       68.712393   0.000000
 
  0.4545455E+00  0.9917213E-17  0.9090909E-01  0.9015778E-02
    1        2.548068   1.000000
    2        2.704427   1.000000
    3        3.224843   1.000000
    4        4.957208   1.000000
    5        5.987682   1.000000
    6        6.255715   1.000000
    7        6.444720   1.000000
    8        8.386222  -0.000000
    9        8.920932  -0.000000
   10        9.017947  -0.000000
   11       10.041050  -0.000000
   12       13.516597   0.000000
   13       17.791732   0.000000
   14       19.559397   0.000000
   15       22.342806   0.000000
   16       24.861518   0.000000
   17       26.631878   0.000000
   18       31.556423   0.000000
   19       34.276746   0.000000
   20       35.743077   0.000000
   21       39.106979   0.000000