 vasp.6.2.0 18Jan21 (build Mar 17 2021 09:06:54) complex                        
  
 executed on             LinuxIFC date 2021.09.09  12:03:21
 serial version


--------------------------------------------------------------------------------------------------------


 INCAR:
   ENCUT = 280.000000
   SIGMA = 0.200000
   EDIFF = 1.00e-06
   GGA = PE
   PREC = normal
   IBRION = 1
   ICHARG = 1
   ISIF = 2
   ISMEAR = 1
   KPAR = 1
   NBANDS = 40
   NSW = 0
   NCORE = 1
   LCHARG = .TRUE.

 POTCAR:    PAW_PBE Fe 06Sep2000                  
 POTCAR:    PAW_PBE Fe 06Sep2000                  
   SHA256 =  cd5a22d9368cc8b5cc476bea79732366149640da08ac9009b0e1b7fc627eea28 Fe/POTCAR             
   COPYR  = (c) Copyright 06Sep2000 Georg Kresse                                                    
   COPYR  = This file is part of the software VASP. Any use, copying, and all other rights are regul
   COPYR  = If you do not have a valid VASP license, you may not use, copy or distribute this file. 
   VRHFIN =Fe:  d7 s1                                                                               
   LEXCH  = PE                                                                                      
   EATOM  =   594.3153 eV,   43.6809 Ry                                                             
                                                                                                    
   TITEL  = PAW_PBE Fe 06Sep2000                                                                    
   LULTRA =        F    use ultrasoft PP ?                                                          
   IUNSCR =        1    unscreen: 0-lin 1-nonlin 2-no                                               
   RPACOR =    2.000    partial core radius                                                         
   POMASS =   55.847; ZVAL   =    8.000    mass and valenz                                          
   RCORE  =    2.300    outmost cutoff radius                                                       
   RWIGS  =    2.460; RWIGS  =    1.302    wigner-seitz radius (au A)                               
   ENMAX  =  267.882; ENMIN  =  200.911 eV                                                          
   RCLOC  =    1.701    cutoff for local pot                                                        
   LCOR   =        T    correct aug charges                                                         
   LPAW   =        T    paw PP                                                                      
   EAUG   =  511.368                                                                                
   DEXC   =    0.000                                                                                
   RMAX   =    2.356    core radius for proj-oper                                                   
   RAUG   =    1.300    factor for augmentation sphere                                              
   RDEP   =    2.442    radius for radial grids                                                     
   RDEPT  =    1.890    core radius for aug-charge                                                  
                                                                                                    
   Atomic configuration                                                                             
    9 entries                                                                                       
     n  l   j            E        occ.                                                              
     1  0  0.50     -6993.8440   2.0000                                                             
     2  0  0.50      -814.6047   2.0000                                                             
     2  1  1.50      -693.3689   6.0000                                                             
     3  0  0.50       -89.4732   2.0000                                                             
     3  1  1.50       -55.6373   6.0000                                                             
     3  2  2.50        -3.8151   7.0000                                                             
     4  0  0.50        -4.2551   1.0000                                                             
     4  1  1.50        -3.4015   0.0000                                                             
     4  3  2.50        -1.3606   0.0000                                                             
   Description                                                                                      
     l       E           TYP  RCUT    TYP  RCUT                                                     
     2     -3.8151135     23  2.300                                                                 
     2     -5.1756961     23  2.300                                                                 
     0     -4.2550963     23  2.300                                                                 
     0      7.2035603     23  2.300                                                                 
     1     -2.7211652     23  2.300                                                                 
     1     18.4316424     23  2.300                                                                 
  local pseudopotential read in
  partial core-charges read in
  partial kinetic energy density read in
  atomic valenz-charges read in
  non local Contribution for L=           2  read in
    real space projection operators read in
  non local Contribution for L=           2  read in
    real space projection operators read in
  non local Contribution for L=           0  read in
    real space projection operators read in
  non local Contribution for L=           0  read in
    real space projection operators read in
  non local Contribution for L=           1  read in
    real space projection operators read in
  non local Contribution for L=           1  read in
    real space projection operators read in
    PAW grid and wavefunctions read in
 
   number of l-projection  operators is LMAX  =           6
   number of lm-projection operators is LMMAX =          18
 
  PAW_PBE Fe 06Sep2000                  :
 energy of atom  1       EATOM= -594.3153
 kinetic energy error for atom=    0.0278 (will be added to EATOM!!)
 
 
 POSCAR: Fe
  positions in cartesian coordinates
  No initial velocities read in
 exchange correlation table for  LEXCH =        8
   RHO(1)=    0.500       N(1)  =     2000
   RHO(2)=  100.500       N(2)  =     4000
 


--------------------------------------------------------------------------------------------------------


 ion  position               nearest neighbor table
   1  0.000  0.000  0.000-   2 2.48   2 2.48   2 2.48   2 2.48   2 2.48   2 2.48
   2  0.333  0.667  0.500-   1 2.48   1 2.48   1 2.48   1 2.48   1 2.48   1 2.48
 
  LATTYP: Found a hexagonal cell.
 ALAT       =     2.3067000000
 C/A-ratio  =     1.8124463519
  
  Lattice vectors:
  
 A1 = (   2.3067000000,   0.0000000000,   0.0000000000)
 A2 = (  -1.1533500000,   1.9976607989,   0.0000000000)
 A3 = (   0.0000000000,   0.0000000000,   4.1807700000)


Analysis of symmetry for initial positions (statically):
=====================================================================
 Subroutine PRICEL returns:
 Original cell was already a primitive cell.
 

 Routine SETGRP: Setting up the symmetry group for a 
 hexagonal supercell.


 Subroutine GETGRP returns: Found 24 space group operations
 (whereof 12 operations were pure point group operations)
 out of a pool of 24 trial point group operations.


The static configuration has the point symmetry D_3h.
 The point group associated with its full space group is D_6h.


Analysis of symmetry for dynamics (positions and initial velocities):
=====================================================================
 Subroutine PRICEL returns:
 Original cell was already a primitive cell.
 

 Routine SETGRP: Setting up the symmetry group for a 
 hexagonal supercell.


 Subroutine GETGRP returns: Found 24 space group operations
 (whereof 12 operations were pure point group operations)
 out of a pool of 24 trial point group operations.


The dynamic configuration has the point symmetry D_3h.
 The point group associated with its full space group is D_6h.


 Subroutine INISYM returns: Found 24 space group operations
 (whereof 12 operations are pure point group operations),
 and found     1 'primitive' translations


----------------------------------------------------------------------------------------

                                     Primitive cell                                     

  volume of cell :      19.2650

  direct lattice vectors                    reciprocal lattice vectors
     2.306700000  0.000000000  0.000000000     0.433519747  0.250292743  0.000000000
    -1.153350000  1.997660799  0.000000000     0.000000000  0.500585485  0.000000000
     0.000000000  0.000000000  4.180770000     0.000000000  0.000000000  0.239190388

  length of vectors
     2.306700000  2.306700000  4.180770000     0.500585485  0.500585485  0.239190388

  position of ions in fractional coordinates (direct lattice)
     0.000000000  0.000000000  0.000000000
     0.333333333  0.666666667  0.500000000

  ion indices of the primitive-cell ions
   primitive index   ion index
                 1           1
                 2           2

----------------------------------------------------------------------------------------

 
 
 KPOINTS: KPOINTS created by Atomic Simulation Env

Automatic generation of k-mesh.
 Grid dimensions read from file:
 generate k-points for:   11   11   11

 Generating k-lattice:

  Cartesian coordinates                     Fractional coordinates (reciprocal lattice)
     0.039410886  0.022753886  0.000000000     0.090909091 -0.000000000  0.000000000
     0.000000000  0.045507771  0.000000000     0.000000000  0.090909091  0.000000000
     0.000000000  0.000000000  0.021744581     0.000000000  0.000000000  0.090909091

  Length of vectors
     0.045507771  0.045507771  0.021744581

  Shift w.r.t. Gamma in fractional coordinates (k-lattice)
     0.000000000  0.000000000  0.000000000

 
 Subroutine IBZKPT returns following result:
 ===========================================
 
 Found     96 irreducible k-points:
 
 Following reciprocal coordinates:
            Coordinates               Weight
  0.000000  0.000000  0.000000      1.000000
  0.090909 -0.000000  0.000000      6.000000
  0.181818  0.000000  0.000000      6.000000
  0.272727 -0.000000  0.000000      6.000000
  0.363636 -0.000000  0.000000      6.000000
  0.454545  0.000000  0.000000      6.000000
  0.090909  0.090909  0.000000      6.000000
  0.181818  0.090909  0.000000     12.000000
  0.272727  0.090909  0.000000     12.000000
  0.363636  0.090909  0.000000     12.000000
  0.454545  0.090909  0.000000      6.000000
  0.181818  0.181818  0.000000      6.000000
  0.272727  0.181818  0.000000     12.000000
  0.363636  0.181818  0.000000     12.000000
  0.272727  0.272727  0.000000      6.000000
  0.363636  0.272727  0.000000      6.000000
  0.000000  0.000000  0.090909      2.000000
  0.090909 -0.000000  0.090909     12.000000
  0.181818  0.000000  0.090909     12.000000
  0.272727 -0.000000  0.090909     12.000000
  0.363636 -0.000000  0.090909     12.000000
  0.454545  0.000000  0.090909     12.000000
  0.090909  0.090909  0.090909     12.000000
  0.181818  0.090909  0.090909     24.000000
  0.272727  0.090909  0.090909     24.000000
  0.363636  0.090909  0.090909     24.000000
  0.454545  0.090909  0.090909     12.000000
  0.181818  0.181818  0.090909     12.000000
  0.272727  0.181818  0.090909     24.000000
  0.363636  0.181818  0.090909     24.000000
  0.272727  0.272727  0.090909     12.000000
  0.363636  0.272727  0.090909     12.000000
  0.000000  0.000000  0.181818      2.000000
  0.090909 -0.000000  0.181818     12.000000
  0.181818  0.000000  0.181818     12.000000
  0.272727 -0.000000  0.181818     12.000000
  0.363636 -0.000000  0.181818     12.000000
  0.454545  0.000000  0.181818     12.000000
  0.090909  0.090909  0.181818     12.000000
  0.181818  0.090909  0.181818     24.000000
  0.272727  0.090909  0.181818     24.000000
  0.363636  0.090909  0.181818     24.000000
  0.454545  0.090909  0.181818     12.000000
  0.181818  0.181818  0.181818     12.000000
  0.272727  0.181818  0.181818     24.000000
  0.363636  0.181818  0.181818     24.000000
  0.272727  0.272727  0.181818     12.000000
  0.363636  0.272727  0.181818     12.000000
  0.000000  0.000000  0.272727      2.000000
  0.090909 -0.000000  0.272727     12.000000
  0.181818  0.000000  0.272727     12.000000
  0.272727 -0.000000  0.272727     12.000000
  0.363636 -0.000000  0.272727     12.000000
  0.454545  0.000000  0.272727     12.000000
  0.090909  0.090909  0.272727     12.000000
  0.181818  0.090909  0.272727     24.000000
  0.272727  0.090909  0.272727     24.000000
  0.363636  0.090909  0.272727     24.000000
  0.454545  0.090909  0.272727     12.000000
  0.181818  0.181818  0.272727     12.000000
  0.272727  0.181818  0.272727     24.000000
  0.363636  0.181818  0.272727     24.000000
  0.272727  0.272727  0.272727     12.000000
  0.363636  0.272727  0.272727     12.000000
  0.000000  0.000000  0.363636      2.000000
  0.090909 -0.000000  0.363636     12.000000
  0.181818  0.000000  0.363636     12.000000
  0.272727 -0.000000  0.363636     12.000000
  0.363636 -0.000000  0.363636     12.000000
  0.454545  0.000000  0.363636     12.000000
  0.090909  0.090909  0.363636     12.000000
  0.181818  0.090909  0.363636     24.000000
  0.272727  0.090909  0.363636     24.000000
  0.363636  0.090909  0.363636     24.000000
  0.454545  0.090909  0.363636     12.000000
  0.181818  0.181818  0.363636     12.000000
  0.272727  0.181818  0.363636     24.000000
  0.363636  0.181818  0.363636     24.000000
  0.272727  0.272727  0.363636     12.000000
  0.363636  0.272727  0.363636     12.000000
  0.000000  0.000000  0.454545      2.000000
  0.090909 -0.000000  0.454545     12.000000
  0.181818  0.000000  0.454545     12.000000
  0.272727 -0.000000  0.454545     12.000000
  0.363636 -0.000000  0.454545     12.000000
  0.454545  0.000000  0.454545     12.000000
  0.090909  0.090909  0.454545     12.000000
  0.181818  0.090909  0.454545     24.000000
  0.272727  0.090909  0.454545     24.000000
  0.363636  0.090909  0.454545     24.000000
  0.454545  0.090909  0.454545     12.000000
  0.181818  0.181818  0.454545     12.000000
  0.272727  0.181818  0.454545     24.000000
  0.363636  0.181818  0.454545     24.000000
  0.272727  0.272727  0.454545     12.000000
  0.363636  0.272727  0.454545     12.000000
 
 Following cartesian coordinates:
            Coordinates               Weight
  0.000000  0.000000  0.000000      1.000000
  0.039411  0.022754  0.000000      6.000000
  0.078822  0.045508  0.000000      6.000000
  0.118233  0.068262  0.000000      6.000000
  0.157644  0.091016  0.000000      6.000000
  0.197054  0.113769  0.000000      6.000000
  0.039411  0.068262  0.000000      6.000000
  0.078822  0.091016  0.000000     12.000000
  0.118233  0.113769  0.000000     12.000000
  0.157644  0.136523  0.000000     12.000000
  0.197054  0.159277  0.000000      6.000000
  0.078822  0.136523  0.000000      6.000000
  0.118233  0.159277  0.000000     12.000000
  0.157644  0.182031  0.000000     12.000000
  0.118233  0.204785  0.000000      6.000000
  0.157644  0.227539  0.000000      6.000000
  0.000000  0.000000  0.021745      2.000000
  0.039411  0.022754  0.021745     12.000000
  0.078822  0.045508  0.021745     12.000000
  0.118233  0.068262  0.021745     12.000000
  0.157644  0.091016  0.021745     12.000000
  0.197054  0.113769  0.021745     12.000000
  0.039411  0.068262  0.021745     12.000000
  0.078822  0.091016  0.021745     24.000000
  0.118233  0.113769  0.021745     24.000000
  0.157644  0.136523  0.021745     24.000000
  0.197054  0.159277  0.021745     12.000000
  0.078822  0.136523  0.021745     12.000000
  0.118233  0.159277  0.021745     24.000000
  0.157644  0.182031  0.021745     24.000000
  0.118233  0.204785  0.021745     12.000000
  0.157644  0.227539  0.021745     12.000000
  0.000000  0.000000  0.043489      2.000000
  0.039411  0.022754  0.043489     12.000000
  0.078822  0.045508  0.043489     12.000000
  0.118233  0.068262  0.043489     12.000000
  0.157644  0.091016  0.043489     12.000000
  0.197054  0.113769  0.043489     12.000000
  0.039411  0.068262  0.043489     12.000000
  0.078822  0.091016  0.043489     24.000000
  0.118233  0.113769  0.043489     24.000000
  0.157644  0.136523  0.043489     24.000000
  0.197054  0.159277  0.043489     12.000000
  0.078822  0.136523  0.043489     12.000000
  0.118233  0.159277  0.043489     24.000000
  0.157644  0.182031  0.043489     24.000000
  0.118233  0.204785  0.043489     12.000000
  0.157644  0.227539  0.043489     12.000000
  0.000000  0.000000  0.065234      2.000000
  0.039411  0.022754  0.065234     12.000000
  0.078822  0.045508  0.065234     12.000000
  0.118233  0.068262  0.065234     12.000000
  0.157644  0.091016  0.065234     12.000000
  0.197054  0.113769  0.065234     12.000000
  0.039411  0.068262  0.065234     12.000000
  0.078822  0.091016  0.065234     24.000000
  0.118233  0.113769  0.065234     24.000000
  0.157644  0.136523  0.065234     24.000000
  0.197054  0.159277  0.065234     12.000000
  0.078822  0.136523  0.065234     12.000000
  0.118233  0.159277  0.065234     24.000000
  0.157644  0.182031  0.065234     24.000000
  0.118233  0.204785  0.065234     12.000000
  0.157644  0.227539  0.065234     12.000000
  0.000000  0.000000  0.086978      2.000000
  0.039411  0.022754  0.086978     12.000000
  0.078822  0.045508  0.086978     12.000000
  0.118233  0.068262  0.086978     12.000000
  0.157644  0.091016  0.086978     12.000000
  0.197054  0.113769  0.086978     12.000000
  0.039411  0.068262  0.086978     12.000000
  0.078822  0.091016  0.086978     24.000000
  0.118233  0.113769  0.086978     24.000000
  0.157644  0.136523  0.086978     24.000000
  0.197054  0.159277  0.086978     12.000000
  0.078822  0.136523  0.086978     12.000000
  0.118233  0.159277  0.086978     24.000000
  0.157644  0.182031  0.086978     24.000000
  0.118233  0.204785  0.086978     12.000000
  0.157644  0.227539  0.086978     12.000000
  0.000000  0.000000  0.108723      2.000000
  0.039411  0.022754  0.108723     12.000000
  0.078822  0.045508  0.108723     12.000000
  0.118233  0.068262  0.108723     12.000000
  0.157644  0.091016  0.108723     12.000000
  0.197054  0.113769  0.108723     12.000000
  0.039411  0.068262  0.108723     12.000000
  0.078822  0.091016  0.108723     24.000000
  0.118233  0.113769  0.108723     24.000000
  0.157644  0.136523  0.108723     24.000000
  0.197054  0.159277  0.108723     12.000000
  0.078822  0.136523  0.108723     12.000000
  0.118233  0.159277  0.108723     24.000000
  0.157644  0.182031  0.108723     24.000000
  0.118233  0.204785  0.108723     12.000000
  0.157644  0.227539  0.108723     12.000000
 


--------------------------------------------------------------------------------------------------------




 Dimension of arrays:
   k-points           NKPTS =     96   k-points in BZ     NKDIM =     96   number of bands    NBANDS=     40
   number of dos      NEDOS =    301   number of ions     NIONS =      2
   non local maximal  LDIM  =      6   non local SUM 2l+1 LMDIM =     18
   total plane-waves  NPLWV =   1800
   max r-space proj   IRMAX =      1   max aug-charges    IRDMAX=   3527
   dimension x,y,z NGX =    10 NGY =   10 NGZ =   18
   dimension x,y,z NGXF=    20 NGYF=   20 NGZF=   36
   support grid    NGXF=    20 NGYF=   20 NGZF=   36
   ions per type =               2
   NGX,Y,Z   is equivalent  to a cutoff of   7.21,  7.21,  7.16 a.u.
   NGXF,Y,Z  is equivalent  to a cutoff of  14.41, 14.41, 14.32 a.u.

 SYSTEM =  unknown system                          
 POSCAR =  Fe                                      

 Startparameter for this run:
   NWRITE =      2    write-flag & timer
   PREC   = normal    normal or accurate (medium, high low for compatibility)
   ISTART =      0    job   : 0-new  1-cont  2-samecut
   ICHARG =      1    charge: 1-file 2-atom 10-const
   ISPIN  =      1    spin polarized calculation?
   LNONCOLLINEAR =      F non collinear calculations
   LSORBIT =      F    spin-orbit coupling
   INIWAV =      1    electr: 0-lowe 1-rand  2-diag
   LASPH  =      F    aspherical Exc in radial PAW
   METAGGA=      F    non-selfconsistent MetaGGA calc.

 Electronic Relaxation 1
   ENCUT  =  280.0 eV  20.58 Ry    4.54 a.u.   3.15  3.15  5.70*2*pi/ulx,y,z
   ENINI  =  280.0     initial cutoff
   ENAUG  =  511.4 eV  augmentation charge cutoff
   NELM   =     60;   NELMIN=  2; NELMDL= -5     # of ELM steps 
   EDIFF  = 0.1E-05   stopping-criterion for ELM
   LREAL  =      F    real-space projection
   NLSPLINE    = F    spline interpolate recip. space projectors
   LCOMPAT=      F    compatible to vasp.4.4
   GGA_COMPAT  = T    GGA compatible to vasp.4.4-vasp.4.6
   LMAXPAW     = -100 max onsite density
   LMAXMIX     =    2 max onsite mixed and CHGCAR
   VOSKOWN=      0    Vosko Wilk Nusair interpolation
   ROPT   =    0.00000
 Ionic relaxation
   EDIFFG = 0.1E-04   stopping-criterion for IOM
   NSW    =      0    number of steps for IOM
   NBLOCK =      1;   KBLOCK =      1    inner block; outer block 
   IBRION =     -1    ionic relax: 0-MD 1-quasi-New 2-CG
   NFREE  =      0    steps in history (QN), initial steepest desc. (CG)
   ISIF   =      2    stress and relaxation
   IWAVPR =      0    prediction:  0-non 1-charg 2-wave 3-comb
   ISYM   =      2    0-nonsym 1-usesym 2-fastsym
   LCORR  =      T    Harris-Foulkes like correction to forces

   POTIM  = 0.5000    time-step for ionic-motion
   TEIN   =    0.0    initial temperature
   TEBEG  =    0.0;   TEEND  =   0.0 temperature during run
   SMASS  =  -3.00    Nose mass-parameter (am)
   estimated Nose-frequenzy (Omega)   =  0.10E-29 period in steps = 0.13E+47 mass=  -0.122E-27a.u.
   SCALEE = 1.0000    scale energy and forces
   NPACO  =    256;   APACO  = 16.0  distance and # of slots for P.C.
   PSTRESS=    0.0 pullay stress

  Mass of Ions in am
   POMASS =  55.85
  Ionic Valenz
   ZVAL   =   8.00
  Atomic Wigner-Seitz radii
   RWIGS  =  -1.00
  virtual crystal weights 
   VCA    =   1.00
   NELECT =      16.0000    total number of electrons
   NUPDOWN=      -1.0000    fix difference up-down

 DOS related values:
   EMIN   =  10.00;   EMAX   =-10.00  energy-range for DOS
   EFERMI =   0.00
   ISMEAR =     1;   SIGMA  =   0.20  broadening in eV -4-tet -1-fermi 0-gaus

 Electronic relaxation 2 (details)
   IALGO  =     38    algorithm
   LDIAG  =      T    sub-space diagonalisation (order eigenvalues)
   LSUBROT=      F    optimize rotation matrix (better conditioning)
   TURBO    =      0    0=normal 1=particle mesh
   IRESTART =      0    0=no restart 2=restart with 2 vectors
   NREBOOT  =      0    no. of reboots
   NMIN     =      0    reboot dimension
   EREF     =   0.00    reference energy to select bands
   IMIX   =      4    mixing-type and parameters
     AMIX     =   0.40;   BMIX     =  1.00
     AMIX_MAG =   1.60;   BMIX_MAG =  1.00
     AMIN     =   0.10
     WC   =   100.;   INIMIX=   1;  MIXPRE=   1;  MAXMIX= -45

 Intra band minimization:
   WEIMIN = 0.0000     energy-eigenvalue tresh-hold
   EBREAK =  0.62E-08  absolut break condition
   DEPER  =   0.30     relativ break condition  

   TIME   =   0.40     timestep for ELM

  volume/ion in A,a.u.               =       9.63        65.00
  Fermi-wavevector in a.u.,A,eV,Ry     =   1.538834  2.907975 32.218734  2.368010
  Thomas-Fermi vector in A             =   2.645147
 
 Write flags
   LWAVE        =      T    write WAVECAR
   LDOWNSAMPLE  =      F    k-point downsampling of WAVECAR
   LCHARG       =      T    write CHGCAR
   LVTOT        =      F    write LOCPOT, total local potential
   LVHAR        =      F    write LOCPOT, Hartree potential only
   LELF         =      F    write electronic localiz. function (ELF)
   LORBIT       =      0    0 simple, 1 ext, 2 COOP (PROOUT), +10 PAW based schemes


 Dipole corrections
   LMONO  =      F    monopole corrections only (constant potential shift)
   LDIPOL =      F    correct potential (dipole corrections)
   IDIPOL =      0    1-x, 2-y, 3-z, 4-all directions 
   EPSILON=  1.0000000 bulk dielectric constant

 Exchange correlation treatment:
   GGA     =    PE    GGA type
   LEXCH   =     8    internal setting for exchange type
   VOSKOWN=      0    Vosko Wilk Nusair interpolation
   LHFCALC =     F    Hartree Fock is set to
   LHFONE  =     F    Hartree Fock one center treatment
   AEXX    =    0.0000 exact exchange contribution

 Linear response parameters
   LEPSILON=     F    determine dielectric tensor
   LRPA    =     F    only Hartree local field effects (RPA)
   LNABLA  =     F    use nabla operator in PAW spheres
   LVEL    =     F    velocity operator in full k-point grid
   LINTERFAST=   F  fast interpolation
   KINTER  =     0    interpolate to denser k-point grid
   CSHIFT  =0.1000    complex shift for real part using Kramers Kronig
   OMEGAMAX=  -1.0    maximum frequency
   DEG_THRESHOLD= 0.2000000E-02 threshold for treating states as degnerate
   RTIME   =   -0.100 relaxation time in fs
  (WPLASMAI=    0.000 imaginary part of plasma frequency in eV, 0.658/RTIME)
   DFIELD  = 0.0000000 0.0000000 0.0000000 field for delta impulse in time
 
 Orbital magnetization related:
   ORBITALMAG=     F  switch on orbital magnetization
   LCHIMAG   =     F  perturbation theory with respect to B field
   DQ        =  0.001000  dq finite difference perturbation B field
   LLRAUG    =     F  two centre corrections for induced B field



--------------------------------------------------------------------------------------------------------


 Static calculation
 charge density and potential will be updated during run
 non-spin polarized calculation
 Variant of blocked Davidson
 Davidson routine will perform the subspace rotation
 perform sub-space diagonalisation
    after iterative eigenvector-optimisation
 modified Broyden-mixing scheme, WC =      100.0
 initial mixing is a Kerker type mixing with AMIX =  0.4000 and BMIX =      1.0000
 Hartree-type preconditioning will be used
 using additional bands           32
 reciprocal scheme for non local part
 use partial core corrections
 calculate Harris-corrections to forces 
   (improved forces if not selfconsistent)
 use gradient corrections 
 use of overlap-Matrix (Vanderbilt PP)
 Methfessel and Paxton  Order N= 1 SIGMA  =   0.20


--------------------------------------------------------------------------------------------------------


  energy-cutoff  :      280.00
  volume of cell :       19.27
      direct lattice vectors                 reciprocal lattice vectors
     2.306700000  0.000000000  0.000000000     0.433519747  0.250292743  0.000000000
    -1.153350000  1.997660799  0.000000000     0.000000000  0.500585485  0.000000000
     0.000000000  0.000000000  4.180770000     0.000000000  0.000000000  0.239190388

  length of vectors
     2.306700000  2.306700000  4.180770000     0.500585485  0.500585485  0.239190388


 
 k-points in units of 2pi/SCALE and weight: KPOINTS created by Atomic Simulation Env
   0.00000000  0.00000000  0.00000000       0.001
   0.03941089  0.02275389  0.00000000       0.005
   0.07882177  0.04550777  0.00000000       0.005
   0.11823266  0.06826166  0.00000000       0.005
   0.15764354  0.09101554  0.00000000       0.005
   0.19705443  0.11376943  0.00000000       0.005
   0.03941089  0.06826166  0.00000000       0.005
   0.07882177  0.09101554  0.00000000       0.009
   0.11823266  0.11376943  0.00000000       0.009
   0.15764354  0.13652331  0.00000000       0.009
   0.19705443  0.15927720  0.00000000       0.005
   0.07882177  0.13652331  0.00000000       0.005
   0.11823266  0.15927720  0.00000000       0.009
   0.15764354  0.18203109  0.00000000       0.009
   0.11823266  0.20478497  0.00000000       0.005
   0.15764354  0.22753886  0.00000000       0.005
   0.00000000  0.00000000  0.02174458       0.002
   0.03941089  0.02275389  0.02174458       0.009
   0.07882177  0.04550777  0.02174458       0.009
   0.11823266  0.06826166  0.02174458       0.009
   0.15764354  0.09101554  0.02174458       0.009
   0.19705443  0.11376943  0.02174458       0.009
   0.03941089  0.06826166  0.02174458       0.009
   0.07882177  0.09101554  0.02174458       0.018
   0.11823266  0.11376943  0.02174458       0.018
   0.15764354  0.13652331  0.02174458       0.018
   0.19705443  0.15927720  0.02174458       0.009
   0.07882177  0.13652331  0.02174458       0.009
   0.11823266  0.15927720  0.02174458       0.018
   0.15764354  0.18203109  0.02174458       0.018
   0.11823266  0.20478497  0.02174458       0.009
   0.15764354  0.22753886  0.02174458       0.009
   0.00000000  0.00000000  0.04348916       0.002
   0.03941089  0.02275389  0.04348916       0.009
   0.07882177  0.04550777  0.04348916       0.009
   0.11823266  0.06826166  0.04348916       0.009
   0.15764354  0.09101554  0.04348916       0.009
   0.19705443  0.11376943  0.04348916       0.009
   0.03941089  0.06826166  0.04348916       0.009
   0.07882177  0.09101554  0.04348916       0.018
   0.11823266  0.11376943  0.04348916       0.018
   0.15764354  0.13652331  0.04348916       0.018
   0.19705443  0.15927720  0.04348916       0.009
   0.07882177  0.13652331  0.04348916       0.009
   0.11823266  0.15927720  0.04348916       0.018
   0.15764354  0.18203109  0.04348916       0.018
   0.11823266  0.20478497  0.04348916       0.009
   0.15764354  0.22753886  0.04348916       0.009
   0.00000000  0.00000000  0.06523374       0.002
   0.03941089  0.02275389  0.06523374       0.009
   0.07882177  0.04550777  0.06523374       0.009
   0.11823266  0.06826166  0.06523374       0.009
   0.15764354  0.09101554  0.06523374       0.009
   0.19705443  0.11376943  0.06523374       0.009
   0.03941089  0.06826166  0.06523374       0.009
   0.07882177  0.09101554  0.06523374       0.018
   0.11823266  0.11376943  0.06523374       0.018
   0.15764354  0.13652331  0.06523374       0.018
   0.19705443  0.15927720  0.06523374       0.009
   0.07882177  0.13652331  0.06523374       0.009
   0.11823266  0.15927720  0.06523374       0.018
   0.15764354  0.18203109  0.06523374       0.018
   0.11823266  0.20478497  0.06523374       0.009
   0.15764354  0.22753886  0.06523374       0.009
   0.00000000  0.00000000  0.08697832       0.002
   0.03941089  0.02275389  0.08697832       0.009
   0.07882177  0.04550777  0.08697832       0.009
   0.11823266  0.06826166  0.08697832       0.009
   0.15764354  0.09101554  0.08697832       0.009
   0.19705443  0.11376943  0.08697832       0.009
   0.03941089  0.06826166  0.08697832       0.009
   0.07882177  0.09101554  0.08697832       0.018
   0.11823266  0.11376943  0.08697832       0.018
   0.15764354  0.13652331  0.08697832       0.018
   0.19705443  0.15927720  0.08697832       0.009
   0.07882177  0.13652331  0.08697832       0.009
   0.11823266  0.15927720  0.08697832       0.018
   0.15764354  0.18203109  0.08697832       0.018
   0.11823266  0.20478497  0.08697832       0.009
   0.15764354  0.22753886  0.08697832       0.009
   0.00000000  0.00000000  0.10872290       0.002
   0.03941089  0.02275389  0.10872290       0.009
   0.07882177  0.04550777  0.10872290       0.009
   0.11823266  0.06826166  0.10872290       0.009
   0.15764354  0.09101554  0.10872290       0.009
   0.19705443  0.11376943  0.10872290       0.009
   0.03941089  0.06826166  0.10872290       0.009
   0.07882177  0.09101554  0.10872290       0.018
   0.11823266  0.11376943  0.10872290       0.018
   0.15764354  0.13652331  0.10872290       0.018
   0.19705443  0.15927720  0.10872290       0.009
   0.07882177  0.13652331  0.10872290       0.009
   0.11823266  0.15927720  0.10872290       0.018
   0.15764354  0.18203109  0.10872290       0.018
   0.11823266  0.20478497  0.10872290       0.009
   0.15764354  0.22753886  0.10872290       0.009
 
 k-points in reciprocal lattice and weights: KPOINTS created by Atomic Simulation Env
   0.00000000  0.00000000  0.00000000       0.001
   0.09090909 -0.00000000  0.00000000       0.005
   0.18181818  0.00000000  0.00000000       0.005
   0.27272727 -0.00000000  0.00000000       0.005
   0.36363636 -0.00000000  0.00000000       0.005
   0.45454545  0.00000000  0.00000000       0.005
   0.09090909  0.09090909  0.00000000       0.005
   0.18181818  0.09090909  0.00000000       0.009
   0.27272727  0.09090909  0.00000000       0.009
   0.36363636  0.09090909  0.00000000       0.009
   0.45454545  0.09090909  0.00000000       0.005
   0.18181818  0.18181818  0.00000000       0.005
   0.27272727  0.18181818  0.00000000       0.009
   0.36363636  0.18181818  0.00000000       0.009
   0.27272727  0.27272727  0.00000000       0.005
   0.36363636  0.27272727  0.00000000       0.005
   0.00000000  0.00000000  0.09090909       0.002
   0.09090909 -0.00000000  0.09090909       0.009
   0.18181818  0.00000000  0.09090909       0.009
   0.27272727 -0.00000000  0.09090909       0.009
   0.36363636 -0.00000000  0.09090909       0.009
   0.45454545  0.00000000  0.09090909       0.009
   0.09090909  0.09090909  0.09090909       0.009
   0.18181818  0.09090909  0.09090909       0.018
   0.27272727  0.09090909  0.09090909       0.018
   0.36363636  0.09090909  0.09090909       0.018
   0.45454545  0.09090909  0.09090909       0.009
   0.18181818  0.18181818  0.09090909       0.009
   0.27272727  0.18181818  0.09090909       0.018
   0.36363636  0.18181818  0.09090909       0.018
   0.27272727  0.27272727  0.09090909       0.009
   0.36363636  0.27272727  0.09090909       0.009
   0.00000000  0.00000000  0.18181818       0.002
   0.09090909 -0.00000000  0.18181818       0.009
   0.18181818  0.00000000  0.18181818       0.009
   0.27272727 -0.00000000  0.18181818       0.009
   0.36363636 -0.00000000  0.18181818       0.009
   0.45454545  0.00000000  0.18181818       0.009
   0.09090909  0.09090909  0.18181818       0.009
   0.18181818  0.09090909  0.18181818       0.018
   0.27272727  0.09090909  0.18181818       0.018
   0.36363636  0.09090909  0.18181818       0.018
   0.45454545  0.09090909  0.18181818       0.009
   0.18181818  0.18181818  0.18181818       0.009
   0.27272727  0.18181818  0.18181818       0.018
   0.36363636  0.18181818  0.18181818       0.018
   0.27272727  0.27272727  0.18181818       0.009
   0.36363636  0.27272727  0.18181818       0.009
   0.00000000  0.00000000  0.27272727       0.002
   0.09090909 -0.00000000  0.27272727       0.009
   0.18181818  0.00000000  0.27272727       0.009
   0.27272727 -0.00000000  0.27272727       0.009
   0.36363636 -0.00000000  0.27272727       0.009
   0.45454545  0.00000000  0.27272727       0.009
   0.09090909  0.09090909  0.27272727       0.009
   0.18181818  0.09090909  0.27272727       0.018
   0.27272727  0.09090909  0.27272727       0.018
   0.36363636  0.09090909  0.27272727       0.018
   0.45454545  0.09090909  0.27272727       0.009
   0.18181818  0.18181818  0.27272727       0.009
   0.27272727  0.18181818  0.27272727       0.018
   0.36363636  0.18181818  0.27272727       0.018
   0.27272727  0.27272727  0.27272727       0.009
   0.36363636  0.27272727  0.27272727       0.009
   0.00000000  0.00000000  0.36363636       0.002
   0.09090909 -0.00000000  0.36363636       0.009
   0.18181818  0.00000000  0.36363636       0.009
   0.27272727 -0.00000000  0.36363636       0.009
   0.36363636 -0.00000000  0.36363636       0.009
   0.45454545  0.00000000  0.36363636       0.009
   0.09090909  0.09090909  0.36363636       0.009
   0.18181818  0.09090909  0.36363636       0.018
   0.27272727  0.09090909  0.36363636       0.018
   0.36363636  0.09090909  0.36363636       0.018
   0.45454545  0.09090909  0.36363636       0.009
   0.18181818  0.18181818  0.36363636       0.009
   0.27272727  0.18181818  0.36363636       0.018
   0.36363636  0.18181818  0.36363636       0.018
   0.27272727  0.27272727  0.36363636       0.009
   0.36363636  0.27272727  0.36363636       0.009
   0.00000000  0.00000000  0.45454545       0.002
   0.09090909 -0.00000000  0.45454545       0.009
   0.18181818  0.00000000  0.45454545       0.009
   0.27272727 -0.00000000  0.45454545       0.009
   0.36363636 -0.00000000  0.45454545       0.009
   0.45454545  0.00000000  0.45454545       0.009
   0.09090909  0.09090909  0.45454545       0.009
   0.18181818  0.09090909  0.45454545       0.018
   0.27272727  0.09090909  0.45454545       0.018
   0.36363636  0.09090909  0.45454545       0.018
   0.45454545  0.09090909  0.45454545       0.009
   0.18181818  0.18181818  0.45454545       0.009
   0.27272727  0.18181818  0.45454545       0.018
   0.36363636  0.18181818  0.45454545       0.018
   0.27272727  0.27272727  0.45454545       0.009
   0.36363636  0.27272727  0.45454545       0.009
 
 position of ions in fractional coordinates (direct lattice) 
   0.00000000  0.00000000  0.00000000
   0.33333333  0.66666667  0.50000000
 
 position of ions in cartesian coordinates  (Angst):
   0.00000000  0.00000000  0.00000000
   0.00000000  1.33177387  2.09038500
 


--------------------------------------------------------------------------------------------------------


 k-point   1 :   0.0000 0.0000 0.0000  plane waves:     209
 k-point   2 :   0.0909-0.0000 0.0000  plane waves:     201
 k-point   3 :   0.1818 0.0000 0.0000  plane waves:     207
 k-point   4 :   0.2727-0.0000 0.0000  plane waves:     203
 k-point   5 :   0.3636-0.0000 0.0000  plane waves:     204
 k-point   6 :   0.4545 0.0000 0.0000  plane waves:     206
 k-point   7 :   0.0909 0.0909 0.0000  plane waves:     205
 k-point   8 :   0.1818 0.0909 0.0000  plane waves:     204
 k-point   9 :   0.2727 0.0909 0.0000  plane waves:     205
 k-point  10 :   0.3636 0.0909 0.0000  plane waves:     211
 k-point  11 :   0.4545 0.0909 0.0000  plane waves:     210
 k-point  12 :   0.1818 0.1818 0.0000  plane waves:     201
 k-point  13 :   0.2727 0.1818 0.0000  plane waves:     201
 k-point  14 :   0.3636 0.1818 0.0000  plane waves:     207
 k-point  15 :   0.2727 0.2727 0.0000  plane waves:     205
 k-point  16 :   0.3636 0.2727 0.0000  plane waves:     207
 k-point  17 :   0.0000 0.0000 0.0909  plane waves:     209
 k-point  18 :   0.0909-0.0000 0.0909  plane waves:     204
 k-point  19 :   0.1818 0.0000 0.0909  plane waves:     207
 k-point  20 :   0.2727-0.0000 0.0909  plane waves:     204
 k-point  21 :   0.3636-0.0000 0.0909  plane waves:     203
 k-point  22 :   0.4545 0.0000 0.0909  plane waves:     207
 k-point  23 :   0.0909 0.0909 0.0909  plane waves:     203
 k-point  24 :   0.1818 0.0909 0.0909  plane waves:     206
 k-point  25 :   0.2727 0.0909 0.0909  plane waves:     205
 k-point  26 :   0.3636 0.0909 0.0909  plane waves:     205
 k-point  27 :   0.4545 0.0909 0.0909  plane waves:     209
 k-point  28 :   0.1818 0.1818 0.0909  plane waves:     201
 k-point  29 :   0.2727 0.1818 0.0909  plane waves:     204
 k-point  30 :   0.3636 0.1818 0.0909  plane waves:     207
 k-point  31 :   0.2727 0.2727 0.0909  plane waves:     204
 k-point  32 :   0.3636 0.2727 0.0909  plane waves:     209
 k-point  33 :   0.0000 0.0000 0.1818  plane waves:     215
 k-point  34 :   0.0909-0.0000 0.1818  plane waves:     206
 k-point  35 :   0.1818 0.0000 0.1818  plane waves:     204
 k-point  36 :   0.2727-0.0000 0.1818  plane waves:     199
 k-point  37 :   0.3636-0.0000 0.1818  plane waves:     204
 k-point  38 :   0.4545 0.0000 0.1818  plane waves:     208
 k-point  39 :   0.0909 0.0909 0.1818  plane waves:     202
 k-point  40 :   0.1818 0.0909 0.1818  plane waves:     202
 k-point  41 :   0.2727 0.0909 0.1818  plane waves:     206
 k-point  42 :   0.3636 0.0909 0.1818  plane waves:     204
 k-point  43 :   0.4545 0.0909 0.1818  plane waves:     208
 k-point  44 :   0.1818 0.1818 0.1818  plane waves:     202
 k-point  45 :   0.2727 0.1818 0.1818  plane waves:     208
 k-point  46 :   0.3636 0.1818 0.1818  plane waves:     206
 k-point  47 :   0.2727 0.2727 0.1818  plane waves:     208
 k-point  48 :   0.3636 0.2727 0.1818  plane waves:     206
 k-point  49 :   0.0000 0.0000 0.2727  plane waves:     215
 k-point  50 :   0.0909-0.0000 0.2727  plane waves:     201
 k-point  51 :   0.1818 0.0000 0.2727  plane waves:     199
 k-point  52 :   0.2727-0.0000 0.2727  plane waves:     203
 k-point  53 :   0.3636-0.0000 0.2727  plane waves:     206
 k-point  54 :   0.4545 0.0000 0.2727  plane waves:     204
 k-point  55 :   0.0909 0.0909 0.2727  plane waves:     200
 k-point  56 :   0.1818 0.0909 0.2727  plane waves:     201
 k-point  57 :   0.2727 0.0909 0.2727  plane waves:     206
 k-point  58 :   0.3636 0.0909 0.2727  plane waves:     204
 k-point  59 :   0.4545 0.0909 0.2727  plane waves:     206
 k-point  60 :   0.1818 0.1818 0.2727  plane waves:     201
 k-point  61 :   0.2727 0.1818 0.2727  plane waves:     207
 k-point  62 :   0.3636 0.1818 0.2727  plane waves:     209
 k-point  63 :   0.2727 0.2727 0.2727  plane waves:     208
 k-point  64 :   0.3636 0.2727 0.2727  plane waves:     209
 k-point  65 :   0.0000 0.0000 0.3636  plane waves:     210
 k-point  66 :   0.0909-0.0000 0.3636  plane waves:     201
 k-point  67 :   0.1818 0.0000 0.3636  plane waves:     204
 k-point  68 :   0.2727-0.0000 0.3636  plane waves:     206
 k-point  69 :   0.3636-0.0000 0.3636  plane waves:     205
 k-point  70 :   0.4545 0.0000 0.3636  plane waves:     203
 k-point  71 :   0.0909 0.0909 0.3636  plane waves:     200
 k-point  72 :   0.1818 0.0909 0.3636  plane waves:     201
 k-point  73 :   0.2727 0.0909 0.3636  plane waves:     204
 k-point  74 :   0.3636 0.0909 0.3636  plane waves:     206
 k-point  75 :   0.4545 0.0909 0.3636  plane waves:     203
 k-point  76 :   0.1818 0.1818 0.3636  plane waves:     202
 k-point  77 :   0.2727 0.1818 0.3636  plane waves:     208
 k-point  78 :   0.3636 0.1818 0.3636  plane waves:     207
 k-point  79 :   0.2727 0.2727 0.3636  plane waves:     211
 k-point  80 :   0.3636 0.2727 0.3636  plane waves:     213
 k-point  81 :   0.0000 0.0000 0.4545  plane waves:     192
 k-point  82 :   0.0909-0.0000 0.4545  plane waves:     198
 k-point  83 :   0.1818 0.0000 0.4545  plane waves:     198
 k-point  84 :   0.2727-0.0000 0.4545  plane waves:     203
 k-point  85 :   0.3636-0.0000 0.4545  plane waves:     204
 k-point  86 :   0.4545 0.0000 0.4545  plane waves:     203
 k-point  87 :   0.0909 0.0909 0.4545  plane waves:     198
 k-point  88 :   0.1818 0.0909 0.4545  plane waves:     200
 k-point  89 :   0.2727 0.0909 0.4545  plane waves:     203
 k-point  90 :   0.3636 0.0909 0.4545  plane waves:     207
 k-point  91 :   0.4545 0.0909 0.4545  plane waves:     205
 k-point  92 :   0.1818 0.1818 0.4545  plane waves:     202
 k-point  93 :   0.2727 0.1818 0.4545  plane waves:     210
 k-point  94 :   0.3636 0.1818 0.4545  plane waves:     211
 k-point  95 :   0.2727 0.2727 0.4545  plane waves:     216
 k-point  96 :   0.3636 0.2727 0.4545  plane waves:     216

 maximum number of plane-waves:       216
 maximum index in each direction: 
   IXMAX=    3   IYMAX=    3   IZMAX=    5
   IXMIN=   -3   IYMIN=   -3   IZMIN=   -6


 total amount of memory used by VASP MPI-rank0    49317. kBytes
=======================================================================

   base      :      30000. kBytes
   nonl-proj :       2992. kBytes
   grid      :        812. kBytes
   one-center:         31. kBytes
   wavefun   :      15482. kBytes
 
     INWAV:  cpu time    0.0000: real time    0.0000
 Broyden mixing: mesh for mixing (old mesh)
   NGX =  7   NGY =  7   NGZ = 11
  (NGX  = 20   NGY  = 20   NGZ  = 36)
  gives a total of    539 points

 initial charge density was supplied:
 charge density of overlapping atoms calculated
 number of electron      16.0000000 magnetization 
 keeping initial charge density in first step


--------------------------------------------------------------------------------------------------------


 Maximum index for augmentation-charges         3258 (set IRDMAX)


--------------------------------------------------------------------------------------------------------


 First call to EWALD:  gamma=   0.661
 Maximum number of real-space cells 4x 4x 2
 Maximum number of reciprocal cells 2x 2x 4

    FEWALD:  cpu time    0.0009: real time    0.0009


--------------------------------------- Iteration      1(   1)  ---------------------------------------


    POTLOK:  cpu time    0.0036: real time    0.0036
    SETDIJ:  cpu time    0.0022: real time    0.0022
     EDDAV:  cpu time    0.7948: real time    0.8126
       DOS:  cpu time    0.0056: real time    0.0056
    --------------------------------------------
      LOOP:  cpu time    0.8061: real time    0.8240

 eigenvalue-minimisations  :  9392
 total energy-change (2. order) : 0.6105009E+02  (-0.2578112E+03)
 number of electron      16.0000000 magnetization 
 augmentation part       16.0000000 magnetization 

 Free energy of the ion-electron system (eV)
  ---------------------------------------------------
  alpha Z        PSCENC =       143.50118040
  Ewald energy   TEWEN  =     -1248.87499765
  -Hartree energ DENC   =      -199.91529572
  -exchange      EXHF   =         0.00000000
  -V(xc)+E(xc)   XCENC  =         8.86547946
  PAW double counting   =      1109.69170683    -1125.09647265
  entropy T*S    EENTRO =        -0.00153770
  eigenvalues    EBANDS =       184.30511456
  atomic energy  EATOM  =      1188.57490811
  Solvation  Ediel_sol  =         0.00000000
  ---------------------------------------------------
  free energy    TOTEN  =        61.05008563 eV

  energy without entropy =       61.05162333  energy(sigma->0) =       61.05059820


--------------------------------------------------------------------------------------------------------




--------------------------------------- Iteration      1(   2)  ---------------------------------------


     EDDAV:  cpu time    0.6920: real time    0.6920
       DOS:  cpu time    0.0059: real time    0.0059
    --------------------------------------------
      LOOP:  cpu time    0.6979: real time    0.6980

 eigenvalue-minimisations  :  7960
 total energy-change (2. order) :-0.7530968E+02  (-0.6373919E+02)
 number of electron      16.0000000 magnetization 
 augmentation part       16.0000000 magnetization 

 Free energy of the ion-electron system (eV)
  ---------------------------------------------------
  alpha Z        PSCENC =       143.50118040
  Ewald energy   TEWEN  =     -1248.87499765
  -Hartree energ DENC   =      -199.91529572
  -exchange      EXHF   =         0.00000000
  -V(xc)+E(xc)   XCENC  =         8.86547946
  PAW double counting   =      1109.69170683    -1125.09647265
  entropy T*S    EENTRO =         0.00506279
  eigenvalues    EBANDS =       108.98883892
  atomic energy  EATOM  =      1188.57490811
  Solvation  Ediel_sol  =         0.00000000
  ---------------------------------------------------
  free energy    TOTEN  =       -14.25958952 eV

  energy without entropy =      -14.26465230  energy(sigma->0) =      -14.26127711


--------------------------------------------------------------------------------------------------------




--------------------------------------- Iteration      1(   3)  ---------------------------------------


     EDDAV:  cpu time    0.7897: real time    0.7897
       DOS:  cpu time    0.0062: real time    0.0062
    --------------------------------------------
      LOOP:  cpu time    0.7959: real time    0.7959

 eigenvalue-minimisations  :  9504
 total energy-change (2. order) :-0.4508646E+01  (-0.4296494E+01)
 number of electron      16.0000000 magnetization 
 augmentation part       16.0000000 magnetization 

 Free energy of the ion-electron system (eV)
  ---------------------------------------------------
  alpha Z        PSCENC =       143.50118040
  Ewald energy   TEWEN  =     -1248.87499765
  -Hartree energ DENC   =      -199.91529572
  -exchange      EXHF   =         0.00000000
  -V(xc)+E(xc)   XCENC  =         8.86547946
  PAW double counting   =      1109.69170683    -1125.09647265
  entropy T*S    EENTRO =         0.00010699
  eigenvalues    EBANDS =       104.48514839
  atomic energy  EATOM  =      1188.57490811
  Solvation  Ediel_sol  =         0.00000000
  ---------------------------------------------------
  free energy    TOTEN  =       -18.76823584 eV

  energy without entropy =      -18.76834283  energy(sigma->0) =      -18.76827150


--------------------------------------------------------------------------------------------------------




--------------------------------------- Iteration      1(   4)  ---------------------------------------


     EDDAV:  cpu time    0.7513: real time    0.7514
       DOS:  cpu time    0.0064: real time    0.0064
    --------------------------------------------
      LOOP:  cpu time    0.7577: real time    0.7578

 eigenvalue-minimisations  :  9120
 total energy-change (2. order) :-0.1886791E-01  (-0.1885676E-01)
 number of electron      16.0000000 magnetization 
 augmentation part       16.0000000 magnetization 

 Free energy of the ion-electron system (eV)
  ---------------------------------------------------
  alpha Z        PSCENC =       143.50118040
  Ewald energy   TEWEN  =     -1248.87499765
  -Hartree energ DENC   =      -199.91529572
  -exchange      EXHF   =         0.00000000
  -V(xc)+E(xc)   XCENC  =         8.86547946
  PAW double counting   =      1109.69170683    -1125.09647265
  entropy T*S    EENTRO =         0.00006354
  eigenvalues    EBANDS =       104.46632394
  atomic energy  EATOM  =      1188.57490811
  Solvation  Ediel_sol  =         0.00000000
  ---------------------------------------------------
  free energy    TOTEN  =       -18.78710375 eV

  energy without entropy =      -18.78716729  energy(sigma->0) =      -18.78712493


--------------------------------------------------------------------------------------------------------




--------------------------------------- Iteration      1(   5)  ---------------------------------------


     EDDAV:  cpu time    0.7604: real time    0.7604
       DOS:  cpu time    0.0065: real time    0.0065
    CHARGE:  cpu time    0.0198: real time    0.0198
    MIXING:  cpu time    0.0002: real time    0.0002
    --------------------------------------------
      LOOP:  cpu time    0.7869: real time    0.7869

 eigenvalue-minimisations  :  9256
 total energy-change (2. order) :-0.1692288E-04  (-0.1692179E-04)
 number of electron      15.9999935 magnetization 
 augmentation part        7.1369514 magnetization 

 Broyden mixing:
  rms(total) = 0.18003E+01    rms(broyden)= 0.18003E+01
  rms(prec ) = 0.28875E+01
  weight for this iteration     100.00

 Free energy of the ion-electron system (eV)
  ---------------------------------------------------
  alpha Z        PSCENC =       143.50118040
  Ewald energy   TEWEN  =     -1248.87499765
  -Hartree energ DENC   =      -199.91529572
  -exchange      EXHF   =         0.00000000
  -V(xc)+E(xc)   XCENC  =         8.86547946
  PAW double counting   =      1109.69170683    -1125.09647265
  entropy T*S    EENTRO =         0.00006350
  eigenvalues    EBANDS =       104.46630705
  atomic energy  EATOM  =      1188.57490811
  Solvation  Ediel_sol  =         0.00000000
  ---------------------------------------------------
  free energy    TOTEN  =       -18.78712067 eV

  energy without entropy =      -18.78718418  energy(sigma->0) =      -18.78714184


--------------------------------------------------------------------------------------------------------




--------------------------------------- Iteration      1(   6)  ---------------------------------------


    POTLOK:  cpu time    0.0034: real time    0.0034
    SETDIJ:  cpu time    0.0021: real time    0.0021
     EDDAV:  cpu time    0.9090: real time    0.9090
       DOS:  cpu time    0.0067: real time    0.0067
    CHARGE:  cpu time    0.0194: real time    0.0194
    MIXING:  cpu time    0.0002: real time    0.0002
    --------------------------------------------
      LOOP:  cpu time    0.9408: real time    0.9408

 eigenvalue-minimisations  : 11216
 total energy-change (2. order) : 0.2720783E+01  (-0.1640557E+00)
 number of electron      15.9999917 magnetization 
 augmentation part        8.4162719 magnetization 

 Broyden mixing:
  rms(total) = 0.18884E+00    rms(broyden)= 0.18872E+00
  rms(prec ) = 0.30026E+00
  weight for this iteration     100.00

 eigenvalues of (default mixing * dielectric matrix)
  average eigenvalue GAMMA=   0.9725
  0.9725

 Free energy of the ion-electron system (eV)
  ---------------------------------------------------
  alpha Z        PSCENC =       143.50118040
  Ewald energy   TEWEN  =     -1248.87499765
  -Hartree energ DENC   =      -167.40708681
  -exchange      EXHF   =         0.00000000
  -V(xc)+E(xc)   XCENC  =         7.27458046
  PAW double counting   =      1290.93529172    -1302.53486317
  entropy T*S    EENTRO =         0.00214797
  eigenvalues    EBANDS =        72.46250120
  atomic energy  EATOM  =      1188.57490811
  Solvation  Ediel_sol  =         0.00000000
  ---------------------------------------------------
  free energy    TOTEN  =       -16.06633778 eV

  energy without entropy =      -16.06848575  energy(sigma->0) =      -16.06705377


--------------------------------------------------------------------------------------------------------




--------------------------------------- Iteration      1(   7)  ---------------------------------------


    POTLOK:  cpu time    0.0034: real time    0.0035
    SETDIJ:  cpu time    0.0022: real time    0.0022
     EDDAV:  cpu time    0.8086: real time    0.8086
       DOS:  cpu time    0.0064: real time    0.0064
    CHARGE:  cpu time    0.0191: real time    0.0191
    MIXING:  cpu time    0.0002: real time    0.0002
    --------------------------------------------
      LOOP:  cpu time    0.8399: real time    0.8400

 eigenvalue-minimisations  :  9976
 total energy-change (2. order) : 0.1515785E+00  (-0.9108652E-02)
 number of electron      15.9999920 magnetization 
 augmentation part        8.1811008 magnetization 

 Broyden mixing:
  rms(total) = 0.12885E+00    rms(broyden)= 0.12885E+00
  rms(prec ) = 0.20882E+00
  weight for this iteration     100.00

 eigenvalues of (default mixing * dielectric matrix)
  average eigenvalue GAMMA=   1.0699
  1.3583  0.7816

 Free energy of the ion-electron system (eV)
  ---------------------------------------------------
  alpha Z        PSCENC =       143.50118040
  Ewald energy   TEWEN  =     -1248.87499765
  -Hartree energ DENC   =      -170.27768751
  -exchange      EXHF   =         0.00000000
  -V(xc)+E(xc)   XCENC  =         7.44410330
  PAW double counting   =      1382.63231264    -1397.68940850
  entropy T*S    EENTRO =         0.00201235
  eigenvalues    EBANDS =        78.77281757
  atomic energy  EATOM  =      1188.57490811
  Solvation  Ediel_sol  =         0.00000000
  ---------------------------------------------------
  free energy    TOTEN  =       -15.91475929 eV

  energy without entropy =      -15.91677163  energy(sigma->0) =      -15.91543007


--------------------------------------------------------------------------------------------------------




--------------------------------------- Iteration      1(   8)  ---------------------------------------


    POTLOK:  cpu time    0.0034: real time    0.0034
    SETDIJ:  cpu time    0.0022: real time    0.0022
     EDDAV:  cpu time    0.8350: real time    0.8350
       DOS:  cpu time    0.0066: real time    0.0066
    CHARGE:  cpu time    0.0195: real time    0.0195
    MIXING:  cpu time    0.0002: real time    0.0002
    --------------------------------------------
      LOOP:  cpu time    0.8669: real time    0.8669

 eigenvalue-minimisations  : 10152
 total energy-change (2. order) : 0.3085517E-01  (-0.2954169E-03)
 number of electron      15.9999920 magnetization 
 augmentation part        8.2091756 magnetization 

 Broyden mixing:
  rms(total) = 0.54010E-01    rms(broyden)= 0.54010E-01
  rms(prec ) = 0.84435E-01
  weight for this iteration     100.00

 eigenvalues of (default mixing * dielectric matrix)
  average eigenvalue GAMMA=   1.4860
  1.0482  0.8178  2.5921

 Free energy of the ion-electron system (eV)
  ---------------------------------------------------
  alpha Z        PSCENC =       143.50118040
  Ewald energy   TEWEN  =     -1248.87499765
  -Hartree energ DENC   =      -168.01189947
  -exchange      EXHF   =         0.00000000
  -V(xc)+E(xc)   XCENC  =         7.35367581
  PAW double counting   =      1465.11986830    -1481.78146324
  entropy T*S    EENTRO =         0.00208800
  eigenvalues    EBANDS =        78.23273562
  atomic energy  EATOM  =      1188.57490811
  Solvation  Ediel_sol  =         0.00000000
  ---------------------------------------------------
  free energy    TOTEN  =       -15.88390412 eV

  energy without entropy =      -15.88599212  energy(sigma->0) =      -15.88460012


--------------------------------------------------------------------------------------------------------




--------------------------------------- Iteration      1(   9)  ---------------------------------------


    POTLOK:  cpu time    0.0034: real time    0.0034
    SETDIJ:  cpu time    0.0021: real time    0.0021
     EDDAV:  cpu time    0.8661: real time    0.8662
       DOS:  cpu time    0.0066: real time    0.0066
    CHARGE:  cpu time    0.0194: real time    0.0194
    MIXING:  cpu time    0.0002: real time    0.0002
    --------------------------------------------
      LOOP:  cpu time    0.8979: real time    0.8979

 eigenvalue-minimisations  : 10792
 total energy-change (2. order) : 0.8767369E-02  (-0.8471353E-04)
 number of electron      15.9999919 magnetization 
 augmentation part        8.2208839 magnetization 

 Broyden mixing:
  rms(total) = 0.54368E-02    rms(broyden)= 0.54348E-02
  rms(prec ) = 0.62203E-02
  weight for this iteration     100.00

 eigenvalues of (default mixing * dielectric matrix)
  average eigenvalue GAMMA=   1.5345
  2.6442  0.8194  0.9858  1.6887

 Free energy of the ion-electron system (eV)
  ---------------------------------------------------
  alpha Z        PSCENC =       143.50118040
  Ewald energy   TEWEN  =     -1248.87499765
  -Hartree energ DENC   =      -166.24363751
  -exchange      EXHF   =         0.00000000
  -V(xc)+E(xc)   XCENC  =         7.28797090
  PAW double counting   =      1547.69458458    -1565.91784663
  entropy T*S    EENTRO =         0.00210651
  eigenvalues    EBANDS =        78.10059455
  atomic energy  EATOM  =      1188.57490811
  Solvation  Ediel_sol  =         0.00000000
  ---------------------------------------------------
  free energy    TOTEN  =       -15.87513675 eV

  energy without entropy =      -15.87724326  energy(sigma->0) =      -15.87583892


--------------------------------------------------------------------------------------------------------




--------------------------------------- Iteration      1(  10)  ---------------------------------------


    POTLOK:  cpu time    0.0034: real time    0.0034
    SETDIJ:  cpu time    0.0021: real time    0.0021
     EDDAV:  cpu time    0.7287: real time    0.7288
       DOS:  cpu time    0.0067: real time    0.0067
    CHARGE:  cpu time    0.0197: real time    0.0197
    MIXING:  cpu time    0.0002: real time    0.0002
    --------------------------------------------
      LOOP:  cpu time    0.7610: real time    0.7610

 eigenvalue-minimisations  :  8792
 total energy-change (2. order) :-0.3431650E-04  (-0.3165596E-05)
 number of electron      15.9999919 magnetization 
 augmentation part        8.2211100 magnetization 

 Broyden mixing:
  rms(total) = 0.26327E-02    rms(broyden)= 0.26305E-02
  rms(prec ) = 0.35461E-02
  weight for this iteration     100.00

 eigenvalues of (default mixing * dielectric matrix)
  average eigenvalue GAMMA=   1.6381
  2.5377  2.5377  0.8187  1.0035  1.2930

 Free energy of the ion-electron system (eV)
  ---------------------------------------------------
  alpha Z        PSCENC =       143.50118040
  Ewald energy   TEWEN  =     -1248.87499765
  -Hartree energ DENC   =      -166.25357884
  -exchange      EXHF   =         0.00000000
  -V(xc)+E(xc)   XCENC  =         7.28957636
  PAW double counting   =      1551.34503395    -1569.54903862
  entropy T*S    EENTRO =         0.00210657
  eigenvalues    EBANDS =        78.08963865
  atomic energy  EATOM  =      1188.57490811
  Solvation  Ediel_sol  =         0.00000000
  ---------------------------------------------------
  free energy    TOTEN  =       -15.87517107 eV

  energy without entropy =      -15.87727764  energy(sigma->0) =      -15.87587326


--------------------------------------------------------------------------------------------------------




--------------------------------------- Iteration      1(  11)  ---------------------------------------


    POTLOK:  cpu time    0.0035: real time    0.0035
    SETDIJ:  cpu time    0.0021: real time    0.0021
     EDDAV:  cpu time    0.7368: real time    0.7368
       DOS:  cpu time    0.0065: real time    0.0065
    CHARGE:  cpu time    0.0197: real time    0.0197
    MIXING:  cpu time    0.0002: real time    0.0002
    --------------------------------------------
      LOOP:  cpu time    0.7689: real time    0.7690

 eigenvalue-minimisations  :  8792
 total energy-change (2. order) : 0.1234065E-04  (-0.4665389E-07)
 number of electron      15.9999919 magnetization 
 augmentation part        8.2208226 magnetization 

 Broyden mixing:
  rms(total) = 0.21333E-03    rms(broyden)= 0.21321E-03
  rms(prec ) = 0.32572E-03
  weight for this iteration     100.00

 eigenvalues of (default mixing * dielectric matrix)
  average eigenvalue GAMMA=   1.5560
  2.5790  2.5790  0.8185  1.0018  1.0018  1.3559

 Free energy of the ion-electron system (eV)
  ---------------------------------------------------
  alpha Z        PSCENC =       143.50118040
  Ewald energy   TEWEN  =     -1248.87499765
  -Hartree energ DENC   =      -166.31817514
  -exchange      EXHF   =         0.00000000
  -V(xc)+E(xc)   XCENC  =         7.29262138
  PAW double counting   =      1550.71073482    -1568.85274248
  entropy T*S    EENTRO =         0.00210613
  eigenvalues    EBANDS =        78.08920570
  atomic energy  EATOM  =      1188.57490811
  Solvation  Ediel_sol  =         0.00000000
  ---------------------------------------------------
  free energy    TOTEN  =       -15.87515872 eV

  energy without entropy =      -15.87726485  energy(sigma->0) =      -15.87586077


--------------------------------------------------------------------------------------------------------




--------------------------------------- Iteration      1(  12)  ---------------------------------------


    POTLOK:  cpu time    0.0034: real time    0.0034
    SETDIJ:  cpu time    0.0022: real time    0.0022
     EDDAV:  cpu time    0.5923: real time    0.5923
       DOS:  cpu time    0.0062: real time    0.0062
    CHARGE:  cpu time    0.0192: real time    0.0192
    MIXING:  cpu time    0.0002: real time    0.0002
    --------------------------------------------
      LOOP:  cpu time    0.6235: real time    0.6236

 eigenvalue-minimisations  :  6288
 total energy-change (2. order) : 0.1307778E-05  (-0.6293884E-08)
 number of electron      15.9999919 magnetization 
 augmentation part        8.2207930 magnetization 

 Broyden mixing:
  rms(total) = 0.11547E-03    rms(broyden)= 0.11540E-03
  rms(prec ) = 0.12360E-03
  weight for this iteration     100.00

 eigenvalues of (default mixing * dielectric matrix)
  average eigenvalue GAMMA=   1.6254
  2.6079  2.3629  2.2611  0.8185  1.0011  1.0011  1.3253

 Free energy of the ion-electron system (eV)
  ---------------------------------------------------
  alpha Z        PSCENC =       143.50118040
  Ewald energy   TEWEN  =     -1248.87499765
  -Hartree energ DENC   =      -166.32676045
  -exchange      EXHF   =         0.00000000
  -V(xc)+E(xc)   XCENC  =         7.29301640
  PAW double counting   =      1550.66672800    -1568.80050091
  entropy T*S    EENTRO =         0.00210610
  eigenvalues    EBANDS =        78.08916259
  atomic energy  EATOM  =      1188.57490811
  Solvation  Ediel_sol  =         0.00000000
  ---------------------------------------------------
  free energy    TOTEN  =       -15.87515742 eV

  energy without entropy =      -15.87726351  energy(sigma->0) =      -15.87585945


--------------------------------------------------------------------------------------------------------




--------------------------------------- Iteration      1(  13)  ---------------------------------------


    POTLOK:  cpu time    0.0034: real time    0.0034
    SETDIJ:  cpu time    0.0021: real time    0.0021
     EDDAV:  cpu time    0.5357: real time    0.5357
       DOS:  cpu time    0.0066: real time    0.0066
    --------------------------------------------
      LOOP:  cpu time    0.5478: real time    0.5478

 eigenvalue-minimisations  :  5424
 total energy-change (2. order) :-0.3684902E-06  (-0.5548334E-09)
 number of electron      15.9999919 magnetization 
 augmentation part        8.2207930 magnetization 

 Free energy of the ion-electron system (eV)
  ---------------------------------------------------
  alpha Z        PSCENC =       143.50118040
  Ewald energy   TEWEN  =     -1248.87499765
  -Hartree energ DENC   =      -166.32527909
  -exchange      EXHF   =         0.00000000
  -V(xc)+E(xc)   XCENC  =         7.29294381
  PAW double counting   =      1550.74055878    -1568.87609013
  entropy T*S    EENTRO =         0.00210608
  eigenvalues    EBANDS =        78.08951190
  atomic energy  EATOM  =      1188.57490811
  Solvation  Ediel_sol  =         0.00000000
  ---------------------------------------------------
  free energy    TOTEN  =       -15.87515779 eV

  energy without entropy =      -15.87726386  energy(sigma->0) =      -15.87585981


--------------------------------------------------------------------------------------------------------




 average (electrostatic) potential at core
  the test charge radii are     1.0103
  (the norm of the test charge is              1.0000)
       1 -42.0228       2 -42.0229
 
 
 
 E-fermi :   7.5717     XC(G=0): -14.1164     alpha+bet :-16.0918

 Fermi energy:         7.5716648701

 k-point     1 :       0.0000    0.0000    0.0000
  band No.  band energies     occupation 
      1      -1.6608      2.00000
      2       2.1962      2.00000
      3       4.9863      2.00000
      4       5.8623      2.00000
      5       5.8624      2.00000
      6       6.1580      2.00000
      7       6.1581      2.00000
      8       6.4936      2.00000
      9       7.3600      2.06034
     10       7.3600      2.06033
     11       8.3873     -0.00000
     12       8.3873     -0.00000
     13      14.9799      0.00000
     14      30.7326      0.00000
     15      31.8969      0.00000
     16      34.8303      0.00000
     17      37.9038      0.00000
     18      37.9593      0.00000
     19      37.9594      0.00000
     20      38.6895      0.00000
     21      38.6897      0.00000
     22      41.0914      0.00000
     23      41.0914      0.00000
     24      42.0789      0.00000
     25      44.8328      0.00000
     26      44.8328      0.00000
     27      45.3865      0.00000
     28      49.0799      0.00000
     29      49.0803      0.00000
     30      50.9817      0.00000
     31      50.9818      0.00000
     32      53.1722      0.00000
     33      60.6170      0.00000
     34      62.8311      0.00000
     35      62.8319      0.00000
     36      62.8904      0.00000
     37      63.8210      0.00000
     38      65.3596      0.00000
     39      65.3606      0.00000
     40      65.9348      0.00000

 k-point     2 :       0.0909   -0.0000    0.0000
  band No.  band energies     occupation 
      1      -1.3081      2.00000
      2       2.4710      2.00000
      3       5.0512      2.00000
      4       5.7148      2.00000
      5       5.7505      2.00000
      6       6.0260      2.00000
      7       6.0778      2.00000
      8       6.3611      2.00000
      9       7.1693      2.01539
     10       7.2410      2.04125
     11       8.4166     -0.00000
     12       9.4481     -0.00000
     13      15.0060      0.00000
     14      30.7440      0.00000
     15      31.1574      0.00000
     16      33.3890      0.00000
     17      35.0355      0.00000
     18      36.8033      0.00000
     19      37.0820      0.00000
     20      37.8222      0.00000
     21      40.4538      0.00000
     22      41.1714      0.00000
     23      41.8030      0.00000
     24      42.3968      0.00000
     25      46.1012      0.00000
     26      46.4151      0.00000
     27      46.4776      0.00000
     28      46.7599      0.00000
     29      50.0742      0.00000
     30      52.3063      0.00000
     31      53.5015      0.00000
     32      55.2397      0.00000
     33      59.6608      0.00000
     34      61.5851      0.00000
     35      61.7227      0.00000
     36      62.4465      0.00000
     37      62.5946      0.00000
     38      66.0910      0.00000
     39      66.2705      0.00000
     40      66.4552      0.00000

 k-point     3 :       0.1818    0.0000    0.0000
  band No.  band energies     occupation 
      1      -0.3158      2.00000
      2       3.1124      2.00000
      3       4.6488      2.00000
      4       4.9781      2.00000
      5       5.4944      2.00000
      6       6.1009      2.00000
      7       6.6738      2.00000
      8       6.7221      2.00000
      9       6.9188      2.00004
     10       6.9570      2.00012
     11       8.4555     -0.00000
     12      11.2945     -0.00000
     13      15.1098      0.00000
     14      26.9954      0.00000
     15      31.9363      0.00000
     16      32.0608      0.00000
     17      32.0932      0.00000
     18      32.6315      0.00000
     19      37.1141      0.00000
     20      38.0837      0.00000
     21      38.4981      0.00000
     22      39.4801      0.00000
     23      42.6132      0.00000
     24      43.3081      0.00000
     25      46.5922      0.00000
     26      47.5695      0.00000
     27      48.8853      0.00000
     28      51.1196      0.00000
     29      52.9954      0.00000
     30      55.3234      0.00000
     31      56.1625      0.00000
     32      58.2534      0.00000
     33      58.5777      0.00000
     34      58.9330      0.00000
     35      60.0039      0.00000
     36      61.2709      0.00000
     37      63.5637      0.00000
     38      66.3855      0.00000
     39      66.5063      0.00000
     40      67.2812      0.00000

 k-point     4 :       0.2727   -0.0000    0.0000
  band No.  band energies     occupation 
      1       1.0696      2.00000
      2       3.3829      2.00000
      3       3.8099      2.00000
      4       4.9952      2.00000
      5       5.3024      2.00000
      6       6.1695      2.00000
      7       6.6352      2.00000
      8       6.9273      2.00005
      9       7.5229      1.39958
     10       7.7016      0.11768
     11       8.4681     -0.00000
     12      13.4112      0.00000
     13      15.3588      0.00000
     14      22.8724      0.00000
     15      28.3839      0.00000
     16      29.5272      0.00000
     17      30.3325      0.00000
     18      32.8080      0.00000
     19      35.5636      0.00000
     20      37.8385      0.00000
     21      38.7728      0.00000
     22      38.8639      0.00000
     23      40.0612      0.00000
     24      43.3194      0.00000
     25      50.2799      0.00000
     26      51.4101      0.00000
     27      52.5380      0.00000
     28      53.3440      0.00000
     29      53.6754      0.00000
     30      55.9459      0.00000
     31      57.0427      0.00000
     32      58.9483      0.00000
     33      59.6451      0.00000
     34      59.9883      0.00000
     35      61.3331      0.00000
     36      63.7982      0.00000
     37      64.4767      0.00000
     38      66.3197      0.00000
     39      67.1064      0.00000
     40      67.9814      0.00000

 k-point     5 :       0.3636   -0.0000    0.0000
  band No.  band energies     occupation 
      1       2.2384      2.00000
      2       3.0712      2.00000
      3       3.2547      2.00000
      4       5.1363      2.00000
      5       5.6794      2.00000
      6       5.8585      2.00000
      7       6.3676      2.00000
      8       8.3051     -0.00000
      9       8.3822     -0.00000
     10       8.4564     -0.00000
     11       8.4894     -0.00000
     12      15.3993      0.00000
     13      15.6859      0.00000
     14      19.7637      0.00000
     15      24.9598      0.00000
     16      27.3528      0.00000
     17      27.5900      0.00000
     18      32.1481      0.00000
     19      34.6252      0.00000
     20      37.9071      0.00000
     21      38.3257      0.00000
     22      39.6568      0.00000
     23      39.7157      0.00000
     24      43.2812      0.00000
     25      50.2314      0.00000
     26      52.2400      0.00000
     27      53.5078      0.00000
     28      56.6927      0.00000
     29      56.7748      0.00000
     30      56.9050      0.00000
     31      58.3905      0.00000
     32      60.5205      0.00000
     33      60.9618      0.00000
     34      61.4096      0.00000
     35      63.3909      0.00000
     36      64.8210      0.00000
     37      66.1773      0.00000
     38      67.0675      0.00000
     39      67.3462      0.00000
     40      68.6714      0.00000

 k-point     6 :       0.4545    0.0000    0.0000
  band No.  band energies     occupation 
      1       2.6073      2.00000
      2       2.8370      2.00000
      3       2.9826      2.00000
      4       5.3945      2.00000
      5       5.7687      2.00000
      6       6.1232      2.00000
      7       6.2184      2.00000
      8       8.4431     -0.00000
      9       8.9193     -0.00000
     10       9.0178     -0.00000
     11      10.1354     -0.00000
     12      13.7277      0.00000
     13      17.8476      0.00000
     14      19.5347      0.00000
     15      22.2393      0.00000
     16      24.5223      0.00000
     17      26.5051      0.00000
     18      31.5468      0.00000
     19      34.3163      0.00000
     20      36.7010      0.00000
     21      38.1221      0.00000
     22      40.6795      0.00000
     23      42.2406      0.00000
     24      42.5526      0.00000
     25      46.8280      0.00000
     26      52.6866      0.00000
     27      54.1244      0.00000
     28      57.6719      0.00000
     29      59.1153      0.00000
     30      59.8957      0.00000
     31      60.8254      0.00000
     32      61.8037      0.00000
     33      61.8539      0.00000
     34      63.3285      0.00000
     35      64.5838      0.00000
     36      65.9151      0.00000
     37      66.9702      0.00000
     38      67.1181      0.00000
     39      69.0660      0.00000
     40      69.7057      0.00000

 k-point     7 :       0.0909    0.0909    0.0000
  band No.  band energies     occupation 
      1      -0.6323      2.00000
      2       2.9524      2.00000
      3       4.9300      2.00000
      4       4.9928      2.00000
      5       5.7333      2.00000
      6       5.7741      2.00000
      7       6.5149      2.00000
      8       6.7384      2.00000
      9       6.7925      2.00000
     10       7.1764      2.01724
     11       8.4094     -0.00000
     12      10.7775     -0.00000
     13      15.0747      0.00000
     14      28.7450      0.00000
     15      30.1794      0.00000
     16      31.8580      0.00000
     17      33.8969      0.00000
     18      35.8376      0.00000
     19      35.9399      0.00000
     20      37.0280      0.00000
     21      37.6459      0.00000
     22      43.1311      0.00000
     23      43.4552      0.00000
     24      44.2065      0.00000
     25      44.9611      0.00000
     26      45.5125      0.00000
     27      45.8324      0.00000
     28      51.7497      0.00000
     29      53.7259      0.00000
     30      54.1142      0.00000
     31      54.2938      0.00000
     32      57.8711      0.00000
     33      58.6453      0.00000
     34      59.4207      0.00000
     35      60.6641      0.00000
     36      61.3509      0.00000
     37      62.8168      0.00000
     38      66.1681      0.00000
     39      66.9289      0.00000
     40      67.4600      0.00000

 k-point     8 :       0.1818    0.0909    0.0000
  band No.  band energies     occupation 
      1       0.5882      2.00000
      2       3.5551      2.00000
      3       4.1144      2.00000
      4       4.7243      2.00000
      5       5.4065      2.00000
      6       6.2069      2.00000
      7       6.2269      2.00000
      8       6.8890      2.00002
      9       7.2972      2.06547
     10       7.5991      0.76998
     11       8.3844     -0.00000
     12      12.6721     -0.00000
     13      15.2975      0.00000
     14      24.9909      0.00000
     15      27.7234      0.00000
     16      30.2750      0.00000
     17      32.2898      0.00000
     18      33.2607      0.00000
     19      35.7321      0.00000
     20      36.3081      0.00000
     21      37.5140      0.00000
     22      42.0257      0.00000
     23      42.4450      0.00000
     24      44.0412      0.00000
     25      47.0448      0.00000
     26      47.8473      0.00000
     27      50.1012      0.00000
     28      53.7849      0.00000
     29      55.3651      0.00000
     30      56.2475      0.00000
     31      56.7749      0.00000
     32      58.7103      0.00000
     33      59.3097      0.00000
     34      59.6762      0.00000
     35      60.9632      0.00000
     36      61.3061      0.00000
     37      63.7035      0.00000
     38      66.4472      0.00000
     39      67.5304      0.00000
     40      68.0314      0.00000

 k-point     9 :       0.2727    0.0909    0.0000
  band No.  band energies     occupation 
      1       1.9739      2.00000
      2       3.4454      2.00000
      3       3.5067      2.00000
      4       4.8383      2.00000
      5       5.5124      2.00000
      6       5.7801      2.00000
      7       6.4928      2.00000
      8       7.0883      2.00333
      9       8.1482     -0.00035
     10       8.3516     -0.00000
     11       8.6463     -0.00000
     12      14.8468      0.00000
     13      15.7058      0.00000
     14      21.1455      0.00000
     15      25.9563      0.00000
     16      26.7711      0.00000
     17      29.7993      0.00000
     18      31.3113      0.00000
     19      35.5792      0.00000
     20      36.9591      0.00000
     21      37.2252      0.00000
     22      41.1686      0.00000
     23      41.7419      0.00000
     24      44.8794      0.00000
     25      49.0290      0.00000
     26      51.4945      0.00000
     27      52.5998      0.00000
     28      52.6362      0.00000
     29      55.3011      0.00000
     30      57.2261      0.00000
     31      57.7494      0.00000
     32      60.4101      0.00000
     33      61.4212      0.00000
     34      61.4933      0.00000
     35      62.6210      0.00000
     36      64.3369      0.00000
     37      66.2963      0.00000
     38      67.1959      0.00000
     39      67.2034      0.00000
     40      67.9186      0.00000

 k-point    10 :       0.3636    0.0909    0.0000
  band No.  band energies     occupation 
      1       2.7504      2.00000
      2       3.1087      2.00000
      3       3.1478      2.00000
      4       5.3038      2.00000
      5       5.4735      2.00000
      6       5.9670      2.00000
[...]
     18      28.1376      0.00000
     19      33.6381      0.00000
     20      34.5068      0.00000
     21      38.0080      0.00000
     22      38.3864      0.00000
     23      43.6237      0.00000
     24      44.6713      0.00000
     25      50.3782      0.00000
     26      52.1437      0.00000
     27      54.4905      0.00000
     28      55.7214      0.00000
     29      57.2494      0.00000
     30      58.6989      0.00000
     31      61.2938      0.00000
     32      61.3127      0.00000
     33      62.6518      0.00000
     34      63.1830      0.00000
     35      64.8950      0.00000
     36      65.2613      0.00000
     37      65.8203      0.00000
     38      66.1240      0.00000
     39      69.2047      0.00000
     40      69.7123      0.00000

 k-point    91 :       0.4545    0.0909    0.4545
  band No.  band energies     occupation 
      1       2.5131      2.00000
      2       2.6520      2.00000
      3       3.8918      2.00000
      4       3.9563      2.00000
      5       6.4926      2.00000
      6       6.8974      2.00002
      7       7.6025      0.74251
      8       7.9367     -0.02695
      9       8.5345     -0.00000
     10       8.5969     -0.00000
     11      11.1115     -0.00000
     12      11.6104     -0.00000
     13      17.8178      0.00000
     14      17.8735      0.00000
     15      26.3090      0.00000
     16      26.7908      0.00000
     17      27.6506      0.00000
     18      27.9252      0.00000
     19      33.1869      0.00000
     20      33.5490      0.00000
     21      37.3781      0.00000
     22      37.4291      0.00000
     23      43.7008      0.00000
     24      44.7617      0.00000
     25      50.5311      0.00000
     26      52.2533      0.00000
     27      56.3205      0.00000
     28      58.0333      0.00000
     29      59.4407      0.00000
     30      59.6847      0.00000
     31      60.0059      0.00000
     32      60.0474      0.00000
     33      62.9156      0.00000
     34      63.2734      0.00000
     35      65.7396      0.00000
     36      66.0063      0.00000
     37      66.9274      0.00000
     38      67.0595      0.00000
     39      70.0314      0.00000
     40      70.5053      0.00000

 k-point    92 :       0.1818    0.1818    0.4545
  band No.  band energies     occupation 
      1       2.6227      2.00000
      2       2.8682      2.00000
      3       4.5663      2.00000
      4       4.6027      2.00000
      5       5.0777      2.00000
      6       5.1073      2.00000
      7       6.8809      2.00001
      8       7.1194      2.00629
      9       8.2844     -0.00001
     10       8.4840     -0.00000
     11       9.0116     -0.00000
     12       9.5090     -0.00000
     13      23.6627      0.00000
     14      24.3157      0.00000
     15      24.9023      0.00000
     16      25.5265      0.00000
     17      26.2157      0.00000
     18      27.0429      0.00000
     19      37.7571      0.00000
     20      38.9165      0.00000
     21      39.7375      0.00000
     22      40.9513      0.00000
     23      42.6156      0.00000
     24      42.8194      0.00000
     25      49.0812      0.00000
     26      49.5139      0.00000
     27      52.3737      0.00000
     28      53.9917      0.00000
     29      55.9555      0.00000
     30      56.2988      0.00000
     31      58.5212      0.00000
     32      59.0271      0.00000
     33      60.9067      0.00000
     34      60.9522      0.00000
     35      62.7206      0.00000
     36      62.7512      0.00000
     37      65.2833      0.00000
     38      66.7859      0.00000
     39      68.1737      0.00000
     40      68.5425      0.00000

 k-point    93 :       0.2727    0.1818    0.4545
  band No.  band energies     occupation 
      1       2.9881      2.00000
      2       3.0882      2.00000
      3       4.3148      2.00000
      4       4.5010      2.00000
      5       5.4829      2.00000
      6       5.6274      2.00000
      7       6.7357      2.00000
      8       6.9719      2.00019
      9       8.3942     -0.00000
     10       8.6929     -0.00000
     11      10.6487     -0.00000
     12      11.1490     -0.00000
     13      21.0089      0.00000
     14      21.5498      0.00000
     15      23.8173      0.00000
     16      24.5532      0.00000
     17      26.0897      0.00000
     18      27.7274      0.00000
     19      35.3615      0.00000
     20      36.9665      0.00000
     21      38.1349      0.00000
     22      39.7089      0.00000
     23      43.6312      0.00000
     24      44.1215      0.00000
     25      50.7230      0.00000
     26      51.2483      0.00000
     27      53.6465      0.00000
     28      55.6011      0.00000
     29      57.4457      0.00000
     30      58.8282      0.00000
     31      60.2982      0.00000
     32      60.9000      0.00000
     33      62.1294      0.00000
     34      62.2200      0.00000
     35      63.3316      0.00000
     36      64.0006      0.00000
     37      65.2302      0.00000
     38      66.1484      0.00000
     39      68.9845      0.00000
     40      69.2414      0.00000

 k-point    94 :       0.3636    0.1818    0.4545
  band No.  band energies     occupation 
      1       3.0145      2.00000
      2       3.1658      2.00000
      3       4.2020      2.00000
      4       4.3714      2.00000
      5       5.6275      2.00000
      6       5.9512      2.00000
      7       7.0732      2.00240
      8       7.1830      2.01911
      9       8.3778     -0.00000
     10       8.5654     -0.00000
     11      12.4610     -0.00000
     12      12.8955     -0.00000
     13      18.2989      0.00000
     14      18.6628      0.00000
     15      23.2139      0.00000
     16      23.9393      0.00000
     17      27.6804      0.00000
     18      28.7716      0.00000
     19      33.6088      0.00000
     20      34.6666      0.00000
     21      37.2091      0.00000
     22      38.7743      0.00000
     23      44.2480      0.00000
     24      44.6540      0.00000
     25      53.8514      0.00000
     26      54.6192      0.00000
     27      54.9108      0.00000
     28      56.0035      0.00000
     29      58.0228      0.00000
     30      59.1345      0.00000
     31      59.3428      0.00000
     32      59.9026      0.00000
     33      61.8929      0.00000
     34      62.4546      0.00000
     35      64.5627      0.00000
     36      65.0662      0.00000
     37      67.0276      0.00000
     38      67.1612      0.00000
     39      68.0778      0.00000
     40      68.6390      0.00000

 k-point    95 :       0.2727    0.2727    0.4545
  band No.  band energies     occupation 
      1       3.4410      2.00000
      2       3.5112      2.00000
      3       4.4607      2.00000
      4       4.6794      2.00000
      5       5.1370      2.00000
      6       5.3463      2.00000
      7       6.5747      2.00000
      8       6.7778      2.00000
      9       8.3919     -0.00000
     10       8.5978     -0.00000
     11      12.9206     -0.00000
     12      13.4334      0.00000
     13      19.4124      0.00000
     14      19.8416      0.00000
     15      21.2864      0.00000
     16      21.6934      0.00000
     17      27.8732      0.00000
     18      29.4462      0.00000
     19      33.6842      0.00000
     20      35.0430      0.00000
     21      36.8492      0.00000
     22      37.9530      0.00000
     23      46.7753      0.00000
     24      47.2153      0.00000
     25      51.1233      0.00000
     26      51.1940      0.00000
     27      56.1429      0.00000
     28      58.0427      0.00000
     29      58.2661      0.00000
     30      58.8528      0.00000
     31      60.5386      0.00000
     32      60.6306      0.00000
     33      60.9482      0.00000
     34      61.0655      0.00000
     35      63.2328      0.00000
     36      63.7656      0.00000
     37      66.7819      0.00000
     38      66.9896      0.00000
     39      67.8939      0.00000
     40      67.9455      0.00000

 k-point    96 :       0.3636    0.2727    0.4545
  band No.  band energies     occupation 
      1       3.6675      2.00000
      2       3.8032      2.00000
      3       4.4084      2.00000
      4       4.5104      2.00000
      5       5.1133      2.00000
      6       5.2595      2.00000
      7       6.6155      2.00000
      8       6.7664      2.00000
      9       8.3765     -0.00000
     10       8.4498     -0.00000
     11      14.8295      0.00000
     12      14.9808      0.00000
     13      17.6517      0.00000
     14      17.9851      0.00000
     15      20.6264      0.00000
     16      21.0638      0.00000
     17      29.6247      0.00000
     18      30.3795      0.00000
     19      32.6867      0.00000
     20      32.9553      0.00000
     21      36.5505      0.00000
     22      37.3645      0.00000
     23      47.9886      0.00000
     24      48.6221      0.00000
     25      52.8088      0.00000
     26      53.2722      0.00000
     27      55.4946      0.00000
     28      55.9212      0.00000
     29      57.9528      0.00000
     30      58.3859      0.00000
     31      60.2552      0.00000
     32      60.8497      0.00000
     33      61.0014      0.00000
     34      61.5850      0.00000
     35      62.8803      0.00000
     36      64.0770      0.00000
     37      65.6242      0.00000
     38      65.9662      0.00000
     39      69.3294      0.00000
     40      69.5201      0.00000


--------------------------------------------------------------------------------------------------------


 soft charge-density along one line, spin component           1
         0         1         2         3         4         5         6         7         8         9
x     7.7792    0.0000    0.0749   -0.1297   -0.0530   -0.0917    0.0210    0.0000    0.0012   -0.0021
x     0.0000    0.0000
y     7.7792    0.0000    0.0749    0.1297   -0.0530    0.0917    0.0210   -0.0000    0.0012    0.0021
y     0.0000    0.0000
z     7.7792    0.0000    0.0000    0.0000    0.5378    0.0000    0.0000    0.0000   -0.1623   -0.0000
z     0.0000   -0.0000    0.0174   -0.0000    0.0000   -0.0000    0.0077    0.0000    0.0000    0.0000
 total charge-density along one line
x    16.0000    0.0000    1.4318   -2.4799    0.2752    0.4766    0.0145    0.0000    0.0018   -0.0031
x    -0.0002   -0.0003    0.0003   -0.0000   -0.0000    0.0001    0.0000    0.0000   -0.0001    0.0000
x     0.0000    0.0000
y    16.0000    0.0000    1.4318    2.4799    0.2752   -0.4766    0.0145   -0.0000    0.0018    0.0031
y    -0.0002    0.0003    0.0003    0.0000   -0.0000   -0.0001    0.0000   -0.0000   -0.0001   -0.0000
y     0.0000   -0.0000
z    16.0000    0.0000    0.0000    0.0000    6.1688   -0.0000    0.0000    0.0000    1.4065   -0.0000
z     0.0000   -0.0000    0.0556   -0.0000    0.0000   -0.0000    0.0025   -0.0000    0.0000    0.0000
z     0.0025   -0.0000   -0.0000   -0.0000   -0.0012    0.0000   -0.0000   -0.0000    0.0006    0.0000
z    -0.0000    0.0000   -0.0004    0.0000    0.0000    0.0000    0.0004   -0.0000
 
 pseudopotential strength for first ion, spin component:           1
 -4.053  -0.000  -0.000   0.000  -0.000  -4.628  -0.000  -0.000
 -0.000  -4.035   0.000  -0.000  -0.000  -0.000  -4.610   0.000
 -0.000   0.000  -4.043   0.000  -0.000  -0.000   0.000  -4.618
  0.000  -0.000   0.000  -4.035  -0.000   0.000  -0.000   0.000
 -0.000  -0.000  -0.000  -0.000  -4.053  -0.000  -0.000  -0.000
 -4.628  -0.000  -0.000   0.000  -0.000  -5.160  -0.000  -0.000
 -0.000  -4.610   0.000  -0.000  -0.000  -0.000  -5.142   0.000
 -0.000   0.000  -4.618   0.000  -0.000  -0.000   0.000  -5.150
  0.000  -0.000   0.000  -4.610  -0.000   0.000  -0.000   0.000
 -0.000  -0.000  -0.000  -0.000  -4.628  -0.000  -0.000  -0.000
  0.000  -0.000  -0.000   0.000  -0.000   0.000  -0.000  -0.000
  0.000  -0.000   0.001   0.000  -0.000   0.000  -0.000   0.000
 -0.000   0.000  -0.000  -0.000  -0.001  -0.000   0.000  -0.000
 -0.000  -0.000   0.000   0.000   0.000  -0.000  -0.000   0.000
 -0.001  -0.000   0.000   0.000  -0.000  -0.001  -0.000   0.000
 -0.000   0.000   0.000  -0.000  -0.001  -0.000   0.000  -0.000
 -0.000  -0.000   0.000   0.000   0.000  -0.000  -0.000   0.000
 -0.001  -0.000   0.000   0.000  -0.000  -0.001  -0.000   0.000
 total augmentation occupancy for first ion, spin component:           1
  1.687   0.000   0.000   0.000  -0.000  -1.179   0.000  -0.000   0.000   0.000   0.000  -0.000   0.000   0.000   0.036  -0.000
  0.000   2.274   0.000  -0.000   0.000   0.000  -1.458   0.000   0.000   0.000  -0.000   0.000   0.000   0.000   0.000   0.000
  0.000   0.000   1.343  -0.000  -0.000  -0.000   0.000  -0.850  -0.000   0.000   0.079  -0.016   0.000   0.000   0.000  -0.000
  0.000  -0.000   0.000   2.274  -0.000   0.000   0.000   0.000  -1.458  -0.000   0.000   0.000   0.000   0.000   0.000   0.000
 -0.000  -0.000  -0.000   0.000   1.687  -0.000  -0.000   0.000  -0.000  -1.179   0.000  -0.000   0.036  -0.000  -0.000  -0.002
 -1.179   0.000  -0.000   0.000   0.000   2.050  -0.000   0.000  -0.000   0.000  -0.000   0.000  -0.000  -0.000  -0.048   0.000
  0.000  -1.458  -0.000   0.000  -0.000  -0.000   1.982  -0.000  -0.000   0.000  -0.000   0.000   0.000   0.000   0.000   0.000
 -0.000  -0.000  -0.850   0.000   0.000   0.000   0.000   1.716   0.000  -0.000  -0.177   0.013   0.000   0.000  -0.000  -0.000
  0.000   0.000  -0.000  -1.458  -0.000   0.000  -0.000  -0.000   1.982   0.000  -0.000   0.000   0.000  -0.000   0.000   0.000
 -0.000   0.000   0.000   0.000  -1.179   0.000   0.000  -0.000   0.000   2.050  -0.000   0.000  -0.048   0.000   0.000   0.003
  0.000   0.000   0.079  -0.000   0.000  -0.000   0.000  -0.177   0.000  -0.000   2.843  -0.332  -0.000   0.000  -0.000   0.000
 -0.000   0.000  -0.016   0.000  -0.000   0.000  -0.000   0.013   0.000   0.000  -0.332   0.044   0.000   0.000   0.000  -0.000
  0.000   0.000   0.000  -0.000   0.036  -0.000  -0.000   0.000  -0.000  -0.048  -0.000   0.000   0.386   0.000  -0.000  -0.030
  0.000   0.000   0.000   0.000   0.000   0.000   0.000   0.000  -0.000   0.000   0.000   0.000  -0.000   0.352   0.000  -0.000
  0.036   0.000   0.000  -0.000  -0.000  -0.048   0.000  -0.000  -0.000   0.000   0.000   0.000  -0.000   0.000   0.386   0.000
 -0.000   0.000   0.000   0.000  -0.002   0.000  -0.000  -0.000   0.000   0.003  -0.000   0.000  -0.030  -0.000   0.000   0.003
  0.000   0.000   0.000   0.000  -0.000   0.000   0.000   0.000  -0.000  -0.000   0.000   0.000   0.000  -0.032   0.000  -0.000
 -0.002   0.000  -0.000   0.000   0.000   0.003   0.000   0.000  -0.000  -0.000   0.000   0.000   0.000  -0.000  -0.030  -0.000


------------------------ aborting loop because EDIFF is reached ----------------------------------------


    CHARGE:  cpu time    0.0214: real time    0.0214
    FORLOC:  cpu time    0.0002: real time    0.0002
    FORNL :  cpu time    0.0938: real time    0.0938
    STRESS:  cpu time    0.1471: real time    0.1471
    FORCOR:  cpu time    0.0035: real time    0.0035
    FORHAR:  cpu time    0.0007: real time    0.0007
    MIXING:  cpu time    0.0002: real time    0.0002

  FORCE on cell =-STRESS in cart. coord.  units (eV):
  Direction    XX          YY          ZZ          XY          YZ          ZX
  --------------------------------------------------------------------------------------
  Alpha Z   143.50118   143.50118   143.50118
  Ewald    -394.76732  -394.76732  -459.34124     0.00000    -0.00000     0.00000
  Hartree    63.37962    63.37962    39.56584    -0.00000    -0.00000    -0.00000
  E(xc)     -79.28142   -79.28142   -78.92414     0.00015     0.00000    -0.00000
  Local      95.97662    95.97680   180.27029    -0.00072     0.00000     0.00000
  n-local   -51.19559   -50.44523   -53.78757    -4.70805     1.35384     0.87895
  augment    75.27269    75.27239    75.93050     0.00087    -0.00000     0.00000
  Kinetic   155.46028   148.87443   149.71765     1.85048    -0.79783     0.29663
  Fock        0.00000     0.00000     0.00000     0.00000     0.00000     0.00000
  -------------------------------------------------------------------------------------
  Total       5.42825     5.42825    -3.06750    -0.00000     0.00000     0.00000
  in kB     451.44160   451.44160  -255.10882    -0.00000     0.00000     0.00000
  external pressure =      215.92 kB  Pullay stress =        0.00 kB


 VOLUME and BASIS-vectors are now :
 -----------------------------------------------------------------------------
  energy-cutoff  :      280.00
  volume of cell :       19.27
      direct lattice vectors                 reciprocal lattice vectors
     2.306700000  0.000000000  0.000000000     0.433519747  0.250292743  0.000000000
    -1.153350000  1.997660799  0.000000000     0.000000000  0.500585485  0.000000000
     0.000000000  0.000000000  4.180770000     0.000000000  0.000000000  0.239190388

  length of vectors
     2.306700000  2.306700000  4.180770000     0.500585485  0.500585485  0.239190388


 FORCES acting on ions
    electron-ion (+dipol)            ewald-force                    non-local-force                 convergence-correction
 -----------------------------------------------------------------------------------------------
   0.572E-06 -.310E-06 0.686E-14   0.505E-12 -.282E-12 -.260E-13   0.117E-17 -.265E-18 0.931E-19   -.415E-09 0.244E-09 0.342E-14
   -.613E-05 0.335E-05 0.253E-12   -.503E-12 0.274E-12 0.260E-13   0.103E-17 0.971E-18 -.655E-19   0.418E-09 -.246E-09 0.623E-13
 -----------------------------------------------------------------------------------------------
   -.556E-05 0.304E-05 0.260E-12   0.219E-14 -.772E-14 -.319E-17   0.220E-17 0.706E-18 0.276E-19   0.258E-11 -.136E-11 0.657E-13
 
 
 POSITION                                       TOTAL-FORCE (eV/Angst)
 -----------------------------------------------------------------------------------
      0.00000      0.00000      0.00000        -0.000000      0.000000     -0.000000
      0.00000      1.33177      2.09038         0.000000     -0.000000      0.000000
 -----------------------------------------------------------------------------------
    total drift:                               -0.000006      0.000003      0.000000


--------------------------------------------------------------------------------------------------------



  FREE ENERGIE OF THE ION-ELECTRON SYSTEM (eV)
  ---------------------------------------------------
  free  energy   TOTEN  =       -15.87515779 eV

  energy  without entropy=      -15.87726386  energy(sigma->0) =      -15.87585981
 


--------------------------------------------------------------------------------------------------------


    POTLOK:  cpu time    0.0057: real time    0.0057


--------------------------------------------------------------------------------------------------------


 writing wavefunctions
     LOOP+:  cpu time   10.4034: real time   10.4217
    4ORBIT:  cpu time    0.0000: real time    0.0000

 total amount of memory used by VASP MPI-rank0    49317. kBytes
=======================================================================

   base      :      30000. kBytes
   nonl-proj :       2992. kBytes
   grid      :        812. kBytes
   one-center:         31. kBytes
   wavefun   :      15482. kBytes
 
  
  
 General timing and accounting informations for this job:
 ========================================================
  
                  Total CPU time used (sec):       10.579
                            User time (sec):       10.527
                          System time (sec):        0.052
                         Elapsed time (sec):       10.586
  
                   Maximum memory used (kb):       54496.
                   Average memory used (kb):          N/A
  
                          Minor page faults:         7338
                          Major page faults:            0
                 Voluntary context switches:           26
