<?xml version="1.0" encoding="ISO-8859-1"?>
<modeling>
 <generator>
  <i name="program" type="string">vasp </i>
  <i name="version" type="string">6.2.0  </i>
  <i name="subversion" type="string">18Jan21 (build Mar 17 2021 09:06:54) complex                          serial </i>
  <i name="platform" type="string">LinuxIFC </i>
  <i name="date" type="string">2021 09 09 </i>
  <i name="time" type="string">12:03:21 </i>
 </generator>
 <incar>
  <i type="string" name="PREC">normal</i>
  <i type="int" name="ICHARG">     1</i>
  <i type="int" name="IBRION">     1</i>
  <i name="EDIFF">      0.00000100</i>
  <i type="int" name="NSW">     0</i>
  <i type="int" name="ISIF">     2</i>
  <i name="ENCUT">    280.00000000</i>
  <i type="int" name="NBANDS">    40</i>
  <i type="int" name="ISMEAR">     1</i>
  <i name="SIGMA">      0.20000000</i>
  <i type="logical" name="LCHARG"> T  </i>
  <i type="int" name="KPAR">     1</i>
  <i type="int" name="NCORE">     1</i>
  <i type="string" name="GGA">PE</i>
 </incar>
 <primitive_cell>
  <structure name="primitive_cell" >
   <crystal>
    <varray name="basis" >
     <v>       2.30670000       0.00000000       0.00000000 </v>
     <v>      -1.15335000       1.99766080       0.00000000 </v>
     <v>       0.00000000       0.00000000       4.18077000 </v>
    </varray>
    <i name="volume">     19.26500557 </i>
    <varray name="rec_basis" >
     <v>       0.43351975       0.25029274       0.00000000 </v>
     <v>       0.00000000       0.50058549       0.00000000 </v>
     <v>       0.00000000       0.00000000       0.23919039 </v>
    </varray>
   </crystal>
   <varray name="positions" >
    <v>       0.00000000       0.00000000       0.00000000 </v>
    <v>       0.33333333       0.66666667       0.50000000 </v>
   </varray>
  </structure>
  <varray name="primitive_index" >
   <v type="int" >        1 </v>
   <v type="int" >        2 </v>
  </varray>
 </primitive_cell>
 <kpoints>
  <generation param="Monkhorst-Pack">
   <v type="int" name="divisions">      11       11       11 </v>
   <v name="usershift">      0.00000000       0.00000000       0.00000000 </v>
   <v name="genvec1">      0.09090909      -0.00000000       0.00000000 </v>
   <v name="genvec2">      0.00000000       0.09090909       0.00000000 </v>
   <v name="genvec3">      0.00000000       0.00000000       0.09090909 </v>
   <v name="shift">      0.00000000       0.00000000       0.00000000 </v>
  </generation>
  <varray name="kpointlist" >
   <v>       0.00000000       0.00000000       0.00000000 </v>
   <v>       0.09090909      -0.00000000       0.00000000 </v>
   <v>       0.18181818       0.00000000       0.00000000 </v>
   <v>       0.27272727      -0.00000000       0.00000000 </v>
   <v>       0.36363636      -0.00000000       0.00000000 </v>
   <v>       0.45454545       0.00000000       0.00000000 </v>
   <v>       0.09090909       0.09090909       0.00000000 </v>
   <v>       0.18181818       0.09090909       0.00000000 </v>
   <v>       0.27272727       0.09090909       0.00000000 </v>
   <v>       0.36363636       0.09090909       0.00000000 </v>
   <v>       0.45454545       0.09090909       0.00000000 </v>
   <v>       0.18181818       0.18181818       0.00000000 </v>
   <v>       0.27272727       0.18181818       0.00000000 </v>
   <v>       0.36363636       0.18181818       0.00000000 </v>
   <v>       0.27272727       0.27272727       0.00000000 </v>
   <v>       0.36363636       0.27272727       0.00000000 </v>
   <v>       0.00000000       0.00000000       0.09090909 </v>
   <v>       0.09090909      -0.00000000       0.09090909 </v>
   <v>       0.18181818       0.00000000       0.09090909 </v>
   <v>       0.27272727      -0.00000000       0.09090909 </v>
   <v>       0.36363636      -0.00000000       0.09090909 </v>
   <v>       0.45454545       0.00000000       0.09090909 </v>
   <v>       0.09090909       0.09090909       0.09090909 </v>
   <v>       0.18181818       0.09090909       0.09090909 </v>
   <v>       0.27272727       0.09090909       0.09090909 </v>
   <v>       0.36363636       0.09090909       0.09090909 </v>
   <v>       0.45454545       0.09090909       0.09090909 </v>
   <v>       0.18181818       0.18181818       0.09090909 </v>
   <v>       0.27272727       0.18181818       0.09090909 </v>
   <v>       0.36363636       0.18181818       0.09090909 </v>
   <v>       0.27272727       0.27272727       0.09090909 </v>
   <v>       0.36363636       0.27272727       0.09090909 </v>
   <v>       0.00000000       0.00000000       0.18181818 </v>
   <v>       0.09090909      -0.00000000       0.18181818 </v>
   <v>       0.18181818       0.00000000       0.18181818 </v>
   <v>       0.27272727      -0.00000000       0.18181818 </v>
   <v>       0.36363636      -0.00000000       0.18181818 </v>
   <v>       0.45454545       0.00000000       0.18181818 </v>
   <v>       0.09090909       0.09090909       0.18181818 </v>
   <v>       0.18181818       0.09090909       0.18181818 </v>
   <v>       0.27272727       0.09090909       0.18181818 </v>
   <v>       0.36363636       0.09090909       0.18181818 </v>
   <v>       0.45454545       0.09090909       0.18181818 </v>
   <v>       0.18181818       0.18181818       0.18181818 </v>
   <v>       0.27272727       0.18181818       0.18181818 </v>
   <v>       0.36363636       0.18181818       0.18181818 </v>
   <v>       0.27272727       0.27272727       0.18181818 </v>
   <v>       0.36363636       0.27272727       0.18181818 </v>
   <v>       0.00000000       0.00000000       0.27272727 </v>
   <v>       0.09090909      -0.00000000       0.27272727 </v>
   <v>       0.18181818       0.00000000       0.27272727 </v>
   <v>       0.27272727      -0.00000000       0.27272727 </v>
   <v>       0.36363636      -0.00000000       0.27272727 </v>
   <v>       0.45454545       0.00000000       0.27272727 </v>
   <v>       0.09090909       0.09090909       0.27272727 </v>
   <v>       0.18181818       0.09090909       0.27272727 </v>
   <v>       0.27272727       0.09090909       0.27272727 </v>
   <v>       0.36363636       0.09090909       0.27272727 </v>
   <v>       0.45454545       0.09090909       0.27272727 </v>
   <v>       0.18181818       0.18181818       0.27272727 </v>
   <v>       0.27272727       0.18181818       0.27272727 </v>
   <v>       0.36363636       0.18181818       0.27272727 </v>
   <v>       0.27272727       0.27272727       0.27272727 </v>
   <v>       0.36363636       0.27272727       0.27272727 </v>
   <v>       0.00000000       0.00000000       0.36363636 </v>
   <v>       0.09090909      -0.00000000       0.36363636 </v>
   <v>       0.18181818       0.00000000       0.36363636 </v>
   <v>       0.27272727      -0.00000000       0.36363636 </v>
   <v>       0.36363636      -0.00000000       0.36363636 </v>
   <v>       0.45454545       0.00000000       0.36363636 </v>
   <v>       0.09090909       0.09090909       0.36363636 </v>
   <v>       0.18181818       0.09090909       0.36363636 </v>
   <v>       0.27272727       0.09090909       0.36363636 </v>
   <v>       0.36363636       0.09090909       0.36363636 </v>
   <v>       0.45454545       0.09090909       0.36363636 </v>
   <v>       0.18181818       0.18181818       0.36363636 </v>
   <v>       0.27272727       0.18181818       0.36363636 </v>
   <v>       0.36363636       0.18181818       0.36363636 </v>
   <v>       0.27272727       0.27272727       0.36363636 </v>
   <v>       0.36363636       0.27272727       0.36363636 </v>
   <v>       0.00000000       0.00000000       0.45454545 </v>
   <v>       0.09090909      -0.00000000       0.45454545 </v>
   <v>       0.18181818       0.00000000       0.45454545 </v>
   <v>       0.27272727      -0.00000000       0.45454545 </v>
   <v>       0.36363636      -0.00000000       0.45454545 </v>
   <v>       0.45454545       0.00000000       0.45454545 </v>
   <v>       0.09090909       0.09090909       0.45454545 </v>
   <v>       0.18181818       0.09090909       0.45454545 </v>
   <v>       0.27272727       0.09090909       0.45454545 </v>
   <v>       0.36363636       0.09090909       0.45454545 </v>
   <v>       0.45454545       0.09090909       0.45454545 </v>
   <v>       0.18181818       0.18181818       0.45454545 </v>
   <v>       0.27272727       0.18181818       0.45454545 </v>
   <v>       0.36363636       0.18181818       0.45454545 </v>
   <v>       0.27272727       0.27272727       0.45454545 </v>
   <v>       0.36363636       0.27272727       0.45454545 </v>
  </varray>
  <varray name="weights" >
   <v>       0.00075131 </v>
   <v>       0.00450789 </v>
   <v>       0.00450789 </v>
   <v>       0.00450789 </v>
   <v>       0.00450789 </v>
   <v>       0.00450789 </v>
   <v>       0.00450789 </v>
   <v>       0.00901578 </v>
   <v>       0.00901578 </v>
   <v>       0.00901578 </v>
   <v>       0.00450789 </v>
   <v>       0.00450789 </v>
   <v>       0.00901578 </v>
   <v>       0.00901578 </v>
   <v>       0.00450789 </v>
   <v>       0.00450789 </v>
   <v>       0.00150263 </v>
   <v>       0.00901578 </v>
   <v>       0.00901578 </v>
   <v>       0.00901578 </v>
   <v>       0.00901578 </v>
   <v>       0.00901578 </v>
   <v>       0.00901578 </v>
   <v>       0.01803156 </v>
   <v>       0.01803156 </v>
   <v>       0.01803156 </v>
   <v>       0.00901578 </v>
   <v>       0.00901578 </v>
   <v>       0.01803156 </v>
   <v>       0.01803156 </v>
   <v>       0.00901578 </v>
   <v>       0.00901578 </v>
   <v>       0.00150263 </v>
   <v>       0.00901578 </v>
   <v>       0.00901578 </v>
   <v>       0.00901578 </v>
   <v>       0.00901578 </v>
   <v>       0.00901578 </v>
   <v>       0.00901578 </v>
   <v>       0.01803156 </v>
   <v>       0.01803156 </v>
   <v>       0.01803156 </v>
   <v>       0.00901578 </v>
   <v>       0.00901578 </v>
   <v>       0.01803156 </v>
   <v>       0.01803156 </v>
   <v>       0.00901578 </v>
   <v>       0.00901578 </v>
   <v>       0.00150263 </v>
   <v>       0.00901578 </v>
   <v>       0.00901578 </v>
   <v>       0.00901578 </v>
   <v>       0.00901578 </v>
   <v>       0.00901578 </v>
   <v>       0.00901578 </v>
   <v>       0.01803156 </v>
   <v>       0.01803156 </v>
   <v>       0.01803156 </v>
   <v>       0.00901578 </v>
   <v>       0.00901578 </v>
   <v>       0.01803156 </v>
   <v>       0.01803156 </v>
   <v>       0.00901578 </v>
   <v>       0.00901578 </v>
   <v>       0.00150263 </v>
   <v>       0.00901578 </v>
   <v>       0.00901578 </v>
   <v>       0.00901578 </v>
   <v>       0.00901578 </v>
   <v>       0.00901578 </v>
   <v>       0.00901578 </v>
   <v>       0.01803156 </v>
   <v>       0.01803156 </v>
   <v>       0.01803156 </v>
   <v>       0.00901578 </v>
   <v>       0.00901578 </v>
   <v>       0.01803156 </v>
   <v>       0.01803156 </v>
   <v>       0.00901578 </v>
   <v>       0.00901578 </v>
   <v>       0.00150263 </v>
   <v>       0.00901578 </v>
   <v>       0.00901578 </v>
   <v>       0.00901578 </v>
   <v>       0.00901578 </v>
   <v>       0.00901578 </v>
   <v>       0.00901578 </v>
   <v>       0.01803156 </v>
   <v>       0.01803156 </v>
   <v>       0.01803156 </v>
   <v>       0.00901578 </v>
   <v>       0.00901578 </v>
   <v>       0.01803156 </v>
   <v>       0.01803156 </v>
   <v>       0.00901578 </v>
   <v>       0.00901578 </v>
  </varray>
 </kpoints>
 <parameters>
  <separator name="general" >
   <i type="string" name="SYSTEM">unknown system</i>
   <i type="logical" name="LCOMPAT"> F  </i>
  </separator>
  <separator name="electronic" >
   <i type="string" name="PREC">normal</i>
   <i name="ENMAX">    280.00000000</i>
   <i name="ENAUG">    511.36800000</i>
   <i name="EDIFF">      0.00000100</i>
   <i type="int" name="IALGO">    38</i>
   <i type="int" name="IWAVPR">     0</i>
   <i type="int" name="NBANDS">    40</i>
   <i type="int" name="NBANDSLOW">    -1</i>
   <i type="int" name="NBANDSHIGH">    -1</i>
   <i name="NELECT">     16.00000000</i>
   <i type="int" name="TURBO">     0</i>
   <i type="int" name="IRESTART">     0</i>
   <i type="int" name="NREBOOT">     0</i>
   <i type="int" name="NMIN">     0</i>
   <i name="EREF">      0.00000000</i>
   <separator name="electronic smearing" >
    <i type="int" name="ISMEAR">     1</i>
    <i name="SIGMA">      0.20000000</i>
    <i name="KSPACING">      0.50000000</i>
    <i type="logical" name="KGAMMA"> T  </i>
    <i type="logical" name="KBLOWUP"> T  </i>
   </separator>
   <separator name="electronic projectors" >
    <i type="logical" name="LREAL"> F  </i>
    <v name="ROPT">      0.00000000</v>
    <i type="int" name="LMAXPAW">  -100</i>
    <i type="int" name="LMAXMIX">     2</i>
    <i type="logical" name="NLSPLINE"> F  </i>
   </separator>
   <separator name="electronic startup" >
    <i type="int" name="ISTART">     0</i>
    <i type="int" name="ICHARG">     1</i>
    <i type="int" name="INIWAV">     1</i>
   </separator>
   <separator name="electronic spin" >
    <i type="int" name="ISPIN">     1</i>
    <i type="logical" name="LNONCOLLINEAR"> F  </i>
    <v name="MAGMOM">      1.00000000      1.00000000</v>
    <i name="NUPDOWN">     -1.00000000</i>
    <i type="logical" name="LSORBIT"> F  </i>
    <v name="SAXIS">      0.00000000      0.00000000      1.00000000</v>
    <i type="logical" name="LSPIRAL"> F  </i>
    <v name="QSPIRAL">      0.00000000      0.00000000      0.00000000</v>
    <i type="logical" name="LZEROZ"> F  </i>
   </separator>
   <separator name="electronic exchange-correlation" >
    <i type="logical" name="LASPH"> F  </i>
    <i type="logical" name="LMETAGGA"> F  </i>
   </separator>
   <separator name="electronic convergence" >
    <i type="int" name="NELM">    60</i>
    <i type="int" name="NELMDL">    -5</i>
    <i type="int" name="NELMIN">     2</i>
    <i name="ENINI">    280.00000000</i>
    <separator name="electronic convergence detail" >
     <i type="logical" name="LDIAG"> T  </i>
     <i type="logical" name="LSUBROT"> F  </i>
     <i name="WEIMIN">      0.00000000</i>
     <i name="EBREAK">      0.00000001</i>
     <i name="DEPER">      0.30000000</i>
     <i type="int" name="NRMM">     4</i>
     <i name="TIME">      0.40000000</i>
    </separator>
   </separator>
   <separator name="electronic mixer" >
    <i name="AMIX">      0.40000000</i>
    <i name="BMIX">      1.00000000</i>
    <i name="AMIN">      0.10000000</i>
    <i name="AMIX_MAG">      1.60000000</i>
    <i name="BMIX_MAG">      1.00000000</i>
    <separator name="electronic mixer details" >
     <i type="int" name="IMIX">     4</i>
     <i type="logical" name="MIXFIRST"> F  </i>
     <i type="int" name="MAXMIX">   -45</i>
     <i name="WC">    100.00000000</i>
     <i type="int" name="INIMIX">     1</i>
     <i type="int" name="MIXPRE">     1</i>
     <i type="int" name="MREMOVE">     5</i>
    </separator>
   </separator>
   <separator name="electronic dipolcorrection" >
    <i type="logical" name="LDIPOL"> F  </i>
    <i type="logical" name="LMONO"> F  </i>
    <i type="int" name="IDIPOL">     0</i>
    <i name="EPSILON">      1.00000000</i>
    <v name="DIPOL">   -100.00000000   -100.00000000   -100.00000000</v>
    <i name="EFIELD">      0.00000000</i>
   </separator>
  </separator>
  <separator name="grids" >
   <i type="int" name="NGX">    10</i>
   <i type="int" name="NGY">    10</i>
   <i type="int" name="NGZ">    18</i>
   <i type="int" name="NGXF">    20</i>
   <i type="int" name="NGYF">    20</i>
   <i type="int" name="NGZF">    36</i>
   <i type="logical" name="ADDGRID"> F  </i>
  </separator>
  <separator name="ionic" >
   <i type="int" name="NSW">     0</i>
   <i type="int" name="IBRION">    -1</i>
   <i type="int" name="MDALGO">     0</i>
   <i type="int" name="ISIF">     2</i>
   <i name="PSTRESS">      0.00000000</i>
   <i name="EDIFFG">      0.00001000</i>
   <i type="int" name="NFREE">     0</i>
   <i name="POTIM">      0.50000000</i>
   <i name="SMASS">     -3.00000000</i>
   <i name="SCALEE">      1.00000000</i>
  </separator>
  <separator name="ionic md" >
   <i name="TEBEG">      0.00010000</i>
   <i name="TEEND">      0.00010000</i>
   <i type="int" name="NBLOCK">     1</i>
   <i type="int" name="KBLOCK">     1</i>
   <i type="int" name="NPACO">   256</i>
   <i name="APACO">     16.00000000</i>
  </separator>
  <separator name="symmetry" >
   <i type="int" name="ISYM">     2</i>
   <i name="SYMPREC">      0.00001000</i>
  </separator>
  <separator name="dos" >
   <i type="int" name="LORBIT">     0</i>
   <v name="RWIGS">     -1.00000000</v>
   <i type="int" name="NEDOS">   301</i>
   <i name="EMIN">     10.00000000</i>
   <i name="EMAX">    -10.00000000</i>
   <i name="EFERMI">      0.00000000</i>
  </separator>
  <separator name="writing" >
   <i type="int" name="NWRITE">     2</i>
   <i type="logical" name="LWAVE"> T  </i>
   <i type="logical" name="LDOWNSAMPLE"> F  </i>
   <i type="logical" name="LCHARG"> T  </i>
   <i type="logical" name="LPARD"> F  </i>
   <i type="logical" name="LVTOT"> F  </i>
   <i type="logical" name="LVHAR"> F  </i>
   <i type="logical" name="LELF"> F  </i>
   <i type="logical" name="LOPTICS"> F  </i>
   <v name="STM">      0.00000000      0.00000000      0.00000000      0.00000000      0.00000000      0.00000000      0.00000000</v>
  </separator>
  <separator name="performance" >
   <i type="int" name="NPAR">     1</i>
   <i type="int" name="NSIM">     4</i>
   <i type="int" name="NBLK">    -1</i>
   <i type="logical" name="LPLANE"> T  </i>
   <i type="logical" name="LSCALAPACK"> F  </i>
   <i type="logical" name="LSCAAWARE"> F  </i>
   <i type="logical" name="LSCALU"> F  </i>
   <i type="logical" name="LASYNC"> F  </i>
   <i type="logical" name="LORBITALREAL"> F  </i>
  </separator>
  <separator name="miscellaneous" >
   <i type="int" name="IDIOT">     3</i>
   <i type="int" name="PHON_NSTRUCT">    -1</i>
   <i type="logical" name="LMUSIC"> F  </i>
   <v name="POMASS">     55.84700000</v>
   <v name="DARWINR">      0.00000000</v>
   <v name="DARWINV">      1.00000000</v>
   <i type="logical" name="LCORR"> T  </i>
  </separator>
  <i type="logical" name="GGA_COMPAT"> T  </i>
  <i type="logical" name="LBERRY"> F  </i>
  <i type="int" name="ICORELEVEL">     0</i>
  <i type="logical" name="LDAU"> F  </i>
  <i type="int" name="I_CONSTRAINED_M">     0</i>
  <separator name="electronic exchange-correlation" >
   <i type="string" name="GGA">PE</i>
   <i type="int" name="VOSKOWN">     0</i>
   <i type="logical" name="LHFCALC"> F  </i>
   <i type="string" name="PRECFOCK"></i>
   <i type="logical" name="LSYMGRAD"> F  </i>
   <i type="logical" name="LHFONE"> F  </i>
   <i type="logical" name="LRHFCALC"> F  </i>
   <i type="logical" name="LTHOMAS"> F  </i>
   <i type="logical" name="LMODELHF"> F  </i>
   <i type="logical" name="LFOCKACE"> F  </i>
   <i name="ENCUT4O">     -1.00000000</i>
   <i type="int" name="EXXOEP">     0</i>
   <i type="int" name="FOURORBIT">     0</i>
   <i name="AEXX">      0.00000000</i>
   <i name="HFALPHA">      0.00000000</i>
   <i name="MCALPHA">      0.00000000</i>
   <i name="ALDAX">      1.00000000</i>
   <i name="AGGAX">      1.00000000</i>
   <i name="ALDAC">      1.00000000</i>
   <i name="AGGAC">      1.00000000</i>
   <i type="int" name="NKREDX">     1</i>
   <i type="int" name="NKREDY">     1</i>
   <i type="int" name="NKREDZ">     1</i>
   <i type="logical" name="SHIFTRED"> F  </i>
   <i type="logical" name="ODDONLY"> F  </i>
   <i type="logical" name="EVENONLY"> F  </i>
   <i type="int" name="LMAXFOCK">     0</i>
   <i type="int" name="NMAXFOCKAE">     0</i>
   <i type="logical" name="LFOCKAEDFT"> F  </i>
   <i name="HFSCREEN">      0.00000000</i>
   <i name="HFSCREENC">      0.00000000</i>
   <i type="int" name="NBANDSGWLOW">     0</i>
  </separator>
  <separator name="vdW DFT" >
   <i type="logical" name="LUSE_VDW"> F  </i>
   <i name="Zab_VDW">     -0.84910000</i>
   <i name="PARAM1">      0.12340000</i>
   <i name="PARAM2">      1.00000000</i>
   <i name="PARAM3">      0.00000000</i>
  </separator>
  <separator name="model GW" >
   <i type="int" name="MODEL_GW">     0</i>
   <i name="MODEL_EPS0">      5.77950167</i>
   <i name="MODEL_ALPHA">      1.00000000</i>
  </separator>
  <separator name="linear response parameters" >
   <i type="logical" name="LEPSILON"> F  </i>
   <i type="logical" name="LRPA"> F  </i>
   <i type="logical" name="LNABLA"> F  </i>
   <i type="logical" name="LVEL"> F  </i>
   <i type="int" name="KINTER">     0</i>
   <i name="CSHIFT">      0.10000000</i>
   <i name="OMEGAMAX">     -1.00000000</i>
   <i name="DEG_THRESHOLD">      0.00200000</i>
   <i name="RTIME">     -0.10000000</i>
   <i name="WPLASMAI">      0.00000000</i>
   <v name="DFIELD">      0.00000000      0.00000000      0.00000000</v>
   <v name="WPLASMA">      0.00000000      0.00000000      0.00000000      0.00000000      0.00000000      0.00000000      0.00000000      0.00000000      0.00000000</v>
  </separator>
  <separator name="orbital magnetization" >
   <i type="logical" name="NUCIND"> F  </i>
   <v name="MAGPOS">      0.00000000      0.00000000      0.00000000</v>
   <i type="logical" name="LNICSALL"> T  </i>
   <i type="logical" name="ORBITALMAG"> F  </i>
   <i type="logical" name="LMAGBLOCH"> F  </i>
   <i type="logical" name="LCHIMAG"> F  </i>
   <i type="logical" name="LGAUGE"> T  </i>
   <i type="int" name="MAGATOM">     0</i>
   <v name="MAGDIPOL">      0.00000000      0.00000000      0.00000000</v>
   <v name="AVECCONST">      0.00000000      0.00000000      0.00000000</v>
  </separator>
  <separator name="response functions" >
   <i type="logical" name="LFINITE_TEMPERATURE"> F  </i>
   <i type="logical" name="LADDER"> F  </i>
   <i type="logical" name="LRPAFORCE"> F  </i>
   <i type="logical" name="LFXC"> F  </i>
   <i type="logical" name="LHARTREE"> T  </i>
   <i type="int" name="IBSE">     0</i>
   <v type="int" name="KPOINT">    -1     0     0     0</v>
   <i type="logical" name="LTCTC"> F  </i>
   <i type="logical" name="LTCTE"> F  </i>
   <i type="logical" name="LTETE"> F  </i>
   <i type="logical" name="LTRIPLET"> F  </i>
   <i type="logical" name="LFXCEPS"> F  </i>
   <i type="logical" name="LFXHEG"> F  </i>
   <i type="int" name="NATURALO">     2</i>
   <i type="logical" name="LHOLEGF"> F  </i>
   <i type="logical" name="L2ORDER"> F  </i>
   <i type="logical" name="LDMP1"> F  </i>
   <i type="logical" name="LMP2LT"> F  </i>
   <i type="logical" name="LSMP2LT"> F  </i>
   <i type="logical" name="LGWLF"> F  </i>
   <i name="ENCUTGW">     -2.00000000</i>
   <i name="ENCUTGWSOFT">     -2.00000000</i>
   <i name="ENCUTLF">     -1.00000000</i>
   <i type="logical" name="LESF_SPLINES"> F  </i>
   <i type="int" name="LMAXMP2">    -1</i>
   <i name="SCISSOR">      0.00000000</i>
   <i type="int" name="NOMEGA">     0</i>
   <i type="int" name="NOMEGAR">     0</i>
   <i type="int" name="NBANDSGW">    -1</i>
   <i type="int" name="NBANDSO">    -1</i>
   <i type="int" name="NBANDSV">    -1</i>
   <i type="int" name="NELM">     1</i>
   <i type="int" name="NELMHF">     1</i>
   <i type="int" name="DIM">     3</i>
   <i type="int" name="IESPILON">     4</i>
   <i type="int" name="ANTIRES">     0</i>
   <i name="OMEGAMAX">    -30.00000000</i>
   <i name="OMEGAMIN">    -30.00000000</i>
   <i name="OMEGATL">   -200.00000000</i>
   <i type="int" name="OMEGAGRID">     0</i>
   <i name="CSHIFT">     -0.10000000</i>
   <i type="logical" name="LSELFENERGY"> F  </i>
   <i type="logical" name="LSPECTRAL"> F  </i>
   <i type="logical" name="LSPECTRALGW"> F  </i>
   <i type="logical" name="LSINGLES"> F  </i>
   <i type="logical" name="LFERMIGW"> F  </i>
   <i type="logical" name="ODDONLYGW"> F  </i>
   <i type="logical" name="EVENONLYGW"> F  </i>
   <i type="int" name="NKREDLFX">     1</i>
   <i type="int" name="NKREDLFY">     1</i>
   <i type="int" name="NKREDLFZ">     1</i>
   <i type="int" name="MAXMEM">  2800</i>
   <i type="int" name="TELESCOPE">     0</i>
   <i type="int" name="NTAUPAR">    -1</i>
   <i type="int" name="NOMEGAPAR">    -1</i>
   <i name="DAMP_NEWTON">      0.80000001</i>
   <i name="LAMBDA">      1.00000000</i>
  </separator>
  <separator name="External order field" >
   <i name="OFIELD_KAPPA">      0.00000000</i>
   <v name="OFIELD_K">      0.00000000      0.00000000      0.00000000</v>
   <i name="OFIELD_Q6_NEAR">      0.00000000</i>
   <i name="OFIELD_Q6_FAR">      0.00000000</i>
   <i name="OFIELD_A">      0.00000000</i>
  </separator>
 </parameters>
 <atominfo>
  <atoms>       2 </atoms>
  <types>       1 </types>
  <array name="atoms" >
   <dimension dim="1">ion</dimension>
   <field type="string">element</field>
   <field type="int">atomtype</field>
   <set>
    <rc><c>Fe</c><c>   1</c></rc>
    <rc><c>Fe</c><c>   1</c></rc>
   </set>
  </array>
  <array name="atomtypes" >
   <dimension dim="1">type</dimension>
   <field type="int">atomspertype</field>
   <field type="string">element</field>
   <field>mass</field>
   <field>valence</field>
   <field type="string">pseudopotential</field>
   <set>
    <rc><c>   2</c><c>Fe</c><c>     55.84700000</c><c>      8.00000000</c><c>  PAW_PBE Fe 06Sep2000                  </c></rc>
   </set>
  </array>
 </atominfo>
 <structure name="initialpos" >
  <crystal>
   <varray name="basis" >
    <v>       2.30670000       0.00000000       0.00000000 </v>
    <v>      -1.15335000       1.99766080       0.00000000 </v>
    <v>       0.00000000       0.00000000       4.18077000 </v>
   </varray>
   <i name="volume">     19.26500557 </i>
   <varray name="rec_basis" >
    <v>       0.43351975       0.25029274       0.00000000 </v>
    <v>       0.00000000       0.50058549       0.00000000 </v>
    <v>       0.00000000       0.00000000       0.23919039 </v>
   </varray>
  </crystal>
  <varray name="positions" >
   <v>       0.00000000       0.00000000       0.00000000 </v>
   <v>       0.33333333       0.66666667       0.50000000 </v>
  </varray>
 </structure>
 <calculation>
  <scstep>
   <time name="dav">    0.79    0.81</time>
   <time name="total">    0.81    0.82</time>
   <energy>
    <i name="alphaZ">    143.50118040 </i>
    <i name="ewald">  -1248.87499765 </i>
    <i name="hartreedc">   -199.91529572 </i>
    <i name="XCdc">      8.86547946 </i>
    <i name="pawpsdc">   1109.69170683 </i>
    <i name="pawaedc">  -1125.09647265 </i>
    <i name="eentropy">     -0.00153770 </i>
    <i name="bandstr">    184.30511456 </i>
    <i name="atom">   1188.57490811 </i>
    <i name="e_fr_energy">     61.05008563 </i>
    <i name="e_wo_entrp">     61.05162333 </i>
    <i name="e_0_energy">     61.05059820 </i>
   </energy>
  </scstep>
  <scstep>
   <time name="dav">    0.69    0.69</time>
   <time name="total">    0.70    0.70</time>
   <energy>
    <i name="e_fr_energy">    -14.25958952 </i>
    <i name="e_wo_entrp">    -14.26465230 </i>
    <i name="e_0_energy">    -14.26127711 </i>
   </energy>
  </scstep>
  <scstep>
   <time name="dav">    0.79    0.79</time>
   <time name="total">    0.80    0.80</time>
   <energy>
    <i name="e_fr_energy">    -18.76823584 </i>
    <i name="e_wo_entrp">    -18.76834283 </i>
    <i name="e_0_energy">    -18.76827150 </i>
   </energy>
  </scstep>
  <scstep>
   <time name="dav">    0.75    0.75</time>
   <time name="total">    0.76    0.76</time>
   <energy>
    <i name="e_fr_energy">    -18.78710375 </i>
    <i name="e_wo_entrp">    -18.78716729 </i>
    <i name="e_0_energy">    -18.78712493 </i>
   </energy>
  </scstep>
  <scstep>
   <time name="dav">    0.76    0.76</time>
   <time name="total">    0.79    0.79</time>
   <energy>
    <i name="e_fr_energy">    -18.78712067 </i>
    <i name="e_wo_entrp">    -18.78718418 </i>
    <i name="e_0_energy">    -18.78714184 </i>
   </energy>
  </scstep>
  <scstep>
   <time name="dav">    0.91    0.91</time>
   <time name="total">    0.94    0.94</time>
   <energy>
    <i name="e_fr_energy">    -16.06633778 </i>
    <i name="e_wo_entrp">    -16.06848575 </i>
    <i name="e_0_energy">    -16.06705377 </i>
   </energy>
  </scstep>
  <scstep>
   <time name="dav">    0.81    0.81</time>
   <time name="total">    0.84    0.84</time>
   <energy>
    <i name="e_fr_energy">    -15.91475929 </i>
    <i name="e_wo_entrp">    -15.91677163 </i>
    <i name="e_0_energy">    -15.91543007 </i>
   </energy>
  </scstep>
  <scstep>
   <time name="dav">    0.83    0.83</time>
   <time name="total">    0.87    0.87</time>
   <energy>
    <i name="e_fr_energy">    -15.88390412 </i>
    <i name="e_wo_entrp">    -15.88599212 </i>
    <i name="e_0_energy">    -15.88460012 </i>
   </energy>
  </scstep>
  <scstep>
   <time name="dav">    0.87    0.87</time>
   <time name="total">    0.90    0.90</time>
   <energy>
    <i name="e_fr_energy">    -15.87513675 </i>
    <i name="e_wo_entrp">    -15.87724326 </i>
    <i name="e_0_energy">    -15.87583892 </i>
   </energy>
  </scstep>
  <scstep>
   <time name="dav">    0.73    0.73</time>
   <time name="total">    0.76    0.76</time>
   <energy>
    <i name="e_fr_energy">    -15.87517107 </i>
    <i name="e_wo_entrp">    -15.87727764 </i>
    <i name="e_0_energy">    -15.87587326 </i>
   </energy>
  </scstep>
  <scstep>
   <time name="dav">    0.74    0.74</time>
   <time name="total">    0.77    0.77</time>
   <energy>
    <i name="e_fr_energy">    -15.87515872 </i>
    <i name="e_wo_entrp">    -15.87726485 </i>
    <i name="e_0_energy">    -15.87586077 </i>
   </energy>
  </scstep>
  <scstep>
   <time name="dav">    0.59    0.59</time>
   <time name="total">    0.62    0.62</time>
   <energy>
    <i name="e_fr_energy">    -15.87515742 </i>
    <i name="e_wo_entrp">    -15.87726351 </i>
    <i name="e_0_energy">    -15.87585945 </i>
   </energy>
  </scstep>
  <scstep>
   <time name="dav">    0.54    0.54</time>
   <time name="total">    0.55    0.55</time>
   <energy>
    <i name="alphaZ">    143.50118040 </i>
    <i name="ewald">  -1248.87499765 </i>
    <i name="hartreedc">   -166.32527909 </i>
    <i name="XCdc">      7.29294381 </i>
    <i name="pawpsdc">   1550.74055878 </i>
    <i name="pawaedc">  -1568.87609013 </i>
    <i name="eentropy">      0.00210608 </i>
    <i name="bandstr">     78.08951190 </i>
    <i name="atom">   1188.57490811 </i>
    <i name="e_fr_energy">    -15.87515779 </i>
    <i name="e_wo_entrp">    -15.87726386 </i>
    <i name="e_0_energy">    -15.87585981 </i>
   </energy>
  </scstep>
  <structure>
   <crystal>
    <varray name="basis" >
     <v>       2.30670000       0.00000000       0.00000000 </v>
     <v>      -1.15335000       1.99766080       0.00000000 </v>
     <v>       0.00000000       0.00000000       4.18077000 </v>
    </varray>
    <i name="volume">     19.26500557 </i>
    <varray name="rec_basis" >
     <v>       0.43351975       0.25029274       0.00000000 </v>
     <v>       0.00000000       0.50058549       0.00000000 </v>
     <v>       0.00000000       0.00000000       0.23919039 </v>
    </varray>
   </crystal>
   <varray name="positions" >
    <v>       0.00000000       0.00000000       0.00000000 </v>
    <v>       0.33333333       0.66666667       0.50000000 </v>
   </varray>
  </structure>
  <varray name="forces" >
   <v>      -0.00000000       0.00000000      -0.00000000 </v>
   <v>       0.00000000      -0.00000000       0.00000000 </v>
  </varray>
  <varray name="stress" >
   <v>     451.44159685      -0.00000000       0.00000000 </v>
   <v>      -0.00000000     451.44159685       0.00000000 </v>
   <v>       0.00000000       0.00000000    -255.10881744 </v>
  </varray>
  <energy>
   <i name="e_fr_energy">    -15.87515779 </i>
   <i name="e_wo_entrp">    -15.87726386 </i>
   <i name="e_0_energy">    -15.87585981 </i>
  </energy>
  <time name="totalsc">   10.40   10.42</time>
  <eigenvalues>
   <array>
    <dimension dim="1">band</dimension>
    <dimension dim="2">kpoint</dimension>
    <dimension dim="3">spin</dimension>
    <field>eigene</field>
    <field>occ</field>
    <set>
     <set comment="spin 1">
      <set comment="kpoint 1">
       <r>   -1.6608    1.0000 </r>
       <r>    2.1962    1.0000 </r>
       <r>    4.9863    1.0000 </r>
       <r>    5.8623    1.0000 </r>
       <r>    5.8624    1.0000 </r>
       <r>    6.1580    1.0000 </r>
       <r>    6.1581    1.0000 </r>
       <r>    6.4936    1.0000 </r>
       <r>    7.3600    1.0302 </r>
       <r>    7.3600    1.0302 </r>
       <r>    8.3873   -0.0000 </r>
       <r>    8.3873   -0.0000 </r>
       <r>   14.9799    0.0000 </r>
       <r>   30.7326    0.0000 </r>
       <r>   31.8969    0.0000 </r>
       <r>   34.8303    0.0000 </r>
       <r>   37.9038    0.0000 </r>
       <r>   37.9593    0.0000 </r>
       <r>   37.9594    0.0000 </r>
       <r>   38.6895    0.0000 </r>
       <r>   38.6897    0.0000 </r>
       <r>   41.0914    0.0000 </r>
       <r>   41.0914    0.0000 </r>
       <r>   42.0789    0.0000 </r>
       <r>   44.8328    0.0000 </r>
       <r>   44.8328    0.0000 </r>
       <r>   45.3865    0.0000 </r>
       <r>   49.0799    0.0000 </r>
       <r>   49.0803    0.0000 </r>
       <r>   50.9817    0.0000 </r>
       <r>   50.9818    0.0000 </r>
       <r>   53.1722    0.0000 </r>
       <r>   60.6170    0.0000 </r>
       <r>   62.8311    0.0000 </r>
       <r>   62.8319    0.0000 </r>
       <r>   62.8904    0.0000 </r>
       <r>   63.8210    0.0000 </r>
       <r>   65.3596    0.0000 </r>
       <r>   65.3606    0.0000 </r>
       <r>   65.9348    0.0000 </r>
      </set>
      <set comment="kpoint 2">
       <r>   -1.3081    1.0000 </r>
       <r>    2.4710    1.0000 </r>
       <r>    5.0512    1.0000 </r>
       <r>    5.7148    1.0000 </r>
       <r>    5.7505    1.0000 </r>
       <r>    6.0260    1.0000 </r>
       <r>    6.0778    1.0000 </r>
       <r>    6.3611    1.0000 </r>
       <r>    7.1693    1.0077 </r>
       <r>    7.2410    1.0206 </r>
       <r>    8.4166   -0.0000 </r>
       <r>    9.4481   -0.0000 </r>
       <r>   15.0060    0.0000 </r>
       <r>   30.7440    0.0000 </r>
       <r>   31.1574    0.0000 </r>
       <r>   33.3890    0.0000 </r>
       <r>   35.0355    0.0000 </r>
       <r>   36.8033    0.0000 </r>
       <r>   37.0820    0.0000 </r>
       <r>   37.8222    0.0000 </r>
       <r>   40.4538    0.0000 </r>
       <r>   41.1714    0.0000 </r>
       <r>   41.8030    0.0000 </r>
       <r>   42.3968    0.0000 </r>
       <r>   46.1012    0.0000 </r>
       <r>   46.4151    0.0000 </r>
       <r>   46.4776    0.0000 </r>
       <r>   46.7599    0.0000 </r>
       <r>   50.0742    0.0000 </r>
       <r>   52.3063    0.0000 </r>
       <r>   53.5015    0.0000 </r>
       <r>   55.2397    0.0000 </r>
       <r>   59.6608    0.0000 </r>
       <r>   61.5851    0.0000 </r>
       <r>   61.7227    0.0000 </r>
       <r>   62.4465    0.0000 </r>
       <r>   62.5946    0.0000 </r>
       <r>   66.0910    0.0000 </r>
       <r>   66.2705    0.0000 </r>
       <r>   66.4552    0.0000 </r>
      </set>
      <set comment="kpoint 3">
       <r>   -0.3158    1.0000 </r>
       <r>    3.1124    1.0000 </r>
       <r>    4.6488    1.0000 </r>
       <r>    4.9781    1.0000 </r>
       <r>    5.4944    1.0000 </r>
       <r>    6.1009    1.0000 </r>
       <r>    6.6738    1.0000 </r>
       <r>    6.7221    1.0000 </r>
       <r>    6.9188    1.0000 </r>
       <r>    6.9570    1.0001 </r>
       <r>    8.4555   -0.0000 </r>
       <r>   11.2945   -0.0000 </r>
       <r>   15.1098    0.0000 </r>
       <r>   26.9954    0.0000 </r>
       <r>   31.9363    0.0000 </r>
       <r>   32.0608    0.0000 </r>
       <r>   32.0932    0.0000 </r>
       <r>   32.6315    0.0000 </r>
       <r>   37.1141    0.0000 </r>
       <r>   38.0837    0.0000 </r>
       <r>   38.4981    0.0000 </r>
       <r>   39.4801    0.0000 </r>
       <r>   42.6132    0.0000 </r>
       <r>   43.3081    0.0000 </r>
       <r>   46.5922    0.0000 </r>
       <r>   47.5695    0.0000 </r>
       <r>   48.8853    0.0000 </r>
       <r>   51.1196    0.0000 </r>
       <r>   52.9954    0.0000 </r>
       <r>   55.3234    0.0000 </r>
       <r>   56.1625    0.0000 </r>
       <r>   58.2534    0.0000 </r>
       <r>   58.5777    0.0000 </r>
       <r>   58.9330    0.0000 </r>
       <r>   60.0039    0.0000 </r>
       <r>   61.2709    0.0000 </r>
       <r>   63.5637    0.0000 </r>
       <r>   66.3855    0.0000 </r>
       <r>   66.5063    0.0000 </r>
       <r>   67.2812    0.0000 </r>
      </set>
      <set comment="kpoint 4">
       <r>    1.0696    1.0000 </r>
       <r>    3.3829    1.0000 </r>
       <r>    3.8099    1.0000 </r>
       <r>    4.9952    1.0000 </r>
       <r>    5.3024    1.0000 </r>
       <r>    6.1695    1.0000 </r>
       <r>    6.6352    1.0000 </r>
       <r>    6.9273    1.0000 </r>
       <r>    7.5229    0.6998 </r>
       <r>    7.7016    0.0588 </r>
       <r>    8.4681   -0.0000 </r>
       <r>   13.4112    0.0000 </r>
       <r>   15.3588    0.0000 </r>
       <r>   22.8724    0.0000 </r>
       <r>   28.3839    0.0000 </r>
       <r>   29.5272    0.0000 </r>
       <r>   30.3325    0.0000 </r>
       <r>   32.8080    0.0000 </r>
       <r>   35.5636    0.0000 </r>
       <r>   37.8385    0.0000 </r>
       <r>   38.7728    0.0000 </r>
       <r>   38.8639    0.0000 </r>
       <r>   40.0612    0.0000 </r>
       <r>   43.3194    0.0000 </r>
       <r>   50.2799    0.0000 </r>
       <r>   51.4101    0.0000 </r>
       <r>   52.5380    0.0000 </r>
       <r>   53.3440    0.0000 </r>
       <r>   53.6754    0.0000 </r>
       <r>   55.9459    0.0000 </r>
       <r>   57.0427    0.0000 </r>
       <r>   58.9483    0.0000 </r>
       <r>   59.6451    0.0000 </r>
       <r>   59.9883    0.0000 </r>
       <r>   61.3331    0.0000 </r>
       <r>   63.7982    0.0000 </r>
       <r>   64.4767    0.0000 </r>
       <r>   66.3197    0.0000 </r>
       <r>   67.1064    0.0000 </r>
       <r>   67.9814    0.0000 </r>
      </set>
      <set comment="kpoint 5">
       <r>    2.2384    1.0000 </r>
       <r>    3.0712    1.0000 </r>
       <r>    3.2547    1.0000 </r>
       <r>    5.1363    1.0000 </r>
       <r>    5.6794    1.0000 </r>
       <r>    5.8585    1.0000 </r>
       <r>    6.3676    1.0000 </r>
       <r>    8.3051   -0.0000 </r>
       <r>    8.3822   -0.0000 </r>
       <r>    8.4564   -0.0000 </r>
       <r>    8.4894   -0.0000 </r>
       <r>   15.3993    0.0000 </r>
       <r>   15.6859    0.0000 </r>
       <r>   19.7637    0.0000 </r>
       <r>   24.9598    0.0000 </r>
       <r>   27.3528    0.0000 </r>
       <r>   27.5900    0.0000 </r>
       <r>   32.1481    0.0000 </r>
       <r>   34.6252    0.0000 </r>
       <r>   37.9071    0.0000 </r>
       <r>   38.3257    0.0000 </r>
       <r>   39.6568    0.0000 </r>
       <r>   39.7157    0.0000 </r>
       <r>   43.2812    0.0000 </r>
       <r>   50.2314    0.0000 </r>
       <r>   52.2400    0.0000 </r>
       <r>   53.5078    0.0000 </r>
       <r>   56.6927    0.0000 </r>
       <r>   56.7748    0.0000 </r>
       <r>   56.9050    0.0000 </r>
       <r>   58.3905    0.0000 </r>
       <r>   60.5205    0.0000 </r>
       <r>   60.9618    0.0000 </r>
       <r>   61.4096    0.0000 </r>
       <r>   63.3909    0.0000 </r>
       <r>   64.8210    0.0000 </r>
       <r>   66.1773    0.0000 </r>
       <r>   67.0675    0.0000 </r>
       <r>   67.3462    0.0000 </r>
       <r>   68.6714    0.0000 </r>
      </set>
      <set comment="kpoint 6">
       <r>    2.6073    1.0000 </r>
       <r>    2.8370    1.0000 </r>
       <r>    2.9826    1.0000 </r>
       <r>    5.3945    1.0000 </r>
       <r>    5.7687    1.0000 </r>
       <r>    6.1232    1.0000 </r>
       <r>    6.2184    1.0000 </r>
       <r>    8.4431   -0.0000 </r>
       <r>    8.9193   -0.0000 </r>
       <r>    9.0178   -0.0000 </r>
       <r>   10.1354   -0.0000 </r>
       <r>   13.7277    0.0000 </r>
       <r>   17.8476    0.0000 </r>
       <r>   19.5347    0.0000 </r>
       <r>   22.2393    0.0000 </r>
       <r>   24.5223    0.0000 </r>
       <r>   26.5051    0.0000 </r>
       <r>   31.5468    0.0000 </r>
       <r>   34.3163    0.0000 </r>
       <r>   36.7010    0.0000 </r>
       <r>   38.1221    0.0000 </r>
       <r>   40.6795    0.0000 </r>
       <r>   42.2406    0.0000 </r>
       <r>   42.5526    0.0000 </r>
       <r>   46.8280    0.0000 </r>
       <r>   52.6866    0.0000 </r>
       <r>   54.1244    0.0000 </r>
       <r>   57.6719    0.0000 </r>
       <r>   59.1153    0.0000 </r>
       <r>   59.8957    0.0000 </r>
       <r>   60.8254    0.0000 </r>
       <r>   61.8037    0.0000 </r>
       <r>   61.8539    0.0000 </r>
       <r>   63.3285    0.0000 </r>
       <r>   64.5838    0.0000 </r>
       <r>   65.9151    0.0000 </r>
       <r>   66.9702    0.0000 </r>
       <r>   67.1181    0.0000 </r>
       <r>   69.0660    0.0000 </r>
       <r>   69.7057    0.0000 </r>
      </set>
      <set comment="kpoint 7">
       <r>   -0.6323    1.0000 </r>
       <r>    2.9524    1.0000 </r>
       <r>    4.9300    1.0000 </r>
       <r>    4.9928    1.0000 </r>
       <r>    5.7333    1.0000 </r>
       <r>    5.7741    1.0000 </r>
       <r>    6.5149    1.0000 </r>
       <r>    6.7384    1.0000 </r>
       <r>    6.7925    1.0000 </r>
       <r>    7.1764    1.0086 </r>
       <r>    8.4094   -0.0000 </r>
       <r>   10.7775   -0.0000 </r>
       <r>   15.0747    0.0000 </r>
       <r>   28.7450    0.0000 </r>
       <r>   30.1794    0.0000 </r>
       <r>   31.8580    0.0000 </r>
       <r>   33.8969    0.0000 </r>
       <r>   35.8376    0.0000 </r>
       <r>   35.9399    0.0000 </r>
       <r>   37.0280    0.0000 </r>
       <r>   37.6459    0.0000 </r>
       <r>   43.1311    0.0000 </r>
       <r>   43.4552    0.0000 </r>
       <r>   44.2065    0.0000 </r>
       <r>   44.9611    0.0000 </r>
       <r>   45.5125    0.0000 </r>
       <r>   45.8324    0.0000 </r>
       <r>   51.7497    0.0000 </r>
       <r>   53.7259    0.0000 </r>
       <r>   54.1142    0.0000 </r>
       <r>   54.2938    0.0000 </r>
       <r>   57.8711    0.0000 </r>
       <r>   58.6453    0.0000 </r>
       <r>   59.4207    0.0000 </r>
       <r>   60.6641    0.0000 </r>
       <r>   61.3509    0.0000 </r>
       <r>   62.8168    0.0000 </r>
       <r>   66.1681    0.0000 </r>
       <r>   66.9289    0.0000 </r>
       <r>   67.4600    0.0000 </r>
      </set>
      <set comment="kpoint 8">
       <r>    0.5882    1.0000 </r>
       <r>    3.5551    1.0000 </r>
       <r>    4.1144    1.0000 </r>
       <r>    4.7243    1.0000 </r>
       <r>    5.4065    1.0000 </r>
       <r>    6.2069    1.0000 </r>
       <r>    6.2269    1.0000 </r>
       <r>    6.8890    1.0000 </r>
       <r>    7.2972    1.0327 </r>
       <r>    7.5991    0.3850 </r>
       <r>    8.3844   -0.0000 </r>
       <r>   12.6721   -0.0000 </r>
       <r>   15.2975    0.0000 </r>
       <r>   24.9909    0.0000 </r>
       <r>   27.7234    0.0000 </r>
       <r>   30.2750    0.0000 </r>
       <r>   32.2898    0.0000 </r>
       <r>   33.2607    0.0000 </r>
       <r>   35.7321    0.0000 </r>
       <r>   36.3081    0.0000 </r>
       <r>   37.5140    0.0000 </r>
       <r>   42.0257    0.0000 </r>
       <r>   42.4450    0.0000 </r>
       <r>   44.0412    0.0000 </r>
       <r>   47.0448    0.0000 </r>
       <r>   47.8473    0.0000 </r>
       <r>   50.1012    0.0000 </r>
       <r>   53.7849    0.0000 </r>
       <r>   55.3651    0.0000 </r>
       <r>   56.2475    0.0000 </r>
       <r>   56.7749    0.0000 </r>
       <r>   58.7103    0.0000 </r>
       <r>   59.3097    0.0000 </r>
       <r>   59.6762    0.0000 </r>
       <r>   60.9632    0.0000 </r>
       <r>   61.3061    0.0000 </r>
       <r>   63.7035    0.0000 </r>
       <r>   66.4472    0.0000 </r>
       <r>   67.5304    0.0000 </r>
       <r>   68.0314    0.0000 </r>
      </set>
      <set comment="kpoint 9">
       <r>    1.9739    1.0000 </r>
       <r>    3.4454    1.0000 </r>
       <r>    3.5067    1.0000 </r>
       <r>    4.8383    1.0000 </r>
       <r>    5.5124    1.0000 </r>
       <r>    5.7801    1.0000 </r>
       <r>    6.4928    1.0000 </r>
       <r>    7.0883    1.0017 </r>
       <r>    8.1482   -0.0002 </r>
       <r>    8.3516   -0.0000 </r>
       <r>    8.6463   -0.0000 </r>
       <r>   14.8468    0.0000 </r>
       <r>   15.7058    0.0000 </r>
       <r>   21.1455    0.0000 </r>
       <r>   25.9563    0.0000 </r>
       <r>   26.7711    0.0000 </r>
       <r>   29.7993    0.0000 </r>
       <r>   31.3113    0.0000 </r>
       <r>   35.5792    0.0000 </r>
       <r>   36.9591    0.0000 </r>
       <r>   37.2252    0.0000 </r>
       <r>   41.1686    0.0000 </r>
       <r>   41.7419    0.0000 </r>
       <r>   44.8794    0.0000 </r>
       <r>   49.0290    0.0000 </r>
       <r>   51.4945    0.0000 </r>
       <r>   52.5998    0.0000 </r>
       <r>   52.6362    0.0000 </r>
       <r>   55.3011    0.0000 </r>
       <r>   57.2261    0.0000 </r>
       <r>   57.7494    0.0000 </r>
       <r>   60.4101    0.0000 </r>
       <r>   61.4212    0.0000 </r>
       <r>   61.4933    0.0000 </r>
       <r>   62.6210    0.0000 </r>
       <r>   64.3369    0.0000 </r>
       <r>   66.2963    0.0000 </r>
       <r>   67.1959    0.0000 </r>
       <r>   67.2034    0.0000 </r>
       <r>   67.9186    0.0000 </r>
      </set>
      <set comment="kpoint 10">
       <r>    2.7504    1.0000 </r>
       <r>    3.1087    1.0000 </r>
       <r>    3.1478    1.0000 </r>
       <r>    5.3038    1.0000 </r>
       <r>    5.4735    1.0000 </r>
       <r>    5.9670    1.0000 </r>
       <r>    6.1693    1.0000 </r>
       <r>    8.1428   -0.0002 </r>
       <r>    8.3195   -0.0000 </r>
       <r>    8.7232   -0.0000 </r>
       <r>    9.9501   -0.0000 </r>
       <r>   15.1412    0.0000 </r>
       <r>   17.1437    0.0000 </r>
       <r>   19.3850    0.0000 </r>
       <r>   23.6473    0.0000 </r>
       <r>   24.5105    0.0000 </r>
       <r>   26.4849    0.0000 </r>
       <r>   30.4074    0.0000 </r>
       <r>   34.6733    0.0000 </r>
       <r>   36.4885    0.0000 </r>
       <r>   38.9454    0.0000 </r>
       <r>   41.3932    0.0000 </r>
       <r>   42.1858    0.0000 </r>
       <r>   44.0383    0.0000 </r>
       <r>   48.8622    0.0000 </r>
       <r>   51.6437    0.0000 </r>
       <r>   52.9716    0.0000 </r>
       <r>   54.9023    0.0000 </r>
       <r>   56.8500    0.0000 </r>
       <r>   58.5755    0.0000 </r>
       <r>   59.9937    0.0000 </r>
       <r>   61.3940    0.0000 </r>
       <r>   62.0293    0.0000 </r>
       <r>   64.2687    0.0000 </r>
       <r>   64.8752    0.0000 </r>
       <r>   65.8094    0.0000 </r>
       <r>   65.9995    0.0000 </r>
       <r>   67.8768    0.0000 </r>
       <r>   67.9647    0.0000 </r>
       <r>   69.6023    0.0000 </r>
      </set>
      <set comment="kpoint 11">
       <r>    2.8219    1.0000 </r>
       <r>    3.0300    1.0000 </r>
       <r>    3.0311    1.0000 </r>
       <r>    5.3656    1.0000 </r>
       <r>    5.7863    1.0000 </r>
       <r>    6.0469    1.0000 </r>
       <r>    6.0472    1.0000 </r>
       <r>    8.3066   -0.0000 </r>
       <r>    8.7570   -0.0000 </r>
       <r>    8.7898   -0.0000 </r>
       <r>   11.2331   -0.0000 </r>
       <r>   13.4997    0.0000 </r>
       <r>   18.7099    0.0000 </r>
       <r>   19.9834    0.0000 </r>
       <r>   21.8114    0.0000 </r>
       <r>   23.4623    0.0000 </r>
       <r>   25.1219    0.0000 </r>
       <r>   30.0908    0.0000 </r>
       <r>   34.2770    0.0000 </r>
       <r>   36.3477    0.0000 </r>
       <r>   39.3925    0.0000 </r>
       <r>   42.0619    0.0000 </r>
       <r>   42.9741    0.0000 </r>
       <r>   43.5905    0.0000 </r>
       <r>   46.6811    0.0000 </r>
       <r>   52.6662    0.0000 </r>
       <r>   53.1286    0.0000 </r>
       <r>   55.2760    0.0000 </r>
       <r>   59.0839    0.0000 </r>
       <r>   59.2633    0.0000 </r>
       <r>   62.0082    0.0000 </r>
       <r>   62.1362    0.0000 </r>
       <r>   62.2185    0.0000 </r>
       <r>   62.9808    0.0000 </r>
       <r>   64.2560    0.0000 </r>
       <r>   66.9347    0.0000 </r>
       <r>   67.9470    0.0000 </r>
       <r>   67.9567    0.0000 </r>
       <r>   67.9688    0.0000 </r>
       <r>   69.5578    0.0000 </r>
      </set>
      <set comment="kpoint 12">
       <r>    1.9035    1.0000 </r>
       <r>    3.6564    1.0000 </r>
       <r>    4.0585    1.0000 </r>
       <r>    4.2343    1.0000 </r>
       <r>    5.4798    1.0000 </r>
       <r>    5.7313    1.0000 </r>
       <r>    6.4659    1.0000 </r>
       <r>    6.6148    1.0000 </r>
       <r>    8.1197   -0.0004 </r>
       <r>    8.2333   -0.0000 </r>
       <r>    8.7277   -0.0000 </r>
       <r>   14.5849    0.0000 </r>
       <r>   15.8395    0.0000 </r>
       <r>   22.9337    0.0000 </r>
       <r>   23.7834    0.0000 </r>
       <r>   28.3405    0.0000 </r>
       <r>   29.8237    0.0000 </r>
       <r>   32.2359    0.0000 </r>
       <r>   32.8001    0.0000 </r>
       <r>   36.5942    0.0000 </r>
       <r>   39.0613    0.0000 </r>
       <r>   43.2135    0.0000 </r>
       <r>   44.0321    0.0000 </r>
       <r>   45.8406    0.0000 </r>
       <r>   46.8351    0.0000 </r>
       <r>   48.8461    0.0000 </r>
       <r>   49.6884    0.0000 </r>
       <r>   53.8834    0.0000 </r>
       <r>   56.1862    0.0000 </r>
       <r>   56.2501    0.0000 </r>
       <r>   56.7584    0.0000 </r>
       <r>   60.8077    0.0000 </r>
       <r>   61.0152    0.0000 </r>
       <r>   63.2241    0.0000 </r>
       <r>   63.6159    0.0000 </r>
       <r>   64.0844    0.0000 </r>
       <r>   64.3606    0.0000 </r>
       <r>   66.7270    0.0000 </r>
       <r>   67.2785    0.0000 </r>
       <r>   69.1522    0.0000 </r>
      </set>
      <set comment="kpoint 13">
       <r>    3.1203    1.0000 </r>
       <r>    3.3773    1.0000 </r>
       <r>    3.7029    1.0000 </r>
       <r>    4.5190    1.0000 </r>
       <r>    5.4251    1.0000 </r>
       <r>    5.8019    1.0000 </r>
       <r>    6.1624    1.0000 </r>
       <r>    7.1173    1.0030 </r>
       <r>    8.1035   -0.0006 </r>
       <r>    8.6329   -0.0000 </r>
       <r>   10.1356   -0.0000 </r>
       <r>   16.5596    0.0000 </r>
       <r>   16.8176    0.0000 </r>
       <r>   19.8722    0.0000 </r>
       <r>   22.0732    0.0000 </r>
       <r>   25.6259    0.0000 </r>
       <r>   28.1758    0.0000 </r>
       <r>   28.5883    0.0000 </r>
       <r>   31.5216    0.0000 </r>
       <r>   38.9187    0.0000 </r>
       <r>   39.5546    0.0000 </r>
       <r>   43.0820    0.0000 </r>
       <r>   45.2381    0.0000 </r>
       <r>   47.0132    0.0000 </r>
       <r>   47.6112    0.0000 </r>
       <r>   49.7154    0.0000 </r>
       <r>   50.9364    0.0000 </r>
       <r>   51.9621    0.0000 </r>
       <r>   55.3008    0.0000 </r>
       <r>   56.6387    0.0000 </r>
       <r>   59.2163    0.0000 </r>
       <r>   61.5498    0.0000 </r>
       <r>   62.4972    0.0000 </r>
       <r>   64.1228    0.0000 </r>
       <r>   65.7416    0.0000 </r>
       <r>   65.8119    0.0000 </r>
       <r>   67.3588    0.0000 </r>
       <r>   67.5031    0.0000 </r>
       <r>   69.0804    0.0000 </r>
       <r>   70.1952    0.0000 </r>
      </set>
      <set comment="kpoint 14">
       <r>    3.2601    1.0000 </r>
       <r>    3.3812    1.0000 </r>
       <r>    3.5528    1.0000 </r>
       <r>    5.1070    1.0000 </r>
       <r>    5.3576    1.0000 </r>
       <r>    5.7568    1.0000 </r>
       <r>    6.1046    1.0000 </r>
       <r>    7.9232   -0.0161 </r>
       <r>    8.0302   -0.0028 </r>
       <r>    8.5987   -0.0000 </r>
       <r>   11.8449   -0.0000 </r>
       <r>   15.0231    0.0000 </r>
       <r>   19.1058    0.0000 </r>
       <r>   20.0206    0.0000 </r>
       <r>   21.1209    0.0000 </r>
       <r>   22.8643    0.0000 </r>
       <r>   25.5200    0.0000 </r>
       <r>   27.5522    0.0000 </r>
       <r>   30.8642    0.0000 </r>
       <r>   39.6425    0.0000 </r>
       <r>   41.2617    0.0000 </r>
       <r>   43.1806    0.0000 </r>
       <r>   44.3395    0.0000 </r>
       <r>   45.5902    0.0000 </r>
       <r>   49.3514    0.0000 </r>
       <r>   50.0802    0.0000 </r>
       <r>   51.5931    0.0000 </r>
       <r>   53.0036    0.0000 </r>
       <r>   56.7318    0.0000 </r>
       <r>   57.8705    0.0000 </r>
       <r>   58.8101    0.0000 </r>
       <r>   61.4574    0.0000 </r>
       <r>   62.4123    0.0000 </r>
       <r>   62.4353    0.0000 </r>
       <r>   66.6741    0.0000 </r>
       <r>   67.3076    0.0000 </r>
       <r>   68.5393    0.0000 </r>
       <r>   68.8955    0.0000 </r>
       <r>   68.9874    0.0000 </r>
       <r>   69.3771    0.0000 </r>
      </set>
      <set comment="kpoint 15">
       <r>    3.4202    1.0000 </r>
       <r>    3.8693    1.0000 </r>
       <r>    4.2116    1.0000 </r>
       <r>    4.2265    1.0000 </r>
       <r>    5.2519    1.0000 </r>
       <r>    5.6942    1.0000 </r>
       <r>    6.1289    1.0000 </r>
       <r>    7.4058    0.9972 </r>
       <r>    7.8837   -0.0249 </r>
       <r>    8.5512   -0.0000 </r>
       <r>   12.0045   -0.0000 </r>
       <r>   17.1795    0.0000 </r>
       <r>   17.8783    0.0000 </r>
       <r>   19.1485    0.0000 </r>
       <r>   20.7348    0.0000 </r>
       <r>   24.9264    0.0000 </r>
       <r>   25.0606    0.0000 </r>
       <r>   27.3379    0.0000 </r>
       <r>   28.1742    0.0000 </r>
       <r>   40.6879    0.0000 </r>
       <r>   41.5647    0.0000 </r>
       <r>   46.0751    0.0000 </r>
       <r>   46.8692    0.0000 </r>
       <r>   47.1054    0.0000 </r>
       <r>   47.3938    0.0000 </r>
       <r>   48.0895    0.0000 </r>
       <r>   50.8019    0.0000 </r>
       <r>   53.2621    0.0000 </r>
       <r>   53.4950    0.0000 </r>
       <r>   58.0290    0.0000 </r>
       <r>   58.0463    0.0000 </r>
       <r>   60.6579    0.0000 </r>
       <r>   62.3479    0.0000 </r>
       <r>   62.5535    0.0000 </r>
       <r>   66.7376    0.0000 </r>
       <r>   67.6249    0.0000 </r>
       <r>   67.8303    0.0000 </r>
       <r>   68.6317    0.0000 </r>
       <r>   68.9678    0.0000 </r>
       <r>   71.0403    0.0000 </r>
      </set>
      <set comment="kpoint 16">
       <r>    3.4793    1.0000 </r>
       <r>    3.9835    1.0000 </r>
       <r>    4.0879    1.0000 </r>
       <r>    4.6210    1.0000 </r>
       <r>    5.3312    1.0000 </r>
       <r>    5.3351    1.0000 </r>
       <r>    6.2814    1.0000 </r>
       <r>    7.7992   -0.0341 </r>
       <r>    7.8288   -0.0349 </r>
       <r>    8.1762   -0.0001 </r>
       <r>   13.8488    0.0000 </r>
       <r>   15.2425    0.0000 </r>
       <r>   17.4895    0.0000 </r>
       <r>   21.1910    0.0000 </r>
       <r>   21.7009    0.0000 </r>
       <r>   22.6900    0.0000 </r>
       <r>   24.7598    0.0000 </r>
       <r>   25.5501    0.0000 </r>
       <r>   27.5675    0.0000 </r>
       <r>   41.0398    0.0000 </r>
       <r>   44.2189    0.0000 </r>
       <r>   44.8597    0.0000 </r>
       <r>   46.1830    0.0000 </r>
       <r>   46.4266    0.0000 </r>
       <r>   47.9935    0.0000 </r>
       <r>   49.3091    0.0000 </r>
       <r>   52.6665    0.0000 </r>
       <r>   53.3939    0.0000 </r>
       <r>   53.5870    0.0000 </r>
       <r>   56.9290    0.0000 </r>
       <r>   58.0329    0.0000 </r>
       <r>   58.7405    0.0000 </r>
       <r>   61.6559    0.0000 </r>
       <r>   61.9633    0.0000 </r>
       <r>   66.6005    0.0000 </r>
       <r>   67.9033    0.0000 </r>
       <r>   68.7902    0.0000 </r>
       <r>   68.8155    0.0000 </r>
       <r>   69.8150    0.0000 </r>
       <r>   70.4418    0.0000 </r>
      </set>
      <set comment="kpoint 17">
       <r>   -1.5808    1.0000 </r>
       <r>    2.1629    1.0000 </r>
       <r>    4.9663    1.0000 </r>
       <r>    5.8571    1.0000 </r>
       <r>    5.8571    1.0000 </r>
       <r>    6.1433    1.0000 </r>
       <r>    6.1434    1.0000 </r>
       <r>    6.2885    1.0000 </r>
       <r>    7.3931    1.0101 </r>
       <r>    7.3932    1.0101 </r>
       <r>    8.3768   -0.0000 </r>
       <r>    8.3768   -0.0000 </r>
       <r>   15.3425    0.0000 </r>
       <r>   30.0516    0.0000 </r>
       <r>   32.0255    0.0000 </r>
       <r>   34.6705    0.0000 </r>
       <r>   38.0001    0.0000 </r>
       <r>   38.0001    0.0000 </r>
       <r>   38.4181    0.0000 </r>
       <r>   38.6954    0.0000 </r>
       <r>   38.6955    0.0000 </r>
       <r>   41.0411    0.0000 </r>
       <r>   41.0411    0.0000 </r>
       <r>   42.3337    0.0000 </r>
       <r>   44.5372    0.0000 </r>
       <r>   44.5373    0.0000 </r>
       <r>   45.5835    0.0000 </r>
       <r>   49.3118    0.0000 </r>
       <r>   49.3122    0.0000 </r>
       <r>   51.3558    0.0000 </r>
       <r>   51.3560    0.0000 </r>
       <r>   52.9787    0.0000 </r>
       <r>   59.7832    0.0000 </r>
       <r>   62.6286    0.0000 </r>
       <r>   62.6294    0.0000 </r>
       <r>   63.0580    0.0000 </r>
       <r>   63.8940    0.0000 </r>
       <r>   63.8945    0.0000 </r>
       <r>   64.3163    0.0000 </r>
       <r>   64.7410    0.0000 </r>
      </set>
      <set comment="kpoint 18">
       <r>   -1.2300    1.0000 </r>
       <r>    2.4415    1.0000 </r>
       <r>    5.0364    1.0000 </r>
       <r>    5.5686    1.0000 </r>
       <r>    5.7301    1.0000 </r>
       <r>    6.0461    1.0000 </r>
       <r>    6.0694    1.0000 </r>
       <r>    6.3448    1.0000 </r>
       <r>    7.2119    1.0145 </r>
       <r>    7.2791    1.0293 </r>
       <r>    8.4014   -0.0000 </r>
       <r>    9.3049   -0.0000 </r>
       <r>   15.4041    0.0000 </r>
       <r>   30.3224    0.0000 </r>
       <r>   30.9836    0.0000 </r>
       <r>   33.3475    0.0000 </r>
       <r>   35.1003    0.0000 </r>
       <r>   36.2642    0.0000 </r>
       <r>   37.5717    0.0000 </r>
       <r>   38.2636    0.0000 </r>
       <r>   40.1938    0.0000 </r>
       <r>   41.2852    0.0000 </r>
       <r>   41.8465    0.0000 </r>
       <r>   42.5634    0.0000 </r>
       <r>   45.7828    0.0000 </r>
       <r>   46.0121    0.0000 </r>
       <r>   47.1665    0.0000 </r>
       <r>   47.2236    0.0000 </r>
       <r>   49.9382    0.0000 </r>
       <r>   52.5002    0.0000 </r>
       <r>   53.7717    0.0000 </r>
       <r>   55.0850    0.0000 </r>
       <r>   58.4349    0.0000 </r>
       <r>   61.2696    0.0000 </r>
       <r>   62.0570    0.0000 </r>
       <r>   62.5433    0.0000 </r>
       <r>   63.0562    0.0000 </r>
       <r>   64.6058    0.0000 </r>
       <r>   65.0089    0.0000 </r>
       <r>   66.2992    0.0000 </r>
      </set>
      <set comment="kpoint 19">
       <r>   -0.2457    1.0000 </r>
       <r>    3.0952    1.0000 </r>
       <r>    4.5748    1.0000 </r>
       <r>    4.9916    1.0000 </r>
       <r>    5.4642    1.0000 </r>
       <r>    6.0400    1.0000 </r>
       <r>    6.6420    1.0000 </r>
       <r>    6.8220    1.0000 </r>
       <r>    6.8781    1.0000 </r>
       <r>    7.0486    1.0007 </r>
       <r>    8.4362   -0.0000 </r>
       <r>   10.9493   -0.0000 </r>
       <r>   15.6386    0.0000 </r>
       <r>   27.0503    0.0000 </r>
       <r>   31.1081    0.0000 </r>
       <r>   32.0495    0.0000 </r>
       <r>   32.1472    0.0000 </r>
       <r>   32.7197    0.0000 </r>
       <r>   36.7795    0.0000 </r>
       <r>   38.4941    0.0000 </r>
       <r>   39.0112    0.0000 </r>
       <r>   39.0530    0.0000 </r>
       <r>   42.9638    0.0000 </r>
       <r>   43.7417    0.0000 </r>
       <r>   46.8100    0.0000 </r>
       <r>   47.4824    0.0000 </r>
       <r>   48.6880    0.0000 </r>
       <r>   51.1470    0.0000 </r>
       <r>   52.6719    0.0000 </r>
       <r>   55.4813    0.0000 </r>
       <r>   56.4560    0.0000 </r>
       <r>   57.0641    0.0000 </r>
       <r>   58.1177    0.0000 </r>
       <r>   59.5271    0.0000 </r>
       <r>   60.1182    0.0000 </r>
       <r>   61.6477    0.0000 </r>
       <r>   63.4887    0.0000 </r>
       <r>   65.4289    0.0000 </r>
       <r>   65.9746    0.0000 </r>
       <r>   67.9479    0.0000 </r>
      </set>
      <set comment="kpoint 20">
       <r>    1.1158    1.0000 </r>
       <r>    3.3714    1.0000 </r>
       <r>    3.7970    1.0000 </r>
       <r>    4.9822    1.0000 </r>
       <r>    5.2812    1.0000 </r>
       <r>    6.1859    1.0000 </r>
       <r>    6.6560    1.0000 </r>
       <r>    6.9711    1.0001 </r>
       <r>    7.5310    0.6681 </r>
       <r>    7.6888    0.0866 </r>
       <r>    8.4455   -0.0000 </r>
       <r>   12.7032   -0.0000 </r>
       <r>   16.1964    0.0000 </r>
       <r>   22.9345    0.0000 </r>
       <r>   28.0106    0.0000 </r>
       <r>   29.6332    0.0000 </r>
       <r>   30.5485    0.0000 </r>
       <r>   32.5503    0.0000 </r>
       <r>   35.2886    0.0000 </r>
       <r>   37.3675    0.0000 </r>
       <r>   37.8760    0.0000 </r>
       <r>   39.8025    0.0000 </r>
       <r>   40.9707    0.0000 </r>
       <r>   43.8556    0.0000 </r>
       <r>   50.3671    0.0000 </r>
       <r>   50.7973    0.0000 </r>
       <r>   51.9004    0.0000 </r>
       <r>   52.1620    0.0000 </r>
       <r>   55.3300    0.0000 </r>
       <r>   56.1070    0.0000 </r>
       <r>   57.2947    0.0000 </r>
       <r>   58.9476    0.0000 </r>
       <r>   59.1250    0.0000 </r>
       <r>   59.7904    0.0000 </r>
       <r>   61.7852    0.0000 </r>
       <r>   63.2160    0.0000 </r>
       <r>   64.8609    0.0000 </r>
       <r>   66.1272    0.0000 </r>
       <r>   66.3886    0.0000 </r>
       <r>   68.2806    0.0000 </r>
      </set>
      <set comment="kpoint 21">
       <r>    2.2216    1.0000 </r>
       <r>    3.0218    1.0000 </r>
       <r>    3.3605    1.0000 </r>
       <r>    4.8943    1.0000 </r>
       <r>    5.8089    1.0000 </r>
       <r>    6.0459    1.0000 </r>
       <r>    6.4018    1.0000 </r>
       <r>    8.2665   -0.0000 </r>
       <r>    8.3433   -0.0000 </r>
       <r>    8.3971   -0.0000 </r>
       <r>    8.5434   -0.0000 </r>
       <r>   14.1401    0.0000 </r>
       <r>   16.9805    0.0000 </r>
       <r>   19.8492    0.0000 </r>
       <r>   24.6259    0.0000 </r>
       <r>   27.7098    0.0000 </r>
       <r>   27.7122    0.0000 </r>
       <r>   32.1155    0.0000 </r>
       <r>   34.5430    0.0000 </r>
       <r>   36.6304    0.0000 </r>
       <r>   37.9831    0.0000 </r>
       <r>   39.6429    0.0000 </r>
       <r>   41.1374    0.0000 </r>
       <r>   43.8017    0.0000 </r>
       <r>   49.1340    0.0000 </r>
       <r>   53.2084    0.0000 </r>
       <r>   53.3926    0.0000 </r>
       <r>   55.7512    0.0000 </r>
       <r>   56.0357    0.0000 </r>
       <r>   58.0994    0.0000 </r>
       <r>   58.6086    0.0000 </r>
       <r>   60.3796    0.0000 </r>
       <r>   61.3586    0.0000 </r>
       <r>   61.4126    0.0000 </r>
       <r>   63.4424    0.0000 </r>
       <r>   64.7685    0.0000 </r>
       <r>   65.8375    0.0000 </r>
       <r>   66.4007    0.0000 </r>
       <r>   68.3509    0.0000 </r>
       <r>   68.7124    0.0000 </r>
      </set>
      <set comment="kpoint 22">
       <r>    2.5481    1.0000 </r>
       <r>    2.7044    1.0000 </r>
       <r>    3.2248    1.0000 </r>
       <r>    4.9572    1.0000 </r>
       <r>    5.9877    1.0000 </r>
       <r>    6.2557    1.0000 </r>
       <r>    6.4447    1.0000 </r>
       <r>    8.3862   -0.0000 </r>
       <r>    8.9209   -0.0000 </r>
       <r>    9.0179   -0.0000 </r>
       <r>   10.0411   -0.0000 </r>
       <r>   13.5166    0.0000 </r>
       <r>   17.7917    0.0000 </r>
       <r>   19.5594    0.0000 </r>
       <r>   22.3428    0.0000 </r>
       <r>   24.8615    0.0000 </r>
       <r>   26.6319    0.0000 </r>
       <r>   31.5564    0.0000 </r>
       <r>   34.2767    0.0000 </r>
       <r>   35.7431    0.0000 </r>
       <r>   39.1070    0.0000 </r>
       <r>   39.5921    0.0000 </r>
       <r>   41.3438    0.0000 </r>
       <r>   44.3180    0.0000 </r>
       <r>   46.7749    0.0000 </r>
       <r>   53.3482    0.0000 </r>
       <r>   53.5788    0.0000 </r>
       <r>   56.7312    0.0000 </r>
       <r>   58.9993    0.0000 </r>
       <r>   60.1772    0.0000 </r>
       <r>   61.4922    0.0000 </r>
       <r>   61.7451    0.0000 </r>
       <r>   61.8525    0.0000 </r>
       <r>   63.3618    0.0000 </r>
       <r>   64.8544    0.0000 </r>
       <r>   66.0360    0.0000 </r>
       <r>   66.5723    0.0000 </r>
       <r>   67.7932    0.0000 </r>
       <r>   69.0846    0.0000 </r>
       <r>   69.1822    0.0000 </r>
      </set>
      <set comment="kpoint 23">
       <r>   -0.5590    1.0000 </r>
       <r>    2.9314    1.0000 </r>
       <r>    4.8374    1.0000 </r>
       <r>    5.0018    1.0000 </r>
       <r>    5.6610    1.0000 </r>
       <r>    5.7922    1.0000 </r>
       <r>    6.4945    1.0000 </r>
       <r>    6.7247    1.0000 </r>
       <r>    6.8759    1.0000 </r>
       <r>    7.2157    1.0152 </r>
       <r>    8.3933   -0.0000 </r>
       <r>   10.4965   -0.0000 </r>
       <r>   15.5566    0.0000 </r>
       <r>   28.7822    0.0000 </r>
       <r>   30.2287    0.0000 </r>
       <r>   31.1996    0.0000 </r>
       <r>   33.5284    0.0000 </r>
       <r>   35.9932    0.0000 </r>
       <r>   36.3498    0.0000 </r>
       <r>   36.4298    0.0000 </r>
       <r>   38.4472    0.0000 </r>
       <r>   43.1443    0.0000 </r>
       <r>   43.4172    0.0000 </r>
       <r>   44.2720    0.0000 </r>
       <r>   44.6128    0.0000 </r>
       <r>   46.0019    0.0000 </r>
       <r>   46.3289    0.0000 </r>
       <r>   51.5897    0.0000 </r>
       <r>   53.3016    0.0000 </r>
       <r>   54.3913    0.0000 </r>
       <r>   54.6315    0.0000 </r>
       <r>   57.1343    0.0000 </r>
       <r>   57.5290    0.0000 </r>
       <r>   60.3180    0.0000 </r>
       <r>   60.7274    0.0000 </r>
       <r>   61.7851    0.0000 </r>
       <r>   62.8174    0.0000 </r>
       <r>   64.8842    0.0000 </r>
       <r>   66.2322    0.0000 </r>
       <r>   67.8464    0.0000 </r>
      </set>
      <set comment="kpoint 24">
       <r>    0.6471    1.0000 </r>
       <r>    3.5493    1.0000 </r>
       <r>    4.0655    1.0000 </r>
       <r>    4.7459    1.0000 </r>
       <r>    5.3801    1.0000 </r>
       <r>    5.9847    1.0000 </r>
       <r>    6.4894    1.0000 </r>
       <r>    6.8565    1.0000 </r>
       <r>    7.3505    1.0329 </r>
       <r>    7.5802    0.4641 </r>
       <r>    8.3684   -0.0000 </r>
       <r>   12.1278   -0.0000 </r>
       <r>   15.9915    0.0000 </r>
       <r>   25.0502    0.0000 </r>
       <r>   27.7803    0.0000 </r>
       <r>   29.9857    0.0000 </r>
       <r>   31.7565    0.0000 </r>
       <r>   33.5969    0.0000 </r>
       <r>   34.8256    0.0000 </r>
       <r>   36.8259    0.0000 </r>
       <r>   37.9962    0.0000 </r>
       <r>   41.9864    0.0000 </r>
       <r>   42.5921    0.0000 </r>
       <r>   44.5604    0.0000 </r>
       <r>   46.8919    0.0000 </r>
       <r>   47.8145    0.0000 </r>
       <r>   50.2649    0.0000 </r>
       <r>   52.9445    0.0000 </r>
       <r>   55.3091    0.0000 </r>
       <r>   56.0374    0.0000 </r>
       <r>   57.3917    0.0000 </r>
       <r>   58.6224    0.0000 </r>
       <r>   58.8035    0.0000 </r>
       <r>   60.0812    0.0000 </r>
       <r>   60.6972    0.0000 </r>
       <r>   61.8234    0.0000 </r>
       <r>   63.8095    0.0000 </r>
       <r>   65.6843    0.0000 </r>
       <r>   66.8316    0.0000 </r>
       <r>   67.9464    0.0000 </r>
      </set>
      <set comment="kpoint 25">
       <r>    1.9923    1.0000 </r>
       <r>    3.3979    1.0000 </r>
       <r>    3.5613    1.0000 </r>
       <r>    4.7977    1.0000 </r>
       <r>    5.4715    1.0000 </r>
       <r>    5.8925    1.0000 </r>
       <r>    6.5031    1.0000 </r>
       <r>    7.1057    1.0024 </r>
       <r>    8.1626   -0.0001 </r>
       <r>    8.2758   -0.0000 </r>
       <r>    8.6780   -0.0000 </r>
       <r>   13.7996    0.0000 </r>
       <r>   16.8537    0.0000 </r>
       <r>   21.2135    0.0000 </r>
       <r>   25.9428    0.0000 </r>
       <r>   26.5490    0.0000 </r>
       <r>   30.0406    0.0000 </r>
       <r>   31.1527    0.0000 </r>
       <r>   35.4765    0.0000 </r>
       <r>   36.1723    0.0000 </r>
       <r>   37.5441    0.0000 </r>
       <r>   41.2691    0.0000 </r>
       <r>   42.2827    0.0000 </r>
       <r>   45.3617    0.0000 </r>
       <r>   48.6523    0.0000 </r>
       <r>   50.2005    0.0000 </r>
       <r>   52.3671    0.0000 </r>
       <r>   54.0342    0.0000 </r>
       <r>   55.4540    0.0000 </r>
       <r>   56.6505    0.0000 </r>
       <r>   58.2543    0.0000 </r>
       <r>   60.4233    0.0000 </r>
       <r>   60.8424    0.0000 </r>
       <r>   61.9032    0.0000 </r>
       <r>   62.9276    0.0000 </r>
       <r>   64.2224    0.0000 </r>
       <r>   65.6822    0.0000 </r>
       <r>   66.7611    0.0000 </r>
       <r>   67.3554    0.0000 </r>
       <r>   68.0354    0.0000 </r>
      </set>
      <set comment="kpoint 26">
       <r>    2.6743    1.0000 </r>
       <r>    3.0150    1.0000 </r>
       <r>    3.3666    1.0000 </r>
       <r>    4.8919    1.0000 </r>
       <r>    5.8747    1.0000 </r>
       <r>    5.9670    1.0000 </r>
       <r>    6.2725    1.0000 </r>
       <r>    8.1296   -0.0003 </r>
       <r>    8.2579   -0.0000 </r>
       <r>    8.7370   -0.0000 </r>
       <r>    9.9329   -0.0000 </r>
       <r>   14.5999    0.0000 </r>
       <r>   17.5024    0.0000 </r>
       <r>   19.6124    0.0000 </r>
       <r>   23.3370    0.0000 </r>
       <r>   24.7467    0.0000 </r>
       <r>   26.8171    0.0000 </r>
       <r>   30.2319    0.0000 </r>
       <r>   34.8670    0.0000 </r>
       <r>   36.3286    0.0000 </r>
       <r>   38.1919    0.0000 </r>
       <r>   40.7354    0.0000 </r>
       <r>   43.2939    0.0000 </r>
       <r>   44.4829    0.0000 </r>
       <r>   48.4628    0.0000 </r>
       <r>   51.2822    0.0000 </r>
       <r>   53.1721    0.0000 </r>
       <r>   55.4270    0.0000 </r>
       <r>   57.2389    0.0000 </r>
       <r>   58.3453    0.0000 </r>
       <r>   59.8874    0.0000 </r>
       <r>   61.3207    0.0000 </r>
       <r>   62.0021    0.0000 </r>
       <r>   63.9218    0.0000 </r>
       <r>   65.4060    0.0000 </r>
       <r>   65.6284    0.0000 </r>
       <r>   66.3168    0.0000 </r>
       <r>   67.2021    0.0000 </r>
       <r>   68.1665    0.0000 </r>
       <r>   69.8301    0.0000 </r>
      </set>
      <set comment="kpoint 27">
       <r>    2.7564    1.0000 </r>
       <r>    2.8350    1.0000 </r>
       <r>    3.3520    1.0000 </r>
       <r>    4.9483    1.0000 </r>
       <r>    5.9044    1.0000 </r>
       <r>    6.2435    1.0000 </r>
       <r>    6.2470    1.0000 </r>
       <r>    8.2436   -0.0000 </r>
       <r>    8.7515   -0.0000 </r>
       <r>    8.7876   -0.0000 </r>
       <r>   11.1668   -0.0000 </r>
       <r>   13.4108    0.0000 </r>
       <r>   18.5928    0.0000 </r>
       <r>   19.5841    0.0000 </r>
       <r>   22.3678    0.0000 </r>
       <r>   23.6838    0.0000 </r>
       <r>   25.3027    0.0000 </r>
       <r>   29.9051    0.0000 </r>
       <r>   34.4571    0.0000 </r>
       <r>   36.2805    0.0000 </r>
       <r>   39.0019    0.0000 </r>
       <r>   40.4443    0.0000 </r>
       <r>   43.2234    0.0000 </r>
       <r>   45.4322    0.0000 </r>
       <r>   46.5201    0.0000 </r>
       <r>   51.6514    0.0000 </r>
       <r>   53.6786    0.0000 </r>
       <r>   55.9821    0.0000 </r>
       <r>   59.1298    0.0000 </r>
       <r>   59.2299    0.0000 </r>
       <r>   61.8353    0.0000 </r>
       <r>   61.8455    0.0000 </r>
       <r>   62.0533    0.0000 </r>
       <r>   63.3430    0.0000 </r>
       <r>   63.8761    0.0000 </r>
       <r>   67.5184    0.0000 </r>
       <r>   67.5923    0.0000 </r>
       <r>   68.1841    0.0000 </r>
       <r>   68.3906    0.0000 </r>
       <r>   69.4856    0.0000 </r>
      </set>
      <set comment="kpoint 28">
       <r>    1.9368    1.0000 </r>
       <r>    3.6127    1.0000 </r>
       <r>    4.0910    1.0000 </r>
       <r>    4.2530    1.0000 </r>
       <r>    5.4744    1.0000 </r>
       <r>    5.6701    1.0000 </r>
       <r>    6.5721    1.0000 </r>
       <r>    6.5944    1.0000 </r>
       <r>    8.1543   -0.0002 </r>
       <r>    8.1547   -0.0001 </r>
       <r>    8.7596   -0.0000 </r>
       <r>   13.6818    0.0000 </r>
       <r>   16.8572    0.0000 </r>
       <r>   22.9995    0.0000 </r>
       <r>   23.8601    0.0000 </r>
       <r>   28.0672    0.0000 </r>
       <r>   29.4531    0.0000 </r>
       <r>   32.6314    0.0000 </r>
       <r>   32.9401    0.0000 </r>
       <r>   35.7951    0.0000 </r>
       <r>   39.7117    0.0000 </r>
       <r>   43.7434    0.0000 </r>
       <r>   43.9606    0.0000 </r>
       <r>   45.5979    0.0000 </r>
       <r>   46.1726    0.0000 </r>
       <r>   49.5112    0.0000 </r>
       <r>   49.5241    0.0000 </r>
       <r>   54.0037    0.0000 </r>
       <r>   54.7708    0.0000 </r>
       <r>   56.5506    0.0000 </r>
       <r>   58.2072    0.0000 </r>
       <r>   60.7645    0.0000 </r>
       <r>   60.9715    0.0000 </r>
       <r>   62.8620    0.0000 </r>
       <r>   62.9278    0.0000 </r>
       <r>   64.5541    0.0000 </r>
       <r>   64.8648    0.0000 </r>
       <r>   66.4065    0.0000 </r>
       <r>   67.2953    0.0000 </r>
       <r>   67.3497    0.0000 </r>
      </set>
      <set comment="kpoint 29">
       <r>    3.0657    1.0000 </r>
       <r>    3.4136    1.0000 </r>
       <r>    3.7294    1.0000 </r>
       <r>    4.5075    1.0000 </r>
       <r>    5.4553    1.0000 </r>
       <r>    5.7918    1.0000 </r>
       <r>    6.1893    1.0000 </r>
       <r>    7.1496    1.0055 </r>
       <r>    8.0356   -0.0025 </r>
       <r>    8.6610   -0.0000 </r>
       <r>   10.1507   -0.0000 </r>
       <r>   15.3280    0.0000 </r>
       <r>   18.0707    0.0000 </r>
       <r>   19.9914    0.0000 </r>
       <r>   22.1416    0.0000 </r>
       <r>   25.2992    0.0000 </r>
       <r>   27.8220    0.0000 </r>
       <r>   29.0218    0.0000 </r>
       <r>   31.9156    0.0000 </r>
       <r>   37.4078    0.0000 </r>
       <r>   40.4842    0.0000 </r>
       <r>   43.3838    0.0000 </r>
       <r>   44.7837    0.0000 </r>
       <r>   47.1661    0.0000 </r>
       <r>   47.5651    0.0000 </r>
       <r>   48.8273    0.0000 </r>
       <r>   52.0474    0.0000 </r>
       <r>   52.1356    0.0000 </r>
       <r>   54.9656    0.0000 </r>
       <r>   57.2922    0.0000 </r>
       <r>   59.2923    0.0000 </r>
       <r>   61.5519    0.0000 </r>
       <r>   62.4366    0.0000 </r>
       <r>   64.0624    0.0000 </r>
       <r>   65.5921    0.0000 </r>
       <r>   65.9466    0.0000 </r>
       <r>   66.5763    0.0000 </r>
       <r>   67.8660    0.0000 </r>
       <r>   68.5086    0.0000 </r>
       <r>   69.3097    0.0000 </r>
      </set>
      <set comment="kpoint 30">
       <r>    3.1374    1.0000 </r>
       <r>    3.4061    1.0000 </r>
       <r>    3.7194    1.0000 </r>
       <r>    4.8117    1.0000 </r>
       <r>    5.5796    1.0000 </r>
       <r>    5.7046    1.0000 </r>
       <r>    6.2369    1.0000 </r>
       <r>    7.9297   -0.0148 </r>
       <r>    7.9596   -0.0097 </r>
       <r>    8.6168   -0.0000 </r>
       <r>   11.8587   -0.0000 </r>
       <r>   14.9076    0.0000 </r>
       <r>   18.6929    0.0000 </r>
       <r>   20.4088    0.0000 </r>
       <r>   21.0468    0.0000 </r>
       <r>   23.0299    0.0000 </r>
       <r>   25.9067    0.0000 </r>
       <r>   27.1908    0.0000 </r>
       <r>   31.3192    0.0000 </r>
       <r>   38.8581    0.0000 </r>
       <r>   40.7976    0.0000 </r>
       <r>   42.4539    0.0000 </r>
       <r>   45.2279    0.0000 </r>
       <r>   46.3552    0.0000 </r>
       <r>   48.9430    0.0000 </r>
       <r>   49.2417    0.0000 </r>
       <r>   52.4722    0.0000 </r>
       <r>   53.7561    0.0000 </r>
       <r>   56.9562    0.0000 </r>
       <r>   57.6935    0.0000 </r>
       <r>   58.9205    0.0000 </r>
       <r>   61.4665    0.0000 </r>
       <r>   61.9111    0.0000 </r>
       <r>   62.9519    0.0000 </r>
       <r>   66.3102    0.0000 </r>
       <r>   66.9729    0.0000 </r>
       <r>   68.1179    0.0000 </r>
       <r>   68.5847    0.0000 </r>
       <r>   68.7841    0.0000 </r>
       <r>   69.6368    0.0000 </r>
      </set>
      <set comment="kpoint 31">
       <r>    3.4126    1.0000 </r>
       <r>    3.8838    1.0000 </r>
       <r>    4.1470    1.0000 </r>
       <r>    4.2783    1.0000 </r>
       <r>    5.3165    1.0000 </r>
       <r>    5.6107    1.0000 </r>
       <r>    6.1680    1.0000 </r>
       <r>    7.4493    0.9253 </r>
       <r>    7.8122   -0.0354 </r>
       <r>    8.5783   -0.0000 </r>
       <r>   12.0414   -0.0000 </r>
       <r>   16.7475    0.0000 </r>
       <r>   17.9494    0.0000 </r>
       <r>   19.2783    0.0000 </r>
       <r>   21.0785    0.0000 </r>
       <r>   24.6310    0.0000 </r>
       <r>   24.6802    0.0000 </r>
       <r>   27.8741    0.0000 </r>
       <r>   28.6397    0.0000 </r>
       <r>   39.1293    0.0000 </r>
       <r>   42.4286    0.0000 </r>
       <r>   45.2455    0.0000 </r>
       <r>   45.4175    0.0000 </r>
       <r>   47.8091    0.0000 </r>
       <r>   48.0348    0.0000 </r>
       <r>   48.9903    0.0000 </r>
       <r>   51.5854    0.0000 </r>
       <r>   53.1293    0.0000 </r>
       <r>   53.4547    0.0000 </r>
       <r>   58.1500    0.0000 </r>
       <r>   58.3326    0.0000 </r>
       <r>   60.7163    0.0000 </r>
       <r>   61.8739    0.0000 </r>
       <r>   63.0054    0.0000 </r>
       <r>   66.6742    0.0000 </r>
       <r>   67.4940    0.0000 </r>
       <r>   67.6714    0.0000 </r>
       <r>   68.8842    0.0000 </r>
       <r>   69.0432    0.0000 </r>
       <r>   70.5640    0.0000 </r>
      </set>
      <set comment="kpoint 32">
       <r>    3.4804    1.0000 </r>
       <r>    4.0028    1.0000 </r>
       <r>    4.1257    1.0000 </r>
       <r>    4.5533    1.0000 </r>
       <r>    5.2998    1.0000 </r>
       <r>    5.3572    1.0000 </r>
       <r>    6.3057    1.0000 </r>
       <r>    7.7257    0.0179 </r>
       <r>    7.8612   -0.0299 </r>
       <r>    8.2086   -0.0000 </r>
       <r>   13.9177    0.0000 </r>
       <r>   15.2323    0.0000 </r>
       <r>   17.4876    0.0000 </r>
       <r>   21.0083    0.0000 </r>
       <r>   21.0083    0.0000 </r>
       <r>   23.2390    0.0000 </r>
       <r>   24.6279    0.0000 </r>
       <r>   25.9389    0.0000 </r>
       <r>   28.0781    0.0000 </r>
       <r>   40.0346    0.0000 </r>
       <r>   42.9032    0.0000 </r>
       <r>   44.9991    0.0000 </r>
       <r>   45.5225    0.0000 </r>
       <r>   47.6833    0.0000 </r>
       <r>   48.5107    0.0000 </r>
       <r>   50.3468    0.0000 </r>
       <r>   52.3617    0.0000 </r>
       <r>   53.6323    0.0000 </r>
       <r>   53.8476    0.0000 </r>
       <r>   56.7130    0.0000 </r>
       <r>   57.8923    0.0000 </r>
       <r>   58.9942    0.0000 </r>
       <r>   61.7369    0.0000 </r>
       <r>   61.9942    0.0000 </r>
       <r>   66.5089    0.0000 </r>
       <r>   67.8087    0.0000 </r>
       <r>   68.5382    0.0000 </r>
       <r>   68.9511    0.0000 </r>
       <r>   69.8543    0.0000 </r>
       <r>   70.5143    0.0000 </r>
      </set>
      <set comment="kpoint 33">
       <r>   -1.3440    1.0000 </r>
       <r>    2.0437    1.0000 </r>
       <r>    4.9104    1.0000 </r>
       <r>    5.8002    1.0000 </r>
       <r>    5.8453    1.0000 </r>
       <r>    5.8453    1.0000 </r>
       <r>    6.1023    1.0000 </r>
       <r>    6.1023    1.0000 </r>
       <r>    7.4847    0.8321 </r>
       <r>    7.4848    0.8321 </r>
       <r>    8.3402   -0.0000 </r>
       <r>    8.3402   -0.0000 </r>
       <r>   16.3198    0.0000 </r>
[...]
       <r>   23.2139    0.0000 </r>
       <r>   23.9393    0.0000 </r>
       <r>   27.6804    0.0000 </r>
       <r>   28.7716    0.0000 </r>
       <r>   33.6088    0.0000 </r>
       <r>   34.6666    0.0000 </r>
       <r>   37.2091    0.0000 </r>
       <r>   38.7743    0.0000 </r>
       <r>   44.2480    0.0000 </r>
       <r>   44.6540    0.0000 </r>
       <r>   53.8514    0.0000 </r>
       <r>   54.6192    0.0000 </r>
       <r>   54.9108    0.0000 </r>
       <r>   56.0035    0.0000 </r>
       <r>   58.0228    0.0000 </r>
       <r>   59.1345    0.0000 </r>
       <r>   59.3428    0.0000 </r>
       <r>   59.9026    0.0000 </r>
       <r>   61.8929    0.0000 </r>
       <r>   62.4546    0.0000 </r>
       <r>   64.5627    0.0000 </r>
       <r>   65.0662    0.0000 </r>
       <r>   67.0276    0.0000 </r>
       <r>   67.1612    0.0000 </r>
       <r>   68.0778    0.0000 </r>
       <r>   68.6390    0.0000 </r>
      </set>
      <set comment="kpoint 95">
       <r>    3.4410    1.0000 </r>
       <r>    3.5112    1.0000 </r>
       <r>    4.4607    1.0000 </r>
       <r>    4.6794    1.0000 </r>
       <r>    5.1370    1.0000 </r>
       <r>    5.3463    1.0000 </r>
       <r>    6.5747    1.0000 </r>
       <r>    6.7778    1.0000 </r>
       <r>    8.3919   -0.0000 </r>
       <r>    8.5978   -0.0000 </r>
       <r>   12.9206   -0.0000 </r>
       <r>   13.4334    0.0000 </r>
       <r>   19.4124    0.0000 </r>
       <r>   19.8416    0.0000 </r>
       <r>   21.2864    0.0000 </r>
       <r>   21.6934    0.0000 </r>
       <r>   27.8732    0.0000 </r>
       <r>   29.4462    0.0000 </r>
       <r>   33.6842    0.0000 </r>
       <r>   35.0430    0.0000 </r>
       <r>   36.8492    0.0000 </r>
       <r>   37.9530    0.0000 </r>
       <r>   46.7753    0.0000 </r>
       <r>   47.2153    0.0000 </r>
       <r>   51.1233    0.0000 </r>
       <r>   51.1940    0.0000 </r>
       <r>   56.1429    0.0000 </r>
       <r>   58.0427    0.0000 </r>
       <r>   58.2661    0.0000 </r>
       <r>   58.8528    0.0000 </r>
       <r>   60.5386    0.0000 </r>
       <r>   60.6306    0.0000 </r>
       <r>   60.9482    0.0000 </r>
       <r>   61.0655    0.0000 </r>
       <r>   63.2328    0.0000 </r>
       <r>   63.7656    0.0000 </r>
       <r>   66.7819    0.0000 </r>
       <r>   66.9896    0.0000 </r>
       <r>   67.8939    0.0000 </r>
       <r>   67.9455    0.0000 </r>
      </set>
      <set comment="kpoint 96">
       <r>    3.6675    1.0000 </r>
       <r>    3.8032    1.0000 </r>
       <r>    4.4084    1.0000 </r>
       <r>    4.5104    1.0000 </r>
       <r>    5.1133    1.0000 </r>
       <r>    5.2595    1.0000 </r>
       <r>    6.6155    1.0000 </r>
       <r>    6.7664    1.0000 </r>
       <r>    8.3765   -0.0000 </r>
       <r>    8.4498   -0.0000 </r>
       <r>   14.8295    0.0000 </r>
       <r>   14.9808    0.0000 </r>
       <r>   17.6517    0.0000 </r>
       <r>   17.9851    0.0000 </r>
       <r>   20.6264    0.0000 </r>
       <r>   21.0638    0.0000 </r>
       <r>   29.6247    0.0000 </r>
       <r>   30.3795    0.0000 </r>
       <r>   32.6867    0.0000 </r>
       <r>   32.9553    0.0000 </r>
       <r>   36.5505    0.0000 </r>
       <r>   37.3645    0.0000 </r>
       <r>   47.9886    0.0000 </r>
       <r>   48.6221    0.0000 </r>
       <r>   52.8088    0.0000 </r>
       <r>   53.2722    0.0000 </r>
       <r>   55.4946    0.0000 </r>
       <r>   55.9212    0.0000 </r>
       <r>   57.9528    0.0000 </r>
       <r>   58.3859    0.0000 </r>
       <r>   60.2552    0.0000 </r>
       <r>   60.8497    0.0000 </r>
       <r>   61.0014    0.0000 </r>
       <r>   61.5850    0.0000 </r>
       <r>   62.8803    0.0000 </r>
       <r>   64.0770    0.0000 </r>
       <r>   65.6242    0.0000 </r>
       <r>   65.9662    0.0000 </r>
       <r>   69.3294    0.0000 </r>
       <r>   69.5201    0.0000 </r>
      </set>
     </set>
    </set>
   </array>
  </eigenvalues>
  <separator name="orbital magnetization" >
   <v name="MAGDIPOLOUT">      0.00000000      0.00000000      0.00000000</v>
  </separator>
  <dos>
   <i name="efermi">      7.57166487 </i>
   <total>
    <array>
     <dimension dim="1">gridpoints</dimension>
     <dimension dim="2">spin</dimension>
     <field>energy</field>
     <field>total</field>
     <field>integrated</field>
     <set>
      <set comment="spin 1">
       <r>    -5.2958     0.0000     0.0000 </r>
       <r>    -5.0293     0.0000     0.0000 </r>
       <r>    -4.7627     0.0000     0.0000 </r>
       <r>    -4.4961     0.0000     0.0000 </r>
       <r>    -4.2296     0.0000     0.0000 </r>
       <r>    -3.9630     0.0000     0.0000 </r>
       <r>    -3.6964     0.0000     0.0000 </r>
       <r>    -3.4298    -0.0000    -0.0000 </r>
       <r>    -3.1633    -0.0000    -0.0000 </r>
       <r>    -2.8967    -0.0000    -0.0000 </r>
       <r>    -2.6301    -0.0000    -0.0000 </r>
       <r>    -2.3636    -0.0000    -0.0000 </r>
       <r>    -2.0970    -0.0000    -0.0000 </r>
       <r>    -1.8304    -0.0004    -0.0001 </r>
       <r>    -1.5638     0.0088     0.0022 </r>
       <r>    -1.2973     0.0488     0.0152 </r>
       <r>    -1.0307     0.1020     0.0424 </r>
       <r>    -0.7641     0.0542     0.0569 </r>
       <r>    -0.4976     0.1420     0.0948 </r>
       <r>    -0.2310     0.1674     0.1394 </r>
       <r>     0.0356     0.1993     0.1925 </r>
       <r>     0.3021     0.0851     0.2152 </r>
       <r>     0.5687     0.2027     0.2692 </r>
       <r>     0.8353     0.3046     0.3504 </r>
       <r>     1.1019     0.2971     0.4296 </r>
       <r>     1.3684     0.3127     0.5130 </r>
       <r>     1.6350     0.2503     0.5797 </r>
       <r>     1.9016     0.3392     0.6701 </r>
       <r>     2.1681     0.8635     0.9003 </r>
       <r>     2.4347     1.4245     1.2801 </r>
       <r>     2.7013     1.7685     1.7515 </r>
       <r>     2.9679     2.3722     2.3838 </r>
       <r>     3.2344     2.4632     3.0405 </r>
       <r>     3.5010     2.7047     3.7614 </r>
       <r>     3.7676     2.2608     4.3641 </r>
       <r>     4.0341     2.7195     5.0890 </r>
       <r>     4.3007     2.9268     5.8692 </r>
       <r>     4.5673     3.2160     6.7265 </r>
       <r>     4.8339     2.5147     7.3969 </r>
       <r>     5.1004     2.1896     7.9806 </r>
       <r>     5.3670     2.7507     8.7138 </r>
       <r>     5.6336     3.7791     9.7212 </r>
       <r>     5.9001     3.3959    10.6265 </r>
       <r>     6.1667     3.4928    11.5576 </r>
       <r>     6.4333     2.9278    12.3380 </r>
       <r>     6.6998     3.3829    13.2398 </r>
       <r>     6.9664     3.2612    14.1091 </r>
       <r>     7.2330     3.1808    14.9570 </r>
       <r>     7.4996     3.1495    15.7966 </r>
       <r>     7.7661     2.7860    16.5393 </r>
       <r>     8.0327     3.4667    17.4634 </r>
       <r>     8.2993     4.4628    18.6530 </r>
       <r>     8.5658     4.1093    19.7484 </r>
       <r>     8.8324     3.9041    20.7892 </r>
       <r>     9.0990     1.6516    21.2294 </r>
       <r>     9.3656     0.2521    21.2966 </r>
       <r>     9.6321     0.5198    21.4352 </r>
       <r>     9.8987     0.5049    21.5698 </r>
       <r>    10.1653     0.7348    21.7657 </r>
       <r>    10.4318     0.8648    21.9962 </r>
       <r>    10.6984     0.4242    22.1093 </r>
       <r>    10.9650     0.3503    22.2027 </r>
       <r>    11.2316     0.4498    22.3226 </r>
       <r>    11.4981     0.4169    22.4337 </r>
       <r>    11.7647     0.3259    22.5206 </r>
       <r>    12.0313     0.5939    22.6789 </r>
       <r>    12.2978     0.5597    22.8281 </r>
       <r>    12.5644     0.4574    22.9500 </r>
       <r>    12.8310     0.4599    23.0727 </r>
       <r>    13.0975     0.3879    23.1761 </r>
       <r>    13.3641     0.1186    23.2077 </r>
       <r>    13.6307     0.4432    23.3258 </r>
       <r>    13.8973     0.3034    23.4067 </r>
       <r>    14.1638     0.4453    23.5254 </r>
       <r>    14.4304     0.1561    23.5670 </r>
       <r>    14.6970     0.3255    23.6538 </r>
       <r>    14.9635     0.3719    23.7529 </r>
       <r>    15.2301     0.5661    23.9038 </r>
       <r>    15.4967     0.4215    24.0162 </r>
       <r>    15.7633     0.2106    24.0723 </r>
       <r>    16.0298     0.2087    24.1279 </r>
       <r>    16.2964     0.1102    24.1573 </r>
       <r>    16.5630     0.0991    24.1837 </r>
       <r>    16.8295     0.3030    24.2645 </r>
       <r>    17.0961     0.3139    24.3482 </r>
       <r>    17.3627     0.1497    24.3881 </r>
       <r>    17.6293     0.5258    24.5283 </r>
       <r>    17.8958     0.6158    24.6924 </r>
       <r>    18.1624     0.9870    24.9555 </r>
       <r>    18.4290     0.8736    25.1884 </r>
       <r>    18.6955     0.6644    25.3655 </r>
       <r>    18.9621     0.3756    25.4656 </r>
       <r>    19.2287     0.6305    25.6337 </r>
       <r>    19.4952     0.6544    25.8081 </r>
       <r>    19.7618     0.6636    25.9850 </r>
       <r>    20.0284     0.8204    26.2037 </r>
       <r>    20.2950     0.8569    26.4322 </r>
       <r>    20.5615     0.6893    26.6159 </r>
       <r>    20.8281     0.3101    26.6986 </r>
       <r>    21.0947     0.6519    26.8724 </r>
       <r>    21.3612     0.7400    27.0696 </r>
       <r>    21.6278     0.7203    27.2616 </r>
       <r>    21.8944     0.5414    27.4060 </r>
       <r>    22.1610     0.4802    27.5340 </r>
       <r>    22.4275     0.7040    27.7216 </r>
       <r>    22.6941     0.4177    27.8330 </r>
       <r>    22.9607     0.6162    27.9972 </r>
       <r>    23.2272     0.8214    28.2162 </r>
       <r>    23.4938     0.5936    28.3745 </r>
       <r>    23.7604     0.5541    28.5222 </r>
       <r>    24.0270     0.7661    28.7264 </r>
       <r>    24.2935     0.4303    28.8411 </r>
       <r>    24.5601     0.6996    29.0275 </r>
       <r>    24.8267     1.3473    29.3867 </r>
       <r>    25.0932     0.8633    29.6168 </r>
       <r>    25.3598     0.6406    29.7876 </r>
       <r>    25.6264     0.8399    30.0115 </r>
       <r>    25.8929     0.8736    30.2444 </r>
       <r>    26.1595     0.7716    30.4501 </r>
       <r>    26.4261     0.8937    30.6883 </r>
       <r>    26.6927     0.9616    30.9446 </r>
       <r>    26.9592     0.9721    31.2038 </r>
       <r>    27.2258     0.8464    31.4294 </r>
       <r>    27.4924     0.6558    31.6042 </r>
       <r>    27.7589     1.1398    31.9081 </r>
       <r>    28.0255     1.5236    32.3142 </r>
       <r>    28.2921     0.9441    32.5659 </r>
       <r>    28.5587     0.3322    32.6544 </r>
       <r>    28.8252     0.7987    32.8674 </r>
       <r>    29.0918     0.8909    33.1049 </r>
       <r>    29.3584     0.8083    33.3203 </r>
       <r>    29.6249     0.7794    33.5281 </r>
       <r>    29.8915     0.8863    33.7644 </r>
       <r>    30.1581     0.6907    33.9485 </r>
       <r>    30.4247     1.0809    34.2366 </r>
       <r>    30.6912     0.8490    34.4629 </r>
       <r>    30.9578     0.2436    34.5279 </r>
       <r>    31.2244     0.7770    34.7350 </r>
       <r>    31.4909     0.5464    34.8807 </r>
       <r>    31.7575     0.5321    35.0225 </r>
       <r>    32.0241     0.7647    35.2264 </r>
       <r>    32.2906     0.9175    35.4709 </r>
       <r>    32.5572     0.5992    35.6307 </r>
       <r>    32.8238     0.7022    35.8178 </r>
       <r>    33.0904     0.7023    36.0050 </r>
       <r>    33.3569     0.6701    36.1837 </r>
       <r>    33.6235     1.0003    36.4503 </r>
       <r>    33.8901     0.8459    36.6758 </r>
       <r>    34.1566     0.5989    36.8354 </r>
       <r>    34.4232     0.7284    37.0296 </r>
       <r>    34.6898     0.6573    37.2048 </r>
       <r>    34.9564     0.6772    37.3854 </r>
       <r>    35.2229     0.6513    37.5590 </r>
       <r>    35.4895     1.2019    37.8794 </r>
       <r>    35.7561     1.0637    38.1630 </r>
       <r>    36.0226     0.5614    38.3126 </r>
       <r>    36.2892     0.8105    38.5287 </r>
       <r>    36.5558     1.0837    38.8176 </r>
       <r>    36.8223     1.0105    39.0869 </r>
       <r>    37.0889     0.8495    39.3134 </r>
       <r>    37.3555     1.0523    39.5939 </r>
       <r>    37.6221     1.1985    39.9134 </r>
       <r>    37.8886     1.0378    40.1900 </r>
       <r>    38.1552     1.3025    40.5372 </r>
       <r>    38.4218     0.9063    40.7788 </r>
       <r>    38.6883     0.6490    40.9518 </r>
       <r>    38.9549     1.1124    41.2484 </r>
       <r>    39.2215     0.6421    41.4195 </r>
       <r>    39.4881     0.3966    41.5253 </r>
       <r>    39.7546     0.8931    41.7633 </r>
       <r>    40.0212     0.6407    41.9341 </r>
       <r>    40.2878     0.5790    42.0885 </r>
       <r>    40.5543     0.4735    42.2147 </r>
       <r>    40.8209     1.0236    42.4876 </r>
       <r>    41.0875     1.0444    42.7660 </r>
       <r>    41.3541     0.9990    43.0323 </r>
       <r>    41.6206     0.5999    43.1922 </r>
       <r>    41.8872     0.7688    43.3971 </r>
       <r>    42.1538     0.6455    43.5692 </r>
       <r>    42.4203     0.8697    43.8010 </r>
       <r>    42.6869     0.7357    43.9971 </r>
       <r>    42.9535     0.7372    44.1936 </r>
       <r>    43.2200     0.9202    44.4389 </r>
       <r>    43.4866     1.1446    44.7441 </r>
       <r>    43.7532     1.2325    45.0726 </r>
       <r>    44.0198     0.8445    45.2977 </r>
       <r>    44.2863     1.2767    45.6380 </r>
       <r>    44.5529     1.0071    45.9065 </r>
       <r>    44.8195     0.8878    46.1432 </r>
       <r>    45.0860     1.0607    46.4259 </r>
       <r>    45.3526     1.2075    46.7478 </r>
       <r>    45.6192     1.2479    47.0805 </r>
       <r>    45.8858     0.7758    47.2873 </r>
       <r>    46.1523     1.1115    47.5836 </r>
       <r>    46.4189     1.1178    47.8815 </r>
       <r>    46.6855     0.9318    48.1299 </r>
       <r>    46.9520     0.8235    48.3494 </r>
       <r>    47.2186     0.7387    48.5463 </r>
       <r>    47.4852     0.9273    48.7935 </r>
       <r>    47.7518     1.1111    49.0897 </r>
       <r>    48.0183     1.0402    49.3670 </r>
       <r>    48.2849     0.7234    49.5598 </r>
       <r>    48.5515     0.6526    49.7338 </r>
       <r>    48.8180     1.1403    50.0378 </r>
       <r>    49.0846     1.3922    50.4089 </r>
       <r>    49.3512     0.9412    50.6598 </r>
       <r>    49.6177     0.5243    50.7995 </r>
       <r>    49.8843     0.7168    50.9906 </r>
       <r>    50.1509     1.2820    51.3323 </r>
       <r>    50.4175     1.2128    51.6556 </r>
       <r>    50.6840     0.8149    51.8728 </r>
       <r>    50.9506     0.7592    52.0752 </r>
       <r>    51.2172     0.8754    52.3086 </r>
       <r>    51.4837     1.0244    52.5816 </r>
       <r>    51.7503     1.0124    52.8515 </r>
       <r>    52.0169     0.9286    53.0990 </r>
       <r>    52.2835     1.6335    53.5345 </r>
       <r>    52.5500     1.3466    53.8934 </r>
       <r>    52.8166     1.1878    54.2101 </r>
       <r>    53.0832     0.9874    54.4733 </r>
       <r>    53.3497     1.2035    54.7941 </r>
       <r>    53.6163     1.1334    55.0962 </r>
       <r>    53.8829     1.1347    55.3987 </r>
       <r>    54.1495     1.1983    55.7181 </r>
       <r>    54.4160     0.7370    55.9146 </r>
       <r>    54.6826     0.8636    56.1448 </r>
       <r>    54.9492     0.9232    56.3909 </r>
       <r>    55.2157     1.0393    56.6680 </r>
       <r>    55.4823     1.4932    57.0660 </r>
       <r>    55.7489     1.0904    57.3567 </r>
       <r>    56.0154     1.3579    57.7187 </r>
       <r>    56.2820     1.2176    58.0432 </r>
       <r>    56.5486     1.1696    58.3550 </r>
       <r>    56.8152     1.6160    58.7858 </r>
       <r>    57.0817     1.2245    59.1122 </r>
       <r>    57.3483     1.7572    59.5806 </r>
       <r>    57.6149     0.8879    59.8173 </r>
       <r>    57.8814     0.9595    60.0730 </r>
       <r>    58.1480     1.4058    60.4478 </r>
       <r>    58.4146     1.2920    60.7922 </r>
       <r>    58.6812     1.6086    61.2210 </r>
       <r>    58.9477     1.9499    61.7408 </r>
       <r>    59.2143     1.7806    62.2154 </r>
       <r>    59.4809     1.2949    62.5606 </r>
       <r>    59.7474     1.3445    62.9190 </r>
       <r>    60.0140     1.5687    63.3372 </r>
       <r>    60.2806     1.7109    63.7933 </r>
       <r>    60.5472     1.5290    64.2008 </r>
       <r>    60.8137     2.1480    64.7734 </r>
       <r>    61.0803     1.9893    65.3037 </r>
       <r>    61.3469     2.2580    65.9057 </r>
       <r>    61.6134     1.9731    66.4316 </r>
       <r>    61.8800     1.8311    66.9198 </r>
       <r>    62.1466     2.1620    67.4961 </r>
       <r>    62.4131     1.9402    68.0133 </r>
       <r>    62.6797     1.4002    68.3865 </r>
       <r>    62.9463     1.6735    68.8326 </r>
       <r>    63.2129     1.1997    69.1524 </r>
       <r>    63.4794     1.9438    69.6706 </r>
       <r>    63.7460     1.5705    70.0893 </r>
       <r>    64.0126     1.6712    70.5347 </r>
       <r>    64.2791     1.3459    70.8935 </r>
       <r>    64.5457     1.6883    71.3436 </r>
       <r>    64.8123     1.7505    71.8102 </r>
       <r>    65.0789     1.6377    72.2468 </r>
       <r>    65.3454     1.3713    72.6123 </r>
       <r>    65.6120     1.1380    72.9157 </r>
       <r>    65.8786     1.4190    73.2939 </r>
       <r>    66.1451     1.3912    73.6648 </r>
       <r>    66.4117     1.9750    74.1913 </r>
       <r>    66.6783     2.1058    74.7526 </r>
       <r>    66.9449     1.9155    75.2633 </r>
       <r>    67.2114     1.4677    75.6545 </r>
       <r>    67.4780     1.8244    76.1408 </r>
       <r>    67.7446     1.7765    76.6144 </r>
       <r>    68.0111     1.6634    77.0578 </r>
       <r>    68.2777     1.7005    77.5111 </r>
       <r>    68.5443     1.0212    77.7834 </r>
       <r>    68.8108     1.5510    78.1968 </r>
       <r>    69.0774     1.5706    78.6155 </r>
       <r>    69.3440     1.2253    78.9421 </r>
       <r>    69.6106     1.4589    79.3310 </r>
       <r>    69.8771     0.8893    79.5681 </r>
       <r>    70.1437     0.7737    79.7743 </r>
       <r>    70.4103     0.4411    79.8919 </r>
       <r>    70.6768     0.3124    79.9752 </r>
       <r>    70.9434     0.0651    79.9925 </r>
       <r>    71.2100     0.0284    80.0001 </r>
       <r>    71.4766    -0.0002    80.0000 </r>
       <r>    71.7431    -0.0001    80.0000 </r>
       <r>    72.0097    -0.0000    80.0000 </r>
       <r>    72.2763    -0.0000    80.0000 </r>
       <r>    72.5428     0.0000    80.0000 </r>
       <r>    72.8094     0.0000    80.0000 </r>
       <r>    73.0760     0.0000    80.0000 </r>
       <r>    73.3425     0.0000    80.0000 </r>
       <r>    73.6091     0.0000    80.0000 </r>
       <r>    73.8757     0.0000    80.0000 </r>
       <r>    74.1423     0.0000    80.0000 </r>
       <r>    74.4088     0.0000    80.0000 </r>
       <r>    74.6754     0.0000    80.0000 </r>
      </set>
     </set>
    </array>
   </total>
  </dos>
 </calculation>
 <structure name="finalpos" >
  <crystal>
   <varray name="basis" >
    <v>       2.30670000       0.00000000       0.00000000 </v>
    <v>      -1.15335000       1.99766080       0.00000000 </v>
    <v>       0.00000000       0.00000000       4.18077000 </v>
   </varray>
   <i name="volume">     19.26500557 </i>
   <varray name="rec_basis" >
    <v>       0.43351975       0.25029274       0.00000000 </v>
    <v>       0.00000000       0.50058549       0.00000000 </v>
    <v>       0.00000000       0.00000000       0.23919039 </v>
   </varray>
  </crystal>
  <varray name="positions" >
   <v>       0.00000000       0.00000000       0.00000000 </v>
   <v>       0.33333333       0.66666667       0.50000000 </v>
  </varray>
 </structure>
</modeling>
