unknown system                          
   1.00000000000000     
     2.376600    0.000000    0.000000
    -1.188300    2.058196    0.000000
     0.000000    0.000000    4.307460
   Fe
     2
Direct
  0.000000  0.000000  0.000000
  0.333333  0.666667  0.500000
 
   20   20   36
  177.15      167.50      141.64      107.15      72.463      43.837      24.313      13.878      10.029      8.9109    
  8.5440      8.9113      10.029      13.877      24.313      43.837      72.463      107.15      141.64      167.50    
  167.51      167.50      149.78      119.82      85.719      54.782      31.554      17.453      11.138      9.2528    
  8.5447      8.5440      9.2520      11.139      17.454      31.552      54.780      85.724      119.84      149.80    
  141.65      149.77      141.64      119.82      90.641      61.243      37.089      20.882      12.519      9.5752    
  8.5814      8.2401      8.5796      9.5747      12.521      20.881      37.084      61.238      90.645      119.83    
  107.15      119.76      119.76      107.15      85.719      61.242      39.161      22.982      13.694      9.9024    
  8.6390      8.0291      8.0285      8.6383      9.9031      13.695      22.981      39.156      61.234      85.710    
  72.446      85.625      90.521      85.639      72.463      54.782      37.089      22.982      14.156      10.129    
  8.6919      7.9094      7.6501      7.9099      8.6921      10.130      14.159      22.986      37.089      54.772    
  43.835      54.709      61.116      61.120      54.717      43.837      31.553      20.882      13.694      10.129    
  8.7134      7.8594      7.4404      7.4411      7.8599      8.7119      10.128      13.699      20.893      31.562    
  24.325      31.539      37.028      39.076      37.023      31.529      24.313      17.453      12.519      9.9021    
  8.6920      7.8594      7.3745      7.2220      7.3757      7.8584      8.6873      9.8976      12.521      17.462    
  13.877      17.475      20.899      22.981      22.976      20.887      17.467      13.878      11.139      9.5749    
  8.6391      7.9096      7.4402      7.2219      7.2229      7.4418      7.9090      8.6337      9.5653      11.130    
  10.015      11.161      12.571      13.758      14.220      13.754      12.571      11.170      10.029      9.2527    
  8.5813      8.0293      7.6500      7.4410      7.3760      7.4419      7.6535      8.0340      8.5810      9.2435    
  8.9106      9.2798      9.6332      9.9890      10.233      10.234      9.9947      9.6426      9.2881      8.9110    
  8.5445      8.2402      8.0286      7.9097      7.8600      7.8585      7.9087      8.0339      8.2510      8.5531    
  8.5565      8.5917      8.6570      8.7415      8.8173      8.8500      8.8220      8.7461      8.6558      8.5828    
  8.5439      8.5439      8.5798      8.6382      8.6920      8.7119      8.6870      8.6335      8.5814      8.5532    
  8.9102      8.5916      8.3304      8.1524      8.0587      8.0259      8.0272      8.0593      8.1469      8.3197    
  8.5835      8.9111      9.2521      9.5747      9.9028      10.130      10.129      9.8976      9.5656      9.2437    
  10.015      9.2796      8.6574      8.1525      7.8108      7.6271      7.5715      7.6265      7.8075      8.1476    
  8.6572      9.2887      10.029      11.139      12.521      13.695      14.160      13.699      12.521      11.130    
  13.877      11.161      9.6334      8.7415      8.0583      7.6271      7.4293      7.4285      7.6257      8.0591    
  8.7469      9.6427      11.169      13.878      17.454      20.881      22.981      22.986      20.893      17.462    
  24.326      17.475      12.571      9.9889      8.8170      8.0259      7.5718      7.4285      7.5701      8.0266    
  8.8220      9.9939      12.569      17.466      24.313      31.552      37.084      39.155      37.089      31.562    
  43.836      31.539      20.899      13.758      10.233      8.8502      8.0274      7.6264      7.6256      8.0268    
  8.8516      10.234      13.753      20.888      31.531      43.837      54.780      61.238      61.234      54.772    
  72.446      54.708      37.027      22.982      14.221      10.234      8.8219      8.0591      7.8074      8.0593    
  8.8221      10.233      14.217      22.977      37.028      54.718      72.463      85.724      90.646      85.710    
  107.15      85.625      61.116      39.076      22.976      13.754      9.9944      8.7462      8.1471      8.1476    
  8.7469      9.9937      13.753      22.977      39.081      61.124      85.634      107.15      119.84      119.83    
  141.65      119.76      90.522      61.121      37.023      20.887      12.571      9.6428      8.6560      8.3195    
  8.6570      9.6427      12.569      20.888      37.028      61.124      90.517      119.75      141.64      149.80    
  167.51      149.77      119.76      85.639      54.717      31.529      17.467      11.170      9.2881      8.5825    
  8.5833      9.2889      11.169      17.466      31.531      54.719      85.634      119.75      149.75      167.50    
  167.32      158.22      133.79      101.19      68.378      41.343      23.008      13.326      9.8175      8.7528    
  8.3967      8.7532      9.8178      13.326      23.008      41.343      68.378      101.19      133.79      158.22    
  158.22      158.22      141.48      113.17      80.907      51.657      29.776      16.613      10.814      9.0800    
  8.3921      8.3913      9.0792      10.815      16.614      29.775      51.656      80.911      113.18      141.50    
  133.81      141.48      133.79      113.17      85.560      57.753      34.968      19.786      12.060      9.3801    
  8.4235      8.0938      8.4218      9.3796      12.061      19.786      34.964      57.749      85.564      113.18    
  101.19      113.12      113.13      101.19      80.907      57.753      36.914      21.737      13.127      9.6704    
  8.4766      7.8881      7.8875      8.4759      9.6710      13.128      21.736      36.909      57.745      80.899    
  68.362      80.837      85.473      80.850      68.378      51.657      34.968      21.737      13.548      9.8703    
  8.5262      7.7716      7.5228      7.7721      8.5264      9.8710      13.551      21.741      34.968      51.648    
  41.341      51.611      57.670      57.674      51.618      41.342      29.776      19.787      13.127      9.8702    
  8.5466      7.7229      7.3215      7.3222      7.7235      8.5451      9.8696      13.132      19.797      29.784    
  23.019      29.786      34.952      36.882      34.947      29.777      23.008      16.613      12.060      9.6701    
  8.5263      7.7230      7.2584      7.1127      7.2595      7.7221      8.5220      9.6660      12.061      16.622    
  13.325      16.654      19.842      21.787      21.782      19.831      16.646      13.326      10.814      9.3798    
  8.4766      7.7718      7.3213      7.1126      7.1135      7.3228      7.7713      8.4717      9.3710      10.806    
  9.8048      10.852      12.142      13.233      13.659      13.230      12.142      10.861      9.8177      9.0799    
  8.4234      7.8883      7.5227      7.3221      7.2598      7.3228      7.5258      7.8925      8.4232      9.0714    
  8.7525      9.1197      9.4627      9.7910      10.013      10.015      9.7961      9.4713      9.1273      8.7529    
  8.3919      8.0939      7.8876      7.7719      7.7237      7.7222      7.7709      7.8924      8.1039      8.3998    
  8.4083      8.4489      8.5189      8.6064      8.6833      8.7162      8.6877      8.6106      8.5177      8.4406    
  8.3967      8.3913      8.4220      8.4758      8.5263      8.5452      8.5218      8.4715      8.4235      8.3999    
  8.7521      8.4487      8.2014      8.0339      7.9462      7.9158      7.9171      7.9468      8.0289      8.1916    
  8.4413      8.7530      9.0793      9.3796      9.6707      9.8710      9.8697      9.6660      9.3713      9.0716    
  9.8045      9.1196      8.5193      8.0340      7.7062      7.5300      7.4767      7.5295      7.7032      8.0295    
  8.5191      9.1280      9.8177      10.815      12.061      13.128      13.551      13.132      12.061      10.806    
  13.325      10.852      9.4630      8.6064      7.9459      7.5299      7.3393      7.3386      7.5287      7.9466    
  8.6113      9.4715      10.860      13.326      16.614      19.786      21.736      21.741      19.797      16.622    
  23.020      16.654      12.142      9.7909      8.6831      7.9158      7.4769      7.3385      7.4753      7.9164    
  8.6877      9.7955      12.141      16.646      23.008      29.775      34.964      36.909      34.968      29.784    
  41.341      29.786      19.842      13.233      10.013      8.7163      7.9172      7.5294      7.5286      7.9165    
  8.7175      10.014      13.228      19.832      29.778      41.342      51.655      57.749      57.745      51.648    
  68.362      51.610      34.951      21.787      13.659      10.015      8.6875      7.9467      7.7031      7.9468    
  8.6877      10.014      13.656      21.783      34.952      51.620      68.378      80.912      85.564      80.899    
  101.19      80.837      57.670      36.883      21.782      13.230      9.7959      8.6106      8.0290      8.0296    
  8.6113      9.7953      13.228      21.783      36.887      57.678      80.845      101.19      113.18      113.18    
  133.81      113.12      85.473      57.675      34.947      19.831      12.142      9.4716      8.5179      8.1914    
  8.5189      9.4715      12.141      19.832      34.952      57.678      85.468      113.11      133.79      141.50    
  158.22      141.48      113.13      80.850      51.618      29.776      16.647      10.861      9.1274      8.4403    
  8.4411      9.1282      10.860      16.646      29.778      51.620      80.845      113.11      141.46      158.22    
  141.04      133.37      112.76      85.178      57.418      34.701      19.592      11.919      9.2657      8.3214    
  7.9976      8.3218      9.2660      11.919      19.591      34.700      57.418      85.179      112.76      133.37    
  133.37      133.37      119.25      95.300      67.983      43.302      25.083      14.443      9.9877      8.6030    
  7.9752      7.9745      8.6023      9.9885      14.444      25.082      43.301      67.987      95.311      119.26    
  112.77      119.25      112.76      95.300      71.911      48.408      29.342      16.934      10.889      8.8560    
  7.9896      7.6932      7.9880      8.8555      10.890      16.934      29.339      48.405      71.914      95.310    
  85.175      95.296      95.297      85.179      67.983      48.408      30.946      18.483      11.676      9.0641    
  8.0276      7.5003      7.4999      8.0270      9.0645      11.676      18.482      30.942      48.402      67.977    
  57.406      67.978      71.910      67.987      57.418      43.301      29.342      18.483      11.990      9.2004    
  8.0665      7.3912      7.1718      7.3917      8.0667      9.2006      11.991      18.486      29.342      43.295    
  34.700      43.327      48.443      48.446      43.333      34.700      25.083      16.934      11.675      9.2003    
  8.0829      7.3454      6.9923      6.9931      7.3460      8.0819      9.1997      11.679      16.942      25.089    
  19.600      25.156      29.445      31.057      29.442      25.149      19.591      14.443      10.889      9.0639    
  8.0666      7.3454      6.9364      6.8092      6.9374      7.3449      8.0634      9.0609      10.890      14.450    
  11.918      14.537      17.094      18.671      18.668      17.086      14.531      11.919      9.9879      8.8557    
  8.0277      7.3913      6.9922      6.8092      6.8098      6.9932      7.3909      8.0239      8.8490      9.9817    
  9.2557      10.072      11.060      11.903      12.235      11.900      11.060      10.079      9.2659      8.6029    
  7.9894      7.5005      7.1717      6.9930      6.9376      6.9933      7.1738      7.5037      7.9892      8.5962    
  8.3212      8.6827      9.0157      9.2907      9.4649      9.4659      9.2944      9.0222      8.6886      8.3215    
  7.9750      7.6934      7.5000      7.3915      7.3462      7.3450      7.3906      7.5036      7.7011      7.9811    
  8.0066      8.0651      8.1516      8.2508      8.3336      8.3676      8.3368      8.2538      8.1506      8.0587    
  7.9975      7.9744      7.9882      8.0268      8.0666      8.0820      8.0632      8.0238      7.9896      7.9812    
  8.3209      8.0650      7.8622      7.7298      7.6644      7.6438      7.6448      7.6649      7.7260      7.8546    
  8.0593      8.3216      8.6024      8.8555      9.0642      9.2007      9.1998      9.0608      8.8492      8.5964    
  9.2555      8.6826      8.1520      7.7299      7.4486      7.2991      7.2543      7.2991      7.4466      7.7265    
  8.1518      8.6892      9.2659      9.9886      10.890      11.676      11.992      11.679      10.890      9.9816    
  11.918      10.072      9.0160      8.2509      7.6641      7.2991      7.1331      7.1326      7.2983      7.6647    
  8.2546      9.0224      10.078      11.919      14.444      16.934      18.482      18.486      16.942      14.450    
  19.601      14.537      11.060      9.2906      8.3334      7.6438      7.2546      7.1325      7.2531      7.6441    
  8.3368      9.2941      11.059      14.530      19.591      25.082      29.339      30.942      29.342      25.089    
  34.700      25.156      17.094      11.903      9.4651      8.3677      7.6450      7.2990      7.2982      7.6442    
  8.3685      9.4656      11.900      17.086      25.150      34.700      43.300      48.405      48.402      43.295    
  57.405      43.327      29.445      18.672      12.235      9.4660      8.3367      7.6648      7.4466      7.6649    
  8.3369      9.4655      12.233      18.668      29.445      43.334      57.418      67.987      71.914      67.977    
  85.174      67.977      48.443      31.057      18.668      11.900      9.2942      8.2539      7.7261      7.7266    
  8.2546      9.2939      11.900      18.668      31.061      48.449      67.984      85.179      95.311      95.309    
  112.77      95.296      71.910      48.446      29.442      17.085      11.060      9.0225      8.1508      7.8544    
  8.1516      9.0224      11.059      17.086      29.445      48.449      71.907      95.286      112.76      119.26    
  133.37      119.25      95.297      67.987      43.333      25.149      14.532      10.079      8.6886      8.0584    
  8.0591      8.6894      10.078      14.530      25.150      43.334      67.984      95.286      119.24      133.37    
  106.09      100.29      84.689      63.796      42.871      26.051      15.309      10.240      8.5365      7.7247    
  7.4515      7.7250      8.5368      10.240      15.309      26.051      42.871      63.796      84.689      100.29    
  100.29      100.29      89.596      71.436      50.769      32.312      19.085      11.797      8.9842      7.9308    
  7.3986      7.3981      7.9303      8.9849      11.799      19.085      32.312      50.771      71.443      89.604    
  84.695      89.617      84.689      71.436      53.716      36.067      22.079      13.396      9.4867      8.1222    
  7.3827      7.1368      7.3814      8.1218      9.4878      13.397      22.077      36.065      53.717      71.442    
  63.794      71.483      71.484      63.797      50.769      36.067      23.218      14.414      9.9323      8.2664    
  7.3933      6.9574      6.9570      7.3927      8.2664      9.9326      14.414      23.215      36.063      50.765    
  42.863      50.847      53.827      50.853      42.871      32.312      22.079      14.414      10.113      8.3443    
  7.4122      6.8541      6.6766      6.8546      7.4124      8.3442      10.114      14.416      22.079      32.308    
  26.050      32.432      36.255      36.257      32.436      26.051      19.085      13.396      9.9322      8.3442    
  7.4212      6.8096      6.5245      6.5251      6.8104      7.4207      8.3438      9.9346      13.402      19.089    
  15.314      19.243      22.341      23.517      22.340      19.239      15.309      11.798      9.4867      8.2662    
  7.4123      6.8096      6.4772      6.3751      6.4780      6.8095      7.4105      8.2645      9.4878      11.802    
  10.239      11.966      13.701      14.792      14.790      13.696      11.962      10.240      8.9843      8.1220    
  7.3933      6.8542      6.5244      6.3751      6.3754      6.5248      6.8539      7.3910      8.1179      8.9804    
  8.5300      9.1379      9.7888      10.337      10.553      10.335      9.7887      9.1422      8.5367      7.9308    
  7.3826      6.9576      6.6765      6.5250      6.4782      6.5249      6.6775      6.9594      7.3824      7.9264    
  7.7246      8.0749      8.4049      8.6611      8.8020      8.8025      8.6632      8.4088      8.0786      7.7248    
  7.3985      7.1369      6.9571      6.8545      6.8105      6.8096      6.8537      6.9593      7.1418      7.4024    
  7.4573      7.5456      7.6587      7.7772      7.8702      7.9066      7.8720      7.7789      7.6579      7.5415    
  7.4515      7.3980      7.3816      7.3926      7.4123      7.4208      7.4103      7.3909      7.3827      7.4025    
  7.7243      7.5455      7.4145      7.3399      7.3126      7.3099      7.3106      7.3131      7.3375      7.4096    
  7.5419      7.7248      7.9303      8.1218      8.2662      8.3442      8.3439      8.2644      8.1181      7.9266    
  8.5298      8.0747      7.6590      7.3399      7.1357      7.0318      7.0019      7.0322      7.1348      7.3379    
  7.6589      8.0790      8.5367      8.9850      9.4877      9.9326      10.114      9.9346      9.4877      8.9803    
  10.239      9.1379      8.4051      7.7773      7.3124      7.0318      6.9072      6.9070      7.0315      7.3128    
  7.7795      8.4090      9.1416      10.240      11.799      13.397      14.414      14.416      13.401      11.802    
  15.315      11.966      9.7887      8.6611      7.8700      7.3099      7.0021      6.9070      7.0009      7.3098    
  7.8720      8.6632      9.7877      11.961      15.309      19.085      22.077      23.215      22.079      19.089    
  26.051      19.243      13.701      10.337      8.8021      7.9067      7.3107      7.0321      7.0314      7.3098    
  7.9070      8.8025      10.335      13.696      19.239      26.051      32.311      36.065      36.063      32.308    
  42.863      32.432      22.341      14.792      10.554      8.8025      7.8719      7.3130      7.1348      7.3130    
  7.8721      8.8025      10.553      14.790      22.341      32.436      42.871      50.771      53.717      50.765    
  63.794      50.847      36.255      23.517      14.790      10.335      8.6630      7.7789      7.3376      7.3380    
  7.7795      8.6630      10.335      14.790      23.519      36.259      50.851      63.797      71.443      71.442    
  84.695      71.483      53.827      36.257      22.339      13.696      9.7887      8.4090      7.6580      7.4095    
  7.6587      8.4090      9.7878      13.696      22.341      36.259      53.825      71.477      84.689      89.604    
  100.29      89.618      71.484      50.853      32.436      19.239      11.962      9.1424      8.0786      7.5413    
  7.5418      8.0792      9.1417      11.961      19.239      32.436      50.851      71.477      89.609      100.29    
  71.030      67.097      56.525      42.454      28.602      17.890      11.533      8.8311      7.7394      7.0888    
  6.8772      7.0891      7.7396      8.8310      11.532      17.890      28.602      42.454      56.526      67.097    
  67.099      67.097      59.835      47.550      33.735      21.740      13.617      9.5539      8.0375      7.2013    
  6.7867      6.7864      7.2009      8.0381      9.5551      13.617      21.740      33.736      47.553      59.839    
  56.528      59.873      56.525      47.550      35.665      24.095      15.336      10.328      8.2735      7.3109    
  6.7300      6.5429      6.7290      7.3105      8.2743      10.329      15.335      24.094      35.666      47.553    
  42.453      47.646      47.647      42.454      33.735      24.095      16.002      10.840      8.4528      7.3954    
  6.7019      6.3710      6.3708      6.7015      7.3952      8.4527      10.840      16.001      24.093      33.733    
  28.599      33.892      35.883      33.895      28.602      21.740      15.336      10.840      8.5245      7.4407    
  6.6923      6.2671      6.1351      6.2675      6.6924      7.4403      8.5243      10.841      15.336      21.738    
  17.890      21.950      24.429      24.430      21.952      17.890      13.617      10.329      8.4527      7.4406    
  6.6906      6.2197      6.0066      6.0071      6.2205      6.6905      7.4403      8.4538      10.331      13.619    
  11.535      13.859      15.753      16.483      15.752      13.857      11.533      9.5541      8.2735      7.3953    
  6.6923      6.2197      5.9664      5.8896      5.9670      6.2199      6.6917      7.3947      8.2743      9.5564    
  8.8305      9.7982      10.779      11.407      11.406      10.777      9.7969      8.8311      8.0376      7.3107    
  6.7019      6.2672      6.0065      5.8896      5.8896      6.0066      6.2670      6.7010      7.3088      8.0357    
  7.7360      8.2661      8.7151      9.0444      9.1696      9.0434      8.7150      8.2684      7.7395      7.2012    
  6.7299      6.3712      6.1350      6.0071      5.9671      6.0066      6.1350      6.3718      6.7298      7.1990    
  7.0888      7.4177      7.7312      7.9777      8.1131      8.1132      7.9783      7.7328      7.4194      7.0889    
  6.7866      6.5430      6.3709      6.2674      6.2206      6.2200      6.2668      6.3718      6.5453      6.7885    
  6.8800      7.0004      7.1380      7.2712      7.3701      7.4073      7.3708      7.2717      7.1374      6.9983    
  6.8772      6.7863      6.7292      6.7014      6.6923      6.6906      6.6916      6.7009      6.7300      6.7886    
  7.0885      7.0003      6.9485      6.9343      6.9450      6.9594      6.9599      6.9454      6.9333      6.9462    
  6.9986      7.0889      7.2009      7.3105      7.3950      7.4403      7.4404      7.3947      7.3090      7.1991    
  7.7359      7.4176      7.1382      6.9344      6.8126      6.7561      6.7413      6.7567      6.8126      6.9335    
  7.1381      7.4197      7.7395      8.0382      8.2742      8.4527      8.5245      8.4538      8.2742      8.0356    
  8.8306      8.2662      7.7313      7.2712      6.9449      6.7561      6.6755      6.6755      6.7562      6.9452    
  7.2722      7.7330      8.2679      8.8311      9.5552      10.329      10.840      10.841      10.331      9.5563    
  11.535      9.7984      8.7150      7.9777      7.3700      6.9594      6.7414      6.6754      6.7406      6.9590    
  7.3708      7.9785      8.7143      9.7959      11.533      13.617      15.335      16.001      15.336      13.619    
  17.890      13.859      10.778      9.0443      8.1132      7.4073      6.9599      6.7566      6.7561      6.9591    
  7.4073      8.1135      9.0434      10.776      13.856      17.890      21.740      24.094      24.093      21.739    
  28.599      21.950      15.753      11.407      9.1699      8.1132      7.3707      6.9454      6.8126      6.9453    
  7.3708      8.1134      9.1697      11.407      15.753      21.952      28.602      33.736      35.666      33.733    
  42.453      33.891      24.429      16.483      11.406      9.0433      7.9782      7.2717      6.9333      6.9336    
  7.2722      7.9784      9.0434      11.407      16.485      24.431      33.894      42.454      47.553      47.553    
  56.528      47.646      35.884      24.430      15.752      10.776      8.7150      7.7330      7.1375      6.9461    
  7.1380      7.7330      8.7144      10.776      15.753      24.431      35.883      47.643      56.525      59.839    
  67.099      59.874      47.647      33.894      21.952      13.857      9.7970      8.2686      7.4194      6.9982    
  6.9985      7.4199      8.2680      9.7958      13.856      21.952      33.894      47.643      59.869      67.097    
  42.175      39.823      33.551      25.363      17.613      12.036      9.0773      7.8097      6.9936      6.5174    
  6.3671      6.5175      6.9937      7.8096      9.0771      12.036      17.614      25.363      33.551      39.823    
  39.824      39.823      35.492      28.264      20.372      13.893      9.9051      8.1022      7.1626      6.5357    
  6.2401      6.2399      6.5354      7.1629      8.1031      9.9058      13.894      20.372      28.265      35.493    
  33.552      35.543      33.551      28.264      21.427      15.070      10.628      8.3545      7.2921      6.5575    
  6.1394      6.0086      6.1388      6.5572      7.2926      8.3552      10.628      15.069      21.427      28.265    
  25.363      28.396      28.396      25.363      20.372      15.070      10.917      8.5203      7.3688      6.5745    
  6.0677      5.8359      5.8358      6.0674      6.5743      7.3685      8.5200      10.917      15.069      20.372    
  17.613      20.586      21.722      20.587      17.614      13.893      10.628      8.5204      7.3934      6.5833    
  6.0254      5.7236      5.6320      5.7240      6.0255      6.5829      7.3928      8.5202      10.628      13.893    
  12.036      14.169      15.510      15.510      14.169      12.036      9.9051      8.3546      7.3687      6.5833    
  6.0114      5.6689      5.5175      5.5179      5.6695      6.0116      6.5831      7.3689      8.3555      9.9061    
  9.0779      10.210      11.160      11.534      11.160      10.210      9.0772      8.1023      7.2922      6.5744    
  6.0254      5.6689      5.4809      5.4241      5.4813      5.6692      6.0255      6.5745      7.2926      8.1031    
  7.8093      8.4079      8.9197      9.2351      9.2349      8.9194      8.4079      7.8097      7.1626      6.5573    
  6.0677      5.7237      5.5175      5.4241      5.4240      5.5173      5.7236      6.0676      6.5570      7.1620    
  6.9925      7.4551      7.8510      8.1156      8.2079      8.1152      7.8510      7.4559      6.9936      6.5356    
  6.1393      5.8360      5.6319      5.5178      5.4814      5.5173      5.6315      5.8360      6.1392      6.5349    
  6.5174      6.8154      7.0972      7.3185      7.4401      7.4400      7.3182      7.0973      6.8158      6.5174    
  6.2400      6.0087      5.8359      5.7239      5.6696      5.6693      5.7235      5.8359      6.0094      6.2406    
  6.3679      6.5136      6.6641      6.7993      6.8947      6.9292      6.8946      6.7992      6.6638      6.5129    
  6.3671      6.2399      6.1389      6.0674      6.0254      6.0116      6.0254      6.0675      6.1394      6.2406    
  6.5172      6.5135      6.5287      6.5594      6.5942      6.6177      6.6179      6.5945      6.5592      6.5281    
  6.5131      6.5174      6.5354      6.5572      6.5741      6.5829      6.5831      6.5745      6.5571      6.5350    
  6.9924      6.8153      6.6643      6.5594      6.5019      6.4788      6.4739      6.4795      6.5024      6.5594    
  6.6642      6.8159      6.9937      7.1630      7.2926      7.3685      7.3929      7.3690      7.2926      7.1620    
  7.8093      7.4551      7.0973      6.7994      6.5941      6.4788      6.4310      6.4311      6.4791      6.5943    
  6.7995      7.0975      7.4555      7.8097      8.1031      8.3552      8.5200      8.5202      8.3554      8.1030    
  9.0781      8.4080      7.8509      7.3184      6.8946      6.6177      6.4740      6.4311      6.4735      6.6172    
  6.8946      7.3185      7.8505      8.4071      9.0772      9.9057      10.628      10.917      10.628      9.9061    
  12.036      10.210      8.9196      8.1155      7.4402      6.9292      6.6179      6.4794      6.4790      6.6173    
  6.9290      7.4404      8.1154      8.9188      10.209      12.036      13.893      15.069      15.069      13.893    
  17.613      14.169      11.160      9.2351      8.2081      7.4400      6.8945      6.5945      6.5024      6.5944    
  6.8946      7.4403      8.2084      9.2352      11.160      14.169      17.614      20.372      21.427      20.372    
  25.363      20.586      15.510      11.534      9.2349      8.1151      7.3181      6.7992      6.5593      6.5594    
  6.7995      7.3185      8.1154      9.2352      11.534      15.511      20.587      25.363      28.265      28.265    
  33.552      28.396      21.722      15.510      11.160      8.9193      7.8509      7.0975      6.6639      6.5280    
  6.6641      7.0975      7.8506      8.9189      11.160      15.511      21.722      28.395      33.551      35.493    
  39.824      35.543      28.396      20.587      14.169      10.210      8.4080      7.4560      6.8158      6.5128    
  6.5130      6.8161      7.4556      8.4071      10.209      14.169      20.586      28.395      35.542      39.823    
  22.573      21.405      18.345      14.509      11.130      8.9419      7.7918      6.9725      6.3929      6.0728    
  5.9741      6.0730      6.3930      6.9724      7.7917      8.9419      11.130      14.509      18.345      21.405    
  21.405      21.405      19.267      15.800      12.222      9.5409      8.0325      7.1280      6.4396      6.0095    
  5.8143      5.8142      6.0094      6.4398      7.1286      8.0330      9.5411      12.222      15.800      19.267    
  18.345      19.323      18.345      15.800      12.653      9.9401      8.2154      7.2288      6.4715      5.9536    