 vasp.6.2.0 18Jan21 (build Mar 17 2021 09:06:54) complex                        
  
 executed on             LinuxIFC date 2021.09.09  12:07:57
 serial version


--------------------------------------------------------------------------------------------------------


 INCAR:
   ENCUT = 280.000000
   SIGMA = 0.200000
   EDIFF = 1.00e-06
   GGA = PE
   PREC = normal
   IBRION = 1
   ICHARG = 1
   ISIF = 2
   ISMEAR = 1
   KPAR = 1
   NBANDS = 40
   NSW = 0
   NCORE = 1
   LCHARG = .TRUE.

 POTCAR:    PAW_PBE Fe 06Sep2000                  
 POTCAR:    PAW_PBE Fe 06Sep2000                  
   SHA256 =  cd5a22d9368cc8b5cc476bea79732366149640da08ac9009b0e1b7fc627eea28 Fe/POTCAR             
   COPYR  = (c) Copyright 06Sep2000 Georg Kresse                                                    
   COPYR  = This file is part of the software VASP. Any use, copying, and all other rights are regul
   COPYR  = If you do not have a valid VASP license, you may not use, copy or distribute this file. 
   VRHFIN =Fe:  d7 s1                                                                               
   LEXCH  = PE                                                                                      
   EATOM  =   594.3153 eV,   43.6809 Ry                                                             
                                                                                                    
   TITEL  = PAW_PBE Fe 06Sep2000                                                                    
   LULTRA =        F    use ultrasoft PP ?                                                          
   IUNSCR =        1    unscreen: 0-lin 1-nonlin 2-no                                               
   RPACOR =    2.000    partial core radius                                                         
   POMASS =   55.847; ZVAL   =    8.000    mass and valenz                                          
   RCORE  =    2.300    outmost cutoff radius                                                       
   RWIGS  =    2.460; RWIGS  =    1.302    wigner-seitz radius (au A)                               
   ENMAX  =  267.882; ENMIN  =  200.911 eV                                                          
   RCLOC  =    1.701    cutoff for local pot                                                        
   LCOR   =        T    correct aug charges                                                         
   LPAW   =        T    paw PP                                                                      
   EAUG   =  511.368                                                                                
   DEXC   =    0.000                                                                                
   RMAX   =    2.356    core radius for proj-oper                                                   
   RAUG   =    1.300    factor for augmentation sphere                                              
   RDEP   =    2.442    radius for radial grids                                                     
   RDEPT  =    1.890    core radius for aug-charge                                                  
                                                                                                    
   Atomic configuration                                                                             
    9 entries                                                                                       
     n  l   j            E        occ.                                                              
     1  0  0.50     -6993.8440   2.0000                                                             
     2  0  0.50      -814.6047   2.0000                                                             
     2  1  1.50      -693.3689   6.0000                                                             
     3  0  0.50       -89.4732   2.0000                                                             
     3  1  1.50       -55.6373   6.0000                                                             
     3  2  2.50        -3.8151   7.0000                                                             
     4  0  0.50        -4.2551   1.0000                                                             
     4  1  1.50        -3.4015   0.0000                                                             
     4  3  2.50        -1.3606   0.0000                                                             
   Description                                                                                      
     l       E           TYP  RCUT    TYP  RCUT                                                     
     2     -3.8151135     23  2.300                                                                 
     2     -5.1756961     23  2.300                                                                 
     0     -4.2550963     23  2.300                                                                 
     0      7.2035603     23  2.300                                                                 
     1     -2.7211652     23  2.300                                                                 
     1     18.4316424     23  2.300                                                                 
  local pseudopotential read in
  partial core-charges read in
  partial kinetic energy density read in
  atomic valenz-charges read in
  non local Contribution for L=           2  read in
    real space projection operators read in
  non local Contribution for L=           2  read in
    real space projection operators read in
  non local Contribution for L=           0  read in
    real space projection operators read in
  non local Contribution for L=           0  read in
    real space projection operators read in
  non local Contribution for L=           1  read in
    real space projection operators read in
  non local Contribution for L=           1  read in
    real space projection operators read in
    PAW grid and wavefunctions read in
 
   number of l-projection  operators is LMAX  =           6
   number of lm-projection operators is LMMAX =          18
 
  PAW_PBE Fe 06Sep2000                  :
 energy of atom  1       EATOM= -594.3153
 kinetic energy error for atom=    0.0278 (will be added to EATOM!!)
 
 
 POSCAR: Fe
  positions in cartesian coordinates
  No initial velocities read in
 exchange correlation table for  LEXCH =        8
   RHO(1)=    0.500       N(1)  =     2000
   RHO(2)=  100.500       N(2)  =     4000
 


--------------------------------------------------------------------------------------------------------


 ion  position               nearest neighbor table
   1  0.000  0.000  0.000-   2 2.55   2 2.55   2 2.55   2 2.55   2 2.55   2 2.55
   2  0.333  0.667  0.500-   1 2.55   1 2.55   1 2.55   1 2.55   1 2.55   1 2.55
 
  LATTYP: Found a hexagonal cell.
 ALAT       =     2.3766000000
 C/A-ratio  =     1.8124463519
  
  Lattice vectors:
  
 A1 = (   2.3766000000,   0.0000000000,   0.0000000000)
 A2 = (  -1.1883000000,   2.0581959746,   0.0000000000)
 A3 = (   0.0000000000,   0.0000000000,   4.3074600000)


Analysis of symmetry for initial positions (statically):
=====================================================================
 Subroutine PRICEL returns:
 Original cell was already a primitive cell.
 

 Routine SETGRP: Setting up the symmetry group for a 
 hexagonal supercell.


 Subroutine GETGRP returns: Found 24 space group operations
 (whereof 12 operations were pure point group operations)
 out of a pool of 24 trial point group operations.


The static configuration has the point symmetry D_3h.
 The point group associated with its full space group is D_6h.


Analysis of symmetry for dynamics (positions and initial velocities):
=====================================================================
 Subroutine PRICEL returns:
 Original cell was already a primitive cell.
 

 Routine SETGRP: Setting up the symmetry group for a 
 hexagonal supercell.


 Subroutine GETGRP returns: Found 24 space group operations
 (whereof 12 operations were pure point group operations)
 out of a pool of 24 trial point group operations.


The dynamic configuration has the point symmetry D_3h.
 The point group associated with its full space group is D_6h.


 Subroutine INISYM returns: Found 24 space group operations
 (whereof 12 operations are pure point group operations),
 and found     1 'primitive' translations


----------------------------------------------------------------------------------------

                                     Primitive cell                                     

  volume of cell :      21.0700

  direct lattice vectors                    reciprocal lattice vectors
     2.376600000  0.000000000  0.000000000     0.420769166  0.242931191  0.000000000
    -1.188300000  2.058195975  0.000000000     0.000000000  0.485862383  0.000000000
     0.000000000  0.000000000  4.307460000     0.000000000  0.000000000  0.232155377

  length of vectors
     2.376600000  2.376600000  4.307460000     0.485862383  0.485862383  0.232155377

  position of ions in fractional coordinates (direct lattice)
     0.000000000  0.000000000  0.000000000
     0.333333333  0.666666667  0.500000000

  ion indices of the primitive-cell ions
   primitive index   ion index
                 1           1
                 2           2

----------------------------------------------------------------------------------------

 
 
 KPOINTS: KPOINTS created by Atomic Simulation Env

Automatic generation of k-mesh.
 Grid dimensions read from file:
 generate k-points for:   11   11   11

 Generating k-lattice:

  Cartesian coordinates                     Fractional coordinates (reciprocal lattice)
     0.038251742  0.022084654  0.000000000     0.090909091  0.000000000  0.000000000
     0.000000000  0.044169308  0.000000000     0.000000000  0.090909091  0.000000000
     0.000000000  0.000000000  0.021105034     0.000000000  0.000000000  0.090909091

  Length of vectors
     0.044169308  0.044169308  0.021105034

  Shift w.r.t. Gamma in fractional coordinates (k-lattice)
     0.000000000  0.000000000  0.000000000

 
 Subroutine IBZKPT returns following result:
 ===========================================
 
 Found     96 irreducible k-points:
 
 Following reciprocal coordinates:
            Coordinates               Weight
  0.000000  0.000000  0.000000      1.000000
  0.090909  0.000000  0.000000      6.000000
  0.181818  0.000000  0.000000      6.000000
  0.272727  0.000000  0.000000      6.000000
  0.363636  0.000000  0.000000      6.000000
  0.454545  0.000000  0.000000      6.000000
  0.090909  0.090909  0.000000      6.000000
  0.181818  0.090909  0.000000     12.000000
  0.272727  0.090909  0.000000     12.000000
  0.363636  0.090909  0.000000     12.000000
  0.454545  0.090909  0.000000      6.000000
  0.181818  0.181818  0.000000      6.000000
  0.272727  0.181818  0.000000     12.000000
  0.363636  0.181818  0.000000     12.000000
  0.272727  0.272727  0.000000      6.000000
  0.363636  0.272727  0.000000      6.000000
  0.000000  0.000000  0.090909      2.000000
  0.090909  0.000000  0.090909     12.000000
  0.181818  0.000000  0.090909     12.000000
  0.272727  0.000000  0.090909     12.000000
  0.363636  0.000000  0.090909     12.000000
  0.454545  0.000000  0.090909     12.000000
  0.090909  0.090909  0.090909     12.000000
  0.181818  0.090909  0.090909     24.000000
  0.272727  0.090909  0.090909     24.000000
  0.363636  0.090909  0.090909     24.000000
  0.454545  0.090909  0.090909     12.000000
  0.181818  0.181818  0.090909     12.000000
  0.272727  0.181818  0.090909     24.000000
  0.363636  0.181818  0.090909     24.000000
  0.272727  0.272727  0.090909     12.000000
  0.363636  0.272727  0.090909     12.000000
  0.000000  0.000000  0.181818      2.000000
  0.090909  0.000000  0.181818     12.000000
  0.181818  0.000000  0.181818     12.000000
  0.272727  0.000000  0.181818     12.000000
  0.363636  0.000000  0.181818     12.000000
  0.454545  0.000000  0.181818     12.000000
  0.090909  0.090909  0.181818     12.000000
  0.181818  0.090909  0.181818     24.000000
  0.272727  0.090909  0.181818     24.000000
  0.363636  0.090909  0.181818     24.000000
  0.454545  0.090909  0.181818     12.000000
  0.181818  0.181818  0.181818     12.000000
  0.272727  0.181818  0.181818     24.000000
  0.363636  0.181818  0.181818     24.000000
  0.272727  0.272727  0.181818     12.000000
  0.363636  0.272727  0.181818     12.000000
  0.000000  0.000000  0.272727      2.000000
  0.090909  0.000000  0.272727     12.000000
  0.181818  0.000000  0.272727     12.000000
  0.272727  0.000000  0.272727     12.000000
  0.363636  0.000000  0.272727     12.000000
  0.454545  0.000000  0.272727     12.000000
  0.090909  0.090909  0.272727     12.000000
  0.181818  0.090909  0.272727     24.000000
  0.272727  0.090909  0.272727     24.000000
  0.363636  0.090909  0.272727     24.000000
  0.454545  0.090909  0.272727     12.000000
  0.181818  0.181818  0.272727     12.000000
  0.272727  0.181818  0.272727     24.000000
  0.363636  0.181818  0.272727     24.000000
  0.272727  0.272727  0.272727     12.000000
  0.363636  0.272727  0.272727     12.000000
  0.000000  0.000000  0.363636      2.000000
  0.090909  0.000000  0.363636     12.000000
  0.181818  0.000000  0.363636     12.000000
  0.272727  0.000000  0.363636     12.000000
  0.363636  0.000000  0.363636     12.000000
  0.454545  0.000000  0.363636     12.000000
  0.090909  0.090909  0.363636     12.000000
  0.181818  0.090909  0.363636     24.000000
  0.272727  0.090909  0.363636     24.000000
  0.363636  0.090909  0.363636     24.000000
  0.454545  0.090909  0.363636     12.000000
  0.181818  0.181818  0.363636     12.000000
  0.272727  0.181818  0.363636     24.000000
  0.363636  0.181818  0.363636     24.000000
  0.272727  0.272727  0.363636     12.000000
  0.363636  0.272727  0.363636     12.000000
  0.000000  0.000000  0.454545      2.000000
  0.090909  0.000000  0.454545     12.000000
  0.181818  0.000000  0.454545     12.000000
  0.272727  0.000000  0.454545     12.000000
  0.363636  0.000000  0.454545     12.000000
  0.454545  0.000000  0.454545     12.000000
  0.090909  0.090909  0.454545     12.000000
  0.181818  0.090909  0.454545     24.000000
  0.272727  0.090909  0.454545     24.000000
  0.363636  0.090909  0.454545     24.000000
  0.454545  0.090909  0.454545     12.000000
  0.181818  0.181818  0.454545     12.000000
  0.272727  0.181818  0.454545     24.000000
  0.363636  0.181818  0.454545     24.000000
  0.272727  0.272727  0.454545     12.000000
  0.363636  0.272727  0.454545     12.000000
 
 Following cartesian coordinates:
            Coordinates               Weight
  0.000000  0.000000  0.000000      1.000000
  0.038252  0.022085  0.000000      6.000000
  0.076503  0.044169  0.000000      6.000000
  0.114755  0.066254  0.000000      6.000000
  0.153007  0.088339  0.000000      6.000000
  0.191259  0.110423  0.000000      6.000000
  0.038252  0.066254  0.000000      6.000000
  0.076503  0.088339  0.000000     12.000000
  0.114755  0.110423  0.000000     12.000000
  0.153007  0.132508  0.000000     12.000000
  0.191259  0.154593  0.000000      6.000000
  0.076503  0.132508  0.000000      6.000000
  0.114755  0.154593  0.000000     12.000000
  0.153007  0.176677  0.000000     12.000000
  0.114755  0.198762  0.000000      6.000000
  0.153007  0.220847  0.000000      6.000000
  0.000000  0.000000  0.021105      2.000000
  0.038252  0.022085  0.021105     12.000000
  0.076503  0.044169  0.021105     12.000000
  0.114755  0.066254  0.021105     12.000000
  0.153007  0.088339  0.021105     12.000000
  0.191259  0.110423  0.021105     12.000000
  0.038252  0.066254  0.021105     12.000000
  0.076503  0.088339  0.021105     24.000000
  0.114755  0.110423  0.021105     24.000000
  0.153007  0.132508  0.021105     24.000000
  0.191259  0.154593  0.021105     12.000000
  0.076503  0.132508  0.021105     12.000000
  0.114755  0.154593  0.021105     24.000000
  0.153007  0.176677  0.021105     24.000000
  0.114755  0.198762  0.021105     12.000000
  0.153007  0.220847  0.021105     12.000000
  0.000000  0.000000  0.042210      2.000000
  0.038252  0.022085  0.042210     12.000000
  0.076503  0.044169  0.042210     12.000000
  0.114755  0.066254  0.042210     12.000000
  0.153007  0.088339  0.042210     12.000000
  0.191259  0.110423  0.042210     12.000000
  0.038252  0.066254  0.042210     12.000000
  0.076503  0.088339  0.042210     24.000000
  0.114755  0.110423  0.042210     24.000000
  0.153007  0.132508  0.042210     24.000000
  0.191259  0.154593  0.042210     12.000000
  0.076503  0.132508  0.042210     12.000000
  0.114755  0.154593  0.042210     24.000000
  0.153007  0.176677  0.042210     24.000000
  0.114755  0.198762  0.042210     12.000000
  0.153007  0.220847  0.042210     12.000000
  0.000000  0.000000  0.063315      2.000000
  0.038252  0.022085  0.063315     12.000000
  0.076503  0.044169  0.063315     12.000000
  0.114755  0.066254  0.063315     12.000000
  0.153007  0.088339  0.063315     12.000000
  0.191259  0.110423  0.063315     12.000000
  0.038252  0.066254  0.063315     12.000000
  0.076503  0.088339  0.063315     24.000000
  0.114755  0.110423  0.063315     24.000000
  0.153007  0.132508  0.063315     24.000000
  0.191259  0.154593  0.063315     12.000000
  0.076503  0.132508  0.063315     12.000000
  0.114755  0.154593  0.063315     24.000000
  0.153007  0.176677  0.063315     24.000000
  0.114755  0.198762  0.063315     12.000000
  0.153007  0.220847  0.063315     12.000000
  0.000000  0.000000  0.084420      2.000000
  0.038252  0.022085  0.084420     12.000000
  0.076503  0.044169  0.084420     12.000000
  0.114755  0.066254  0.084420     12.000000
  0.153007  0.088339  0.084420     12.000000
  0.191259  0.110423  0.084420     12.000000
  0.038252  0.066254  0.084420     12.000000
  0.076503  0.088339  0.084420     24.000000
  0.114755  0.110423  0.084420     24.000000
  0.153007  0.132508  0.084420     24.000000
  0.191259  0.154593  0.084420     12.000000
  0.076503  0.132508  0.084420     12.000000
  0.114755  0.154593  0.084420     24.000000
  0.153007  0.176677  0.084420     24.000000
  0.114755  0.198762  0.084420     12.000000
  0.153007  0.220847  0.084420     12.000000
  0.000000  0.000000  0.105525      2.000000
  0.038252  0.022085  0.105525     12.000000
  0.076503  0.044169  0.105525     12.000000
  0.114755  0.066254  0.105525     12.000000
  0.153007  0.088339  0.105525     12.000000
  0.191259  0.110423  0.105525     12.000000
  0.038252  0.066254  0.105525     12.000000
  0.076503  0.088339  0.105525     24.000000
  0.114755  0.110423  0.105525     24.000000
  0.153007  0.132508  0.105525     24.000000
  0.191259  0.154593  0.105525     12.000000
  0.076503  0.132508  0.105525     12.000000
  0.114755  0.154593  0.105525     24.000000
  0.153007  0.176677  0.105525     24.000000
  0.114755  0.198762  0.105525     12.000000
  0.153007  0.220847  0.105525     12.000000
 


--------------------------------------------------------------------------------------------------------




 Dimension of arrays:
   k-points           NKPTS =     96   k-points in BZ     NKDIM =     96   number of bands    NBANDS=     40
   number of dos      NEDOS =    301   number of ions     NIONS =      2
   non local maximal  LDIM  =      6   non local SUM 2l+1 LMDIM =     18
   total plane-waves  NPLWV =   1800
   max r-space proj   IRMAX =      1   max aug-charges    IRDMAX=   3242
   dimension x,y,z NGX =    10 NGY =   10 NGZ =   18
   dimension x,y,z NGXF=    20 NGYF=   20 NGZF=   36
   support grid    NGXF=    20 NGYF=   20 NGZF=   36
   ions per type =               2
   NGX,Y,Z   is equivalent  to a cutoff of   7.00,  7.00,  6.95 a.u.
   NGXF,Y,Z  is equivalent  to a cutoff of  13.99, 13.99, 13.89 a.u.

 SYSTEM =  unknown system                          
 POSCAR =  Fe                                      

 Startparameter for this run:
   NWRITE =      2    write-flag & timer
   PREC   = normal    normal or accurate (medium, high low for compatibility)
   ISTART =      0    job   : 0-new  1-cont  2-samecut
   ICHARG =      1    charge: 1-file 2-atom 10-const
   ISPIN  =      1    spin polarized calculation?
   LNONCOLLINEAR =      F non collinear calculations
   LSORBIT =      F    spin-orbit coupling
   INIWAV =      1    electr: 0-lowe 1-rand  2-diag
   LASPH  =      F    aspherical Exc in radial PAW
   METAGGA=      F    non-selfconsistent MetaGGA calc.

 Electronic Relaxation 1
   ENCUT  =  280.0 eV  20.58 Ry    4.54 a.u.   3.24  3.24  5.88*2*pi/ulx,y,z
   ENINI  =  280.0     initial cutoff
   ENAUG  =  511.4 eV  augmentation charge cutoff
   NELM   =     60;   NELMIN=  2; NELMDL= -5     # of ELM steps 
   EDIFF  = 0.1E-05   stopping-criterion for ELM
   LREAL  =      F    real-space projection
   NLSPLINE    = F    spline interpolate recip. space projectors
   LCOMPAT=      F    compatible to vasp.4.4
   GGA_COMPAT  = T    GGA compatible to vasp.4.4-vasp.4.6
   LMAXPAW     = -100 max onsite density
   LMAXMIX     =    2 max onsite mixed and CHGCAR
   VOSKOWN=      0    Vosko Wilk Nusair interpolation
   ROPT   =    0.00000
 Ionic relaxation
   EDIFFG = 0.1E-04   stopping-criterion for IOM
   NSW    =      0    number of steps for IOM
   NBLOCK =      1;   KBLOCK =      1    inner block; outer block 
   IBRION =     -1    ionic relax: 0-MD 1-quasi-New 2-CG
   NFREE  =      0    steps in history (QN), initial steepest desc. (CG)
   ISIF   =      2    stress and relaxation
   IWAVPR =      0    prediction:  0-non 1-charg 2-wave 3-comb
   ISYM   =      2    0-nonsym 1-usesym 2-fastsym
   LCORR  =      T    Harris-Foulkes like correction to forces

   POTIM  = 0.5000    time-step for ionic-motion
   TEIN   =    0.0    initial temperature
   TEBEG  =    0.0;   TEEND  =   0.0 temperature during run
   SMASS  =  -3.00    Nose mass-parameter (am)
   estimated Nose-frequenzy (Omega)   =  0.10E-29 period in steps = 0.13E+47 mass=  -0.129E-27a.u.
   SCALEE = 1.0000    scale energy and forces
   NPACO  =    256;   APACO  = 16.0  distance and # of slots for P.C.
   PSTRESS=    0.0 pullay stress

  Mass of Ions in am
   POMASS =  55.85
  Ionic Valenz
   ZVAL   =   8.00
  Atomic Wigner-Seitz radii
   RWIGS  =  -1.00
  virtual crystal weights 
   VCA    =   1.00
   NELECT =      16.0000    total number of electrons
   NUPDOWN=      -1.0000    fix difference up-down

 DOS related values:
   EMIN   =  10.00;   EMAX   =-10.00  energy-range for DOS
   EFERMI =   0.00
   ISMEAR =     1;   SIGMA  =   0.20  broadening in eV -4-tet -1-fermi 0-gaus

 Electronic relaxation 2 (details)
   IALGO  =     38    algorithm
   LDIAG  =      T    sub-space diagonalisation (order eigenvalues)
   LSUBROT=      F    optimize rotation matrix (better conditioning)
   TURBO    =      0    0=normal 1=particle mesh
   IRESTART =      0    0=no restart 2=restart with 2 vectors
   NREBOOT  =      0    no. of reboots
   NMIN     =      0    reboot dimension
   EREF     =   0.00    reference energy to select bands
   IMIX   =      4    mixing-type and parameters
     AMIX     =   0.40;   BMIX     =  1.00
     AMIX_MAG =   1.60;   BMIX_MAG =  1.00
     AMIN     =   0.10
     WC   =   100.;   INIMIX=   1;  MIXPRE=   1;  MAXMIX= -45

 Intra band minimization:
   WEIMIN = 0.0000     energy-eigenvalue tresh-hold
   EBREAK =  0.62E-08  absolut break condition
   DEPER  =   0.30     relativ break condition  

   TIME   =   0.40     timestep for ELM

  volume/ion in A,a.u.               =      10.53        71.09
  Fermi-wavevector in a.u.,A,eV,Ry     =   1.493574  2.822446 30.351385  2.230764
  Thomas-Fermi vector in A             =   2.605957
 
 Write flags
   LWAVE        =      T    write WAVECAR
   LDOWNSAMPLE  =      F    k-point downsampling of WAVECAR
   LCHARG       =      T    write CHGCAR
   LVTOT        =      F    write LOCPOT, total local potential
   LVHAR        =      F    write LOCPOT, Hartree potential only
   LELF         =      F    write electronic localiz. function (ELF)
   LORBIT       =      0    0 simple, 1 ext, 2 COOP (PROOUT), +10 PAW based schemes


 Dipole corrections
   LMONO  =      F    monopole corrections only (constant potential shift)
   LDIPOL =      F    correct potential (dipole corrections)
   IDIPOL =      0    1-x, 2-y, 3-z, 4-all directions 
   EPSILON=  1.0000000 bulk dielectric constant

 Exchange correlation treatment:
   GGA     =    PE    GGA type
   LEXCH   =     8    internal setting for exchange type
   VOSKOWN=      0    Vosko Wilk Nusair interpolation
   LHFCALC =     F    Hartree Fock is set to
   LHFONE  =     F    Hartree Fock one center treatment
   AEXX    =    0.0000 exact exchange contribution

 Linear response parameters
   LEPSILON=     F    determine dielectric tensor
   LRPA    =     F    only Hartree local field effects (RPA)
   LNABLA  =     F    use nabla operator in PAW spheres
   LVEL    =     F    velocity operator in full k-point grid
   LINTERFAST=   F  fast interpolation
   KINTER  =     0    interpolate to denser k-point grid
   CSHIFT  =0.1000    complex shift for real part using Kramers Kronig
   OMEGAMAX=  -1.0    maximum frequency
   DEG_THRESHOLD= 0.2000000E-02 threshold for treating states as degnerate
   RTIME   =   -0.100 relaxation time in fs
  (WPLASMAI=    0.000 imaginary part of plasma frequency in eV, 0.658/RTIME)
   DFIELD  = 0.0000000 0.0000000 0.0000000 field for delta impulse in time
 
 Orbital magnetization related:
   ORBITALMAG=     F  switch on orbital magnetization
   LCHIMAG   =     F  perturbation theory with respect to B field
   DQ        =  0.001000  dq finite difference perturbation B field
   LLRAUG    =     F  two centre corrections for induced B field



--------------------------------------------------------------------------------------------------------


 Static calculation
 charge density and potential will be updated during run
 non-spin polarized calculation
 Variant of blocked Davidson
 Davidson routine will perform the subspace rotation
 perform sub-space diagonalisation
    after iterative eigenvector-optimisation
 modified Broyden-mixing scheme, WC =      100.0
 initial mixing is a Kerker type mixing with AMIX =  0.4000 and BMIX =      1.0000
 Hartree-type preconditioning will be used
 using additional bands           32
 reciprocal scheme for non local part
 use partial core corrections
 calculate Harris-corrections to forces 
   (improved forces if not selfconsistent)
 use gradient corrections 
 use of overlap-Matrix (Vanderbilt PP)
 Methfessel and Paxton  Order N= 1 SIGMA  =   0.20


--------------------------------------------------------------------------------------------------------


  energy-cutoff  :      280.00
  volume of cell :       21.07
      direct lattice vectors                 reciprocal lattice vectors
     2.376600000  0.000000000  0.000000000     0.420769166  0.242931191  0.000000000
    -1.188300000  2.058195975  0.000000000     0.000000000  0.485862383  0.000000000
     0.000000000  0.000000000  4.307460000     0.000000000  0.000000000  0.232155377

  length of vectors
     2.376600000  2.376600000  4.307460000     0.485862383  0.485862383  0.232155377


 
 k-points in units of 2pi/SCALE and weight: KPOINTS created by Atomic Simulation Env
   0.00000000  0.00000000  0.00000000       0.001
   0.03825174  0.02208465  0.00000000       0.005
   0.07650348  0.04416931  0.00000000       0.005
   0.11475523  0.06625396  0.00000000       0.005
   0.15300697  0.08833862  0.00000000       0.005
   0.19125871  0.11042327  0.00000000       0.005
   0.03825174  0.06625396  0.00000000       0.005
   0.07650348  0.08833862  0.00000000       0.009
   0.11475523  0.11042327  0.00000000       0.009
   0.15300697  0.13250792  0.00000000       0.009
   0.19125871  0.15459258  0.00000000       0.005
   0.07650348  0.13250792  0.00000000       0.005
   0.11475523  0.15459258  0.00000000       0.009
   0.15300697  0.17667723  0.00000000       0.009
   0.11475523  0.19876188  0.00000000       0.005
   0.15300697  0.22084654  0.00000000       0.005
   0.00000000  0.00000000  0.02110503       0.002
   0.03825174  0.02208465  0.02110503       0.009
   0.07650348  0.04416931  0.02110503       0.009
   0.11475523  0.06625396  0.02110503       0.009
   0.15300697  0.08833862  0.02110503       0.009
   0.19125871  0.11042327  0.02110503       0.009
   0.03825174  0.06625396  0.02110503       0.009
   0.07650348  0.08833862  0.02110503       0.018
   0.11475523  0.11042327  0.02110503       0.018
   0.15300697  0.13250792  0.02110503       0.018
   0.19125871  0.15459258  0.02110503       0.009
   0.07650348  0.13250792  0.02110503       0.009
   0.11475523  0.15459258  0.02110503       0.018
   0.15300697  0.17667723  0.02110503       0.018
   0.11475523  0.19876188  0.02110503       0.009
   0.15300697  0.22084654  0.02110503       0.009
   0.00000000  0.00000000  0.04221007       0.002
   0.03825174  0.02208465  0.04221007       0.009
   0.07650348  0.04416931  0.04221007       0.009
   0.11475523  0.06625396  0.04221007       0.009
   0.15300697  0.08833862  0.04221007       0.009
   0.19125871  0.11042327  0.04221007       0.009
   0.03825174  0.06625396  0.04221007       0.009
   0.07650348  0.08833862  0.04221007       0.018
   0.11475523  0.11042327  0.04221007       0.018
   0.15300697  0.13250792  0.04221007       0.018
   0.19125871  0.15459258  0.04221007       0.009
   0.07650348  0.13250792  0.04221007       0.009
   0.11475523  0.15459258  0.04221007       0.018
   0.15300697  0.17667723  0.04221007       0.018
   0.11475523  0.19876188  0.04221007       0.009
   0.15300697  0.22084654  0.04221007       0.009
   0.00000000  0.00000000  0.06331510       0.002
   0.03825174  0.02208465  0.06331510       0.009
   0.07650348  0.04416931  0.06331510       0.009
   0.11475523  0.06625396  0.06331510       0.009
   0.15300697  0.08833862  0.06331510       0.009
   0.19125871  0.11042327  0.06331510       0.009
   0.03825174  0.06625396  0.06331510       0.009
   0.07650348  0.08833862  0.06331510       0.018
   0.11475523  0.11042327  0.06331510       0.018
   0.15300697  0.13250792  0.06331510       0.018
   0.19125871  0.15459258  0.06331510       0.009
   0.07650348  0.13250792  0.06331510       0.009
   0.11475523  0.15459258  0.06331510       0.018
   0.15300697  0.17667723  0.06331510       0.018
   0.11475523  0.19876188  0.06331510       0.009
   0.15300697  0.22084654  0.06331510       0.009
   0.00000000  0.00000000  0.08442014       0.002
   0.03825174  0.02208465  0.08442014       0.009
   0.07650348  0.04416931  0.08442014       0.009
   0.11475523  0.06625396  0.08442014       0.009
   0.15300697  0.08833862  0.08442014       0.009
   0.19125871  0.11042327  0.08442014       0.009
   0.03825174  0.06625396  0.08442014       0.009
   0.07650348  0.08833862  0.08442014       0.018
   0.11475523  0.11042327  0.08442014       0.018
   0.15300697  0.13250792  0.08442014       0.018
   0.19125871  0.15459258  0.08442014       0.009
   0.07650348  0.13250792  0.08442014       0.009
   0.11475523  0.15459258  0.08442014       0.018
   0.15300697  0.17667723  0.08442014       0.018
   0.11475523  0.19876188  0.08442014       0.009
   0.15300697  0.22084654  0.08442014       0.009
   0.00000000  0.00000000  0.10552517       0.002
   0.03825174  0.02208465  0.10552517       0.009
   0.07650348  0.04416931  0.10552517       0.009
   0.11475523  0.06625396  0.10552517       0.009
   0.15300697  0.08833862  0.10552517       0.009
   0.19125871  0.11042327  0.10552517       0.009
   0.03825174  0.06625396  0.10552517       0.009
   0.07650348  0.08833862  0.10552517       0.018
   0.11475523  0.11042327  0.10552517       0.018
   0.15300697  0.13250792  0.10552517       0.018
   0.19125871  0.15459258  0.10552517       0.009
   0.07650348  0.13250792  0.10552517       0.009
   0.11475523  0.15459258  0.10552517       0.018
   0.15300697  0.17667723  0.10552517       0.018
   0.11475523  0.19876188  0.10552517       0.009
   0.15300697  0.22084654  0.10552517       0.009
 
 k-points in reciprocal lattice and weights: KPOINTS created by Atomic Simulation Env
   0.00000000  0.00000000  0.00000000       0.001
   0.09090909  0.00000000  0.00000000       0.005
   0.18181818  0.00000000  0.00000000       0.005
   0.27272727  0.00000000  0.00000000       0.005
   0.36363636  0.00000000  0.00000000       0.005
   0.45454545  0.00000000  0.00000000       0.005
   0.09090909  0.09090909  0.00000000       0.005
   0.18181818  0.09090909  0.00000000       0.009
   0.27272727  0.09090909  0.00000000       0.009
   0.36363636  0.09090909  0.00000000       0.009
   0.45454545  0.09090909  0.00000000       0.005
   0.18181818  0.18181818  0.00000000       0.005
   0.27272727  0.18181818  0.00000000       0.009
   0.36363636  0.18181818  0.00000000       0.009
   0.27272727  0.27272727  0.00000000       0.005
   0.36363636  0.27272727  0.00000000       0.005
   0.00000000  0.00000000  0.09090909       0.002
   0.09090909  0.00000000  0.09090909       0.009
   0.18181818  0.00000000  0.09090909       0.009
   0.27272727  0.00000000  0.09090909       0.009
   0.36363636  0.00000000  0.09090909       0.009
   0.45454545  0.00000000  0.09090909       0.009
   0.09090909  0.09090909  0.09090909       0.009
   0.18181818  0.09090909  0.09090909       0.018
   0.27272727  0.09090909  0.09090909       0.018
   0.36363636  0.09090909  0.09090909       0.018
   0.45454545  0.09090909  0.09090909       0.009
   0.18181818  0.18181818  0.09090909       0.009
   0.27272727  0.18181818  0.09090909       0.018
   0.36363636  0.18181818  0.09090909       0.018
   0.27272727  0.27272727  0.09090909       0.009
   0.36363636  0.27272727  0.09090909       0.009
   0.00000000  0.00000000  0.18181818       0.002
   0.09090909  0.00000000  0.18181818       0.009
   0.18181818  0.00000000  0.18181818       0.009
   0.27272727  0.00000000  0.18181818       0.009
   0.36363636  0.00000000  0.18181818       0.009
   0.45454545  0.00000000  0.18181818       0.009
   0.09090909  0.09090909  0.18181818       0.009
   0.18181818  0.09090909  0.18181818       0.018
   0.27272727  0.09090909  0.18181818       0.018
   0.36363636  0.09090909  0.18181818       0.018
   0.45454545  0.09090909  0.18181818       0.009
   0.18181818  0.18181818  0.18181818       0.009
   0.27272727  0.18181818  0.18181818       0.018
   0.36363636  0.18181818  0.18181818       0.018
   0.27272727  0.27272727  0.18181818       0.009
   0.36363636  0.27272727  0.18181818       0.009
   0.00000000  0.00000000  0.27272727       0.002
   0.09090909  0.00000000  0.27272727       0.009
   0.18181818  0.00000000  0.27272727       0.009
   0.27272727  0.00000000  0.27272727       0.009
   0.36363636  0.00000000  0.27272727       0.009
   0.45454545  0.00000000  0.27272727       0.009
   0.09090909  0.09090909  0.27272727       0.009
   0.18181818  0.09090909  0.27272727       0.018
   0.27272727  0.09090909  0.27272727       0.018
   0.36363636  0.09090909  0.27272727       0.018
   0.45454545  0.09090909  0.27272727       0.009
   0.18181818  0.18181818  0.27272727       0.009
   0.27272727  0.18181818  0.27272727       0.018
   0.36363636  0.18181818  0.27272727       0.018
   0.27272727  0.27272727  0.27272727       0.009
   0.36363636  0.27272727  0.27272727       0.009
   0.00000000  0.00000000  0.36363636       0.002
   0.09090909  0.00000000  0.36363636       0.009
   0.18181818  0.00000000  0.36363636       0.009
   0.27272727  0.00000000  0.36363636       0.009
   0.36363636  0.00000000  0.36363636       0.009
   0.45454545  0.00000000  0.36363636       0.009
   0.09090909  0.09090909  0.36363636       0.009
   0.18181818  0.09090909  0.36363636       0.018
   0.27272727  0.09090909  0.36363636       0.018
   0.36363636  0.09090909  0.36363636       0.018
   0.45454545  0.09090909  0.36363636       0.009
   0.18181818  0.18181818  0.36363636       0.009
   0.27272727  0.18181818  0.36363636       0.018
   0.36363636  0.18181818  0.36363636       0.018
   0.27272727  0.27272727  0.36363636       0.009
   0.36363636  0.27272727  0.36363636       0.009
   0.00000000  0.00000000  0.45454545       0.002
   0.09090909  0.00000000  0.45454545       0.009
   0.18181818  0.00000000  0.45454545       0.009
   0.27272727  0.00000000  0.45454545       0.009
   0.36363636  0.00000000  0.45454545       0.009
   0.45454545  0.00000000  0.45454545       0.009
   0.09090909  0.09090909  0.45454545       0.009
   0.18181818  0.09090909  0.45454545       0.018
   0.27272727  0.09090909  0.45454545       0.018
   0.36363636  0.09090909  0.45454545       0.018
   0.45454545  0.09090909  0.45454545       0.009
   0.18181818  0.18181818  0.45454545       0.009
   0.27272727  0.18181818  0.45454545       0.018
   0.36363636  0.18181818  0.45454545       0.018
   0.27272727  0.27272727  0.45454545       0.009
   0.36363636  0.27272727  0.45454545       0.009
 
 position of ions in fractional coordinates (direct lattice) 
   0.00000000  0.00000000  0.00000000
   0.33333333  0.66666667  0.50000000
 
 position of ions in cartesian coordinates  (Angst):
   0.00000000  0.00000000  0.00000000
   0.00000000  1.37213065  2.15373000
 


--------------------------------------------------------------------------------------------------------


 k-point   1 :   0.0000 0.0000 0.0000  plane waves:     221
 k-point   2 :   0.0909 0.0000 0.0000  plane waves:     231
 k-point   3 :   0.1818 0.0000 0.0000  plane waves:     217
 k-point   4 :   0.2727 0.0000 0.0000  plane waves:     222
 k-point   5 :   0.3636 0.0000 0.0000  plane waves:     232
 k-point   6 :   0.4545 0.0000 0.0000  plane waves:     224
 k-point   7 :   0.0909 0.0909 0.0000  plane waves:     225
 k-point   8 :   0.1818 0.0909 0.0000  plane waves:     217
 k-point   9 :   0.2727 0.0909 0.0000  plane waves:     223
 k-point  10 :   0.3636 0.0909 0.0000  plane waves:     226
 k-point  11 :   0.4545 0.0909 0.0000  plane waves:     222
 k-point  12 :   0.1818 0.1818 0.0000  plane waves:     229
 k-point  13 :   0.2727 0.1818 0.0000  plane waves:     224
 k-point  14 :   0.3636 0.1818 0.0000  plane waves:     224
 k-point  15 :   0.2727 0.2727 0.0000  plane waves:     225
 k-point  16 :   0.3636 0.2727 0.0000  plane waves:     217
 k-point  17 :   0.0000 0.0000 0.0909  plane waves:     233
 k-point  18 :   0.0909 0.0000 0.0909  plane waves:     228
 k-point  19 :   0.1818 0.0000 0.0909  plane waves:     219
 k-point  20 :   0.2727 0.0000 0.0909  plane waves:     222
 k-point  21 :   0.3636 0.0000 0.0909  plane waves:     227
 k-point  22 :   0.4545 0.0000 0.0909  plane waves:     225
 k-point  23 :   0.0909 0.0909 0.0909  plane waves:     225
 k-point  24 :   0.1818 0.0909 0.0909  plane waves:     222
 k-point  25 :   0.2727 0.0909 0.0909  plane waves:     223
 k-point  26 :   0.3636 0.0909 0.0909  plane waves:     223
 k-point  27 :   0.4545 0.0909 0.0909  plane waves:     224
 k-point  28 :   0.1818 0.1818 0.0909  plane waves:     223
 k-point  29 :   0.2727 0.1818 0.0909  plane waves:     227
 k-point  30 :   0.3636 0.1818 0.0909  plane waves:     224
 k-point  31 :   0.2727 0.2727 0.0909  plane waves:     223
 k-point  32 :   0.3636 0.2727 0.0909  plane waves:     221
 k-point  33 :   0.0000 0.0000 0.1818  plane waves:     228
 k-point  34 :   0.0909 0.0000 0.1818  plane waves:     231
 k-point  35 :   0.1818 0.0000 0.1818  plane waves:     220
 k-point  36 :   0.2727 0.0000 0.1818  plane waves:     223
 k-point  37 :   0.3636 0.0000 0.1818  plane waves:     224
 k-point  38 :   0.4545 0.0000 0.1818  plane waves:     225
 k-point  39 :   0.0909 0.0909 0.1818  plane waves:     223
 k-point  40 :   0.1818 0.0909 0.1818  plane waves:     224
 k-point  41 :   0.2727 0.0909 0.1818  plane waves:     223
 k-point  42 :   0.3636 0.0909 0.1818  plane waves:     224
 k-point  43 :   0.4545 0.0909 0.1818  plane waves:     222
 k-point  44 :   0.1818 0.1818 0.1818  plane waves:     228
 k-point  45 :   0.2727 0.1818 0.1818  plane waves:     222
 k-point  46 :   0.3636 0.1818 0.1818  plane waves:     224
 k-point  47 :   0.2727 0.2727 0.1818  plane waves:     221
 k-point  48 :   0.3636 0.2727 0.1818  plane waves:     224
 k-point  49 :   0.0000 0.0000 0.2727  plane waves:     228
 k-point  50 :   0.0909 0.0000 0.2727  plane waves:     231
 k-point  51 :   0.1818 0.0000 0.2727  plane waves:     224
 k-point  52 :   0.2727 0.0000 0.2727  plane waves:     222
 k-point  53 :   0.3636 0.0000 0.2727  plane waves:     223
 k-point  54 :   0.4545 0.0000 0.2727  plane waves:     225
 k-point  55 :   0.0909 0.0909 0.2727  plane waves:     225
 k-point  56 :   0.1818 0.0909 0.2727  plane waves:     222
 k-point  57 :   0.2727 0.0909 0.2727  plane waves:     223
 k-point  58 :   0.3636 0.0909 0.2727  plane waves:     225
 k-point  59 :   0.4545 0.0909 0.2727  plane waves:     223
 k-point  60 :   0.1818 0.1818 0.2727  plane waves:     224
 k-point  61 :   0.2727 0.1818 0.2727  plane waves:     224
 k-point  62 :   0.3636 0.1818 0.2727  plane waves:     227
 k-point  63 :   0.2727 0.2727 0.2727  plane waves:     221
 k-point  64 :   0.3636 0.2727 0.2727  plane waves:     229
 k-point  65 :   0.0000 0.0000 0.3636  plane waves:     228
 k-point  66 :   0.0909 0.0000 0.3636  plane waves:     226
 k-point  67 :   0.1818 0.0000 0.3636  plane waves:     222
 k-point  68 :   0.2727 0.0000 0.3636  plane waves:     221
 k-point  69 :   0.3636 0.0000 0.3636  plane waves:     220
 k-point  70 :   0.4545 0.0000 0.3636  plane waves:     223
 k-point  71 :   0.0909 0.0909 0.3636  plane waves:     226
 k-point  72 :   0.1818 0.0909 0.3636  plane waves:     223
 k-point  73 :   0.2727 0.0909 0.3636  plane waves:     224
 k-point  74 :   0.3636 0.0909 0.3636  plane waves:     226
 k-point  75 :   0.4545 0.0909 0.3636  plane waves:     226
 k-point  76 :   0.1818 0.1818 0.3636  plane waves:     222
 k-point  77 :   0.2727 0.1818 0.3636  plane waves:     226
 k-point  78 :   0.3636 0.1818 0.3636  plane waves:     227
 k-point  79 :   0.2727 0.2727 0.3636  plane waves:     226
 k-point  80 :   0.3636 0.2727 0.3636  plane waves:     227
 k-point  81 :   0.0000 0.0000 0.4545  plane waves:     234
 k-point  82 :   0.0909 0.0000 0.4545  plane waves:     224
 k-point  83 :   0.1818 0.0000 0.4545  plane waves:     227
 k-point  84 :   0.2727 0.0000 0.4545  plane waves:     222
 k-point  85 :   0.3636 0.0000 0.4545  plane waves:     222
 k-point  86 :   0.4545 0.0000 0.4545  plane waves:     225
 k-point  87 :   0.0909 0.0909 0.4545  plane waves:     224
 k-point  88 :   0.1818 0.0909 0.4545  plane waves:     225
 k-point  89 :   0.2727 0.0909 0.4545  plane waves:     224
 k-point  90 :   0.3636 0.0909 0.4545  plane waves:     225
 k-point  91 :   0.4545 0.0909 0.4545  plane waves:     231
 k-point  92 :   0.1818 0.1818 0.4545  plane waves:     218
 k-point  93 :   0.2727 0.1818 0.4545  plane waves:     225
 k-point  94 :   0.3636 0.1818 0.4545  plane waves:     228
 k-point  95 :   0.2727 0.2727 0.4545  plane waves:     226
 k-point  96 :   0.3636 0.2727 0.4545  plane waves:     224

 maximum number of plane-waves:       234
 maximum index in each direction: 
   IXMAX=    3   IYMAX=    3   IZMAX=    5
   IXMIN=   -3   IYMIN=   -3   IZMIN=   -6


 total amount of memory used by VASP MPI-rank0    50673. kBytes
=======================================================================

   base      :      30000. kBytes
   nonl-proj :       3242. kBytes
   grid      :        812. kBytes
   one-center:         31. kBytes
   wavefun   :      16588. kBytes
 
     INWAV:  cpu time    0.0000: real time    0.0000
 Broyden mixing: mesh for mixing (old mesh)
   NGX =  7   NGY =  7   NGZ = 11
  (NGX  = 20   NGY  = 20   NGZ  = 36)
  gives a total of    539 points

 initial charge density was supplied:
 charge density of overlapping atoms calculated
 number of electron      16.0000000 magnetization 
 keeping initial charge density in first step


--------------------------------------------------------------------------------------------------------


 Maximum index for augmentation-charges         2940 (set IRDMAX)


--------------------------------------------------------------------------------------------------------


 First call to EWALD:  gamma=   0.642
 Maximum number of real-space cells 4x 4x 2
 Maximum number of reciprocal cells 2x 2x 4

    FEWALD:  cpu time    0.0008: real time    0.0008


--------------------------------------- Iteration      1(   1)  ---------------------------------------


    POTLOK:  cpu time    0.0035: real time    0.0035
    SETDIJ:  cpu time    0.0021: real time    0.0021
     EDDAV:  cpu time    0.7807: real time    0.8002
       DOS:  cpu time    0.0056: real time    0.0056
    --------------------------------------------
      LOOP:  cpu time    0.7919: real time    0.8115

 eigenvalue-minimisations  :  9192
 total energy-change (2. order) : 0.6086300E+02  (-0.2730797E+03)
 number of electron      16.0000000 magnetization 
 augmentation part       16.0000000 magnetization 

 Free energy of the ion-electron system (eV)
  ---------------------------------------------------
  alpha Z        PSCENC =       131.20806839
  Ewald energy   TEWEN  =     -1212.14338008
  -Hartree energ DENC   =      -213.24896805
  -exchange      EXHF   =         0.00000000
  -V(xc)+E(xc)   XCENC  =         8.29265171
  PAW double counting   =      1109.69170683    -1125.09647265
  entropy T*S    EENTRO =         0.00255438
  eigenvalues    EBANDS =       173.58193304
  atomic energy  EATOM  =      1188.57490811
  Solvation  Ediel_sol  =         0.00000000
  ---------------------------------------------------
  free energy    TOTEN  =        60.86300168 eV

  energy without entropy =       60.86044730  energy(sigma->0) =       60.86215022


--------------------------------------------------------------------------------------------------------




--------------------------------------- Iteration      1(   2)  ---------------------------------------


     EDDAV:  cpu time    0.6853: real time    0.6853
       DOS:  cpu time    0.0061: real time    0.0061
    --------------------------------------------
      LOOP:  cpu time    0.6914: real time    0.6914

 eigenvalue-minimisations  :  7944
 total energy-change (2. order) :-0.7551041E+02  (-0.6411736E+02)
 number of electron      16.0000000 magnetization 
 augmentation part       16.0000000 magnetization 

 Free energy of the ion-electron system (eV)
  ---------------------------------------------------
  alpha Z        PSCENC =       131.20806839
  Ewald energy   TEWEN  =     -1212.14338008
  -Hartree energ DENC   =      -213.24896805
  -exchange      EXHF   =         0.00000000
  -V(xc)+E(xc)   XCENC  =         8.29265171
  PAW double counting   =      1109.69170683    -1125.09647265
  entropy T*S    EENTRO =         0.00422607
  eigenvalues    EBANDS =        98.06984650
  atomic energy  EATOM  =      1188.57490811
  Solvation  Ediel_sol  =         0.00000000
  ---------------------------------------------------
  free energy    TOTEN  =       -14.64741316 eV

  energy without entropy =      -14.65163924  energy(sigma->0) =      -14.64882185


--------------------------------------------------------------------------------------------------------




--------------------------------------- Iteration      1(   3)  ---------------------------------------


     EDDAV:  cpu time    0.7911: real time    0.7912
       DOS:  cpu time    0.0065: real time    0.0065
    --------------------------------------------
      LOOP:  cpu time    0.7977: real time    0.7977

 eigenvalue-minimisations  :  9496
 total energy-change (2. order) :-0.4405345E+01  (-0.4188661E+01)
 number of electron      16.0000000 magnetization 
 augmentation part       16.0000000 magnetization 

 Free energy of the ion-electron system (eV)
  ---------------------------------------------------
  alpha Z        PSCENC =       131.20806839
  Ewald energy   TEWEN  =     -1212.14338008
  -Hartree energ DENC   =      -213.24896805
  -exchange      EXHF   =         0.00000000
  -V(xc)+E(xc)   XCENC  =         8.29265171
  PAW double counting   =      1109.69170683    -1125.09647265
  entropy T*S    EENTRO =         0.00053655
  eigenvalues    EBANDS =        93.66819093
  atomic energy  EATOM  =      1188.57490811
  Solvation  Ediel_sol  =         0.00000000
  ---------------------------------------------------
  free energy    TOTEN  =       -19.05275826 eV

  energy without entropy =      -19.05329481  energy(sigma->0) =      -19.05293711


--------------------------------------------------------------------------------------------------------




--------------------------------------- Iteration      1(   4)  ---------------------------------------


     EDDAV:  cpu time    0.7677: real time    0.7677
       DOS:  cpu time    0.0066: real time    0.0066
    --------------------------------------------
      LOOP:  cpu time    0.7743: real time    0.7743

 eigenvalue-minimisations  :  9216
 total energy-change (2. order) :-0.2089580E-01  (-0.2088197E-01)
 number of electron      16.0000000 magnetization 
 augmentation part       16.0000000 magnetization 

 Free energy of the ion-electron system (eV)
  ---------------------------------------------------
  alpha Z        PSCENC =       131.20806839
  Ewald energy   TEWEN  =     -1212.14338008
  -Hartree energ DENC   =      -213.24896805
  -exchange      EXHF   =         0.00000000
  -V(xc)+E(xc)   XCENC  =         8.29265171
  PAW double counting   =      1109.69170683    -1125.09647265
  entropy T*S    EENTRO =         0.00052378
  eigenvalues    EBANDS =        93.64730790
  atomic energy  EATOM  =      1188.57490811
  Solvation  Ediel_sol  =         0.00000000
  ---------------------------------------------------
  free energy    TOTEN  =       -19.07365406 eV

  energy without entropy =      -19.07417784  energy(sigma->0) =      -19.07382865


--------------------------------------------------------------------------------------------------------




--------------------------------------- Iteration      1(   5)  ---------------------------------------


     EDDAV:  cpu time    0.7774: real time    0.7780
       DOS:  cpu time    0.0065: real time    0.0065
    CHARGE:  cpu time    0.0208: real time    0.0208
    MIXING:  cpu time    0.0001: real time    0.0001
    --------------------------------------------
      LOOP:  cpu time    0.8048: real time    0.8055

 eigenvalue-minimisations  :  9224
 total energy-change (2. order) :-0.3100633E-04  (-0.3100484E-04)
 number of electron      15.9999991 magnetization 
 augmentation part        7.0662569 magnetization 

 Broyden mixing:
  rms(total) = 0.16466E+01    rms(broyden)= 0.16465E+01
  rms(prec ) = 0.28353E+01
  weight for this iteration     100.00

 Free energy of the ion-electron system (eV)
  ---------------------------------------------------
  alpha Z        PSCENC =       131.20806839
  Ewald energy   TEWEN  =     -1212.14338008
  -Hartree energ DENC   =      -213.24896805
  -exchange      EXHF   =         0.00000000
  -V(xc)+E(xc)   XCENC  =         8.29265171
  PAW double counting   =      1109.69170683    -1125.09647265
  entropy T*S    EENTRO =         0.00052380
  eigenvalues    EBANDS =        93.64727688
  atomic energy  EATOM  =      1188.57490811
  Solvation  Ediel_sol  =         0.00000000
  ---------------------------------------------------
  free energy    TOTEN  =       -19.07368507 eV

  energy without entropy =      -19.07420886  energy(sigma->0) =      -19.07385967


--------------------------------------------------------------------------------------------------------




--------------------------------------- Iteration      1(   6)  ---------------------------------------


    POTLOK:  cpu time    0.0034: real time    0.0034
    SETDIJ:  cpu time    0.0021: real time    0.0021
     EDDAV:  cpu time    0.9078: real time    0.9079
       DOS:  cpu time    0.0067: real time    0.0067
    CHARGE:  cpu time    0.0190: real time    0.0190
    MIXING:  cpu time    0.0002: real time    0.0002
    --------------------------------------------
      LOOP:  cpu time    0.9392: real time    0.9392

 eigenvalue-minimisations  : 11176
 total energy-change (2. order) : 0.2833882E+01  (-0.2008785E+00)
 number of electron      15.9999990 magnetization 
 augmentation part        8.5382264 magnetization 

 Broyden mixing:
  rms(total) = 0.29596E+00    rms(broyden)= 0.29584E+00
  rms(prec ) = 0.50624E+00
  weight for this iteration     100.00

 eigenvalues of (default mixing * dielectric matrix)
  average eigenvalue GAMMA=   0.9001
  0.9001

 Free energy of the ion-electron system (eV)
  ---------------------------------------------------
  alpha Z        PSCENC =       131.20806839
  Ewald energy   TEWEN  =     -1212.14338008
  -Hartree energ DENC   =      -178.03998414
  -exchange      EXHF   =         0.00000000
  -V(xc)+E(xc)   XCENC  =         6.57797302
  PAW double counting   =      1238.58730073    -1249.33949413
  entropy T*S    EENTRO =         0.00281340
  eigenvalues    EBANDS =        58.33199135
  atomic energy  EATOM  =      1188.57490811
  Solvation  Ediel_sol  =         0.00000000
  ---------------------------------------------------
  free energy    TOTEN  =       -16.23980333 eV

  energy without entropy =      -16.24261673  energy(sigma->0) =      -16.24074113


--------------------------------------------------------------------------------------------------------




--------------------------------------- Iteration      1(   7)  ---------------------------------------


    POTLOK:  cpu time    0.0034: real time    0.0034
    SETDIJ:  cpu time    0.0021: real time    0.0021
     EDDAV:  cpu time    0.8286: real time    0.8287
       DOS:  cpu time    0.0066: real time    0.0066
    CHARGE:  cpu time    0.0194: real time    0.0194
    MIXING:  cpu time    0.0002: real time    0.0002
    --------------------------------------------
      LOOP:  cpu time    0.8603: real time    0.8603

 eigenvalue-minimisations  : 10208
 total energy-change (2. order) : 0.2349691E+00  (-0.1498419E-01)
 number of electron      15.9999991 magnetization 
 augmentation part        8.1875345 magnetization 

 Broyden mixing:
  rms(total) = 0.10568E+00    rms(broyden)= 0.10568E+00
  rms(prec ) = 0.20322E+00
  weight for this iteration     100.00

 eigenvalues of (default mixing * dielectric matrix)
  average eigenvalue GAMMA=   0.9642
  1.1985  0.7299

 Free energy of the ion-electron system (eV)
  ---------------------------------------------------
  alpha Z        PSCENC =       131.20806839
  Ewald energy   TEWEN  =     -1212.14338008
  -Hartree energ DENC   =      -183.20994581
  -exchange      EXHF   =         0.00000000
  -V(xc)+E(xc)   XCENC  =         6.86133069
  PAW double counting   =      1312.17897099    -1326.55487264
  entropy T*S    EENTRO =         0.00294415
  eigenvalues    EBANDS =        67.07714195
  atomic energy  EATOM  =      1188.57490811
  Solvation  Ediel_sol  =         0.00000000
  ---------------------------------------------------
  free energy    TOTEN  =       -16.00483424 eV

  energy without entropy =      -16.00777839  energy(sigma->0) =      -16.00581562


--------------------------------------------------------------------------------------------------------




--------------------------------------- Iteration      1(   8)  ---------------------------------------


    POTLOK:  cpu time    0.0033: real time    0.0033
    SETDIJ:  cpu time    0.0021: real time    0.0021
     EDDAV:  cpu time    0.8271: real time    0.8272
       DOS:  cpu time    0.0068: real time    0.0068
    CHARGE:  cpu time    0.0194: real time    0.0194
    MIXING:  cpu time    0.0002: real time    0.0002
    --------------------------------------------
      LOOP:  cpu time    0.8589: real time    0.8589

 eigenvalue-minimisations  : 10128
 total energy-change (2. order) : 0.2608634E-01  (-0.4227940E-03)
 number of electron      15.9999991 magnetization 
 augmentation part        8.2207580 magnetization 

 Broyden mixing:
  rms(total) = 0.47613E-01    rms(broyden)= 0.47612E-01
  rms(prec ) = 0.90041E-01
  weight for this iteration     100.00

 eigenvalues of (default mixing * dielectric matrix)
  average eigenvalue GAMMA=   1.4363
  0.7696  1.0426  2.4966

 Free energy of the ion-electron system (eV)
  ---------------------------------------------------
  alpha Z        PSCENC =       131.20806839
  Ewald energy   TEWEN  =     -1212.14338008
  -Hartree energ DENC   =      -181.09873864
  -exchange      EXHF   =         0.00000000
  -V(xc)+E(xc)   XCENC  =         6.77771757
  PAW double counting   =      1368.95259412    -1384.60455411
  entropy T*S    EENTRO =         0.00302792
  eigenvalues    EBANDS =        66.35160881
  atomic energy  EATOM  =      1188.57490811
  Solvation  Ediel_sol  =         0.00000000
  ---------------------------------------------------
  free energy    TOTEN  =       -15.97874790 eV

  energy without entropy =      -15.98177582  energy(sigma->0) =      -15.97975721


--------------------------------------------------------------------------------------------------------




--------------------------------------- Iteration      1(   9)  ---------------------------------------


    POTLOK:  cpu time    0.0034: real time    0.0034
    SETDIJ:  cpu time    0.0021: real time    0.0021
     EDDAV:  cpu time    0.9106: real time    0.9107
       DOS:  cpu time    0.0069: real time    0.0069
    CHARGE:  cpu time    0.0209: real time    0.0209
    MIXING:  cpu time    0.0002: real time    0.0002
    --------------------------------------------
      LOOP:  cpu time    0.9441: real time    0.9442

 eigenvalue-minimisations  : 11152
 total energy-change (2. order) : 0.1025962E-01  (-0.8962898E-04)
 number of electron      15.9999991 magnetization 
 augmentation part        8.2366743 magnetization 

 Broyden mixing:
  rms(total) = 0.59505E-02    rms(broyden)= 0.59472E-02
  rms(prec ) = 0.62979E-02
  weight for this iteration     100.00

 eigenvalues of (default mixing * dielectric matrix)
  average eigenvalue GAMMA=   1.4768
  2.5623  0.7684  0.9945  1.5819

 Free energy of the ion-electron system (eV)
  ---------------------------------------------------
  alpha Z        PSCENC =       131.20806839
  Ewald energy   TEWEN  =     -1212.14338008
  -Hartree energ DENC   =      -179.08350293
  -exchange      EXHF   =         0.00000000
  -V(xc)+E(xc)   XCENC  =         6.70510512
  PAW double counting   =      1441.55701119    -1458.85659054
  entropy T*S    EENTRO =         0.00303441
  eigenvalues    EBANDS =        66.06685805
  atomic energy  EATOM  =      1188.57490811
  Solvation  Ediel_sol  =         0.00000000
  ---------------------------------------------------
  free energy    TOTEN  =       -15.96848828 eV

  energy without entropy =      -15.97152268  energy(sigma->0) =      -15.96949974


--------------------------------------------------------------------------------------------------------




--------------------------------------- Iteration      1(  10)  ---------------------------------------


    POTLOK:  cpu time    0.0034: real time    0.0034
    SETDIJ:  cpu time    0.0021: real time    0.0021
     EDDAV:  cpu time    0.7605: real time    0.7605
       DOS:  cpu time    0.0069: real time    0.0069
    CHARGE:  cpu time    0.0202: real time    0.0202
    MIXING:  cpu time    0.0002: real time    0.0002
    --------------------------------------------
      LOOP:  cpu time    0.7932: real time    0.7933

 eigenvalue-minimisations  :  9152
 total energy-change (2. order) :-0.2941371E-04  (-0.4001133E-05)
 number of electron      15.9999991 magnetization 
 augmentation part        8.2373066 magnetization 

 Broyden mixing:
  rms(total) = 0.27900E-02    rms(broyden)= 0.27875E-02
  rms(prec ) = 0.33436E-02
  weight for this iteration     100.00

 eigenvalues of (default mixing * dielectric matrix)
  average eigenvalue GAMMA=   1.6196
  2.5505  2.5505  0.7686  1.0099  1.2184

 Free energy of the ion-electron system (eV)
  ---------------------------------------------------
  alpha Z        PSCENC =       131.20806839
  Ewald energy   TEWEN  =     -1212.14338008
  -Hartree energ DENC   =      -179.05456201
  -exchange      EXHF   =         0.00000000
  -V(xc)+E(xc)   XCENC  =         6.70518415
  PAW double counting   =      1445.12889449    -1462.43853930
  entropy T*S    EENTRO =         0.00303164
  eigenvalues    EBANDS =        66.04787692
  atomic energy  EATOM  =      1188.57490811
  Solvation  Ediel_sol  =         0.00000000
  ---------------------------------------------------
  free energy    TOTEN  =       -15.96851769 eV

  energy without entropy =      -15.97154932  energy(sigma->0) =      -15.96952823


--------------------------------------------------------------------------------------------------------




--------------------------------------- Iteration      1(  11)  ---------------------------------------


    POTLOK:  cpu time    0.0034: real time    0.0034
    SETDIJ:  cpu time    0.0021: real time    0.0021
     EDDAV:  cpu time    0.8299: real time    0.8300
       DOS:  cpu time    0.0067: real time    0.0067
    CHARGE:  cpu time    0.0199: real time    0.0199
    MIXING:  cpu time    0.0002: real time    0.0002
    --------------------------------------------
      LOOP:  cpu time    0.8624: real time    0.8624

 eigenvalue-minimisations  :  9400
 total energy-change (2. order) : 0.5929288E-05  (-0.6530798E-07)
 number of electron      15.9999991 magnetization 
 augmentation part        8.2370604 magnetization 

 Broyden mixing:
  rms(total) = 0.18944E-03    rms(broyden)= 0.18900E-03
  rms(prec ) = 0.22270E-03
  weight for this iteration     100.00

 eigenvalues of (default mixing * dielectric matrix)
  average eigenvalue GAMMA=   1.5340
  2.5713  2.5713  0.7684  1.0001  1.0001  1.2928

 Free energy of the ion-electron system (eV)
  ---------------------------------------------------
  alpha Z        PSCENC =       131.20806839
  Ewald energy   TEWEN  =     -1212.14338008
  -Hartree energ DENC   =      -179.11064575
  -exchange      EXHF   =         0.00000000
  -V(xc)+E(xc)   XCENC  =         6.70796020
  PAW double counting   =      1445.02797357    -1462.28460935
  entropy T*S    EENTRO =         0.00303174
  eigenvalues    EBANDS =        66.04818141
  atomic energy  EATOM  =      1188.57490811
  Solvation  Ediel_sol  =         0.00000000
  ---------------------------------------------------
  free energy    TOTEN  =       -15.96851176 eV

  energy without entropy =      -15.97154350  energy(sigma->0) =      -15.96952234


--------------------------------------------------------------------------------------------------------




--------------------------------------- Iteration      1(  12)  ---------------------------------------


    POTLOK:  cpu time    0.0033: real time    0.0033
    SETDIJ:  cpu time    0.0020: real time    0.0020
     EDDAV:  cpu time    0.5719: real time    0.5720
       DOS:  cpu time    0.0066: real time    0.0066
    --------------------------------------------
      LOOP:  cpu time    0.5839: real time    0.5840

 eigenvalue-minimisations  :  5944
 total energy-change (2. order) : 0.5978752E-06  (-0.2835651E-08)
 number of electron      15.9999991 magnetization 
 augmentation part        8.2370604 magnetization 

 Free energy of the ion-electron system (eV)
  ---------------------------------------------------
  alpha Z        PSCENC =       131.20806839
  Ewald energy   TEWEN  =     -1212.14338008
  -Hartree energ DENC   =      -179.11479351
  -exchange      EXHF   =         0.00000000
  -V(xc)+E(xc)   XCENC  =         6.70818128
  PAW double counting   =      1445.12422734    -1462.37648845
  entropy T*S    EENTRO =         0.00303185
  eigenvalues    EBANDS =        66.04773390
  atomic energy  EATOM  =      1188.57490811
  Solvation  Ediel_sol  =         0.00000000
  ---------------------------------------------------
  free energy    TOTEN  =       -15.96851116 eV

  energy without entropy =      -15.97154301  energy(sigma->0) =      -15.96952178


--------------------------------------------------------------------------------------------------------




 average (electrostatic) potential at core
  the test charge radii are     1.0103
  (the norm of the test charge is              1.0000)
       1 -42.9593       2 -42.9591
 
 
 
 E-fermi :   6.5390     XC(G=0): -13.5904     alpha+bet :-14.7133

 Fermi energy:         6.5389707017

 k-point     1 :       0.0000    0.0000    0.0000
  band No.  band energies     occupation 
      1      -2.1731      2.00000
      2       1.6468      2.00000
      3       4.2657      2.00000
      4       5.0446      2.00000
      5       5.0448      2.00000
      6       5.2984      2.00000
      7       5.2985      2.00000
      8       5.5765      2.00000
      9       6.3515      2.03468
     10       6.3515      2.03464
     11       7.2491     -0.00001
     12       7.2491     -0.00001
     13      13.1141      0.00000
     14      28.7239      0.00000
     15      30.0611      0.00000
     16      32.7785      0.00000
     17      35.1094      0.00000
     18      35.1123      0.00000
     19      35.1123      0.00000
     20      35.9482      0.00000
     21      35.9483      0.00000
     22      38.6443      0.00000
     23      38.6443      0.00000
     24      39.5929      0.00000
     25      41.9200      0.00000
     26      41.9200      0.00000
     27      42.0890      0.00000
     28      45.5547      0.00000
     29      45.5550      0.00000
     30      47.3163      0.00000
     31      47.3164      0.00000
     32      49.3168      0.00000
     33      56.7425      0.00000
     34      60.5017      0.00000
     35      60.5025      0.00000
     36      60.8305      0.00000
     37      61.3973      0.00000
     38      62.1958      0.00000
     39      62.1960      0.00000
     40      62.2310      0.00000

 k-point     2 :       0.0909    0.0000    0.0000
  band No.  band energies     occupation 
      1      -1.8448      2.00000
      2       1.8992      2.00000
      3       4.3224      2.00000
      4       4.8746      2.00000
      5       4.9436      2.00000
      6       5.1813      2.00000
      7       5.2291      2.00000
      8       5.4744      2.00000
      9       6.1873      2.03218
     10       6.2480      2.05923
     11       7.2703     -0.00000
     12       8.2229     -0.00000
     13      13.1400      0.00000
     14      28.6849      0.00000
     15      29.1287      0.00000
     16      31.1470      0.00000
     17      32.3439      0.00000
     18      34.5338      0.00000
     19      34.6305      0.00000
     20      35.0131      0.00000
     21      37.9302      0.00000
     22      38.2789      0.00000
     23      38.8487      0.00000
     24      39.4546      0.00000
     25      42.8533      0.00000
     26      43.1519      0.00000
     27      43.2033      0.00000
     28      43.6616      0.00000
     29      46.8431      0.00000
     30      48.5210      0.00000
     31      49.7309      0.00000
     32      51.4619      0.00000
     33      56.3375      0.00000
     34      58.2777      0.00000
     35      58.9868      0.00000
     36      59.5183      0.00000
     37      60.1306      0.00000
     38      62.0677      0.00000
     39      62.8085      0.00000
     40      63.4777      0.00000

 k-point     3 :       0.1818    0.0000    0.0000
  band No.  band energies     occupation 
      1      -0.9136      2.00000
      2       2.5016      2.00000
      3       3.9345      2.00000
      4       4.2590      2.00000
      5       4.7180      2.00000
      6       5.2430      2.00000
      7       5.7561      2.00000
      8       5.8011      2.00000
      9       5.9686      2.00042
     10       6.0038      2.00102
     11       7.3075     -0.00000
     12       9.9308     -0.00000
     13      13.2600      0.00000
     14      24.8319      0.00000
     15      29.5667      0.00000
     16      29.8562      0.00000
     17      29.8751      0.00000
     18      30.5207      0.00000
     19      34.3030      0.00000
     20      35.5127      0.00000
     21      35.7229      0.00000
     22      36.9179      0.00000
     23      39.4652      0.00000
     24      39.9858      0.00000
     25      43.2476      0.00000
     26      44.4984      0.00000
     27      45.9397      0.00000
     28      48.0100      0.00000
     29      49.3465      0.00000
     30      52.0764      0.00000
     31      52.6098      0.00000
     32      54.7968      0.00000
     33      55.3203      0.00000
     34      55.3973      0.00000
     35      57.2845      0.00000
     36      58.5975      0.00000
     37      60.1537      0.00000
     38      61.9689      0.00000
     39      63.4807      0.00000
     40      64.9196      0.00000

 k-point     4 :       0.2727    0.0000    0.0000
  band No.  band energies     occupation 
      1       0.4164      2.00000
      2       2.8081      2.00000
      3       3.2088      2.00000
      4       4.2594      2.00000
      5       4.5269      2.00000
      6       5.3159      2.00000
      7       5.7241      2.00000
      8       5.9538      2.00028
      9       6.5018      1.30889
     10       6.6542      0.18177
     11       7.3165     -0.00000
     12      11.9059     -0.00000
     13      13.5369      0.00000
     14      20.7864      0.00000
     15      26.3364      0.00000
     16      27.1829      0.00000
     17      27.9697      0.00000
     18      30.8181      0.00000
     19      32.6969      0.00000
     20      35.0201      0.00000
     21      36.0878      0.00000
     22      36.1609      0.00000
     23      36.9657      0.00000
     24      40.2688      0.00000
     25      46.9532      0.00000
     26      48.0992      0.00000
     27      49.4445      0.00000
     28      50.0579      0.00000
     29      50.2645      0.00000
     30      52.5704      0.00000
     31      53.6061      0.00000
     32      54.9490      0.00000
     33      56.6370      0.00000
     34      57.4285      0.00000
     35      58.3243      0.00000
     36      60.1981      0.00000
     37      61.7471      0.00000
     38      61.8760      0.00000
     39      64.3923      0.00000
     40      64.4193      0.00000

 k-point     5 :       0.3636    0.0000    0.0000
  band No.  band energies     occupation 
      1       1.6220      2.00000
      2       2.5538      2.00000
      3       2.7386      2.00000
      4       4.3602      2.00000
      5       4.8829      2.00000
      6       5.0057      2.00000
      7       5.4897      2.00000
      8       7.1586     -0.00011
      9       7.2512     -0.00001
     10       7.3046     -0.00000
     11       7.3422     -0.00000
     12      13.6691      0.00000
     13      14.0502      0.00000
     14      17.7223      0.00000
     15      22.9885      0.00000
     16      24.9430      0.00000
     17      25.3765      0.00000
     18      30.2017      0.00000
     19      31.8107      0.00000
     20      34.9361      0.00000
     21      35.6651      0.00000
     22      36.8005      0.00000
     23      36.8047      0.00000
     24      40.2993      0.00000
     25      46.7896      0.00000
     26      48.7202      0.00000
     27      50.2004      0.00000
     28      53.1550      0.00000
     29      53.4596      0.00000
     30      53.6403      0.00000
     31      55.2470      0.00000
     32      57.1165      0.00000
     33      57.1807      0.00000
     34      59.1212      0.00000
     35      61.1436      0.00000
     36      61.6039      0.00000
     37      62.5315      0.00000
     38      63.3968      0.00000
     39      64.8134      0.00000
     40      65.9075      0.00000

 k-point     6 :       0.4545    0.0000    0.0000
  band No.  band energies     occupation 
      1       2.1122      2.00000
      2       2.3061      2.00000
      3       2.5129      2.00000
      4       4.6305      2.00000
      5       4.9142      2.00000
      6       5.2394      2.00000
      7       5.3588      2.00000
      8       7.2929     -0.00000
      9       7.7164     -0.00000
     10       7.8056     -0.00000
     11       8.8118     -0.00000
     12      12.1309      0.00000
     13      16.1190      0.00000
     14      17.4883      0.00000
     15      20.3506      0.00000
     16      22.1669      0.00000
     17      24.3738      0.00000
     18      29.6363      0.00000
     19      31.5414      0.00000
     20      33.8219      0.00000
     21      35.4441      0.00000
     22      37.7851      0.00000
     23      39.3573      0.00000
     24      39.5878      0.00000
     25      43.4318      0.00000
     26      48.8476      0.00000
     27      50.9332      0.00000
     28      54.5358      0.00000
     29      56.0815      0.00000
     30      56.5778      0.00000
     31      57.1561      0.00000
     32      58.8844      0.00000
     33      59.6735      0.00000
     34      60.5777      0.00000
     35      61.5816      0.00000
     36      61.7699      0.00000
     37      64.3625      0.00000
     38      64.6767      0.00000
     39      65.2133      0.00000
     40      66.0397      0.00000

 k-point     7 :       0.0909    0.0909    0.0000
  band No.  band energies     occupation 
      1      -1.2124      2.00000
      2       2.3457      2.00000
      3       4.1801      2.00000
      4       4.2763      2.00000
      5       4.9252      2.00000
      6       4.9599      2.00000
      7       5.6144      2.00000
      8       5.8162      2.00000
      9       5.8548      2.00001
     10       6.1920      2.03412
     11       7.2660     -0.00000
     12       9.4507     -0.00000
     13      13.2177      0.00000
     14      26.6165      0.00000
     15      27.7842      0.00000
     16      29.8139      0.00000
     17      31.7893      0.00000
     18      33.3527      0.00000
     19      33.5085      0.00000
     20      34.3073      0.00000
     21      34.8673      0.00000
     22      40.1213      0.00000
     23      40.4092      0.00000
     24      40.8007      0.00000
     25      42.0833      0.00000
     26      42.3601      0.00000
     27      42.7554      0.00000
     28      48.7289      0.00000
     29      50.3017      0.00000
     30      50.4131      0.00000
     31      50.5766      0.00000
     32      54.5444      0.00000
     33      55.6902      0.00000
     34      55.9217      0.00000
     35      57.1987      0.00000
     36      58.5267      0.00000
     37      59.9545      0.00000
     38      62.6238      0.00000
     39      63.2641      0.00000
     40      64.6466      0.00000

 k-point     8 :       0.1818    0.0909    0.0000
  band No.  band energies     occupation 
      1      -0.0574      2.00000
      2       2.9275      2.00000
      3       3.4702      2.00000
      4       4.0342      2.00000
      5       4.6324      2.00000
      6       5.3363      2.00000
      7       5.3709      2.00000
      8       5.9428      2.00021
      9       6.3018      2.07042
     10       6.5599      0.82383
     11       7.2460     -0.00001
     12      11.2111     -0.00000
     13      13.4571      0.00000
     14      22.8651      0.00000
     15      25.4722      0.00000
     16      28.2360      0.00000
     17      30.2277      0.00000
     18      30.7527      0.00000
     19      33.0603      0.00000
     20      33.6156      0.00000
     21      34.8024      0.00000
     22      38.7724      0.00000
     23      39.6871      0.00000
     24      40.8171      0.00000
     25      43.8815      0.00000
     26      44.8992      0.00000
     27      46.9575      0.00000
     28      50.2753      0.00000
     29      52.0171      0.00000
     30      52.9914      0.00000
     31      53.3403      0.00000
     32      55.1424      0.00000
     33      56.2214      0.00000
     34      56.4266      0.00000
     35      57.5137      0.00000
     36      58.1035      0.00000
     37      61.0077      0.00000
     38      63.0186      0.00000
     39      64.0670      0.00000
     40      65.0967      0.00000

 k-point     9 :       0.2727    0.0909    0.0000
  band No.  band energies     occupation 
      1       1.3009      2.00000
      2       2.8848      2.00000
      3       2.9522      2.00000
      4       4.1121      2.00000
      5       4.7066      2.00000
      6       4.9751      2.00000
      7       5.5987      2.00000
      8       6.1033      2.00861
      9       7.0476     -0.00191
     10       7.2174     -0.00002
     11       7.4727     -0.00000
     12      13.2490      0.00000
     13      13.9019      0.00000
     14      19.1102      0.00000
     15      23.7912      0.00000
     16      24.7562      0.00000
     17      27.2786      0.00000
     18      29.2364      0.00000
     19      32.7864      0.00000
     20      34.2013      0.00000
     21      34.5979      0.00000
     22      38.1388      0.00000
     23      38.9338      0.00000
     24      41.8366      0.00000
     25      45.7548      0.00000
     26      48.2791      0.00000
     27      49.2570      0.00000
     28      49.2960      0.00000
     29      51.8141      0.00000
     30      53.7324      0.00000
     31      54.5170      0.00000
     32      56.8689      0.00000
     33      57.9100      0.00000
     34      58.5460      0.00000
     35      60.1801      0.00000
     36      62.2622      0.00000
     37      62.9288      0.00000
     38      63.4224      0.00000
     39      63.7599      0.00000
     40      64.8824      0.00000

 k-point    10 :       0.3636    0.0909    0.0000
  band No.  band energies     occupation 
      1       2.1677      2.00000
      2       2.5752      2.00000
      3       2.6548      2.00000
      4       4.4920      2.00000
      5       4.7032      2.00000
      6       5.1094      2.00000
      7       5.3178      2.00000
      8       7.0321     -0.00269
      9       7.1881     -0.00004
     10       7.5473     -0.00000
     11       8.6326     -0.00000
     12      13.4625      0.00000
     13      15.4323      0.00000
     14      17.3388      0.00000
     15      21.7149      0.00000
     16      22.4175      0.00000
     17      24.0504      0.00000
     18      28.3932      0.00000
     19      31.8882      0.00000
     20      33.7329      0.00000
     21      36.3458      0.00000
     22      38.4808      0.00000
     23      39.2711      0.00000
     24      41.0486      0.00000
     25      45.4440      0.00000
     26      48.2995      0.00000
     27      49.5157      0.00000
     28      51.6273      0.00000
     29      53.1465      0.00000
     30      55.3364      0.00000
     31      56.8605      0.00000
     32      58.6264      0.00000
     33      59.5738      0.00000
     34      61.2164      0.00000
     35      61.6188      0.00000
     36      62.8467      0.00000
     37      63.2571      0.00000
     38      64.3134      0.00000
     39      64.9618      0.00000
     40      66.0762      0.00000

 k-point    11 :       0.4545    0.0909    0.0000
  band No.  band energies     occupation 
      1       2.3405      2.00000
      2       2.4512      2.00000
      3       2.5600      2.00000
      4       4.6060      2.00000
      5       4.9176      2.00000
      6       5.1859      2.00000
      7       5.2111      2.00000
      8       7.1761     -0.00006
      9       7.5743     -0.00000
     10       7.6018     -0.00000
     11       9.8336     -0.00000
     12      11.8881     -0.00000
     13      16.9416      0.00000
     14      17.9374      0.00000
     15      19.9276      0.00000
     16      21.3061      0.00000
     17      22.8301      0.00000
     18      28.0936      0.00000
     19      31.5117      0.00000
[...]
     18      25.8283      0.00000
     19      31.1357      0.00000
     20      32.0466      0.00000
     21      35.1041      0.00000
     22      35.4712      0.00000
     23      40.5341      0.00000
     24      41.6231      0.00000
     25      47.1154      0.00000
     26      48.8396      0.00000
     27      51.1127      0.00000
     28      52.2883      0.00000
     29      53.7811      0.00000
     30      55.4506      0.00000
     31      58.3955      0.00000
     32      58.6015      0.00000
     33      59.7461      0.00000
     34      60.3960      0.00000
     35      61.8256      0.00000
     36      62.3832      0.00000
     37      62.9186      0.00000
     38      63.3383      0.00000
     39      65.5288      0.00000
     40      65.9970      0.00000

 k-point    91 :       0.4545    0.0909    0.4545
  band No.  band energies     occupation 
      1       2.0431      2.00000
      2       2.1652      2.00000
      3       3.3049      2.00000
      4       3.3590      2.00000
      5       5.5925      2.00000
      6       5.9493      2.00025
      7       6.5588      0.83305
      8       6.8539     -0.04848
      9       7.3750     -0.00000
     10       7.4317     -0.00000
     11       9.7632     -0.00000
     12      10.2141     -0.00000
     13      15.8717      0.00000
     14      15.9114      0.00000
     15      24.1789      0.00000
     16      24.7624      0.00000
     17      25.3429      0.00000
     18      25.6704      0.00000
     19      30.6294      0.00000
     20      30.9991      0.00000
     21      34.5494      0.00000
     22      34.5818      0.00000
     23      40.5681      0.00000
     24      41.6659      0.00000
     25      47.2146      0.00000
     26      48.8832      0.00000
     27      53.0040      0.00000
     28      54.8410      0.00000
     29      56.2511      0.00000
     30      56.5180      0.00000
     31      56.9265      0.00000
     32      56.9447      0.00000
     33      60.0186      0.00000
     34      60.1124      0.00000
     35      63.1282      0.00000
     36      63.1369      0.00000
     37      63.8161      0.00000
     38      63.9718      0.00000
     39      65.9240      0.00000
     40      66.9033      0.00000

 k-point    92 :       0.1818    0.1818    0.4545
  band No.  band energies     occupation 
      1       1.9899      2.00000
      2       2.2563      2.00000
      3       3.8597      2.00000
      4       3.9121      2.00000
      5       4.3273      2.00000
      6       4.3632      2.00000
      7       5.9411      2.00020
      8       6.1499      2.01900
      9       7.1598     -0.00010
     10       7.3341     -0.00000
     11       7.7967     -0.00000
     12       8.2423     -0.00000
     13      21.5306      0.00000
     14      22.2316      0.00000
     15      22.8131      0.00000
     16      23.3796      0.00000
     17      23.9880      0.00000
     18      24.7340      0.00000
     19      35.2113      0.00000
     20      36.3195      0.00000
     21      37.0710      0.00000
     22      38.1904      0.00000
     23      39.5719      0.00000
     24      39.7728      0.00000
     25      45.5362      0.00000
     26      45.9081      0.00000
     27      49.1161      0.00000
     28      50.7999      0.00000
     29      52.5322      0.00000
     30      52.7984      0.00000
     31      55.0199      0.00000
     32      55.6660      0.00000
     33      58.0627      0.00000
     34      58.2109      0.00000
     35      59.9011      0.00000
     36      60.2258      0.00000
     37      62.7156      0.00000
     38      63.5281      0.00000
     39      65.1360      0.00000
     40      65.3757      0.00000

 k-point    93 :       0.2727    0.1818    0.4545
  band No.  band energies     occupation 
      1       2.4334      2.00000
      2       2.5321      2.00000
      3       3.6579      2.00000
      4       3.8212      2.00000
      5       4.6757      2.00000
      6       4.7969      2.00000
      7       5.8078      2.00000
      8       6.0180      2.00143
      9       7.2538     -0.00001
     10       7.5150     -0.00000
     11       9.2780     -0.00000
     12       9.7439     -0.00000
     13      19.0074      0.00000
     14      19.5318      0.00000
     15      21.6954      0.00000
     16      22.3799      0.00000
     17      23.9114      0.00000
     18      25.4770      0.00000
     19      32.7984      0.00000
     20      34.3870      0.00000
     21      35.3895      0.00000
     22      36.9188      0.00000
     23      40.6033      0.00000
     24      41.0597      0.00000
     25      47.1566      0.00000
     26      47.6861      0.00000
     27      50.3335      0.00000
     28      52.2980      0.00000
     29      53.9268      0.00000
     30      55.4876      0.00000
     31      56.9870      0.00000
     32      57.8387      0.00000
     33      59.6947      0.00000
     34      59.8559      0.00000
     35      60.7916      0.00000
     36      61.2161      0.00000
     37      62.0514      0.00000
     38      62.6540      0.00000
     39      65.4957      0.00000
     40      65.7477      0.00000

 k-point    94 :       0.3636    0.1818    0.4545
  band No.  band energies     occupation 
      1       2.4968      2.00000
      2       2.6275      2.00000
      3       3.5698      2.00000
      4       3.7172      2.00000
      5       4.8220      2.00000
      6       5.1007      2.00000
      7       6.0929      2.00709
      8       6.1920      2.03409
      9       7.2381     -0.00001
     10       7.4021     -0.00000
     11      10.9824     -0.00000
     12      11.3915     -0.00000
     13      16.3633      0.00000
     14      16.7206      0.00000
     15      21.1174      0.00000
     16      21.8119      0.00000
     17      25.4790      0.00000
     18      26.5161      0.00000
     19      31.0114      0.00000
     20      32.0305      0.00000
     21      34.5691      0.00000
     22      36.0579      0.00000
     23      41.0925      0.00000
     24      41.4692      0.00000
     25      50.3947      0.00000
     26      51.2350      0.00000
     27      51.4159      0.00000
     28      52.6587      0.00000
     29      54.5345      0.00000
     30      55.8413      0.00000
     31      56.1507      0.00000
     32      56.8456      0.00000
     33      59.0011      0.00000
     34      59.7635      0.00000
     35      61.3104      0.00000
     36      62.4992      0.00000
     37      63.9785      0.00000
     38      64.1931      0.00000
     39      64.9087      0.00000
     40      65.1999      0.00000

 k-point    95 :       0.2727    0.2727    0.4545
  band No.  band energies     occupation 
      1       2.8892      2.00000
      2       2.9389      2.00000
      3       3.7839      2.00000
      4       3.9800      2.00000
      5       4.3780      2.00000
      6       4.5562      2.00000
      7       5.6620      2.00000
      8       5.8449      2.00001
      9       7.2520     -0.00001
     10       7.4306     -0.00000
     11      11.3850     -0.00000
     12      11.8744     -0.00000
     13      17.5444      0.00000
     14      17.9344      0.00000
     15      19.1945      0.00000
     16      19.5652      0.00000
     17      25.6258      0.00000
     18      27.1299      0.00000
     19      31.1711      0.00000
     20      32.4456      0.00000
     21      34.1937      0.00000
     22      35.2083      0.00000
     23      43.7146      0.00000
     24      44.1226      0.00000
     25      47.5136      0.00000
     26      47.6204      0.00000
     27      52.7926      0.00000
     28      54.5363      0.00000
     29      55.0187      0.00000
     30      55.3365      0.00000
     31      57.3425      0.00000
     32      57.4198      0.00000
     33      58.3957      0.00000
     34      58.5392      0.00000
     35      59.6834      0.00000
     36      60.3921      0.00000
     37      63.8175      0.00000
     38      64.2536      0.00000
     39      65.2086      0.00000
     40      65.2842      0.00000

 k-point    96 :       0.3636    0.2727    0.4545
  band No.  band energies     occupation 
      1       3.0941      2.00000
      2       3.2099      2.00000
      3       3.7509      2.00000
      4       3.8496      2.00000
      5       4.3447      2.00000
      6       4.4754      2.00000
      7       5.6979      2.00000
      8       5.8351      2.00001
      9       7.2381     -0.00001
     10       7.3014     -0.00000
     11      13.2104      0.00000
     12      13.3429      0.00000
     13      15.8386      0.00000
     14      16.1326      0.00000
     15      18.5459      0.00000
     16      18.9807      0.00000
     17      27.3692      0.00000
     18      27.9666      0.00000
     19      30.1431      0.00000
     20      30.5184      0.00000
     21      33.8687      0.00000
     22      34.6561      0.00000
     23      44.7951      0.00000
     24      45.4074      0.00000
     25      49.5027      0.00000
     26      49.9608      0.00000
     27      51.7196      0.00000
     28      52.1465      0.00000
     29      54.6033      0.00000
     30      55.1272      0.00000
     31      57.1131      0.00000
     32      57.5623      0.00000
     33      58.0535      0.00000
     34      58.5456      0.00000
     35      60.3913      0.00000
     36      61.2839      0.00000
     37      62.4464      0.00000
     38      62.8552      0.00000
     39      66.5697      0.00000
     40      66.6268      0.00000


--------------------------------------------------------------------------------------------------------


 soft charge-density along one line, spin component           1
         0         1         2         3         4         5         6         7         8         9
x     7.7629    0.0000    0.1004   -0.1740   -0.0583   -0.1010    0.0174   -0.0000    0.0017   -0.0029
x     0.0000    0.0000
y     7.7629    0.0000    0.1004    0.1740   -0.0583    0.1010    0.0174    0.0000    0.0017    0.0029
y     0.0000    0.0000
z     7.7629    0.0000    0.0000   -0.0000    0.6525    0.0000    0.0000    0.0000   -0.1774   -0.0000
z     0.0000   -0.0000    0.0104    0.0000    0.0000    0.0000    0.0099   -0.0000    0.0000    0.0000
 total charge-density along one line
x    16.0000    0.0000    1.4941   -2.5878    0.3132    0.5424    0.0363    0.0000    0.0008   -0.0013
x     0.0003    0.0005   -0.0006    0.0000    0.0001   -0.0001   -0.0001   -0.0001    0.0001   -0.0000
x    -0.0000    0.0000
y    16.0000    0.0000    1.4941    2.5878    0.3132   -0.5424    0.0363   -0.0000    0.0008    0.0013
y     0.0003   -0.0005   -0.0006   -0.0000    0.0001    0.0001   -0.0001    0.0001    0.0001    0.0000
y    -0.0000   -0.0000
z    16.0000    0.0000   -0.0000    0.0000    6.4223   -0.0000   -0.0000    0.0000    1.5739   -0.0000
z    -0.0000   -0.0000    0.0882   -0.0000   -0.0000   -0.0000   -0.0032    0.0000   -0.0000   -0.0000
z     0.0050   -0.0000    0.0000    0.0000   -0.0021    0.0000    0.0000    0.0000    0.0010    0.0000
z     0.0000    0.0000   -0.0006    0.0000   -0.0000    0.0000    0.0005   -0.0000
 
 pseudopotential strength for first ion, spin component:           1
 -4.651   0.000  -0.000   0.000  -0.000  -5.210   0.000  -0.000
  0.000  -4.640  -0.000  -0.000   0.000   0.000  -5.198  -0.000
 -0.000  -0.000  -4.648  -0.000  -0.000  -0.000  -0.000  -5.206
  0.000  -0.000  -0.000  -4.640   0.000   0.000  -0.000  -0.000
 -0.000   0.000  -0.000   0.000  -4.651  -0.000   0.000  -0.000
 -5.210   0.000  -0.000   0.000  -0.000  -5.725   0.000  -0.000
  0.000  -5.198  -0.000  -0.000   0.000   0.000  -5.714  -0.000
 -0.000  -0.000  -5.206  -0.000  -0.000  -0.000  -0.000  -5.722
  0.000  -0.000  -0.000  -5.198   0.000   0.000  -0.000  -0.000
 -0.000   0.000  -0.000   0.000  -5.210  -0.000   0.000  -0.000
  0.000  -0.000   0.001  -0.000  -0.000   0.000  -0.000   0.000
  0.000  -0.000   0.001  -0.000  -0.000   0.000  -0.000   0.001
 -0.000   0.000   0.000   0.000  -0.001  -0.000   0.000   0.000
  0.000  -0.000   0.000  -0.000   0.000   0.000  -0.000   0.000
 -0.001   0.000   0.000   0.000  -0.000  -0.001   0.000   0.000
 -0.000   0.000   0.000   0.000  -0.001  -0.000   0.000   0.000
  0.000  -0.000   0.000  -0.000   0.000   0.000  -0.000   0.000
 -0.001   0.000   0.000   0.000  -0.000  -0.001   0.000   0.000
 total augmentation occupancy for first ion, spin component:           1
  1.544  -0.000   0.000   0.000   0.000  -0.853   0.000  -0.000   0.000  -0.000   0.000  -0.000   0.000   0.000   0.030  -0.000
  0.000   2.139   0.000  -0.000   0.000   0.000  -1.153   0.000   0.000   0.000  -0.000  -0.000   0.000   0.000   0.000   0.000
  0.000  -0.000   1.270   0.000  -0.000  -0.000  -0.000  -0.593   0.000   0.000   0.076  -0.015  -0.000   0.000   0.000   0.000
  0.000  -0.000   0.000   2.139  -0.000   0.000   0.000  -0.000  -1.153   0.000  -0.000   0.000   0.000   0.000  -0.000   0.000
  0.000  -0.000  -0.000   0.000   1.544  -0.000   0.000   0.000   0.000  -0.853  -0.000   0.000   0.030   0.000  -0.000  -0.001
 -0.853   0.000  -0.000   0.000  -0.000   1.529  -0.000   0.000   0.000  -0.000  -0.000   0.000  -0.000   0.000  -0.042   0.000
  0.000  -1.153  -0.000   0.000   0.000   0.000   1.501  -0.000  -0.000   0.000   0.000  -0.000   0.000   0.000   0.000   0.000
 -0.000  -0.000  -0.593  -0.000   0.000   0.000   0.000   1.262  -0.000  -0.000  -0.177   0.016   0.000   0.000  -0.000  -0.000
  0.000   0.000   0.000  -1.153   0.000   0.000  -0.000   0.000   1.501  -0.000   0.000  -0.000   0.000  -0.000   0.000   0.000
 -0.000   0.000   0.000   0.000  -0.853   0.000   0.000  -0.000   0.000   1.529   0.000  -0.000  -0.042  -0.000   0.000   0.003
  0.000  -0.000   0.076   0.000  -0.000  -0.000  -0.000  -0.177  -0.000   0.000   2.566  -0.288   0.000   0.000   0.000   0.000
 -0.000   0.000  -0.015   0.000   0.000   0.000  -0.000   0.016  -0.000  -0.000  -0.288   0.037  -0.000   0.000   0.000   0.000
  0.000   0.000  -0.000   0.000   0.030  -0.000   0.000   0.000   0.000  -0.042   0.000   0.000   0.337   0.000  -0.000  -0.027
  0.000   0.000   0.000  -0.000  -0.000   0.000   0.000   0.000  -0.000   0.000   0.000   0.000   0.000   0.302  -0.000  -0.000
  0.030   0.000   0.000  -0.000  -0.000  -0.042   0.000  -0.000   0.000   0.000   0.000   0.000  -0.000   0.000   0.337   0.000
 -0.000   0.000   0.000   0.000  -0.001   0.000   0.000  -0.000   0.000   0.003   0.000  -0.000  -0.027  -0.000   0.000   0.002
  0.000   0.000   0.000   0.000   0.000   0.000   0.000   0.000  -0.000   0.000   0.000   0.000   0.000  -0.028   0.000  -0.000
 -0.001   0.000  -0.000   0.000   0.000   0.003   0.000   0.000   0.000  -0.000  -0.000  -0.000   0.000  -0.000  -0.027  -0.000


------------------------ aborting loop because EDIFF is reached ----------------------------------------


    CHARGE:  cpu time    0.0198: real time    0.0198
    FORLOC:  cpu time    0.0002: real time    0.0002
    FORNL :  cpu time    0.0997: real time    0.0997
    STRESS:  cpu time    0.1508: real time    0.1508
    FORCOR:  cpu time    0.0034: real time    0.0034
    FORHAR:  cpu time    0.0008: real time    0.0008
    MIXING:  cpu time    0.0002: real time    0.0002

  FORCE on cell =-STRESS in cart. coord.  units (eV):
  Direction    XX          YY          ZZ          XY          YZ          ZX
  --------------------------------------------------------------------------------------
  Alpha Z   131.20807   131.20807   131.20807
  Ewald    -383.15652  -383.15652  -445.83121     0.00000    -0.00000     0.00000
  Hartree    67.88376    67.88376    43.34657    -0.00000    -0.00000    -0.00000
  E(xc)     -78.33211   -78.33216   -78.01373     0.00027    -0.00000     0.00000
  Local      91.76995    91.77018   175.97322    -0.00091     0.00000     0.00000
  n-local   -53.32995   -52.37823   -55.46780    -3.99862     1.33378     0.83595
  augment    75.77562    75.77494    76.19523     0.00121     0.00000     0.00000
  Kinetic   152.42424   145.92613   147.08519     1.81986    -0.78763     0.32610
  Fock        0.00000     0.00000     0.00000     0.00000     0.00000     0.00000
  -------------------------------------------------------------------------------------
  Total       1.46962     1.46962    -5.50444    -0.00000    -0.00000     0.00000
  in kB     111.75078   111.75078  -418.56224    -0.00000    -0.00000     0.00000
  external pressure =      -65.02 kB  Pullay stress =        0.00 kB


 VOLUME and BASIS-vectors are now :
 -----------------------------------------------------------------------------
  energy-cutoff  :      280.00
  volume of cell :       21.07
      direct lattice vectors                 reciprocal lattice vectors
     2.376600000  0.000000000  0.000000000     0.420769166  0.242931191  0.000000000
    -1.188300000  2.058195975  0.000000000     0.000000000  0.485862383  0.000000000
     0.000000000  0.000000000  4.307460000     0.000000000  0.000000000  0.232155377

  length of vectors
     2.376600000  2.376600000  4.307460000     0.485862383  0.485862383  0.232155377


 FORCES acting on ions
    electron-ion (+dipol)            ewald-force                    non-local-force                 convergence-correction
 -----------------------------------------------------------------------------------------------
   0.259E-06 -.813E-06 0.386E-14   0.473E-12 -.277E-12 -.254E-13   0.734E-19 -.152E-17 -.145E-18   -.176E-08 0.925E-09 -.609E-13
   -.189E-05 0.921E-05 0.264E-12   -.469E-12 0.280E-12 0.254E-13   -.283E-17 -.785E-19 -.157E-18   0.188E-08 -.991E-09 0.962E-13
 -----------------------------------------------------------------------------------------------
   -.163E-05 0.840E-05 0.268E-12   0.451E-14 0.320E-14 -.180E-17   -.275E-17 -.160E-17 -.302E-18   0.121E-09 -.667E-10 0.353E-13
 
 
 POSITION                                       TOTAL-FORCE (eV/Angst)
 -----------------------------------------------------------------------------------
      0.00000      0.00000      0.00000        -0.000000      0.000000     -0.000000
      0.00000      1.37213      2.15373         0.000000     -0.000000      0.000000
 -----------------------------------------------------------------------------------
    total drift:                               -0.000002      0.000008      0.000000


--------------------------------------------------------------------------------------------------------



  FREE ENERGIE OF THE ION-ELECTRON SYSTEM (eV)
  ---------------------------------------------------
  free  energy   TOTEN  =       -15.96851116 eV

  energy  without entropy=      -15.97154301  energy(sigma->0) =      -15.96952178
 


--------------------------------------------------------------------------------------------------------


    POTLOK:  cpu time    0.0056: real time    0.0056


--------------------------------------------------------------------------------------------------------


 writing wavefunctions
     LOOP+:  cpu time   10.0231: real time   10.0438
    4ORBIT:  cpu time    0.0000: real time    0.0000

 total amount of memory used by VASP MPI-rank0    50673. kBytes
=======================================================================

   base      :      30000. kBytes
   nonl-proj :       3242. kBytes
   grid      :        812. kBytes
   one-center:         31. kBytes
   wavefun   :      16588. kBytes
 
  
  
 General timing and accounting informations for this job:
 ========================================================
  
                  Total CPU time used (sec):       10.222
                            User time (sec):       10.174
                          System time (sec):        0.048
                         Elapsed time (sec):       10.231
  
                   Maximum memory used (kb):       55448.
                   Average memory used (kb):          N/A
  
                          Minor page faults:         7678
                          Major page faults:            0
                 Voluntary context switches:           26
