unknown system                          
   1.00000000000000     
     2.306700    0.000000    0.000000
    -1.153350    1.997661    0.000000
     0.000000    0.000000    4.018410
   Fe
     2
Direct
  0.000000  0.000000  0.000000
  0.333333  0.666667  0.500000
 
   20   20   32
  155.28      147.30      125.79      96.787      67.097      41.963      24.154      14.039      9.9409      8.8431    
  8.5236      8.8432      9.9410      14.039      24.154      41.963      67.097      96.787      125.79      147.30    
  147.31      147.30      132.59      107.50      78.535      51.681      30.869      17.601      11.169      9.1236    
  8.5155      8.5153      9.1234      11.169      17.601      30.867      51.680      78.538      107.51      132.60    
  125.80      132.57      125.79      107.50      82.760      57.367      35.921      20.918      12.642      9.4519    
  8.5315      8.2297      8.5309      9.4519      12.643      20.917      35.918      57.364      82.763      107.51    
  96.784      107.43      107.43      96.787      78.535      57.367      37.800      22.918      13.858      9.8236    
  8.5612      8.0217      8.0214      8.5610      9.8242      13.859      22.918      37.797      57.362      78.530    
  67.087      78.434      82.623      78.442      67.097      51.681      35.921      22.918      14.330      10.081    
  8.5892      7.8974      7.6554      7.8974      8.5892      10.082      14.332      22.921      35.921      51.675    
  41.961      51.601      57.224      57.227      51.606      41.963      30.869      20.918      13.858      10.081    
  8.6011      7.8428      7.4465      7.4467      7.8426      8.6000      10.081      13.862      20.924      30.873    
  24.161      30.845      35.847      37.701      35.844      30.840      24.154      17.601      12.642      9.8235    
  8.5892      7.8428      7.3801      7.2283      7.3806      7.8419      8.5862      9.8206      12.643      17.606    
  14.039      17.622      20.930      22.913      22.910      20.923      17.617      14.039      11.169      9.4519    
  8.5613      7.8974      7.4464      7.2283      7.2289      7.4476      7.8972      8.5580      9.4462      11.164    
  9.9333      11.202      12.705      13.932      14.404      13.930      12.704      11.207      9.9410      9.1236    
  8.5315      8.0217      7.6554      7.4467      7.3806      7.4476      7.6578      8.0246      8.5315      9.1186    
  8.8429      9.1612      9.5269      9.9288      10.202      10.204      9.9324      9.5326      9.1660      8.8431    
  8.5155      8.2297      8.0214      7.8974      7.8427      7.8420      7.8971      8.0246      8.2359      8.5204    
  8.5307      8.5633      8.6149      8.6756      8.7270      8.7490      8.7299      8.6786      8.6144      8.5583    
  8.5236      8.5152      8.5309      8.5610      8.5892      8.6000      8.5861      8.5580      8.5315      8.5204    
  8.8428      8.5633      8.3203      8.1462      8.0477      8.0086      8.0093      8.0479      8.1430      8.3142    
  8.5586      8.8431      9.1234      9.4519      9.8242      10.082      10.081      9.8206      9.4463      9.1186    
  9.9333      9.1612      8.6150      8.1462      7.8122      7.6248      7.5662      7.6240      7.8098      8.1433    
  8.6150      9.1663      9.9410      11.169      12.643      13.859      14.332      13.862      12.643      11.164    
  14.039      11.202      9.5270      8.6756      8.0477      7.6248      7.4215      7.4209      7.6238      8.0480    
  8.6788      9.5325      11.207      14.039      17.601      20.917      22.918      22.921      20.924      17.606    
  24.161      17.622      12.704      9.9287      8.7269      8.0086      7.5662      7.4209      7.5657      8.0094    
  8.7299      9.9317      12.704      17.617      24.154      30.867      35.918      37.797      35.921      30.873    
  41.961      30.845      20.930      13.932      10.203      8.7490      8.0093      7.6240      7.6237      8.0094    
  8.7501      10.203      13.929      20.924      30.841      41.963      51.680      57.364      57.362      51.675    
  67.087      51.601      35.847      22.913      14.404      10.204      8.7299      8.0479      7.8098      8.0480    
  8.7299      10.203      14.401      22.910      35.847      51.607      67.097      78.538      82.763      78.530    
  96.784      78.434      57.224      37.701      22.910      13.930      9.9323      8.6786      8.1430      8.1433    
  8.6788      9.9317      13.929      22.910      37.703      57.229      78.439      96.787      107.51      107.51    
  125.80      107.43      82.623      57.227      35.844      20.923      12.704      9.5326      8.6145      8.3142    
  8.6149      9.5325      12.704      20.924      35.847      57.229      82.620      107.43      125.79      132.60    
  147.31      132.57      107.43      78.442      51.606      30.840      17.617      11.207      9.1660      8.5582    
  8.5585      9.1663      11.207      17.617      30.841      51.607      78.439      107.43      132.55      147.30    
  145.85      138.36      118.16      90.896      62.974      39.372      22.741      13.407      9.7017      8.6882    
  8.3774      8.6883      9.7018      13.407      22.741      39.372      62.974      90.896      118.16      138.36    
  138.36      138.36      124.54      100.97      73.718      48.473      28.978      16.659      10.786      8.9472    
  8.3580      8.3578      8.9470      10.786      16.659      28.977      48.472      73.721      100.98      124.55    
  118.17      124.53      118.16      100.97      77.688      53.804      33.687      19.708      12.103      9.2305    
  8.3664      8.0744      8.3658      9.2305      12.104      19.708      33.684      53.802      77.690      100.97    
  90.894      100.91      100.92      90.896      73.718      53.804      35.440      21.554      13.199      9.5492    
  8.3914      7.8702      7.8699      8.3911      9.5498      13.200      21.554      35.437      53.800      73.714    
  62.965      73.647      77.591      73.654      62.974      48.473      33.687      21.554      13.626      9.7716    
  8.4166      7.7490      7.5171      7.7490      8.4167      9.7723      13.628      21.557      33.687      48.468    
  39.371      48.429      53.719      53.721      48.433      39.372      28.978      19.708      13.199      9.7715    
  8.4272      7.6959      7.3169      7.3171      7.6959      8.4262      9.7713      13.202      19.714      28.982    
  22.748      28.989      33.675      35.414      33.672      28.984      22.741      16.659      12.103      9.5492    
  8.4167      7.6960      7.2534      7.1089      7.2539      7.6952      8.4139      9.5465      12.104      16.664    
  13.407      16.711      19.781      21.626      21.623      19.774      16.706      13.407      10.786      9.2305    
  8.3914      7.7490      7.3169      7.1089      7.1095      7.3179      7.7488      8.3884      9.2253      10.782    
  9.6947      10.848      12.221      13.348      13.783      13.346      12.221      10.853      9.7018      8.9472    
  8.3664      7.8702      7.5171      7.3171      7.2540      7.3179      7.5193      7.8728      8.3664      8.9425    
  8.6880      9.0118      9.3579      9.7271      9.9774      9.9784      9.7304      9.3631      9.0163      8.6882    
  8.3580      8.0744      7.8699      7.7490      7.6959      7.6952      7.7487      7.8728      8.0801      8.3625    
  8.3839      8.4316      8.5008      8.5779      8.6410      8.6666      8.6437      8.5806      8.5003      8.4270    
  8.3774      8.3577      8.3659      8.3911      8.4167      8.4262      8.4139      8.3884      8.3664      8.3625    
  8.6879      8.4316      8.2151      8.0664      7.9876      7.9590      7.9597      7.9878      8.0635      8.2095    
  8.4273      8.6882      8.9470      9.2305      9.5497      9.7723      9.7713      9.5465      9.2254      8.9426    
  9.6946      9.0118      8.5008      8.0664      7.7625      7.5953      7.5437      7.5946      7.7604      8.0637    
  8.5008      9.0165      9.7018      10.786      12.104      13.200      13.628      13.202      12.104      10.782    
  13.407      10.848      9.3580      8.5780      7.9875      7.5953      7.4086      7.4081      7.5943      7.9878    
  8.5808      9.3630      10.852      13.407      16.659      19.708      21.554      21.557      19.714      16.664    
  22.748      16.711      12.221      9.7271      8.6409      7.9591      7.5437      7.4081      7.5431      7.9597    
  8.6437      9.7298      12.220      16.706      22.741      28.977      33.684      35.437      33.687      28.982    
  39.371      28.989      19.781      13.348      9.9774      8.6666      7.9597      7.5945      7.5943      7.9598    
  8.6676      9.9777      13.345      19.775      28.985      39.372      48.472      53.802      53.800      48.468    
  62.965      48.428      33.675      21.626      13.783      9.9784      8.6436      7.9878      7.7604      7.9878    
  8.6437      9.9777      13.780      21.624      33.675      48.434      62.974      73.721      77.690      73.714    
  90.893      73.647      53.719      35.414      21.623      13.346      9.7303      8.5806      8.0635      8.0638    
  8.5808      9.7297      13.345      21.624      35.416      53.723      73.651      90.897      100.98      100.97    
  118.17      100.91      77.591      53.721      33.672      19.774      12.221      9.3631      8.5003      8.2095    
  8.5008      9.3630      12.220      19.775      33.675      53.723      77.588      100.91      118.16      124.55    
  138.36      124.53      100.92      73.654      48.433      28.984      16.706      10.853      9.0163      8.4270    
  8.4272      9.0166      10.852      16.706      28.985      48.434      73.651      100.91      124.52      138.36    
  120.87      114.67      97.918      75.255      52.045      32.560      19.091      11.821      9.1032      8.2684    
  7.9838      8.2685      9.1033      11.821      19.091      32.560      52.045      75.255      97.918      114.67    
  114.67      114.67      103.21      83.610      60.935      40.002      24.049      14.261      9.8364      8.4769    
  7.9360      7.9357      8.4766      9.8367      14.261      24.048      40.001      60.937      83.617      103.22    
  97.923      103.21      97.918      83.610      64.222      44.379      27.833      16.601      10.755      8.6670    
  7.9220      7.6588      7.9215      8.6669      10.756      16.601      27.831      44.378      64.224      83.616    
  75.253      83.608      83.609      75.255      60.935      44.379      29.248      18.035      11.541      8.8614    
  7.9308      7.4630      7.4627      7.9305      8.8617      11.541      18.034      29.246      44.376      60.931    
  52.038      60.944      64.235      60.949      52.045      40.002      27.833      18.035      11.850      8.9986    
  7.9459      7.3477      7.1440      7.3478      7.9460      8.9991      11.852      18.037      27.833      39.998    
  32.559      40.050      44.446      44.448      40.054      32.560      24.049      16.601      11.541      8.9986    
  7.9530      7.2973      6.9657      6.9659      7.2974      7.9523      8.9984      11.543      16.606      24.052    
  19.096      24.150      27.985      29.414      27.983      24.146      19.091      14.261      10.755      8.8613    
  7.9460      7.2973      6.9095      6.7844      6.9100      7.2968      7.9439      8.8594      10.756      14.265    
  11.821      14.392      16.827      18.306      18.304      16.822      14.389      11.821      9.8364      8.6670    
  7.9308      7.3478      6.9656      6.7844      6.7848      6.9664      7.3475      7.9285      8.6630      9.8329    
  9.0977      9.9695      11.011      11.877      12.213      11.875      11.011      9.9731      9.1033      8.4769    
  7.9220      7.4630      7.1440      6.9659      6.9100      6.9664      7.1455      7.4650      7.9220      8.4732    
  8.2683      8.6071      8.9212      9.2148      9.4074      9.4081      9.2172      8.9251      8.6105      8.2685    
  7.9359      7.6588      7.4627      7.3478      7.2974      7.2968      7.3475      7.4650      7.6633      7.9394    
  7.9890      8.0709      8.1764      8.2859      8.3708      8.4038      8.3728      8.2878      8.1759      8.0672    
  7.9838      7.9357      7.9215      7.9305      7.9460      7.9523      7.9439      7.9285      7.9220      7.9394    
  8.2682      8.0708      7.9163      7.8228      7.7840      7.7760      7.7766      7.7842      7.8205      7.9119    
  8.0675      8.2685      8.4767      8.6670      8.8617      8.9991      8.9984      8.8594      8.6631      8.4732    
  9.0976      8.6071      8.1764      7.8228      7.5854      7.4604      7.4231      7.4600      7.5839      7.8207    
  8.1764      8.6108      9.1033      9.8367      10.756      11.541      11.852      11.543      10.756      9.8329    
  11.821      9.9695      8.9212      8.2859      7.7840      7.4604      7.3099      7.3096      7.4597      7.7842    
  8.2881      8.9251      9.9729      11.821      14.261      16.601      18.035      18.037      16.606      14.265    
  19.096      14.392      11.011      9.2148      8.3707      7.7761      7.4232      7.3095      7.4226      7.7765    
  8.3728      9.2168      11.010      14.388      19.091      24.048      27.831      29.246      27.833      24.052    
  32.559      24.150      16.827      11.877      9.4074      8.4038      7.7766      7.4600      7.4597      7.7765    
  8.4045      9.4077      11.875      16.822      24.146      32.560      40.001      44.378      44.376      39.998    
  52.038      40.050      27.985      18.306      12.213      9.4081      8.3728      7.7842      7.5839      7.7842    
  8.3728      9.4077      12.212      18.304      27.985      40.054      52.045      60.937      64.224      60.931    
  75.253      60.944      44.446      29.414      18.304      11.875      9.2172      8.2878      7.8205      7.8207    
  8.2881      9.2168      11.875      18.304      29.416      44.450      60.947      75.255      83.617      83.616    
  97.923      83.608      64.235      44.448      27.983      16.822      11.011      8.9252      8.1759      7.9119    
  8.1764      8.9251      11.010      16.822      27.985      44.450      64.233      83.602      97.918      103.22    
  114.67      103.21      83.609      60.949      40.054      24.146      14.389      9.9732      8.6105      8.0672    
  8.0674      8.6108      9.9729      14.388      24.146      40.054      60.947      83.602      103.20      114.67    
  88.386      83.835      71.527      54.869      37.903      23.920      14.645      10.002      8.3861      7.6994    
  7.4576      7.6994      8.3862      10.002      14.645      23.920      37.903      54.869      71.527      83.835    
  83.838      83.835      75.405      60.974      44.325      29.145      17.921      11.431      8.7578      7.8357    
  7.3734      7.3732      7.8355      8.7580      11.432      17.921      29.145      44.327      60.978      75.409    
  71.530      75.430      71.527      60.974      46.708      32.249      20.477      12.863      9.2176      7.9546    
  7.3244      7.1060      7.3239      7.9544      9.2180      12.863      20.476      32.247      46.710      60.978    
  54.867      61.038      61.039      54.869      44.325      32.248      21.442      13.762      9.6278      8.0400    
  7.3033      6.9169      6.9167      7.3030      8.0402      9.6282      13.762      21.441      32.246      44.323    
  37.898      44.438      46.864      44.442      37.903      29.145      20.477      13.762      9.7937      8.0922    
  7.2979      6.8038      6.6402      6.8040      7.2980      8.0923      9.7944      13.763      20.477      29.143    
  23.920      29.313      32.510      32.511      29.315      23.920      17.921      12.863      9.6278      8.0921    
  7.2976      6.7531      6.4872      6.4875      6.7534      7.2973      8.0920      9.6292      12.866      17.923    
  14.648      18.134      20.834      21.851      20.833      18.131      14.645      11.431      9.2175      8.0400    
  7.2979      6.7531      6.4392      6.3396      6.4396      6.7529      7.2967      8.0388      9.2180      11.434    
  10.002      11.659      13.277      14.277      14.276      13.274      11.657      10.002      8.7578      7.9545    
  7.3033      6.8039      6.4872      6.3396      6.3398      6.4876      6.8037      7.3019      7.9520      8.7556    
  8.3824      8.9758      9.6371      10.188      10.403      10.187      9.6371      8.9782      8.3861      7.8357    
  7.3244      6.9169      6.6402      6.4875      6.4396      6.4876      6.6410      6.9181      7.3244      7.8332    
  7.6992      8.0422      8.3558      8.5961      8.7343      8.7347      8.5974      8.3582      8.0444      7.6994    
  7.3734      7.1060      6.9167      6.8039      6.7534      6.7530      6.8036      6.9181      7.1088      7.3756    
  7.4609      7.5777      7.7135      7.8453      7.9430      7.9798      7.9442      7.8464      7.7131      7.5753    
  7.4576      7.3732      7.3240      7.3030      7.2979      7.2973      7.2967      7.3018      7.3244      7.3756    
  7.6992      7.5777      7.4926      7.4525      7.4474      7.4545      7.4549      7.4476      7.4511      7.4897    
  7.5755      7.6994      7.8355      7.9544      8.0401      8.0923      8.0920      8.0388      7.9521      7.8333    
  8.3824      8.0422      7.7136      7.4525      7.2832      7.1970      7.1721      7.1970      7.2824      7.4513    
  7.7136      8.0446      8.3862      8.7581      9.2180      9.6282      9.7944      9.6292      9.2180      8.7555    
  10.002      8.9758      8.3559      7.8453      7.4473      7.1970      7.0824      7.0822      7.1967      7.4475    
  7.8467      8.3583      8.9779      10.002      11.432      12.863      13.762      13.763      12.866      11.434    
  14.648      11.659      9.6371      8.5960      7.9430      7.4546      7.1721      7.0822      7.1717      7.4547    
  7.9442      8.5973      9.6367      11.657      14.645      17.921      20.476      21.441      20.477      17.923    
  23.920      18.134      13.276      10.188      8.7344      7.9798      7.4550      7.1969      7.1967      7.4547    
  7.9801      8.7346      10.186      13.274      18.131      23.920      29.145      32.247      32.246      29.143    
  37.898      29.313      20.834      14.277      10.403      8.7347      7.9442      7.4476      7.2824      7.4476    
  7.9442      8.7345      10.402      14.276      20.834      29.315      37.903      44.327      46.710      44.323    
  54.867      44.438      32.510      21.851      14.276      10.187      8.5974      7.8465      7.4511      7.4513    
  7.8467      8.5972      10.186      14.276      21.852      32.512      44.440      54.869      60.978      60.978    
  71.530      61.038      46.864      32.511      20.833      13.273      9.6371      8.3582      7.7132      7.4897    
  7.7135      8.3583      9.6367      13.274      20.834      32.512      46.863      61.035      71.527      75.409    
  83.838      75.430      61.039      44.442      29.315      18.131      11.657      8.9782      8.0444      7.5753    
  7.5755      8.0446      8.9780      11.657      18.131      29.315      44.440      61.035      75.425      83.835    
  56.956      54.000      46.023      35.305      24.596      16.125      10.919      8.5949      7.6735      7.1184    
  6.9310      7.1184      7.6736      8.5949      10.919      16.125      24.596      35.305      46.023      54.000    
  54.002      54.000      48.517      39.177      28.546      19.146      12.596      9.1763      7.8632      7.1680    
  6.8076      6.8074      7.1679      7.8634      9.1768      12.596      19.145      28.547      39.179      48.519    
  46.024      48.565      46.023      39.177      30.025      20.976      13.960      9.7971      8.0114      7.2121    
  6.7156      6.5502      6.7152      7.2119      8.0117      9.7974      13.959      20.975      30.025      39.178    
  35.304      39.300      39.300      35.305      28.546      20.976      14.485      10.204      8.1338      7.2409    
  6.6544      6.3626      6.3625      6.6541      7.2409      8.1339      10.204      14.484      20.975      28.545    
  24.594      28.751      30.307      28.752      24.596      19.145      13.960      10.204      8.1845      7.2539    
  6.6202      6.2447      6.1241      6.2449      6.6202      7.2538      8.1846      10.205      13.960      19.144    
  16.125      19.417      21.407      21.408      19.418      16.125      12.596      9.7972      8.1338      7.2539    
  6.6093      6.1891      5.9913      5.9916      6.1894      6.6093      7.2538      8.1344      9.7987      12.598    
  10.921      12.906      14.496      15.104      14.496      12.905      10.919      9.1764      8.0114      7.2409    
  6.6202      6.1891      5.9493      5.8744      5.9496      6.1891      6.6198      7.2404      8.0117      9.1777    
  8.5946      9.4907      10.377      10.936      10.935      10.376      9.4898      8.5949      7.8632      7.2120    
  6.6544      6.2447      5.9913      5.8744      5.8745      5.9914      6.2446      6.6537      7.2109      7.8621    
  7.6716      8.1606      8.5825      8.8985      9.0188      8.8979      8.5825      8.1619      7.6736      7.1680    
  6.7156      6.3626      6.1241      5.9915      5.9496      5.9914      6.1242      6.3631      6.7156      7.1668    
  7.1183      7.4487      7.7557      7.9920      8.1202      8.1203      7.9925      7.7567      7.4498      7.1184    
  6.8076      6.5502      6.3625      6.2448      6.1894      6.1892      6.2446      6.3631      6.5517      6.8087    
  6.9326      7.0807      7.2385      7.3825      7.4851      7.5226      7.4855      7.3829      7.2382      7.0795    
  6.9309      6.8074      6.7152      6.6541      6.6202      6.6093      6.6197      6.6537      6.7156      6.8087    
  7.1182      7.0807      7.0664      7.0768      7.1007      7.1200      7.1203      7.1009      7.0761      7.0650    
  7.0797      7.1184      7.1679      7.2119      7.2408      7.2538      7.2538      7.2404      7.2109      7.1668    
  7.6716      7.4487      7.2385      7.0768      6.9760      6.9274      6.9140      6.9276      6.9759      7.0763    
  7.2385      7.4500      7.6736      7.8634      8.0117      8.1338      8.1846      8.1344      8.0117      7.8621    
  8.5946      8.1606      7.7557      7.3825      7.1007      6.9274      6.8492      6.8491      6.9273      7.1008    
  7.3831      7.7568      8.1617      8.5949      9.1768      9.7974      10.204      10.205      9.7987      9.1777    
  10.921      9.4907      8.5825      7.9920      7.4850      7.1200      6.9140      6.8491      6.9136      7.1199    
  7.4855      7.9925      8.5822      9.4894      10.919      12.596      13.959      14.484      13.960      12.598    
  16.125      12.906      10.377      8.8985      8.1202      7.5226      7.1203      6.9275      6.9273      7.1199    
  7.5226      8.1203      8.8979      10.375      12.905      16.125      19.145      20.975      20.975      19.144    
  24.594      19.417      14.496      10.936      9.0188      8.1203      7.4855      7.1009      6.9759      7.1009    
  7.4855      8.1203      9.0186      10.935      14.496      19.418      24.596      28.547      30.025      28.545    
  35.304      28.751      21.407      15.104      10.935      8.8979      7.9925      7.3829      7.0761      7.0763    
  7.3831      7.9925      8.8979      10.935      15.105      21.409      28.752      35.305      39.179      39.178    
  46.024      39.300      30.307      21.408      14.496      10.375      8.5825      7.7568      7.2382      7.0650    
  7.2385      7.7568      8.5822      10.375      14.496      21.409      30.306      39.298      46.023      48.519    
  54.002      48.565      39.300      28.752      19.418      12.905      9.4898      8.1620      7.4498      7.0795    
  7.0797      7.4500      8.1617      9.4894      12.905      19.418      28.752      39.298      48.562      54.000    
  32.439      30.786      26.364      20.554      14.996      10.929      8.7067      7.7055      7.0378      6.6336    
  6.5021      6.6336      7.0378      7.7055      8.7067      10.929      14.996      20.554      26.364      30.786    
  30.787      30.786      27.723      22.587      16.932      12.228      9.2674      7.8733      7.1148      6.5927    
  6.3377      6.3376      6.5926      7.1150      7.8737      9.2677      12.228      16.932      22.587      27.724    
  26.365      27.783      26.364      22.587      17.669      13.047      9.7567      8.0152      7.1629      6.5580    
  6.2015      6.0870      6.2013      6.5578      7.1632      8.0155      9.7567      13.046      17.669      22.587    
  20.554      22.743      22.743      20.554      16.932      13.047      9.9521      8.1103      7.1835      6.5294    
  6.0994      5.8958      5.8957      6.0992      6.5293      7.1834      8.1101      9.9517      13.046      16.932    
  14.996      17.188      18.022      17.188      14.996      12.228      9.7567      8.1103      7.1881      6.5124    
  6.0357      5.7686      5.6850      5.7687      6.0357      6.5123      7.1879      8.1103      9.7567      12.228    
  10.929      12.560      13.577      13.577      12.561      10.929      9.2674      8.0152      7.1834      6.5124    
  6.0140      5.7055      5.5641      5.5642      5.7057      6.0141      6.5123      7.1836      8.0157      9.2680    
  8.7072      9.6394      10.404      10.702      10.404      9.6392      8.7067      7.8733      7.1629      6.5294    
  6.0357      5.7055      5.5250      5.4688      5.5251      5.7056      6.0357      6.5294      7.1632      7.8738    
  7.7053      8.2517      8.7125      8.9912      8.9911      8.7122      8.2516      7.7055      7.1149      6.5579    
  6.0994      5.7686      5.5641      5.4688      5.4688      5.5640      5.7685      6.0992      6.5577      7.1145    
  7.0371      7.4824      7.8623      8.1168      8.2060      8.1166      7.8623      7.4828      7.0378      6.5927    
  6.2015      5.8958      5.6849      5.5642      5.5252      5.5640      5.6848      5.8958      6.2015      6.5923    
  6.6335      6.9474      7.2412      7.4703      7.5959      7.5958      7.4702      7.2413      6.9477      6.6336    
  6.3377      6.0870      5.8957      5.7687      5.7058      5.7056      5.7685      5.8958      6.0874      6.3380    
  6.5026      6.6854      6.8698      7.0320      7.1444      7.1848      7.1444      7.0319      6.8696      6.6850    
  6.5021      6.3376      6.2013      6.0992      6.0357      6.0141      6.0357      6.0992      6.2015      6.3380    
  6.6335      6.6853      6.7499      6.8212      6.8851      6.9234      6.9235      6.8852      6.8211      6.7495    
  6.6851      6.6336      6.5926      6.5579      6.5293      6.5123      6.5123      6.5294      6.5577      6.5923    
  7.0371      6.9474      6.8698      6.8212      6.8029      6.8026      6.8050      6.8029      6.8031      6.8212    
  6.8698      6.9478      7.0378      7.1150      7.1632      7.1833      7.1879      7.1836      7.1632      7.1145    
  7.7053      7.4824      7.2412      7.0320      6.8850      6.8026      6.7689      6.7690      6.8027      6.8851    
  7.0321      7.2414      7.4827      7.7055      7.8737      8.0155      8.1102      8.1103      8.0157      7.8738    
  8.7072      8.2517      7.8623      7.4703      7.1444      6.9234      6.8050      6.7690      6.8048      6.9232    
  7.1444      7.4703      7.8621      8.2512      8.7067      9.2677      9.7567      9.9517      9.7567      9.2680    
  10.929      9.6394      8.7124      8.1168      7.5959      7.1849      6.9236      6.8029      6.8027      6.9232    
  7.1847      7.5960      8.1167      8.7120      9.6389      10.929      12.228      13.046      13.046      12.228    
  14.996      12.560      10.404      8.9912      8.2061      7.5958      7.1444      6.8852      6.8031      6.8851    
  7.1444      7.5960      8.2062      8.9913      10.404      12.560      14.996      16.932      17.670      16.932    
  20.554      17.188      13.577      10.702      8.9911      8.1166      7.4702      7.0319      6.8211      6.8212    
  7.0321      7.4703      8.1167      8.9913      10.702      13.577      17.188      20.554      22.587      22.587    
  26.365      22.743      18.022      13.577      10.404      8.7122      7.8623      7.2414      6.8696      6.7494    
  6.8698      7.2414      7.8621      8.7120      10.404      13.577      18.022      22.742      26.364      27.724    
  30.787      27.783      22.743      17.188      12.561      9.6392      8.2516      7.4829      6.9477      6.6850    
  6.6850      6.9478      7.4827      8.2512      9.6389      12.560      17.188      22.742      27.782      30.786    
  17.101      16.369      14.448      12.038      9.9083      8.5012      7.6810      7.0362      6.5701      6.3046    
  6.2206      6.3046      6.5701      7.0362      7.6810      8.5012      9.9083      12.038      14.448      16.369    
  16.369      16.369      15.014      12.817      10.542      8.8189      7.7939      7.0872      6.5340      6.1787    
  6.0123      6.0123      6.1787      6.5341      7.0874      7.7941      8.8190      10.542      12.817      15.014    
  14.448      15.074      14.448      12.817      10.793      9.0328      7.8697      7.1133      6.5017      6.0740    