unknown system                          
   1.00000000000000     
     2.306700    0.000000    0.000000
    -1.153350    1.997661    0.000000
     0.000000    0.000000    4.018410
   Fe
     2
Direct
  0.000000  0.000000  0.000000
  0.333333  0.666667  0.500000
 
   20   20   32
 0.15528427665E+03 0.14730074972E+03 0.12579081180E+03 0.96786907108E+02 0.67097200430E+02
 0.41962548891E+02 0.24154088127E+02 0.14038899258E+02 0.99409254641E+01 0.88430514473E+01
 0.85236071689E+01 0.88431587040E+01 0.99410203109E+01 0.14038891713E+02 0.24154022777E+02
 0.41962535164E+02 0.67097269511E+02 0.96786984284E+02 0.12579082723E+03 0.14730072582E+03
 0.14730553041E+03 0.14730070739E+03 0.13259034410E+03 0.10750457078E+03 0.78535137803E+02
 0.51681326455E+02 0.30868620361E+02 0.17601164531E+02 0.11169044884E+02 0.91236355852E+01
 0.85155400572E+01 0.85152584324E+01 0.91233559219E+01 0.11169287510E+02 0.17601024398E+02
 0.30867138265E+02 0.51680207897E+02 0.78538319979E+02 0.10751366112E+03 0.13260105802E+03
 0.12579793585E+03 0.13256515680E+03 0.12579082659E+03 0.10750461382E+03 0.82760153541E+02
 0.57366572503E+02 0.35921332557E+02 0.20917571388E+02 0.12642352863E+02 0.94518969425E+01
 0.85315202573E+01 0.82297427381E+01 0.85308774142E+01 0.94518636522E+01 0.12642905478E+02
 0.20916755464E+02 0.35918352451E+02 0.57364419434E+02 0.82763087231E+02 0.10751257906E+03
 0.96783767405E+02 0.10743328258E+03 0.10743436222E+03 0.96786989369E+02 0.78535115326E+02
 0.57366534174E+02 0.37799796274E+02 0.22918024713E+02 0.13858334891E+02 0.98235843952E+01
 0.85612262689E+01 0.80216606271E+01 0.80213799123E+01 0.85609868774E+01 0.98242361685E+01
 0.13859416173E+02 0.22917791857E+02 0.37796982565E+02 0.57361749666E+02 0.78530298511E+02
 0.67087140586E+02 0.78433825108E+02 0.82622765863E+02 0.78441790777E+02 0.67097199369E+02
 0.51681250828E+02 0.35921361921E+02 0.22918055439E+02 0.14329712372E+02 0.10080853281E+02
 0.85891607231E+01 0.78973906177E+01 0.76554001736E+01 0.78973887184E+01 0.85892126764E+01
 0.10081686527E+02 0.14332137159E+02 0.22921008736E+02 0.35921372757E+02 0.51675403309E+02
 0.41961432727E+02 0.51601153149E+02 0.57224366798E+02 0.57227022092E+02 0.51605927277E+02
 0.41962509966E+02 0.30868631299E+02 0.20917634787E+02 0.13858299864E+02 0.10080830348E+02
 0.86010541612E+01 0.78427694536E+01 0.74464879095E+01 0.74467077898E+01 0.78426455344E+01
 0.85999707183E+01 0.10080584090E+02 0.13861530615E+02 0.20923744549E+02 0.30873045290E+02
 0.24161131395E+02 0.30845386726E+02 0.35847350622E+02 0.37700542178E+02 0.35844380603E+02
 0.30839540261E+02 0.24154055725E+02 0.17601203680E+02 0.12642332604E+02 0.98235346152E+01
 0.85892009354E+01 0.78427866198E+01 0.73800594393E+01 0.72282881450E+01 0.73805836483E+01
 0.78419356855E+01 0.85861923698E+01 0.98206267013E+01 0.12642905478E+02 0.17606221574E+02
 0.14038656857E+02 0.17621743282E+02 0.20930332566E+02 0.22912971361E+02 0.22909785837E+02
 0.20923398654E+02 0.17616565698E+02 0.14038884891E+02 0.11169070269E+02 0.94518605479E+01
 0.85612551154E+01 0.78974289007E+01 0.74464417592E+01 0.72282734891E+01 0.72289155894E+01
 0.74475753706E+01 0.78971538622E+01 0.85580048545E+01 0.94462118608E+01 0.11164248066E+02
 0.99333343510E+01 0.11202159517E+02 0.12704503480E+02 0.13931893434E+02 0.14403880634E+02
 0.13929794835E+02 0.12704490798E+02 0.11207141053E+02 0.99409654022E+01 0.91236394100E+01
 0.85315012770E+01 0.80216909947E+01 0.76553629185E+01 0.74466766155E+01 0.73806367812E+01
 0.74475903465E+01 0.76578431383E+01 0.80245967913E+01 0.85314547561E+01 0.91185513335E+01
 0.88428618399E+01 0.91611990887E+01 0.95269332403E+01 0.99287686224E+01 0.10202486302E+02
 0.10203577705E+02 0.99323578755E+01 0.95325699067E+01 0.91659763221E+01 0.88430880124E+01
 0.85154974218E+01 0.82297433948E+01 0.80213941307E+01 0.78973668929E+01 0.78426908958E+01
 0.78419638806E+01 0.78970937536E+01 0.80245806421E+01 0.82359262498E+01 0.85203598849E+01
 0.85307157869E+01 0.85632958981E+01 0.86149367474E+01 0.86756365198E+01 0.87269673731E+01
 0.87489635908E+01 0.87299249296E+01 0.86785941366E+01 0.86144272735E+01 0.85582755360E+01
 0.85235919250E+01 0.85152315629E+01 0.85309239351E+01 0.85609892540E+01 0.85892009354E+01
 0.85999827293E+01 0.85861404164E+01 0.85579783846E+01 0.85315202573E+01 0.85203756508E+01
 0.88427941606E+01 0.85632836201E+01 0.83202717865E+01 0.81462176312E+01 0.80477359483E+01
 0.80086277536E+01 0.80093102957E+01 0.80479282374E+01 0.81430144466E+01 0.83141788332E+01
 0.85585638279E+01 0.88431275897E+01 0.91233821233E+01 0.94518829783E+01 0.98241844900E+01
 0.10081675499E+02 0.10080595995E+02 0.98206248029E+01 0.94462675816E+01 0.91185737101E+01
 0.99332786553E+01 0.91611853294E+01 0.86150018679E+01 0.81462231985E+01 0.78122174820E+01
 0.76248229469E+01 0.75661919764E+01 0.76239979305E+01 0.78097968581E+01 0.81432717333E+01
 0.86149654644E+01 0.91662731861E+01 0.99410045533E+01 0.11169305125E+02 0.12642870795E+02
 0.13859402301E+02 0.14332194488E+02 0.13861551770E+02 0.12642891054E+02 0.11164240296E+02
 0.14038675124E+02 0.11202175587E+02 0.95269843662E+01 0.86756372707E+01 0.80476788306E+01
 0.76248259314E+01 0.74215432029E+01 0.74209480428E+01 0.76237737974E+01 0.80479613910E+01
 0.86787872644E+01 0.95324971757E+01 0.11206916920E+02 0.14038895614E+02 0.17601035225E+02
 0.20916756483E+02 0.22917831306E+02 0.22921017459E+02 0.20923682169E+02 0.17606193252E+02
 0.24161196745E+02 0.17621772715E+02 0.12704481381E+02 0.99287465213E+01 0.87269255403E+01
 0.80086419741E+01 0.75662365457E+01 0.74209373272E+01 0.75656537856E+01 0.80094347517E+01
 0.87299249296E+01 0.99316792688E+01 0.12703913456E+02 0.17616712585E+02 0.24154055725E+02
 0.30867147119E+02 0.35918341615E+02 0.37796961138E+02 0.35921332557E+02 0.30873043207E+02
 0.41961470020E+02 0.30845380105E+02 0.20930268137E+02 0.13931869845E+02 0.10202511248E+02
 0.87489888756E+01 0.80093391021E+01 0.76239711938E+01 0.76237440762E+01 0.80094493376E+01
 0.87500734667E+01 0.10202795699E+02 0.13928715964E+02 0.20924242668E+02 0.30841011720E+02
 0.41962533532E+02 0.51680171957E+02 0.57364396166E+02 0.57361764726E+02 0.51675442996E+02
 0.67087119033E+02 0.51601101045E+02 0.35847319726E+02 0.22912988240E+02 0.14403939177E+02
 0.10203590119E+02 0.87298983188E+01 0.80479029636E+01 0.78097828943E+01 0.80479932350E+01
 0.87299401516E+01 0.10202783166E+02 0.14401485197E+02 0.22910020694E+02 0.35847353382E+02
 0.51607029714E+02 0.67097246898E+02 0.78538332206E+02 0.82763126320E+02 0.78530333214E+02
 0.96783725954E+02 0.78433785506E+02 0.57224395019E+02 0.37700598932E+02 0.22909807086E+02
 0.13929767562E+02 0.99323094183E+01 0.86785942919E+01 0.81430420442E+01 0.81432937636E+01
 0.86787866689E+01 0.99316529126E+01 0.13928712279E+02 0.22910025063E+02 0.37703330744E+02
 0.57229100809E+02 0.78438609623E+02 0.96787025094E+02 0.10751368162E+03 0.10751255653E+03
 0.12579792042E+03 0.10743331342E+03 0.82622807394E+02 0.57227058662E+02 0.35844346948E+02
 0.20923344470E+02 0.12704481381E+02 0.95326050302E+01 0.86144636770E+01 0.83141697028E+01
 0.86149367474E+01 0.95324811733E+01 0.12703926138E+02 0.20924252913E+02 0.35847350622E+02
 0.57229109158E+02 0.82619745556E+02 0.10742530054E+03 0.12579082659E+03 0.13260099348E+03
 0.14730553761E+03 0.13256523597E+03 0.10743437032E+03 0.78441754553E+02 0.51605888937E+02
 0.30839513342E+02 0.17616603080E+02 0.11207187613E+02 0.91659732222E+01 0.85582384407E+01
 0.85585390106E+01 0.91662838455E+01 0.11206947410E+02 0.17616720533E+02 0.30840991421E+02
 0.51607043479E+02 0.78438613000E+02 0.10742527781E+03 0.13255448226E+03 0.14730069069E+03
 0.14584563449E+03 0.13835558961E+03 0.11815947676E+03 0.90896399319E+02 0.62973916460E+02
 0.39371887615E+02 0.22741405544E+02 0.13407265157E+02 0.97017233216E+01 0.86881572903E+01
 0.83773687842E+01 0.86882599103E+01 0.97018142143E+01 0.13407257917E+02 0.22741342014E+02
 0.39371872163E+02 0.62973979884E+02 0.90896471688E+02 0.11815949175E+03 0.13835556757E+03
 0.13835999949E+03 0.13835554831E+03 0.12454340814E+03 0.10096695941E+03 0.73718321844E+02
 0.48473470081E+02 0.28978198469E+02 0.16659332788E+02 0.10786156718E+02 0.89472414721E+01
 0.83580484146E+01 0.83577751567E+01 0.89469697779E+01 0.10786410911E+02 0.16659279457E+02
 0.28976904364E+02 0.48472464253E+02 0.73721241306E+02 0.10097532434E+03 0.12455328711E+03
 0.11816605221E+03 0.12452507791E+03 0.11815949114E+03 0.10096700134E+03 0.77687737482E+02
 0.53803993888E+02 0.33686622689E+02 0.19708336598E+02 0.12103206024E+02 0.92305340009E+01
 0.83664374923E+01 0.80744320259E+01 0.83658083337E+01 0.92304830990E+01 0.12103748866E+02
 0.19707645360E+02 0.33683907466E+02 0.53801993110E+02 0.77690411330E+02 0.10097433459E+03
 0.90893518406E+02 0.10091432493E+03 0.10091531425E+03 0.90896479455E+02 0.73718299997E+02
 0.53803956610E+02 0.35439501735E+02 0.21554164399E+02 0.13199308950E+02 0.95492229496E+01
 0.83913969044E+01 0.78701672365E+01 0.78698962917E+01 0.83911471970E+01 0.95497916676E+01
 0.13200276292E+02 0.21553919840E+02 0.35436877587E+02 0.53799524717E+02 0.73713856104E+02
 0.62964665191E+02 0.73646911539E+02 0.77591248570E+02 0.73654246340E+02 0.62973915472E+02
 0.48473396522E+02 0.33686651204E+02 0.21554194218E+02 0.13625855696E+02 0.97715633791E+01
 0.84166442075E+01 0.77490108249E+01 0.75171092392E+01 0.77490290637E+01 0.84166945349E+01
 0.97722899100E+01 0.13628025521E+02 0.21556873122E+02 0.33686661704E+02 0.48468032332E+02
 0.39370884251E+02 0.48428528908E+02 0.53718944457E+02 0.53721399155E+02 0.48432932402E+02
 0.39371849737E+02 0.28978209047E+02 0.19708398162E+02 0.13199275001E+02 0.97715411935E+01
 0.84271588220E+01 0.76959425240E+01 0.73169155965E+01 0.73171477483E+01 0.76958848064E+01
 0.84261880415E+01 0.97713019986E+01 0.13202241662E+02 0.19714054946E+02 0.28982324197E+02
 0.22747902469E+02 0.28989256794E+02 0.33675034315E+02 0.35413554541E+02 0.33672325263E+02
 0.28983892526E+02 0.22741373994E+02 0.16659370894E+02 0.12103186438E+02 0.95491747154E+01
 0.84166831154E+01 0.76959590758E+01 0.72534340424E+01 0.71089248906E+01 0.72539482194E+01
 0.76952139454E+01 0.84139402971E+01 0.95465213352E+01 0.12103748866E+02 0.16664028428E+02
 0.13407011250E+02 0.16711002656E+02 0.19780755295E+02 0.21626371456E+02 0.21623445915E+02
 0.19774394081E+02 0.16706269882E+02 0.13407251333E+02 0.10786181420E+02 0.92304985663E+01
 0.83914247670E+01 0.77490478320E+01 0.73168709534E+01 0.71089107554E+01 0.71094886081E+01
 0.73178889927E+01 0.77487823966E+01 0.83884405821E+01 0.92253080917E+01 0.10781732323E+02
 0.96946881445E+01 0.10847931268E+02 0.12220562599E+02 0.13347856434E+02 0.13782502210E+02
 0.13345905863E+02 0.12220550238E+02 0.10852554657E+02 0.97017620847E+01 0.89472449372E+01
 0.83664190265E+01 0.78701967986E+01 0.75170732316E+01 0.73171176205E+01 0.72539996570E+01
 0.73179035079E+01 0.75192978624E+01 0.78728495737E+01 0.83663739483E+01 0.89425378570E+01
 0.86879732333E+01 0.90118499800E+01 0.93579105375E+01 0.97270955571E+01 0.99774005667E+01
 0.99783799868E+01 0.97303507717E+01 0.93630739319E+01 0.90162562452E+01 0.86881926762E+01
 0.83580070955E+01 0.80744329593E+01 0.78699101216E+01 0.77490078222E+01 0.76959287023E+01
 0.76952412895E+01 0.77487241480E+01 0.78728338416E+01 0.80801403773E+01 0.83624937546E+01
 0.83839292394E+01 0.84316328711E+01 0.85007561189E+01 0.85779495355E+01 0.86409534471E+01
 0.86665671311E+01 0.86436504831E+01 0.85806352476E+01 0.85002552152E+01 0.84269903311E+01
 0.83773540863E+01 0.83577492508E+01 0.83658534118E+01 0.83911492677E+01 0.84166831154E+01
 0.84261997427E+01 0.84138899697E+01 0.83884147902E+01 0.83664374923E+01 0.83625091677E+01
 0.86879074958E+01 0.84316208276E+01 0.82151196235E+01 0.80664251246E+01 0.79875790513E+01
 0.79590405432E+01 0.79596851746E+01 0.79877840863E+01 0.80634825702E+01 0.82094949186E+01
 0.84272689579E+01 0.86882295586E+01 0.89469951427E+01 0.92305016937E+01 0.95497415604E+01
 0.97722793104E+01 0.97713135846E+01 0.95465194621E+01 0.92253621209E+01 0.89425597566E+01
 0.96946340776E+01 0.90118364204E+01 0.85008194325E+01 0.80664306258E+01 0.77625461555E+01
 0.75952564386E+01 0.75436515625E+01 0.75945542917E+01 0.77603767259E+01 0.80637323647E+01
 0.85007840039E+01 0.90165429222E+01 0.97017989107E+01 0.10786428087E+02 0.12103715226E+02
 0.13200262913E+02 0.13628081145E+02 0.13202262232E+02 0.12103734813E+02 0.10781724797E+02
 0.13407029060E+02 0.10847946853E+02 0.93579602181E+01 0.85779504254E+01 0.79875234951E+01
 0.75952593092E+01 0.74086485907E+01 0.74081146981E+01 0.75943181949E+01 0.79877977841E+01
 0.85808425121E+01 0.93630233517E+01 0.10852318560E+02 0.13407261903E+02 0.16659289941E+02
 0.19707646347E+02 0.21553958121E+02 0.21556881584E+02 0.19713994369E+02 0.16664000805E+02
 0.22747965999E+02 0.16711031386E+02 0.12220541056E+02 0.97270741256E+01 0.86409127756E+01
 0.79590542981E+01 0.75436949164E+01 0.74081042402E+01 0.75431227738E+01 0.79597436338E+01
 0.86436504831E+01 0.97297558410E+01 0.12219984623E+02 0.16706331468E+02 0.22741373994E+02
 0.28976912882E+02 0.33683896966E+02 0.35436856707E+02 0.33686622689E+02 0.28982322137E+02
 0.39370920466E+02 0.28989250420E+02 0.19780692608E+02 0.13347833430E+02 0.99774248704E+01
 0.86665916459E+01 0.79597131936E+01 0.75945282567E+01 0.75942892893E+01 0.79597578980E+01
 0.86675631126E+01 0.99776995145E+01 0.13344938714E+02 0.19775114563E+02 0.28985176726E+02
 0.39371870499E+02 0.48472429373E+02 0.53801970477E+02 0.53799539363E+02 0.48468071011E+02
 0.62964644191E+02 0.48428478154E+02 0.33675004291E+02 0.21626387810E+02 0.13782559187E+02
 0.99783920196E+01 0.86436245897E+01 0.79877595918E+01 0.77603631301E+01 0.79878288458E+01
 0.86436652612E+01 0.99776872436E+01 0.13780356011E+02 0.21623692582E+02 0.33675037078E+02
 0.48433920314E+02 0.62973957895E+02 0.73721253279E+02 0.77690449296E+02 0.73713889923E+02
 0.90893478083E+02 0.73646872935E+02 0.53718971966E+02 0.35413609768E+02 0.21623466574E+02
 0.13345879343E+02 0.97303036151E+01 0.85806355644E+01 0.80635093900E+01 0.80637536833E+01
 0.85808419390E+01 0.97297301160E+01 0.13344935198E+02 0.21623696887E+02 0.35416158726E+02
 0.53723332480E+02 0.73651325104E+02 0.90896511501E+02 0.10097534425E+03 0.10097431257E+03
 0.11816603721E+03 0.10091435501E+03 0.77591289023E+02 0.53721434776E+02 0.33672292477E+02
 0.19774341413E+02 0.12220541056E+02 0.93631081668E+01 0.85002906438E+01 0.82094857836E+01
 0.85007561189E+01 0.93630079060E+01 0.12219996984E+02 0.19775124583E+02 0.33675034315E+02
 0.53723340591E+02 0.77588494332E+02 0.10090697692E+03 0.11815949114E+03 0.12455322411E+03
 0.13836000650E+03 0.12452515514E+03 0.10091532216E+03 0.73654211064E+02 0.48432895047E+02
 0.28983866378E+02 0.16706306240E+02 0.10852599842E+02 0.90162533132E+01 0.84269541404E+01
 0.84272448106E+01 0.90165535497E+01 0.10852348161E+02 0.16706339096E+02 0.28985156951E+02
 0.48433933713E+02 0.73651328432E+02 0.10090695475E+03 0.12451523934E+03 0.13835553328E+03
 0.12086685254E+03 0.11466666450E+03 0.97917625428E+02 0.75254949599E+02 0.52045192640E+02
 0.32559621277E+02 0.19091155868E+02 0.11821373678E+02 0.91032200087E+01 0.82684189405E+01
 0.79838467493E+01 0.82685099325E+01 0.91033012771E+01 0.11821367864E+02 0.19091097532E+02
 0.32559601607E+02 0.52045241455E+02 0.75255009437E+02 0.97917639199E+02 0.11466664720E+03
 0.11467010032E+03 0.11466662618E+03 0.10320862909E+03 0.83610111336E+02 0.60934694815E+02
 0.40001750795E+02 0.24049120675E+02 0.14261096261E+02 0.98363825436E+01 0.84768944743E+01
 0.79359683407E+01 0.79357207518E+01 0.84766476802E+01 0.98366594678E+01 0.14261251012E+02
 0.24048300824E+02 0.40001033766E+02 0.60936928204E+02 0.83616576508E+02 0.10321631645E+03
 0.97922758993E+02 0.10320903367E+03 0.97917638660E+02 0.83610150099E+02 0.64221946224E+02
 0.44379146245E+02 0.27832583682E+02 0.16601136475E+02 0.10755385905E+02 0.86670353707E+01
 0.79220365695E+01 0.76588232983E+01 0.79214518954E+01 0.86669423455E+01 0.10755893759E+02
 0.16600756609E+02 0.27830555513E+02 0.44377549313E+02 0.64223945864E+02 0.83615826933E+02
 0.75252744732E+02 0.83608013848E+02 0.83608767821E+02 0.75255023661E+02 0.60934674736E+02
 0.44379111964E+02 0.29247682560E+02 0.18034741079E+02 0.11540704300E+02 0.88613905964E+01
 0.79307775798E+01 0.74629559859E+01 0.74627134627E+01 0.79305074739E+01 0.88617489348E+01
 0.11541380084E+02 0.18034473963E+02 0.29245564340E+02 0.44375611327E+02 0.60931210384E+02
 0.52038057852E+02 0.60943543234E+02 0.64235426790E+02 0.60949224269E+02 0.52045191827E+02
 0.40001683133E+02 0.27832609794E+02 0.18034768309E+02 0.11850220003E+02 0.89986289128E+01
 0.79459295413E+01 0.73477310996E+01 0.71439981565E+01 0.73477970604E+01 0.79459752372E+01
 0.89990866775E+01 0.11851738200E+02 0.18036738668E+02 0.27832619322E+02 0.39997580651E+02
 0.32558906915E+02 0.40050308588E+02 0.44446207691E+02 0.44448133983E+02 0.40053738502E+02
 0.32559586385E+02 0.24049130242E+02 0.16601192802E+02 0.11540673406E+02 0.89986088577E+01
 0.79529535826E+01 0.72972638994E+01 0.69656729756E+01 0.69659298533E+01 0.72973657605E+01
 0.79522719563E+01 0.89983919854E+01 0.11542950096E+02 0.16605653992E+02 0.24052448631E+02
 0.19096217326E+02 0.24149741841E+02 0.27984651244E+02 0.29414267138E+02 0.27982619614E+02
 0.24145636619E+02 0.19091126731E+02 0.14261131384E+02 0.10755368226E+02 0.88613467757E+01
 0.79459647567E+01 0.72972787067E+01 0.69094801279E+01 0.67843887128E+01 0.69099602359E+01
 0.72968013501E+01 0.79439114287E+01 0.88593539485E+01 0.10755893759E+02 0.14264834408E+02
 0.11821097782E+02 0.14392169923E+02 0.16826744216E+02 0.18305815235E+02 0.18303569154E+02
 0.16821877928E+02 0.14388593763E+02 0.11821361396E+02 0.98364053098E+01 0.86670026967E+01
 0.79308026608E+01 0.73477644756E+01 0.69656326143E+01 0.67843760530E+01 0.67847890764E+01
 0.69663544634E+01 0.73475269785E+01 0.79285128513E+01 0.86630097369E+01 0.98329362709E+01
 0.90976547730E+01 0.99694597557E+01 0.11010566589E+02 0.11876760379E+02 0.12213204419E+02
 0.11875202676E+02 0.11010555153E+02 0.99731343833E+01 0.91032554463E+01 0.84768969422E+01
 0.79220195707E+01 0.74629832314E+01 0.71439656850E+01 0.69659026963E+01 0.69100068379E+01
 0.69663676676E+01 0.71455352550E+01 0.74649781673E+01 0.79219786053E+01 0.84731945652E+01
 0.82682528719E+01 0.86071045279E+01 0.89211985648E+01 0.92148172272E+01 0.94074074643E+01
 0.94081002025E+01 0.92172102698E+01 0.89251287361E+01 0.86105362987E+01 0.82684509752E+01
 0.79359307535E+01 0.76588249768E+01 0.74627261709E+01 0.73477774970E+01 0.72974054855E+01
 0.72968262679E+01 0.73474740390E+01 0.74649636299E+01 0.76632830494E+01 0.79394309273E+01
 0.79889665435E+01 0.80708542113E+01 0.81763677151E+01 0.82858535335E+01 0.83707729260E+01
 0.84038172574E+01 0.83727938083E+01 0.82878365935E+01 0.81758983515E+01 0.80672078909E+01
 0.79838335853E+01 0.79356975626E+01 0.79214928608E+01 0.79305087092E+01 0.79459647567E+01
 0.79522827602E+01 0.79438657329E+01 0.79284890055E+01 0.79220365695E+01 0.79394453254E+01
 0.82681926682E+01 0.80708428494E+01 0.79163149180E+01 0.78227606911E+01 0.77840049486E+01
 0.77760493185E+01 0.77765900403E+01 0.77842355156E+01 0.78204994200E+01 0.79119220668E+01
 0.80674580329E+01 0.82684817635E+01 0.84766706699E+01 0.86669588871E+01 0.88617033297E+01
 0.89990772775E+01 0.89984026405E+01 0.88593521641E+01 0.86630589524E+01 0.84732150871E+01
 0.90976053415E+01 0.86070915604E+01 0.81764258835E+01 0.78227659884E+01 0.75854165606E+01
 0.74603877989E+01 0.74231337670E+01 0.74599925840E+01 0.75838895935E+01 0.78207256923E+01
 0.81763932245E+01 0.86107933593E+01 0.91032872833E+01 0.98366753918E+01 0.10755863099E+02
 0.11541368099E+02 0.11851788938E+02 0.11542969005E+02 0.10755880778E+02 0.98329294287E+01
 0.11821114277E+02 0.99694739721E+01 0.89212441318E+01 0.82858547894E+01 0.77839538237E+01
 0.74603903563E+01 0.73099269837E+01 0.73095501553E+01 0.74597331825E+01 0.77842023864E+01
 0.82880721253E+01 0.89251310771E+01 0.99728749818E+01 0.11821372077E+02 0.14261260504E+02
 0.16600757511E+02 0.18034508907E+02 0.18036746382E+02 0.16605598567E+02 0.14264808778E+02
 0.19096275662E+02 0.14392196644E+02 0.11010546630E+02 0.92147976860E+01 0.83707355482E+01
 0.77760617719E+01 0.74231736847E+01 0.73095404301E+01 0.74226388940E+01 0.77764909200E+01
 0.83727938083E+01 0.92168260572E+01 0.11010028443E+02 0.14388450834E+02 0.19091126731E+02
 0.24048308398E+02 0.27830545985E+02 0.29245545007E+02 0.27832583682E+02 0.24052446638E+02
 0.32558940059E+02 0.24149736167E+02 0.16826686495E+02 0.11876739043E+02 0.94074299399E+01
 0.84038395980E+01 0.77766158379E+01 0.74599685399E+01 0.74597065809E+01 0.77765042641E+01
 0.84045223450E+01 0.94076760451E+01 0.11874521458E+02 0.16822289064E+02 0.24146448118E+02
 0.32559599859E+02 0.40001001915E+02 0.44377528478E+02 0.44375624772E+02 0.39997616462E+02
 0.52038038443E+02 0.40050261686E+02 0.27984623705E+02 0.18305830101E+02 0.12213256941E+02
 0.94081111579E+01 0.83727699510E+01 0.77842132253E+01 0.75838770308E+01 0.77842312208E+01
 0.83728073288E+01 0.94076645248E+01 0.12211696726E+02 0.18303839236E+02 0.27984654017E+02
 0.40054433194E+02 0.52045221232E+02 0.60936939441E+02 0.64223980627E+02 0.60931241700E+02
 0.75252707638E+02 0.60943507469E+02 0.44446233164E+02 0.29414318016E+02 0.18303588140E+02
 0.11875178300E+02 0.92171667989E+01 0.82878373487E+01 0.78205240275E+01 0.78207450025E+01
 0.82880716247E+01 0.92168021275E+01 0.11874518419E+02 0.18303843356E+02 0.29416378817E+02
 0.44449681252E+02 0.60946982308E+02 0.75255046405E+02 0.83616594750E+02 0.83615806412E+02
 0.97922745222E+02 0.83608041743E+02 0.64235464149E+02 0.44448166894E+02 0.27982589302E+02
 0.16821829585E+02 0.11010546630E+02 0.89251604214E+01 0.81759310105E+01 0.79119129546E+01
 0.81763677151E+01 0.89251171955E+01 0.11010039879E+02 0.16822298443E+02 0.27984651244E+02
 0.44449688690E+02 0.64233362982E+02 0.83602327426E+02 0.97917638660E+02 0.10321625789E+03
 0.11467010678E+03 0.10320910532E+03 0.83608775157E+02 0.60949191706E+02 0.40053703963E+02
 0.24145612672E+02 0.14388627215E+02 0.99731756504E+01 0.86105338372E+01 0.80671743003E+01
 0.80674358042E+01 0.86108038652E+01 0.99729020325E+01 0.14388457564E+02 0.24146429846E+02
 0.40054445557E+02 0.60946985511E+02 0.83602306867E+02 0.10320138870E+03 0.11466661534E+03
 0.88385776782E+02 0.83835393432E+02 0.71527034592E+02 0.54868576936E+02 0.37902617767E+02
 0.23920374106E+02 0.14644816857E+02 0.10002280074E+02 0.83860988307E+01 0.76993735973E+01
 0.74576439077E+01 0.76994493601E+01 0.83861673645E+01 0.10002276181E+02 0.14644766343E+02
 0.23920351190E+02 0.37902650045E+02 0.54868621779E+02 0.71527046517E+02 0.83835381536E+02
 0.83837593544E+02 0.83835359626E+02 0.75404558724E+02 0.60973964601E+02 0.44325399041E+02
 0.29145190163E+02 0.17921160074E+02 0.11431290805E+02 0.87577601732E+01 0.78356645523E+01
 0.73734035249E+01 0.73731982711E+01 0.78354593601E+01 0.87580440095E+01 0.11431654312E+02
 0.17920888241E+02 0.29144819911E+02 0.44326773675E+02 0.60978035847E+02 0.75409470567E+02
 0.71530336881E+02 0.75429831925E+02 0.71527046162E+02 0.60973998583E+02 0.46708340653E+02
 0.32248510604E+02 0.20476832701E+02 0.12863229920E+02 0.92175502645E+01 0.79545507976E+01
 0.73244366093E+01 0.71059738655E+01 0.73239332786E+01 0.79544176072E+01 0.92179892888E+01
 0.12863200586E+02 0.20475651193E+02 0.32247435512E+02 0.46709507514E+02 0.60977584393E+02
 0.54867219548E+02 0.61038146138E+02 0.61038606579E+02 0.54868641823E+02 0.44325381536E+02
 0.32248480827E+02 0.21442048594E+02 0.13761846292E+02 0.96278394561E+01 0.80400418942E+01
 0.73032686254E+01 0.69169184913E+01 0.69167205633E+01 0.73029932868E+01 0.80401568260E+01
 0.96281673732E+01 0.13761572313E+02 0.21440592763E+02 0.32246174282E+02 0.44323159436E+02
 0.37898147577E+02 0.44438064616E+02 0.46864428895E+02 0.44441656883E+02 0.37902617139E+02
 0.29145131364E+02 0.20476855279E+02 0.13761869631E+02 0.97936635536E+01 0.80921636426E+01
 0.72979129897E+01 0.68038480632E+01 0.66402182400E+01 0.68039603330E+01 0.72979517504E+01
 0.80923120183E+01 0.97944046117E+01 0.13762974545E+02 0.20476863297E+02 0.29142607903E+02
 0.23920006823E+02 0.29312750501E+02 0.32509951157E+02 0.32511203145E+02 0.29314945405E+02
 0.23920343696E+02 0.17921168170E+02 0.12863278365E+02 0.96278130701E+01 0.80921467810E+01
 0.72975857738E+01 0.67530872920E+01 0.64872195191E+01 0.64874862488E+01 0.67533501405E+01
 0.72972502440E+01 0.80919676520E+01 0.96292252386E+01 0.12866208415E+02 0.17923444616E+02
 0.14648056707E+02 0.18133507631E+02 0.20834168052E+02 0.21850541675E+02 0.20832974045E+02
 0.18130979166E+02 0.14644791319E+02 0.11431321409E+02 0.92175354010E+01 0.80400047129E+01
 0.72979427439E+01 0.67530995081E+01 0.64391688234E+01 0.63396283420E+01 0.64395832271E+01
 0.67529323044E+01 0.72967396460E+01 0.80388280642E+01 0.92179892888E+01 0.11433792850E+02
 0.10001998208E+02 0.11659132991E+02 0.13276533139E+02 0.14277235754E+02 0.14275842327E+02
 0.13273537960E+02 0.11656992464E+02 0.10002270067E+02 0.87577800798E+01 0.79545223304E+01
 0.73032896080E+01 0.68038760152E+01 0.64871855356E+01 0.63396178682E+01 0.63398328454E+01
 0.64875526418E+01 0.68036823598E+01 0.73018690285E+01 0.79520321183E+01 0.87555540284E+01
 0.83824232563E+01 0.89757576175E+01 0.96371171499E+01 0.10187692544E+02 0.10402991629E+02
 0.10186644015E+02 0.96371071395E+01 0.89782075685E+01 0.83861293527E+01 0.78356656128E+01
 0.73244218193E+01 0.69169421983E+01 0.66401910126E+01 0.64874635089E+01 0.64396225677E+01
 0.64875638854E+01 0.66409766002E+01 0.69181227949E+01 0.73243870229E+01 0.78332473522E+01
 0.76992387047E+01 0.80421923287E+01 0.83558180966E+01 0.85960577901E+01 0.87343329032E+01
 0.87346820186E+01 0.85973979883E+01 0.83582103535E+01 0.80443878403E+01 0.76994006468E+01
 0.73733714766E+01 0.71059765227E+01 0.69167315428E+01 0.68039433330E+01 0.67533836334E+01
 0.67529535812E+01 0.68036374078E+01 0.69181100675E+01 0.71088479829E+01 0.73756209344E+01
 0.74609342717E+01 0.75777160272E+01 0.77135394518E+01 0.78453261116E+01 0.79430191497E+01
 0.79797644522E+01 0.79442042822E+01 0.78464486834E+01 0.77131336801E+01 0.75753428208E+01
 0.74576329827E+01 0.73731790675E+01 0.73239680751E+01 0.73029933883E+01 0.72979427439E+01
 0.72972596540E+01 0.72967008852E+01 0.73018481473E+01 0.73244366093E+01 0.73756337792E+01
 0.76991867958E+01 0.75777057296E+01 0.74925752674E+01 0.74525320869E+01 0.74473679570E+01
 0.74545470592E+01 0.74549444824E+01 0.74476098448E+01 0.74511261199E+01 0.74897493927E+01
 0.75755478688E+01 0.76994245007E+01 0.78354788112E+01 0.79544311588E+01 0.80401180447E+01
 0.80923043457E+01 0.80919768410E+01 0.80388264642E+01 0.79520741371E+01 0.78332657428E+01
 0.83823807530E+01 0.80421803335E+01 0.77135899292E+01 0.74525370275E+01 0.72831576495E+01
 0.71969997246E+01 0.71720821858E+01 0.71969515954E+01 0.72823996284E+01 0.74513129214E+01
 0.77135613939E+01 0.80445984957E+01 0.83861553832E+01 0.87580580530E+01 0.92179631148E+01
 0.96281574364E+01 0.97944479443E+01 0.96292416877E+01 0.92179779783E+01 0.87555481653E+01
 0.10002012687E+02 0.89757698278E+01 0.83558575226E+01 0.78453278148E+01 0.74473234116E+01
 0.71970018517E+01 0.70824156721E+01 0.70822275723E+01 0.71966842084E+01 0.74475292594E+01
 0.78466978240E+01 0.83582670850E+01 0.89779401815E+01 0.10002280653E+02 0.11431662266E+02
 0.12863201386E+02 0.13761602244E+02 0.13762981136E+02 0.12866160769E+02 0.11433770200E+02
 0.14648107221E+02 0.11659156690E+02 0.96370995856E+01 0.85960410230E+01 0.79429866572E+01
 0.74545576406E+01 0.71721170403E+01 0.70822189342E+01 0.71716544720E+01 0.74546870318E+01
 0.79442042822E+01 0.85972579819E+01 0.96366533952E+01 0.11656643841E+02 0.14644791319E+02
 0.17920894453E+02 0.20475643174E+02 0.21440575714E+02 0.20476832701E+02 0.17923442731E+02
 0.23920035377E+02 0.18133502991E+02 0.13276482867E+02 0.10187673719E+02 0.87343526444E+01
 0.79797835967E+01 0.74549670188E+01 0.71969305095E+01 0.71966609954E+01 0.74546989868E+01
 0.79801214278E+01 0.87345539449E+01 0.10186305286E+02 0.13273598716E+02 0.18131244426E+02
 0.23920349333E+02 0.29144792635E+02 0.32247417324E+02 0.32246185871E+02 0.29142639426E+02
 0.37898130602E+02 0.29312709377E+02 0.20834144236E+02 0.14277248418E+02 0.10403037516E+02
 0.87346913736E+01 0.79441834587E+01 0.74475907986E+01 0.72823885618E+01 0.74475547586E+01
 0.79442159512E+01 0.87345435586E+01 0.10402248572E+02 0.14276120301E+02 0.20834170847E+02
 0.29315289772E+02 0.37902632442E+02 0.44326783768E+02 0.46709537455E+02 0.44323187033E+02
 0.54867187337E+02 0.44438033089E+02 0.32509973554E+02 0.21850586036E+02 0.14275858819E+02
 0.10186622849E+02 0.85973599732E+01 0.78464500270E+01 0.74511474283E+01 0.74513292893E+01
 0.78466974644E+01 0.85972367339E+01 0.10186302945E+02 0.14276124128E+02 0.21852004744E+02
 0.32512248378E+02 0.44440267284E+02 0.54868654455E+02 0.60978051644E+02 0.60977566208E+02
 0.71530324956E+02 0.61038170670E+02 0.46864461557E+02 0.32511231991E+02 0.20832947435E+02
 0.13273496102E+02 0.96370995856E+01 0.83582381720E+01 0.77131622155E+01 0.74897404294E+01
 0.77135394518E+01 0.83582554776E+01 0.96366634056E+01 0.13273607130E+02 0.20834168052E+02
 0.32512254828E+02 0.46863216791E+02 0.61034556311E+02 0.71527046162E+02 0.75409418768E+02
 0.83837599168E+02 0.75429895097E+02 0.61038612971E+02 0.44441628424E+02 0.29314915113E+02
 0.18130958526E+02 0.11657021603E+02 0.89782429504E+01 0.80443860691E+01 0.75753131924E+01
 0.75755285380E+01 0.80446087198E+01 0.89779633531E+01 0.11656649282E+02 0.18131228425E+02
 0.29315300603E+02 0.44440270351E+02 0.61034538171E+02 0.75424962728E+02 0.83835353354E+02
 0.56955819549E+02 0.54000495568E+02 0.46022863862E+02 0.35304620826E+02 0.24595843525E+02
 0.16124791059E+02 0.10919166144E+02 0.85948753984E+01 0.76735255547E+01 0.71183777981E+01
 0.69309514024E+01 0.71184345452E+01 0.76735759784E+01 0.85948700435E+01 0.10919124957E+02
 0.16124771084E+02 0.24595866460E+02 0.35304654621E+02 0.46022873585E+02 0.54000487235E+02
 0.54001570883E+02 0.54000467224E+02 0.48516972635E+02 0.39176692144E+02 0.28546442621E+02
 0.19145518359E+02 0.12596327565E+02 0.91763493998E+01 0.78631702107E+01 0.71680129309E+01