   2   2   0   0
  0.9258425E+01  0.2306700E-09  0.2306700E-09  0.4018410E-09  0.5000000E-15
  1.000000000000000E-004
  CAR 
 unknown system                          
     76.34937928     -5.12119488  301      8.02394296      1.00000000
     -5.121  0.0000E+00  0.0000E+00
     -4.850  0.0000E+00  0.0000E+00
     -4.578  0.0000E+00  0.0000E+00
     -4.306  0.0000E+00  0.0000E+00
     -4.035  0.0000E+00  0.0000E+00
     -3.763  0.0000E+00  0.0000E+00
     -3.492  0.0000E+00  0.0000E+00
     -3.220 -0.7641E-37 -0.2075E-37
     -2.949 -0.4367E-27 -0.1186E-27
     -2.677 -0.6070E-19 -0.1648E-19
     -2.406 -0.1955E-12 -0.5310E-13
     -2.134 -0.1520E-07 -0.4128E-08
     -1.862 -0.2632E-04 -0.7151E-05
     -1.591 -0.4159E-03 -0.1201E-03
     -1.319  0.8503E-02  0.2189E-02
     -1.048  0.4785E-01  0.1518E-01
     -0.776  0.9422E-01  0.4077E-01
     -0.505  0.5619E-01  0.5603E-01
     -0.233  0.1371E+00  0.9326E-01
      0.039  0.1667E+00  0.1385E+00
      0.310  0.1807E+00  0.1876E+00
      0.582  0.8716E-01  0.2113E+00
      0.853  0.2007E+00  0.2658E+00
      1.125  0.3142E+00  0.3511E+00
      1.396  0.2600E+00  0.4217E+00
      1.668  0.3213E+00  0.5089E+00
      1.940  0.2054E+00  0.5647E+00
      2.211  0.4383E+00  0.6838E+00
      2.483  0.1030E+01  0.9634E+00
      2.754  0.1613E+01  0.1401E+01
      3.026  0.1655E+01  0.1851E+01
      3.297  0.2793E+01  0.2609E+01
      3.569  0.2113E+01  0.3183E+01
      3.841  0.2808E+01  0.3946E+01
      4.112  0.1905E+01  0.4463E+01
      4.384  0.2813E+01  0.5227E+01
      4.655  0.2761E+01  0.5977E+01
      4.927  0.2906E+01  0.6766E+01
      5.198  0.2329E+01  0.7398E+01
      5.470  0.1931E+01  0.7923E+01
      5.742  0.2843E+01  0.8695E+01
      6.013  0.3635E+01  0.9682E+01
      6.285  0.3360E+01  0.1059E+02
      6.556  0.3594E+01  0.1157E+02
      6.828  0.3416E+01  0.1250E+02
      7.099  0.3464E+01  0.1344E+02
      7.371  0.2717E+01  0.1418E+02
      7.643  0.2680E+01  0.1490E+02
      7.914  0.3007E+01  0.1572E+02
      8.186  0.2284E+01  0.1634E+02
      8.457  0.2536E+01  0.1703E+02
      8.729  0.4110E+01  0.1815E+02
      9.000  0.4553E+01  0.1938E+02
      9.272  0.4173E+01  0.2052E+02
      9.544  0.2504E+01  0.2120E+02
      9.815  0.2007E+00  0.2125E+02
     10.087  0.2362E+00  0.2131E+02
     10.358  0.8042E+00  0.2153E+02
     10.630  0.7242E+00  0.2173E+02
     10.901  0.5521E+00  0.2188E+02
     11.173  0.5322E+00  0.2202E+02
     11.444  0.5491E+00  0.2217E+02
     11.716  0.2961E+00  0.2225E+02
     11.988  0.2492E+00  0.2232E+02
     12.259  0.5183E+00  0.2246E+02
     12.531  0.6997E+00  0.2265E+02
     12.802  0.4623E+00  0.2278E+02
     13.074  0.3346E+00  0.2287E+02
     13.345  0.3098E+00  0.2295E+02
     13.617  0.5186E+00  0.2309E+02
     13.889  0.3636E+00  0.2319E+02
     14.160  0.2762E+00  0.2327E+02
     14.432  0.2929E+00  0.2335E+02
     14.703  0.3231E+00  0.2343E+02
     14.975  0.3770E+00  0.2354E+02
     15.246  0.2748E+00  0.2361E+02
     15.518  0.3770E+00  0.2371E+02
     15.790  0.5058E+00  0.2385E+02
     16.061  0.1480E+00  0.2389E+02
     16.333  0.9649E-01  0.2392E+02
     16.604  0.2215E+00  0.2398E+02
     16.876  0.2117E+00  0.2404E+02
     17.147  0.2145E+00  0.2409E+02
     17.419  0.1637E+00  0.2414E+02
     17.691  0.1991E+00  0.2419E+02
     17.962  0.2362E+00  0.2426E+02
     18.234  0.5715E+00  0.2441E+02
     18.505  0.4190E+00  0.2453E+02
     18.777  0.7507E+00  0.2473E+02
     19.048  0.9216E+00  0.2498E+02
     19.320  0.6607E+00  0.2516E+02
     19.592  0.5240E+00  0.2530E+02
     19.863  0.5518E+00  0.2545E+02
     20.135  0.7128E+00  0.2564E+02
     20.406  0.4777E+00  0.2577E+02
     20.678  0.1021E+01  0.2605E+02
     20.949  0.5425E+00  0.2620E+02
     21.221  0.5692E+00  0.2635E+02
     21.493  0.7895E+00  0.2657E+02
     21.764  0.6887E+00  0.2675E+02
     22.036  0.7173E+00  0.2695E+02
     22.307  0.4890E+00  0.2708E+02
     22.579  0.6885E+00  0.2727E+02
     22.850  0.7357E+00  0.2747E+02
     23.122  0.4099E+00  0.2758E+02
     23.394  0.5304E+00  0.2772E+02
     23.665  0.6083E+00  0.2789E+02
     23.937  0.5192E+00  0.2803E+02
     24.208  0.6356E+00  0.2820E+02
     24.480  0.6204E+00  0.2837E+02
     24.751  0.7038E+00  0.2856E+02
     25.023  0.5576E+00  0.2871E+02
     25.294  0.6443E+00  0.2889E+02
     25.566  0.9074E+00  0.2914E+02
     25.838  0.9824E+00  0.2940E+02
     26.109  0.7637E+00  0.2961E+02
     26.381  0.9877E+00  0.2988E+02
     26.652  0.8707E+00  0.3011E+02
     26.924  0.3703E+00  0.3022E+02
     27.195  0.1038E+01  0.3050E+02
     27.467  0.7507E+00  0.3070E+02
     27.739  0.7483E+00  0.3090E+02
     28.010  0.1380E+01  0.3128E+02
     28.282  0.1000E+01  0.3155E+02
     28.553  0.6944E+00  0.3174E+02
     28.825  0.7532E+00  0.3194E+02
     29.096  0.9491E+00  0.3220E+02
     29.368  0.7989E+00  0.3242E+02
     29.640  0.1124E+01  0.3272E+02
     29.911  0.7516E+00  0.3293E+02
     30.183  0.5578E+00  0.3308E+02
     30.454  0.1031E+01  0.3336E+02
     30.726  0.8164E+00  0.3358E+02
     30.997  0.8974E+00  0.3382E+02
     31.269  0.1330E+01  0.3419E+02
     31.541  0.2566E+00  0.3426E+02
     31.812  0.3471E+00  0.3435E+02
     32.084  0.8107E+00  0.3457E+02
     32.355  0.8714E+00  0.3481E+02
     32.627  0.7674E+00  0.3502E+02
     32.898  0.5918E+00  0.3518E+02
     33.170  0.7065E+00  0.3537E+02
     33.442  0.7437E+00  0.3557E+02
     33.713  0.7469E+00  0.3577E+02
     33.985  0.6289E+00  0.3594E+02
     34.256  0.5216E+00  0.3609E+02
     34.528  0.4362E+00  0.3620E+02
     34.799  0.1004E+01  0.3648E+02
     35.071  0.5807E+00  0.3663E+02
     35.343  0.7730E+00  0.3684E+02
     35.614  0.9672E+00  0.3711E+02
     35.886  0.6120E+00  0.3727E+02
     36.157  0.7869E+00  0.3749E+02
     36.429  0.8756E+00  0.3772E+02
     36.700  0.6844E+00  0.3791E+02
     36.972  0.1143E+01  0.3822E+02
     37.244  0.6694E+00  0.3840E+02
     37.515  0.8832E+00  0.3864E+02
     37.787  0.1101E+01  0.3894E+02
     38.058  0.8870E+00  0.3918E+02
     38.330  0.6655E+00  0.3936E+02
     38.601  0.9005E+00  0.3961E+02
     38.873  0.1115E+01  0.3991E+02
     39.144  0.1121E+01  0.4021E+02
     39.416  0.7715E+00  0.4042E+02
     39.688  0.8714E+00  0.4066E+02
     39.959  0.7213E+00  0.4086E+02
     40.231  0.7448E+00  0.4106E+02
     40.502  0.7984E+00  0.4128E+02
     40.774  0.5228E+00  0.4142E+02
     41.045  0.7663E+00  0.4163E+02
     41.317  0.9156E+00  0.4187E+02
     41.589  0.8233E+00  0.4210E+02
     41.860  0.6542E+00  0.4228E+02
     42.132  0.6915E+00  0.4246E+02
     42.403  0.9204E+00  0.4271E+02
     42.675  0.1241E+01  0.4305E+02
     42.946  0.7306E+00  0.4325E+02
     43.218  0.9453E+00  0.4351E+02
     43.490  0.7762E+00  0.4372E+02
     43.761  0.5441E+00  0.4386E+02
     44.033  0.5982E+00  0.4403E+02
     44.304  0.5332E+00  0.4417E+02
     44.576  0.1049E+01  0.4446E+02
     44.847  0.1109E+01  0.4476E+02
     45.119  0.1054E+01  0.4504E+02
     45.391  0.1215E+01  0.4537E+02
     45.662  0.1017E+01  0.4565E+02
     45.934  0.8379E+00  0.4588E+02
     46.205  0.1011E+01  0.4615E+02
     46.477  0.6296E+00  0.4632E+02
     46.748  0.1162E+01  0.4664E+02
     47.020  0.1404E+01  0.4702E+02
     47.292  0.1061E+01  0.4731E+02
     47.563  0.1107E+01  0.4761E+02
     47.835  0.8056E+00  0.4783E+02
     48.106  0.1317E+01  0.4818E+02
     48.378  0.1086E+01  0.4848E+02
     48.649  0.7559E+00  0.4868E+02
     48.921  0.8391E+00  0.4891E+02
     49.193  0.6228E+00  0.4908E+02
     49.464  0.9144E+00  0.4933E+02
     49.736  0.6607E+00  0.4951E+02
     50.007  0.5694E+00  0.4966E+02
     50.279  0.6503E+00  0.4984E+02
     50.550  0.9367E+00  0.5009E+02
     50.822  0.1212E+01  0.5042E+02
     51.094  0.1111E+01  0.5073E+02
     51.365  0.1029E+01  0.5101E+02
     51.637  0.8736E+00  0.5124E+02
     51.908  0.8737E+00  0.5148E+02
     52.180  0.1286E+01  0.5183E+02
     52.451  0.1241E+01  0.5217E+02
     52.723  0.9287E+00  0.5242E+02
     52.994  0.9438E+00  0.5267E+02
     53.266  0.4094E+00  0.5279E+02
     53.538  0.7370E+00  0.5299E+02
     53.809  0.1458E+01  0.5338E+02
     54.081  0.1548E+01  0.5380E+02
     54.352  0.1151E+01  0.5412E+02
     54.624  0.1131E+01  0.5442E+02
     54.895  0.1272E+01  0.5477E+02
     55.167  0.9021E+00  0.5501E+02
     55.439  0.8011E+00  0.5523E+02
     55.710  0.1217E+01  0.5556E+02
     55.982  0.1441E+01  0.5595E+02
     56.253  0.8287E+00  0.5618E+02
     56.525  0.8396E+00  0.5641E+02
     56.796  0.1325E+01  0.5677E+02
     57.068  0.1519E+01  0.5718E+02
     57.340  0.1163E+01  0.5749E+02
     57.611  0.1158E+01  0.5781E+02
     57.883  0.9323E+00  0.5806E+02
     58.154  0.1314E+01  0.5842E+02
     58.426  0.1329E+01  0.5878E+02
     58.697  0.1413E+01  0.5916E+02
     58.969  0.1529E+01  0.5958E+02
     59.241  0.1169E+01  0.5990E+02
     59.512  0.1362E+01  0.6027E+02
     59.784  0.1370E+01  0.6064E+02
     60.055  0.1844E+01  0.6114E+02
     60.327  0.2096E+01  0.6171E+02
     60.598  0.2042E+01  0.6226E+02
     60.870  0.1343E+01  0.6263E+02
     61.142  0.1354E+01  0.6299E+02
     61.413  0.1660E+01  0.6344E+02
     61.685  0.2192E+01  0.6404E+02
     61.956  0.2967E+01  0.6485E+02
     62.228  0.2634E+01  0.6556E+02
     62.499  0.2099E+01  0.6613E+02
     62.771  0.1980E+01  0.6667E+02
     63.043  0.1947E+01  0.6720E+02
     63.314  0.1453E+01  0.6759E+02
     63.586  0.7537E+00  0.6780E+02
     63.857  0.1438E+01  0.6819E+02
     64.129  0.1949E+01  0.6872E+02
     64.400  0.1984E+01  0.6926E+02
     64.672  0.1433E+01  0.6964E+02
     64.943  0.1656E+01  0.7009E+02
     65.215  0.1312E+01  0.7045E+02
     65.487  0.1432E+01  0.7084E+02
     65.758  0.1512E+01  0.7125E+02
     66.030  0.1744E+01  0.7172E+02
     66.301  0.1336E+01  0.7209E+02
     66.573  0.1060E+01  0.7237E+02
     66.844  0.1595E+01  0.7281E+02
     67.116  0.1199E+01  0.7313E+02
     67.388  0.1926E+01  0.7366E+02
     67.659  0.1374E+01  0.7403E+02
     67.931  0.1709E+01  0.7449E+02
     68.202  0.1650E+01  0.7494E+02
     68.474  0.1476E+01  0.7534E+02
     68.745  0.1657E+01  0.7579E+02
     69.017  0.1533E+01  0.7621E+02
     69.289  0.1683E+01  0.7667E+02
     69.560  0.1728E+01  0.7714E+02
     69.832  0.1145E+01  0.7745E+02
     70.103  0.1057E+01  0.7773E+02
     70.375  0.1322E+01  0.7809E+02
     70.646  0.1719E+01  0.7856E+02
     70.918  0.9911E+00  0.7883E+02
     71.190  0.1033E+01  0.7911E+02
     71.461  0.1433E+01  0.7950E+02
     71.733  0.7203E+00  0.7969E+02
     72.004  0.9485E+00  0.7995E+02
     72.276  0.1205E+00  0.7998E+02
     72.547  0.3522E-02  0.7998E+02
     72.819  0.5748E-01  0.8000E+02
     73.091 -0.6793E-04  0.8000E+02
     73.362 -0.2428E-03  0.8000E+02
     73.634 -0.1687E-06  0.8000E+02
     73.905 -0.2292E-11  0.8000E+02
     74.177  0.0000E+00  0.8000E+02
     74.448  0.0000E+00  0.8000E+02
     74.720  0.0000E+00  0.8000E+02
     74.992  0.0000E+00  0.8000E+02
     75.263  0.0000E+00  0.8000E+02
     75.535  0.0000E+00  0.8000E+02
     75.806  0.0000E+00  0.8000E+02
     76.078  0.0000E+00  0.8000E+02
     76.349  0.0000E+00  0.8000E+02
