    2    2    1    1
  0.9258425E+01  0.2306700E-09  0.2306700E-09  0.4018410E-09  0.5000000E-15
  1.000000000000000E-004
  CAR 
 unknown system                          
     16     96     40
 
  0.0000000E+00  0.0000000E+00  0.0000000E+00  0.7513148E-03
    1       -1.417987   1.000000
    2        2.490602   1.000000
    3        5.593733   1.000000
    4        6.219990   1.000000
    5        6.220055   1.000000
    6        6.593935   1.000000
    7        6.594013   1.000000
    8        7.384260   1.000030
    9        7.612034   1.006564
   10        7.612053   1.006566
   11        8.886289  -0.000000
   12        8.886308  -0.000000
   13       16.426880   0.000000
   14       32.131507   0.000000
   15       32.881844   0.000000
   16       35.437486   0.000000
   17       38.329532   0.000000
   18       38.329602   0.000000
   19       39.060134   0.000000
   20       39.060312   0.000000
   21       40.502180   0.000000
   22       41.705883   0.000000
   23       41.705901   0.000000
   24       42.798909   0.000000
   25       45.860696   0.000000
   26       45.860705   0.000000
   27       47.142892   0.000000
   28       50.135136   0.000000
   29       50.135554   0.000000
   30       52.080060   0.000000
   31       52.080233   0.000000
   32       55.029003   0.000000
   33       62.895568   0.000000
   34       63.792640   0.000000
   35       64.023632   0.000000
   36       64.024538   0.000000
   37       65.318137   0.000000
   38       67.123479   0.000000
   39       67.124584   0.000000
   40       69.454437   0.000000
 
  0.9090909E-01  0.4943378E-17  0.0000000E+00  0.4507889E-02
    1       -1.063969   1.000000
    2        2.754843   1.000000
    3        5.574038   1.000000
    4        6.180469   1.000000
    5        6.390541   1.000000
    6        6.438090   1.000000
    7        6.469638   1.000000
    8        6.796057   1.000000
    9        7.455141   1.000218
   10        7.482032   1.000432
   11        8.928312  -0.000000
   12       10.151779  -0.000000
   13       16.446377   0.000000
   14       31.060020   0.000000
   15       33.220281   0.000000
   16       33.899002   0.000000
   17       35.400291   0.000000
   18       37.541450   0.000000
   19       37.580984   0.000000
   20       40.341451   0.000000
   21       41.199748   0.000000
   22       42.157183   0.000000
   23       42.623019   0.000000
   24       42.856313   0.000000
   25       47.004404   0.000000
   26       47.288785   0.000000
   27       47.542615   0.000000
   28       47.857405   0.000000
   29       51.280535   0.000000
   30       53.620619   0.000000
   31       54.553447   0.000000
   32       56.768970   0.000000
   33       61.572254   0.000000
   34       63.146733   0.000000
   35       63.413956   0.000000
   36       63.813860   0.000000
   37       64.165463   0.000000
   38       67.768087   0.000000
   39       69.353766   0.000000
   40       69.439228   0.000000
 
  0.1818182E+00  0.1049322E-16  0.0000000E+00  0.4507889E-02
    1       -0.069186   1.000000
    2        3.367351   1.000000
    3        5.162524   1.000000
    4        5.315150   1.000000
    5        5.997896   1.000000
    6        6.646785   1.000000
    7        7.043698   1.000000
    8        7.070476   1.000000
    9        7.175922   1.000000
   10        7.352094   1.000011
   11        8.999489  -0.000000
   12       12.151506  -0.000000
   13       16.526374   0.000000
   14       27.435592   0.000000
   15       32.399583   0.000000
   16       32.639078   0.000000
   17       33.029847   0.000000
   18       34.138801   0.000000
   19       38.431951   0.000000
   20       39.660034   0.000000
   21       40.276389   0.000000
   22       40.415559   0.000000
   23       43.411619   0.000000
   24       44.690813   0.000000
   25       47.253099   0.000000
   26       48.136469   0.000000
   27       49.666356   0.000000
   28       52.044843   0.000000
   29       54.517267   0.000000
   30       56.571274   0.000000
   31       57.261106   0.000000
   32       59.713431   0.000000
   33       60.048801   0.000000
   34       61.291498   0.000000
   35       61.521555   0.000000
   36       62.708437   0.000000
   37       65.173793   0.000000
   38       68.577665   0.000000
   39       69.390576   0.000000
   40       70.300775   0.000000
 
  0.2727273E+00 -0.2832493E-16  0.0000000E+00  0.4507889E-02
    1        1.316298   1.000000
    2        3.629402   1.000000
    3        4.201093   1.000000
    4        5.256426   1.000000
    5        5.818699   1.000000
    6        6.586637   1.000000
    7        6.828862   1.000000
    8        7.499254   1.000655
    9        7.905827   0.915742
   10        8.131358   0.110222
   11        9.045085  -0.000000
   12       14.380761   0.000000
   13       16.708183   0.000000
   14       23.389802   0.000000
   15       29.340305   0.000000
   16       29.826168   0.000000
   17       31.107347   0.000000
   18       33.905544   0.000000
   19       36.798033   0.000000
   20       39.820382   0.000000
   21       40.200928   0.000000
   22       40.499813   0.000000
   23       41.014660   0.000000
   24       44.899476   0.000000
   25       50.776723   0.000000
   26       52.378138   0.000000
   27       53.264018   0.000000
   28       54.877433   0.000000
   29       56.126894   0.000000
   30       57.004280   0.000000
   31       58.700682   0.000000
   32       60.386434   0.000000
   33       60.891102   0.000000
   34       61.561295   0.000000
   35       62.324274   0.000000
   36       64.650711   0.000000
   37       65.333866   0.000000
   38       69.194446   0.000000
   39       69.317049   0.000000
   40       70.043137   0.000000
 
  0.3636364E+00  0.2037997E-16  0.0000000E+00  0.4507889E-02
    1        2.489340   1.000000
    2        3.326951   1.000000
    3        3.553084   1.000000
    4        5.496681   1.000000
    5        6.161421   1.000000
    6        6.237800   1.000000
    7        6.540523   1.000000
    8        8.776213  -0.000001
    9        8.872521  -0.000000
   10        8.921217  -0.000000
   11        9.056976  -0.000000
   12       16.455564   0.000000
   13       16.735499   0.000000
   14       20.515649   0.000000
   15       26.019059   0.000000
   16       27.850133   0.000000
   17       28.370711   0.000000
   18       32.973917   0.000000
   19       35.614361   0.000000
   20       38.880639   0.000000
   21       39.408244   0.000000
   22       41.484077   0.000000
   23       42.310432   0.000000
   24       45.167724   0.000000
   25       52.943495   0.000000
   26       54.007888   0.000000
   27       54.349183   0.000000
   28       57.559647   0.000000
   29       57.907763   0.000000
   30       58.306195   0.000000
   31       60.488955   0.000000
   32       61.362637   0.000000
   33       62.049511   0.000000
   34       62.214095   0.000000
   35       63.779533   0.000000
   36       65.414986   0.000000
   37       68.853542   0.000000
   38       69.150801   0.000000
   39       69.205594   0.000000
   40       69.599239   0.000000
 
  0.4545455E+00  0.2167349E-16  0.0000000E+00  0.4507889E-02
    1        2.854140   1.000000
    2        3.123503   1.000000
    3        3.228140   1.000000
    4        5.915441   1.000000
    5        6.098057   1.000000
    6        6.380937   1.000000
    7        6.506291   1.000000
    8        9.056199  -0.000000
    9        9.316359  -0.000000
   10        9.455153  -0.000000
   11       10.706580  -0.000000
   12       14.410576   0.000000
   13       18.942864   0.000000
   14       20.547816   0.000000
   15       23.335572   0.000000
   16       25.686645   0.000000
   17       26.737620   0.000000
   18       32.308616   0.000000
   19       35.233470   0.000000
   20       37.677398   0.000000
   21       39.237247   0.000000
   22       42.377431   0.000000
   23       44.536431   0.000000
   24       45.182311   0.000000
   25       49.583606   0.000000
   26       54.872185   0.000000
   27       55.839953   0.000000
   28       59.540455   0.000000
   29       59.857359   0.000000
   30       60.632159   0.000000
   31       62.145977   0.000000
   32       62.352348   0.000000
   33       62.573110   0.000000
   34       64.871365   0.000000
   35       65.206143   0.000000
   36       67.135618   0.000000
   37       67.967304   0.000000
   38       67.981778   0.000000
   39       69.868931   0.000000
   40       70.331101   0.000000
 
  0.9090909E-01  0.9090909E-01  0.0000000E+00  0.4507889E-02
    1       -0.386254   1.000000
    2        3.214996   1.000000
    3        5.361590   1.000000
    4        5.488143   1.000000
    5        6.230141   1.000000
    6        6.300501   1.000000
    7        6.880989   1.000000
    8        7.007065   1.000000
    9        7.229375   1.000000
   10        7.454505   1.000214
   11        8.950342  -0.000000
   12       11.600702  -0.000000
   13       16.502791   0.000000
   14       29.128928   0.000000
   15       30.661386   0.000000
   16       33.666511   0.000000
   17       34.637386   0.000000
   18       36.277307   0.000000
   19       36.575010   0.000000
   20       38.621748   0.000000
   21       39.938863   0.000000
   22       44.154395   0.000000
   23       44.252314   0.000000
   24       45.307546   0.000000
   25       45.954822   0.000000
   26       46.335393   0.000000
   27       46.539465   0.000000
   28       52.472540   0.000000
   29       54.880264   0.000000
   30       55.528403   0.000000
   31       55.540935   0.000000
   32       59.087329   0.000000
   33       60.230482   0.000000
   34       61.968503   0.000000
   35       62.600375   0.000000
   36       62.786638   0.000000
   37       64.185109   0.000000
   38       68.886041   0.000000
   39       69.298417   0.000000
   40       70.863285   0.000000
 
  0.1818182E+00  0.9090909E-01  0.0000000E+00  0.9015778E-02
    1        0.834695   1.000000
    2        3.785672   1.000000
    3        4.552307   1.000000
    4        5.002021   1.000000
    5        5.917817   1.000000
    6        6.524801   1.000000
    7        6.793187   1.000000
    8        7.171828   1.000000
    9        7.674508   1.016542
   10        8.038032   0.440547
   11        8.957335  -0.000000
   12       13.601877   0.000000
   13       16.680995   0.000000
   14       25.450102   0.000000
   15       28.164217   0.000000
   16       31.138397   0.000000
   17       33.420111   0.000000
   18       34.035451   0.000000
   19       37.341483   0.000000
   20       37.923437   0.000000
   21       38.882577   0.000000
   22       43.590197   0.000000
   23       43.701842   0.000000
   24       44.900613   0.000000
   25       47.939955   0.000000
   26       48.764426   0.000000
   27       50.772230   0.000000
   28       55.340666   0.000000
   29       57.188981   0.000000
   30       57.696240   0.000000
   31       58.102623   0.000000
   32       60.110342   0.000000
   33       60.459216   0.000000
   34       61.456801   0.000000
   35       62.089723   0.000000
   36       62.533447   0.000000
   37       64.779500   0.000000
   38       68.946561   0.000000
   39       69.398006   0.000000
   40       70.660859   0.000000
 
  0.2727273E+00  0.9090909E-01  0.0000000E+00  0.9015778E-02
    1        2.217770   1.000000
    2        3.688283   1.000000
    3        3.839102   1.000000
    4        5.104545   1.000000
    5        6.001269   1.000000
    6        6.144502   1.000000
    7        6.757383   1.000000
    8        7.650804   1.012037
    9        8.549540  -0.000641
   10        8.955952  -0.000000
   11        9.094996  -0.000000
   12       15.864869   0.000000
   13       16.949750   0.000000
   14       21.721952   0.000000
   15       26.365700   0.000000
   16       27.756478   0.000000
   17       30.772075   0.000000
   18       32.228197   0.000000
   19       36.719175   0.000000
   20       37.899999   0.000000
   21       39.309992   0.000000
   22       43.190265   0.000000
   23       43.239649   0.000000
   24       46.072415   0.000000
   25       50.053205   0.000000
   26       52.673404   0.000000
   27       54.326249   0.000000
   28       55.019080   0.000000
   29       56.219081   0.000000
   30       58.897734   0.000000
   31       59.751124   0.000000
   32       61.484829   0.000000
   33       62.061317   0.000000
   34       62.400518   0.000000
   35       63.353483   0.000000
   36       64.919776   0.000000
   37       67.772377   0.000000
   38       68.467496   0.000000
   39       68.920040   0.000000
   40       70.843437   0.000000
 
  0.3636364E+00  0.9090909E-01  0.0000000E+00  0.9015778E-02
    1        3.000950   1.000000
    2        3.365963   1.000000
    3        3.404350   1.000000
    4        5.590420   1.000000
    5        5.930165   1.000000
    6        6.387784   1.000000
    7        6.400688   1.000000
    8        8.664818  -0.000028
    9        8.944633  -0.000000
   10        9.162670  -0.000000
   11       10.432598  -0.000000
   12       15.908712   0.000000
   13       18.223392   0.000000
   14       20.332291   0.000000
   15       24.722213   0.000000
   16       24.953341   0.000000
   17       27.512868   0.000000
   18       31.283128   0.000000
   19       35.733675   0.000000
   20       37.352192   0.000000
   21       40.382602   0.000000
   22       43.536217   0.000000
   23       44.479967   0.000000
   24       45.747954   0.000000
   25       51.542101   0.000000
   26       52.837120   0.000000
   27       54.915750   0.000000
   28       56.530553   0.000000
   29       58.327634   0.000000
   30       59.987569   0.000000
   31       60.693098   0.000000
   32       62.057422   0.000000
   33       62.622463   0.000000
   34       64.956101   0.000000
   35       66.119111   0.000000
   36       66.658742   0.000000
   37       66.836394   0.000000
   38       69.276703   0.000000
   39       70.035411   0.000000
   40       70.784258   0.000000
 
  0.4545455E+00  0.9090909E-01  0.0000000E+00  0.4507889E-02
    1        3.060163   1.000000
    2        3.259027   1.000000
    3        3.316475   1.000000
    4        5.873935   1.000000
    5        6.003157   1.000000
    6        6.229674   1.000000
    7        6.531579   1.000000
    8        8.939047  -0.000000
    9        9.238142  -0.000000
   10        9.261662  -0.000000
   11       11.740964  -0.000000
   12       14.107800   0.000000
   13       19.813049   0.000000
   14       20.993279   0.000000
   15       22.904375   0.000000
   16       24.138694   0.000000
   17       25.986752   0.000000
   18       30.947460   0.000000
   19       35.316069   0.000000
   20       37.194267   0.000000
   21       40.577013   0.000000
   22       44.476047   0.000000
   23       44.579330   0.000000
   24       46.187953   0.000000
   25       49.310358   0.000000
   26       54.510495   0.000000
   27       55.009072   0.000000
   28       57.497201   0.000000
   29       59.754403   0.000000
   30       59.801493   0.000000
   31       62.677803   0.000000
   32       62.713000   0.000000
   33       62.892505   0.000000
   34       63.547369   0.000000
   35       66.328761   0.000000
   36       68.603670   0.000000
   37       68.675295   0.000000
   38       68.934938   0.000000
   39       68.947575   0.000000
   40       72.001478   0.000000
 
  0.1818182E+00  0.1818182E+00  0.0000000E+00  0.4507889E-02
    1        2.143882   1.000000
    2        4.007137   1.000000
    3        4.252738   1.000000
    4        4.498706   1.000000
    5        5.994052   1.000000
    6        6.029485   1.000000
    7        6.926667   1.000000
    8        7.069999   1.000000
    9        8.524677  -0.001139
   10        8.847705  -0.000000
   11        9.167451  -0.000000
   12       15.588732   0.000000
   13       17.136028   0.000000
   14       23.369085   0.000000
   15       24.296900   0.000000
   16       29.181871   0.000000
   17       30.905420   0.000000
   18       33.184891   0.000000
   19       33.962066   0.000000
   20       38.908143   0.000000
   21       40.441857   0.000000
   22       44.738659   0.000000
   23       44.837505   0.000000
   24       47.056728   0.000000
   25       47.830471   0.000000
   26       49.981596   0.000000
   27       51.384204   0.000000
   28       56.469695   0.000000
   29       57.140754   0.000000
   30       58.506904   0.000000
   31       58.629276   0.000000
   32       61.684307   0.000000
   33       61.764090   0.000000
   34       63.796691   0.000000
   35       64.386026   0.000000
   36       64.842266   0.000000
   37       65.142765   0.000000
   38       68.347710   0.000000
   39       68.814092   0.000000
   40       71.870149   0.000000
 
  0.2727273E+00  0.1818182E+00  0.0000000E+00  0.9015778E-02
    1        3.350343   1.000000
    2        3.639512   1.000000
    3        3.934682   1.000000
    4        4.751481   1.000000
    5        5.756144   1.000000
    6        6.304032   1.000000
    7        6.485993   1.000000
    8        7.700624   1.022300
    9        8.751622  -0.000002
   10        9.098976  -0.000000
   11       10.580922  -0.000000
   12       17.540769   0.000000
   13       17.879149   0.000000
   14       20.514153   0.000000
   15       22.579605   0.000000
   16       26.604403   0.000000
   17       29.185812   0.000000
   18       29.671207   0.000000
   19       32.615452   0.000000
   20       40.959487   0.000000
   21       41.051810   0.000000
   22       44.662574   0.000000
   23       46.700770   0.000000
   24       47.967123   0.000000
   25       49.272542   0.000000
   26       51.089480   0.000000
   27       52.619166   0.000000
   28       54.297414   0.000000
   29       57.410894   0.000000
   30       58.443027   0.000000
   31       60.291462   0.000000
   32       61.902969   0.000000
   33       62.979267   0.000000
   34       64.504677   0.000000
   35       66.289135   0.000000
   36       66.655526   0.000000
   37       68.151590   0.000000
   38       69.106232   0.000000
   39       70.398457   0.000000
   40       71.826083   0.000000
 
  0.3636364E+00  0.1818182E+00  0.0000000E+00  0.9015778E-02
    1        3.462367   1.000000
    2        3.613695   1.000000
    3        3.797680   1.000000
    4        5.322073   1.000000
    5        5.760735   1.000000
    6        6.048224   1.000000
    7        6.600836   1.000000
    8        8.483066  -0.002747
    9        8.697760  -0.000010
   10        9.126815  -0.000000
   11       12.299675  -0.000000
   12       15.579904   0.000000
   13       20.205856   0.000000
   14       20.813406   0.000000
   15       21.771998   0.000000
   16       23.942978   0.000000
   17       26.686959   0.000000
   18       28.504604   0.000000
   19       31.946377   0.000000
   20       40.892800   0.000000
   21       42.897733   0.000000
   22       45.023865   0.000000
   23       46.607945   0.000000
   24       47.531085   0.000000
   25       51.568676   0.000000
   26       51.687054   0.000000
   27       53.615900   0.000000
   28       54.127494   0.000000
   29       58.060665   0.000000
   30       59.023336   0.000000
   31       59.628833   0.000000
   32       62.325378   0.000000
   33       62.955290   0.000000
   34       63.035420   0.000000
   35       67.374596   0.000000
   36       68.076645   0.000000
   37       69.788377   0.000000
   38       69.899124   0.000000
   39       70.746336   0.000000
   40       71.213575   0.000000
 
  0.2727273E+00  0.2727273E+00  0.0000000E+00  0.4507889E-02
    1        3.603226   1.000000
    2        4.075629   1.000000
    3        4.429775   1.000000
    4        4.449619   1.000000
    5        5.585641   1.000000
    6        6.059079   1.000000
    7        6.649677   1.000000
    8        7.997655   0.610176
    9        8.572834  -0.000363
   10        9.092445  -0.000000
   11       12.448138  -0.000000
   12       17.778655   0.000000
   13       18.324509   0.000000
   14       20.245365   0.000000
   15       21.686396   0.000000
   16       25.849178   0.000000
   17       26.185710   0.000000
   18       28.421806   0.000000
   19       29.336689   0.000000
   20       42.683689   0.000000
   21       43.685792   0.000000
   22       47.233459   0.000000
   23       48.256828   0.000000
   24       49.030117   0.000000
   25       49.256409   0.000000
   26       49.581322   0.000000
   27       52.419924   0.000000
   28       54.969613   0.000000
   29       55.272692   0.000000
   30       58.489310   0.000000
   31       59.327928   0.000000
   32       61.998814   0.000000
   33       62.936921   0.000000
   34       63.103514   0.000000
   35       67.277486   0.000000
   36       68.330293   0.000000
   37       68.392953   0.000000
   38       70.000412   0.000000
   39       71.118976   0.000000
   40       72.163079   0.000000
 
  0.3636364E+00  0.2727273E+00  0.0000000E+00  0.4507889E-02
    1        3.618932   1.000000
    2        4.201505   1.000000
    3        4.287530   1.000000
    4        4.832578   1.000000
    5        5.662392   1.000000
    6        5.734500   1.000000
    7        6.815162   1.000000
    8        8.413131  -0.009483
    9        8.505023  -0.001749
   10        8.753119  -0.000002
   11       14.272631   0.000000
   12       15.735965   0.000000
   13       17.942194   0.000000
   14       22.308669   0.000000
   15       22.657747   0.000000
   16       23.774140   0.000000
   17       25.756662   0.000000
   18       26.747614   0.000000
   19       28.708022   0.000000
   20       43.083439   0.000000
   21       45.974126   0.000000
   22       47.412073   0.000000
   23       47.476930   0.000000
   24       48.523476   0.000000
   25       50.080993   0.000000
   26       50.793572   0.000000
   27       54.063504   0.000000
   28       54.098552   0.000000
   29       54.510837   0.000000
   30       57.960508   0.000000
   31       59.226024   0.000000
   32       59.869785   0.000000
   33       62.775286   0.000000
   34       62.917655   0.000000
   35       67.333508   0.000000
   36       68.511024   0.000000
   37       70.412201   0.000000
   38       70.879612   0.000000
   39       70.896763   0.000000
   40       71.026550   0.000000
 
  0.0000000E+00  0.0000000E+00  0.9090909E-01  0.1502630E-02
    1       -1.330295   1.000000
    2        2.468638   1.000000
    3        5.567727   1.000000
    4        6.208325   1.000000
    5        6.208390   1.000000
    6        6.572705   1.000000
    7        6.572782   1.000000
    8        7.145639   1.000000
    9        7.658660   1.013437
   10        7.658679   1.013440
   11        8.876446  -0.000000
   12        8.876466  -0.000000
   13       16.820849   0.000000
   14       31.723557   0.000000
   15       32.772136   0.000000
   16       35.248980   0.000000
   17       38.373002   0.000000
   18       38.373063   0.000000
   19       39.066699   0.000000
   20       39.066871   0.000000
   21       40.902359   0.000000
   22       41.645995   0.000000
   23       41.646013   0.000000
   24       43.084859   0.000000
   25       45.527070   0.000000
   26       45.527088   0.000000
   27       47.416801   0.000000
   28       50.390986   0.000000
   29       50.391385   0.000000
   30       52.482468   0.000000
   31       52.482632   0.000000
   32       54.848433   0.000000
   33       61.850515   0.000000
   34       63.845649   0.000000
   35       63.846525   0.000000
   36       63.961708   0.000000
   37       65.966937   0.000000
   38       65.967617   0.000000
   39       66.472035   0.000000
   40       68.916600   0.000000
 
  0.9090909E-01  0.4943378E-17  0.9090909E-01  0.9015778E-02
    1       -0.978510   1.000000
    2        2.737623   1.000000
    3        5.565504   1.000000
    4        6.137517   1.000000
    5        6.182806   1.000000
    6        6.421928   1.000000
    7        6.543023   1.000000
    8        6.772398   1.000000
    9        7.510178   1.000847
   10        7.538211   1.001583
   11        8.915187  -0.000000
   12        9.984298  -0.000000
   13       16.876154   0.000000
   14       31.008352   0.000000
   15       32.696564   0.000000
   16       33.893935   0.000000
   17       35.470601   0.000000
   18       36.809606   0.000000
   19       38.285437   0.000000
   20       40.511349   0.000000
   21       40.919905   0.000000
   22       42.246697   0.000000
   23       42.664674   0.000000
   24       43.201033   0.000000
   25       46.658249   0.000000
   26       47.016411   0.000000
   27       48.185112   0.000000
   28       48.354708   0.000000
   29       51.180419   0.000000
   30       53.887469   0.000000
   31       54.842778   0.000000
   32       56.654472   0.000000
   33       60.441342   0.000000
   34       62.817826   0.000000
   35       63.642665   0.000000
   36       63.711300   0.000000
   37       65.148709   0.000000
   38       66.830910   0.000000
   39       68.084006   0.000000
   40       68.922220   0.000000
 
  0.1818182E+00  0.1049322E-16  0.9090909E-01  0.9015778E-02
    1        0.007025   1.000000
    2        3.365156   1.000000
    3        5.067555   1.000000
    4        5.336126   1.000000
    5        5.959263   1.000000
    6        6.549651   1.000000
    7        6.966432   1.000000
    8        7.211585   1.000000
    9        7.240391   1.000000
   10        7.383512   1.000029
   11        8.978514  -0.000000
   12       11.786890  -0.000000
   13       17.079217   0.000000
   14       27.492892   0.000000
   15       32.037383   0.000000
   16       32.492136   0.000000
   17       33.426800   0.000000
   18       33.629795   0.000000
   19       38.170872   0.000000
   20       39.555536   0.000000
   21       39.943340   0.000000
   22       40.962840   0.000000
   23       43.722067   0.000000
   24       45.268085   0.000000
   25       47.535317   0.000000
   26       48.094029   0.000000
   27       49.455746   0.000000
   28       52.109362   0.000000
   29       54.256224   0.000000
   30       56.745264   0.000000
   31       57.556706   0.000000
   32       58.660920   0.000000
   33       59.580181   0.000000
   34       61.121950   0.000000
   35       62.224409   0.000000
   36       63.073876   0.000000
   37       65.096025   0.000000
   38       67.815407   0.000000
   39       68.967795   0.000000
   40       70.246233   0.000000
 
  0.2727273E+00 -0.2832493E-16  0.9090909E-01  0.9015778E-02
    1        1.365499   1.000000
    2        3.637790   1.000000
    3        4.172129   1.000000
    4        5.263018   1.000000
    5        5.764507   1.000000
    6        6.616430   1.000000
    7        6.851522   1.000000
    8        7.538846   1.001605
    9        7.917971   0.886055
   10        8.112343   0.163401
   11        9.017902  -0.000000
   12       13.664623   0.000000
   13       17.553989   0.000000
   14       23.456306   0.000000
   15       28.916607   0.000000
   16       29.942943   0.000000
   17       31.416136   0.000000
   18       33.733595   0.000000
   19       36.672275   0.000000
   20       38.820178   0.000000
   21       39.115038   0.000000
   22       41.520088   0.000000
   23       41.993948   0.000000
   24       45.705083   0.000000
   25       50.885180   0.000000
   26       52.194759   0.000000
   27       52.897545   0.000000
   28       53.341014   0.000000
   29       57.024480   0.000000
   30       57.517714   0.000000
   31       58.992064   0.000000
   32       60.515418   0.000000
   33       60.654422   0.000000
   34       60.845818   0.000000
   35       62.892911   0.000000
   36       64.215364   0.000000
   37       65.632403   0.000000
   38       68.472675   0.000000
   39       68.682377   0.000000
   40       70.200399   0.000000
 
  0.3636364E+00  0.2037997E-16  0.9090909E-01  0.9015778E-02
    1        2.465403   1.000000
    2        3.289061   1.000000
    3        3.667743   1.000000
    4        5.250780   1.000000
    5        6.242826   1.000000
    6        6.468470   1.000000
    7        6.580917   1.000000
    8        8.780050  -0.000001
    9        8.830439  -0.000000
   10        8.844183  -0.000000
   11        9.075360  -0.000000
   12       15.129959   0.000000
   13       18.053371   0.000000
   14       20.647586   0.000000
   15       25.628704   0.000000
   16       27.982559   0.000000
   17       28.785714   0.000000
   18       32.952955   0.000000
   19       35.590160   0.000000
   20       37.585513   0.000000
   21       40.132579   0.000000
   22       40.753723   0.000000
   23       42.915144   0.000000
   24       46.163689   0.000000
   25       51.434951   0.000000
   26       54.214979   0.000000
   27       55.365072   0.000000
   28       56.552254   0.000000
   29       57.631468   0.000000
   30       59.288384   0.000000
   31       60.457414   0.000000
   32       61.258053   0.000000
   33       62.015396   0.000000
   34       62.590898   0.000000
   35       63.793259   0.000000
   36       65.376911   0.000000
   37       67.933977   0.000000
   38       68.643214   0.000000
   39       69.628119   0.000000
   40       70.084438   0.000000
 
  0.4545455E+00  0.2167349E-16  0.9090909E-01  0.9015778E-02
    1        2.785892   1.000000
    2        2.952031   1.000000
    3        3.536910   1.000000
    4        5.334099   1.000000
    5        6.427397   1.000000
    6        6.470513   1.000000
    7        6.808359   1.000000
    8        8.983327  -0.000000
    9        9.324442  -0.000000
   10        9.457123  -0.000000
   11       10.605436  -0.000000
   12       14.209078   0.000000
   13       18.811071   0.000000
   14       20.581509   0.000000
   15       23.467939   0.000000
   16       26.068666   0.000000
   17       26.879650   0.000000
   18       32.325004   0.000000
   19       35.217221   0.000000
   20       36.711884   0.000000
   21       40.286879   0.000000