 vasp.6.2.0 18Jan21 (build Mar 17 2021 09:06:54) complex                        
  
 executed on             LinuxIFC date 2021.09.09  12:02:39
 serial version


--------------------------------------------------------------------------------------------------------


 INCAR:
   ENCUT = 280.000000
   SIGMA = 0.200000
   EDIFF = 1.00e-06
   GGA = PE
   PREC = normal
   IBRION = 1
   ICHARG = 1
   ISIF = 2
   ISMEAR = 1
   KPAR = 1
   NBANDS = 40
   NSW = 0
   NCORE = 1
   LCHARG = .TRUE.

 POTCAR:    PAW_PBE Fe 06Sep2000                  
 POTCAR:    PAW_PBE Fe 06Sep2000                  
   SHA256 =  cd5a22d9368cc8b5cc476bea79732366149640da08ac9009b0e1b7fc627eea28 Fe/POTCAR             
   COPYR  = (c) Copyright 06Sep2000 Georg Kresse                                                    
   COPYR  = This file is part of the software VASP. Any use, copying, and all other rights are regul
   COPYR  = If you do not have a valid VASP license, you may not use, copy or distribute this file. 
   VRHFIN =Fe:  d7 s1                                                                               
   LEXCH  = PE                                                                                      
   EATOM  =   594.3153 eV,   43.6809 Ry                                                             
                                                                                                    
   TITEL  = PAW_PBE Fe 06Sep2000                                                                    
   LULTRA =        F    use ultrasoft PP ?                                                          
   IUNSCR =        1    unscreen: 0-lin 1-nonlin 2-no                                               
   RPACOR =    2.000    partial core radius                                                         
   POMASS =   55.847; ZVAL   =    8.000    mass and valenz                                          
   RCORE  =    2.300    outmost cutoff radius                                                       
   RWIGS  =    2.460; RWIGS  =    1.302    wigner-seitz radius (au A)                               
   ENMAX  =  267.882; ENMIN  =  200.911 eV                                                          
   RCLOC  =    1.701    cutoff for local pot                                                        
   LCOR   =        T    correct aug charges                                                         
   LPAW   =        T    paw PP                                                                      
   EAUG   =  511.368                                                                                
   DEXC   =    0.000                                                                                
   RMAX   =    2.356    core radius for proj-oper                                                   
   RAUG   =    1.300    factor for augmentation sphere                                              
   RDEP   =    2.442    radius for radial grids                                                     
   RDEPT  =    1.890    core radius for aug-charge                                                  
                                                                                                    
   Atomic configuration                                                                             
    9 entries                                                                                       
     n  l   j            E        occ.                                                              
     1  0  0.50     -6993.8440   2.0000                                                             
     2  0  0.50      -814.6047   2.0000                                                             
     2  1  1.50      -693.3689   6.0000                                                             
     3  0  0.50       -89.4732   2.0000                                                             
     3  1  1.50       -55.6373   6.0000                                                             
     3  2  2.50        -3.8151   7.0000                                                             
     4  0  0.50        -4.2551   1.0000                                                             
     4  1  1.50        -3.4015   0.0000                                                             
     4  3  2.50        -1.3606   0.0000                                                             
   Description                                                                                      
     l       E           TYP  RCUT    TYP  RCUT                                                     
     2     -3.8151135     23  2.300                                                                 
     2     -5.1756961     23  2.300                                                                 
     0     -4.2550963     23  2.300                                                                 
     0      7.2035603     23  2.300                                                                 
     1     -2.7211652     23  2.300                                                                 
     1     18.4316424     23  2.300                                                                 
  local pseudopotential read in
  partial core-charges read in
  partial kinetic energy density read in
  atomic valenz-charges read in
  non local Contribution for L=           2  read in
    real space projection operators read in
  non local Contribution for L=           2  read in
    real space projection operators read in
  non local Contribution for L=           0  read in
    real space projection operators read in
  non local Contribution for L=           0  read in
    real space projection operators read in
  non local Contribution for L=           1  read in
    real space projection operators read in
  non local Contribution for L=           1  read in
    real space projection operators read in
    PAW grid and wavefunctions read in
 
   number of l-projection  operators is LMAX  =           6
   number of lm-projection operators is LMMAX =          18
 
  PAW_PBE Fe 06Sep2000                  :
 energy of atom  1       EATOM= -594.3153
 kinetic energy error for atom=    0.0278 (will be added to EATOM!!)
 
 
 POSCAR: Fe
  positions in cartesian coordinates
  No initial velocities read in
 exchange correlation table for  LEXCH =        8
   RHO(1)=    0.500       N(1)  =     2000
   RHO(2)=  100.500       N(2)  =     4000
 


--------------------------------------------------------------------------------------------------------


 ion  position               nearest neighbor table
   1  0.000  0.000  0.000-   2 2.41   2 2.41   2 2.41   2 2.41   2 2.41   2 2.41
   2  0.333  0.667  0.500-   1 2.41   1 2.41   1 2.41   1 2.41   1 2.41   1 2.41
 
  LATTYP: Found a hexagonal cell.
 ALAT       =     2.3067000000
 C/A-ratio  =     1.7420600858
  
  Lattice vectors:
  
 A1 = (   2.3067000000,   0.0000000000,   0.0000000000)
 A2 = (  -1.1533500000,   1.9976607989,   0.0000000000)
 A3 = (   0.0000000000,   0.0000000000,   4.0184100000)


Analysis of symmetry for initial positions (statically):
=====================================================================
 Subroutine PRICEL returns:
 Original cell was already a primitive cell.
 

 Routine SETGRP: Setting up the symmetry group for a 
 hexagonal supercell.


 Subroutine GETGRP returns: Found 24 space group operations
 (whereof 12 operations were pure point group operations)
 out of a pool of 24 trial point group operations.


The static configuration has the point symmetry D_3h.
 The point group associated with its full space group is D_6h.


Analysis of symmetry for dynamics (positions and initial velocities):
=====================================================================
 Subroutine PRICEL returns:
 Original cell was already a primitive cell.
 

 Routine SETGRP: Setting up the symmetry group for a 
 hexagonal supercell.


 Subroutine GETGRP returns: Found 24 space group operations
 (whereof 12 operations were pure point group operations)
 out of a pool of 24 trial point group operations.


The dynamic configuration has the point symmetry D_3h.
 The point group associated with its full space group is D_6h.


 Subroutine INISYM returns: Found 24 space group operations
 (whereof 12 operations are pure point group operations),
 and found     1 'primitive' translations


----------------------------------------------------------------------------------------

                                     Primitive cell                                     

  volume of cell :      18.5169

  direct lattice vectors                    reciprocal lattice vectors
     2.306700000  0.000000000  0.000000000     0.433519747  0.250292743  0.000000000
    -1.153350000  1.997660799  0.000000000     0.000000000  0.500585485  0.000000000
     0.000000000  0.000000000  4.018410000     0.000000000  0.000000000  0.248854646

  length of vectors
     2.306700000  2.306700000  4.018410000     0.500585485  0.500585485  0.248854646

  position of ions in fractional coordinates (direct lattice)
     0.000000000  0.000000000  0.000000000
     0.333333333  0.666666667  0.500000000

  ion indices of the primitive-cell ions
   primitive index   ion index
                 1           1
                 2           2

----------------------------------------------------------------------------------------

 
 
 KPOINTS: KPOINTS created by Atomic Simulation Env

Automatic generation of k-mesh.
 Grid dimensions read from file:
 generate k-points for:   11   11   11

 Generating k-lattice:

  Cartesian coordinates                     Fractional coordinates (reciprocal lattice)
     0.039410886  0.022753886  0.000000000     0.090909091 -0.000000000  0.000000000
     0.000000000  0.045507771  0.000000000     0.000000000  0.090909091  0.000000000
     0.000000000  0.000000000  0.022623150     0.000000000  0.000000000  0.090909091

  Length of vectors
     0.045507771  0.045507771  0.022623150

  Shift w.r.t. Gamma in fractional coordinates (k-lattice)
     0.000000000  0.000000000  0.000000000

 
 Subroutine IBZKPT returns following result:
 ===========================================
 
 Found     96 irreducible k-points:
 
 Following reciprocal coordinates:
            Coordinates               Weight
  0.000000  0.000000  0.000000      1.000000
  0.090909  0.000000  0.000000      6.000000
  0.181818  0.000000  0.000000      6.000000
  0.272727 -0.000000  0.000000      6.000000
  0.363636  0.000000  0.000000      6.000000
  0.454545  0.000000  0.000000      6.000000
  0.090909  0.090909  0.000000      6.000000
  0.181818  0.090909  0.000000     12.000000
  0.272727  0.090909  0.000000     12.000000
  0.363636  0.090909  0.000000     12.000000
  0.454545  0.090909  0.000000      6.000000
  0.181818  0.181818  0.000000      6.000000
  0.272727  0.181818  0.000000     12.000000
  0.363636  0.181818  0.000000     12.000000
  0.272727  0.272727  0.000000      6.000000
  0.363636  0.272727  0.000000      6.000000
  0.000000  0.000000  0.090909      2.000000
  0.090909  0.000000  0.090909     12.000000
  0.181818  0.000000  0.090909     12.000000
  0.272727 -0.000000  0.090909     12.000000
  0.363636  0.000000  0.090909     12.000000
  0.454545  0.000000  0.090909     12.000000
  0.090909  0.090909  0.090909     12.000000
  0.181818  0.090909  0.090909     24.000000
  0.272727  0.090909  0.090909     24.000000
  0.363636  0.090909  0.090909     24.000000
  0.454545  0.090909  0.090909     12.000000
  0.181818  0.181818  0.090909     12.000000
  0.272727  0.181818  0.090909     24.000000
  0.363636  0.181818  0.090909     24.000000
  0.272727  0.272727  0.090909     12.000000
  0.363636  0.272727  0.090909     12.000000
  0.000000  0.000000  0.181818      2.000000
  0.090909  0.000000  0.181818     12.000000
  0.181818  0.000000  0.181818     12.000000
  0.272727 -0.000000  0.181818     12.000000
  0.363636  0.000000  0.181818     12.000000
  0.454545  0.000000  0.181818     12.000000
  0.090909  0.090909  0.181818     12.000000
  0.181818  0.090909  0.181818     24.000000
  0.272727  0.090909  0.181818     24.000000
  0.363636  0.090909  0.181818     24.000000
  0.454545  0.090909  0.181818     12.000000
  0.181818  0.181818  0.181818     12.000000
  0.272727  0.181818  0.181818     24.000000
  0.363636  0.181818  0.181818     24.000000
  0.272727  0.272727  0.181818     12.000000
  0.363636  0.272727  0.181818     12.000000
  0.000000  0.000000  0.272727      2.000000
  0.090909  0.000000  0.272727     12.000000
  0.181818  0.000000  0.272727     12.000000
  0.272727 -0.000000  0.272727     12.000000
  0.363636  0.000000  0.272727     12.000000
  0.454545  0.000000  0.272727     12.000000
  0.090909  0.090909  0.272727     12.000000
  0.181818  0.090909  0.272727     24.000000
  0.272727  0.090909  0.272727     24.000000
  0.363636  0.090909  0.272727     24.000000
  0.454545  0.090909  0.272727     12.000000
  0.181818  0.181818  0.272727     12.000000
  0.272727  0.181818  0.272727     24.000000
  0.363636  0.181818  0.272727     24.000000
  0.272727  0.272727  0.272727     12.000000
  0.363636  0.272727  0.272727     12.000000
  0.000000  0.000000  0.363636      2.000000
  0.090909  0.000000  0.363636     12.000000
  0.181818  0.000000  0.363636     12.000000
  0.272727 -0.000000  0.363636     12.000000
  0.363636  0.000000  0.363636     12.000000
  0.454545  0.000000  0.363636     12.000000
  0.090909  0.090909  0.363636     12.000000
  0.181818  0.090909  0.363636     24.000000
  0.272727  0.090909  0.363636     24.000000
  0.363636  0.090909  0.363636     24.000000
  0.454545  0.090909  0.363636     12.000000
  0.181818  0.181818  0.363636     12.000000
  0.272727  0.181818  0.363636     24.000000
  0.363636  0.181818  0.363636     24.000000
  0.272727  0.272727  0.363636     12.000000
  0.363636  0.272727  0.363636     12.000000
  0.000000  0.000000  0.454545      2.000000
  0.090909  0.000000  0.454545     12.000000
  0.181818  0.000000  0.454545     12.000000
  0.272727 -0.000000  0.454545     12.000000
  0.363636  0.000000  0.454545     12.000000
  0.454545  0.000000  0.454545     12.000000
  0.090909  0.090909  0.454545     12.000000
  0.181818  0.090909  0.454545     24.000000
  0.272727  0.090909  0.454545     24.000000
  0.363636  0.090909  0.454545     24.000000
  0.454545  0.090909  0.454545     12.000000
  0.181818  0.181818  0.454545     12.000000
  0.272727  0.181818  0.454545     24.000000
  0.363636  0.181818  0.454545     24.000000
  0.272727  0.272727  0.454545     12.000000
  0.363636  0.272727  0.454545     12.000000
 
 Following cartesian coordinates:
            Coordinates               Weight
  0.000000  0.000000  0.000000      1.000000
  0.039411  0.022754  0.000000      6.000000
  0.078822  0.045508  0.000000      6.000000
  0.118233  0.068262  0.000000      6.000000
  0.157644  0.091016  0.000000      6.000000
  0.197054  0.113769  0.000000      6.000000
  0.039411  0.068262  0.000000      6.000000
  0.078822  0.091016  0.000000     12.000000
  0.118233  0.113769  0.000000     12.000000
  0.157644  0.136523  0.000000     12.000000
  0.197054  0.159277  0.000000      6.000000
  0.078822  0.136523  0.000000      6.000000
  0.118233  0.159277  0.000000     12.000000
  0.157644  0.182031  0.000000     12.000000
  0.118233  0.204785  0.000000      6.000000
  0.157644  0.227539  0.000000      6.000000
  0.000000  0.000000  0.022623      2.000000
  0.039411  0.022754  0.022623     12.000000
  0.078822  0.045508  0.022623     12.000000
  0.118233  0.068262  0.022623     12.000000
  0.157644  0.091016  0.022623     12.000000
  0.197054  0.113769  0.022623     12.000000
  0.039411  0.068262  0.022623     12.000000
  0.078822  0.091016  0.022623     24.000000
  0.118233  0.113769  0.022623     24.000000
  0.157644  0.136523  0.022623     24.000000
  0.197054  0.159277  0.022623     12.000000
  0.078822  0.136523  0.022623     12.000000
  0.118233  0.159277  0.022623     24.000000
  0.157644  0.182031  0.022623     24.000000
  0.118233  0.204785  0.022623     12.000000
  0.157644  0.227539  0.022623     12.000000
  0.000000  0.000000  0.045246      2.000000
  0.039411  0.022754  0.045246     12.000000
  0.078822  0.045508  0.045246     12.000000
  0.118233  0.068262  0.045246     12.000000
  0.157644  0.091016  0.045246     12.000000
  0.197054  0.113769  0.045246     12.000000
  0.039411  0.068262  0.045246     12.000000
  0.078822  0.091016  0.045246     24.000000
  0.118233  0.113769  0.045246     24.000000
  0.157644  0.136523  0.045246     24.000000
  0.197054  0.159277  0.045246     12.000000
  0.078822  0.136523  0.045246     12.000000
  0.118233  0.159277  0.045246     24.000000
  0.157644  0.182031  0.045246     24.000000
  0.118233  0.204785  0.045246     12.000000
  0.157644  0.227539  0.045246     12.000000
  0.000000  0.000000  0.067869      2.000000
  0.039411  0.022754  0.067869     12.000000
  0.078822  0.045508  0.067869     12.000000
  0.118233  0.068262  0.067869     12.000000
  0.157644  0.091016  0.067869     12.000000
  0.197054  0.113769  0.067869     12.000000
  0.039411  0.068262  0.067869     12.000000
  0.078822  0.091016  0.067869     24.000000
  0.118233  0.113769  0.067869     24.000000
  0.157644  0.136523  0.067869     24.000000
  0.197054  0.159277  0.067869     12.000000
  0.078822  0.136523  0.067869     12.000000
  0.118233  0.159277  0.067869     24.000000
  0.157644  0.182031  0.067869     24.000000
  0.118233  0.204785  0.067869     12.000000
  0.157644  0.227539  0.067869     12.000000
  0.000000  0.000000  0.090493      2.000000
  0.039411  0.022754  0.090493     12.000000
  0.078822  0.045508  0.090493     12.000000
  0.118233  0.068262  0.090493     12.000000
  0.157644  0.091016  0.090493     12.000000
  0.197054  0.113769  0.090493     12.000000
  0.039411  0.068262  0.090493     12.000000
  0.078822  0.091016  0.090493     24.000000
  0.118233  0.113769  0.090493     24.000000
  0.157644  0.136523  0.090493     24.000000
  0.197054  0.159277  0.090493     12.000000
  0.078822  0.136523  0.090493     12.000000
  0.118233  0.159277  0.090493     24.000000
  0.157644  0.182031  0.090493     24.000000
  0.118233  0.204785  0.090493     12.000000
  0.157644  0.227539  0.090493     12.000000
  0.000000  0.000000  0.113116      2.000000
  0.039411  0.022754  0.113116     12.000000
  0.078822  0.045508  0.113116     12.000000
  0.118233  0.068262  0.113116     12.000000
  0.157644  0.091016  0.113116     12.000000
  0.197054  0.113769  0.113116     12.000000
  0.039411  0.068262  0.113116     12.000000
  0.078822  0.091016  0.113116     24.000000
  0.118233  0.113769  0.113116     24.000000
  0.157644  0.136523  0.113116     24.000000
  0.197054  0.159277  0.113116     12.000000
  0.078822  0.136523  0.113116     12.000000
  0.118233  0.159277  0.113116     24.000000
  0.157644  0.182031  0.113116     24.000000
  0.118233  0.204785  0.113116     12.000000
  0.157644  0.227539  0.113116     12.000000
 


--------------------------------------------------------------------------------------------------------




 Dimension of arrays:
   k-points           NKPTS =     96   k-points in BZ     NKDIM =     96   number of bands    NBANDS=     40
   number of dos      NEDOS =    301   number of ions     NIONS =      2
   non local maximal  LDIM  =      6   non local SUM 2l+1 LMDIM =     18
   total plane-waves  NPLWV =   1600
   max r-space proj   IRMAX =      1   max aug-charges    IRDMAX=   3277
   dimension x,y,z NGX =    10 NGY =   10 NGZ =   16
   dimension x,y,z NGXF=    20 NGYF=   20 NGZF=   32
   support grid    NGXF=    20 NGYF=   20 NGZF=   32
   ions per type =               2
   NGX,Y,Z   is equivalent  to a cutoff of   7.21,  7.21,  6.62 a.u.
   NGXF,Y,Z  is equivalent  to a cutoff of  14.41, 14.41, 13.24 a.u.

 SYSTEM =  unknown system                          
 POSCAR =  Fe                                      

 Startparameter for this run:
   NWRITE =      2    write-flag & timer
   PREC   = normal    normal or accurate (medium, high low for compatibility)
   ISTART =      0    job   : 0-new  1-cont  2-samecut
   ICHARG =      1    charge: 1-file 2-atom 10-const
   ISPIN  =      1    spin polarized calculation?
   LNONCOLLINEAR =      F non collinear calculations
   LSORBIT =      F    spin-orbit coupling
   INIWAV =      1    electr: 0-lowe 1-rand  2-diag
   LASPH  =      F    aspherical Exc in radial PAW
   METAGGA=      F    non-selfconsistent MetaGGA calc.

 Electronic Relaxation 1
   ENCUT  =  280.0 eV  20.58 Ry    4.54 a.u.   3.15  3.15  5.48*2*pi/ulx,y,z
   ENINI  =  280.0     initial cutoff
   ENAUG  =  511.4 eV  augmentation charge cutoff
   NELM   =     60;   NELMIN=  2; NELMDL= -5     # of ELM steps 
   EDIFF  = 0.1E-05   stopping-criterion for ELM
   LREAL  =      F    real-space projection
   NLSPLINE    = F    spline interpolate recip. space projectors
   LCOMPAT=      F    compatible to vasp.4.4
   GGA_COMPAT  = T    GGA compatible to vasp.4.4-vasp.4.6
   LMAXPAW     = -100 max onsite density
   LMAXMIX     =    2 max onsite mixed and CHGCAR
   VOSKOWN=      0    Vosko Wilk Nusair interpolation
   ROPT   =    0.00000
 Ionic relaxation
   EDIFFG = 0.1E-04   stopping-criterion for IOM
   NSW    =      0    number of steps for IOM
   NBLOCK =      1;   KBLOCK =      1    inner block; outer block 
   IBRION =     -1    ionic relax: 0-MD 1-quasi-New 2-CG
   NFREE  =      0    steps in history (QN), initial steepest desc. (CG)
   ISIF   =      2    stress and relaxation
   IWAVPR =      0    prediction:  0-non 1-charg 2-wave 3-comb
   ISYM   =      2    0-nonsym 1-usesym 2-fastsym
   LCORR  =      T    Harris-Foulkes like correction to forces

   POTIM  = 0.5000    time-step for ionic-motion
   TEIN   =    0.0    initial temperature
   TEBEG  =    0.0;   TEEND  =   0.0 temperature during run
   SMASS  =  -3.00    Nose mass-parameter (am)
   estimated Nose-frequenzy (Omega)   =  0.10E-29 period in steps = 0.13E+47 mass=  -0.122E-27a.u.
   SCALEE = 1.0000    scale energy and forces
   NPACO  =    256;   APACO  = 16.0  distance and # of slots for P.C.
   PSTRESS=    0.0 pullay stress

  Mass of Ions in am
   POMASS =  55.85
  Ionic Valenz
   ZVAL   =   8.00
  Atomic Wigner-Seitz radii
   RWIGS  =  -1.00
  virtual crystal weights 
   VCA    =   1.00
   NELECT =      16.0000    total number of electrons
   NUPDOWN=      -1.0000    fix difference up-down

 DOS related values:
   EMIN   =  10.00;   EMAX   =-10.00  energy-range for DOS
   EFERMI =   0.00
   ISMEAR =     1;   SIGMA  =   0.20  broadening in eV -4-tet -1-fermi 0-gaus

 Electronic relaxation 2 (details)
   IALGO  =     38    algorithm
   LDIAG  =      T    sub-space diagonalisation (order eigenvalues)
   LSUBROT=      F    optimize rotation matrix (better conditioning)
   TURBO    =      0    0=normal 1=particle mesh
   IRESTART =      0    0=no restart 2=restart with 2 vectors
   NREBOOT  =      0    no. of reboots
   NMIN     =      0    reboot dimension
   EREF     =   0.00    reference energy to select bands
   IMIX   =      4    mixing-type and parameters
     AMIX     =   0.40;   BMIX     =  1.00
     AMIX_MAG =   1.60;   BMIX_MAG =  1.00
     AMIN     =   0.10
     WC   =   100.;   INIMIX=   1;  MIXPRE=   1;  MAXMIX= -45

 Intra band minimization:
   WEIMIN = 0.0000     energy-eigenvalue tresh-hold
   EBREAK =  0.62E-08  absolut break condition
   DEPER  =   0.30     relativ break condition  

   TIME   =   0.40     timestep for ELM

  volume/ion in A,a.u.               =       9.26        62.48
  Fermi-wavevector in a.u.,A,eV,Ry     =   1.559286  2.946623 33.080837  2.431373
  Thomas-Fermi vector in A             =   2.662667
 
 Write flags
   LWAVE        =      T    write WAVECAR
   LDOWNSAMPLE  =      F    k-point downsampling of WAVECAR
   LCHARG       =      T    write CHGCAR
   LVTOT        =      F    write LOCPOT, total local potential
   LVHAR        =      F    write LOCPOT, Hartree potential only
   LELF         =      F    write electronic localiz. function (ELF)
   LORBIT       =      0    0 simple, 1 ext, 2 COOP (PROOUT), +10 PAW based schemes


 Dipole corrections
   LMONO  =      F    monopole corrections only (constant potential shift)
   LDIPOL =      F    correct potential (dipole corrections)
   IDIPOL =      0    1-x, 2-y, 3-z, 4-all directions 
   EPSILON=  1.0000000 bulk dielectric constant

 Exchange correlation treatment:
   GGA     =    PE    GGA type
   LEXCH   =     8    internal setting for exchange type
   VOSKOWN=      0    Vosko Wilk Nusair interpolation
   LHFCALC =     F    Hartree Fock is set to
   LHFONE  =     F    Hartree Fock one center treatment
   AEXX    =    0.0000 exact exchange contribution

 Linear response parameters
   LEPSILON=     F    determine dielectric tensor
   LRPA    =     F    only Hartree local field effects (RPA)
   LNABLA  =     F    use nabla operator in PAW spheres
   LVEL    =     F    velocity operator in full k-point grid
   LINTERFAST=   F  fast interpolation
   KINTER  =     0    interpolate to denser k-point grid
   CSHIFT  =0.1000    complex shift for real part using Kramers Kronig
   OMEGAMAX=  -1.0    maximum frequency
   DEG_THRESHOLD= 0.2000000E-02 threshold for treating states as degnerate
   RTIME   =   -0.100 relaxation time in fs
  (WPLASMAI=    0.000 imaginary part of plasma frequency in eV, 0.658/RTIME)
   DFIELD  = 0.0000000 0.0000000 0.0000000 field for delta impulse in time
 
 Orbital magnetization related:
   ORBITALMAG=     F  switch on orbital magnetization
   LCHIMAG   =     F  perturbation theory with respect to B field
   DQ        =  0.001000  dq finite difference perturbation B field
   LLRAUG    =     F  two centre corrections for induced B field



--------------------------------------------------------------------------------------------------------


 Static calculation
 charge density and potential will be updated during run
 non-spin polarized calculation
 Variant of blocked Davidson
 Davidson routine will perform the subspace rotation
 perform sub-space diagonalisation
    after iterative eigenvector-optimisation
 modified Broyden-mixing scheme, WC =      100.0
 initial mixing is a Kerker type mixing with AMIX =  0.4000 and BMIX =      1.0000
 Hartree-type preconditioning will be used
 using additional bands           32
 reciprocal scheme for non local part
 use partial core corrections
 calculate Harris-corrections to forces 
   (improved forces if not selfconsistent)
 use gradient corrections 
 use of overlap-Matrix (Vanderbilt PP)
 Methfessel and Paxton  Order N= 1 SIGMA  =   0.20


--------------------------------------------------------------------------------------------------------


  energy-cutoff  :      280.00
  volume of cell :       18.52
      direct lattice vectors                 reciprocal lattice vectors
     2.306700000  0.000000000  0.000000000     0.433519747  0.250292743  0.000000000
    -1.153350000  1.997660799  0.000000000     0.000000000  0.500585485  0.000000000
     0.000000000  0.000000000  4.018410000     0.000000000  0.000000000  0.248854646

  length of vectors
     2.306700000  2.306700000  4.018410000     0.500585485  0.500585485  0.248854646


 
 k-points in units of 2pi/SCALE and weight: KPOINTS created by Atomic Simulation Env
   0.00000000  0.00000000  0.00000000       0.001
   0.03941089  0.02275389  0.00000000       0.005
   0.07882177  0.04550777  0.00000000       0.005
   0.11823266  0.06826166  0.00000000       0.005
   0.15764354  0.09101554  0.00000000       0.005
   0.19705443  0.11376943  0.00000000       0.005
   0.03941089  0.06826166  0.00000000       0.005
   0.07882177  0.09101554  0.00000000       0.009
   0.11823266  0.11376943  0.00000000       0.009
   0.15764354  0.13652331  0.00000000       0.009
   0.19705443  0.15927720  0.00000000       0.005
   0.07882177  0.13652331  0.00000000       0.005
   0.11823266  0.15927720  0.00000000       0.009
   0.15764354  0.18203109  0.00000000       0.009
   0.11823266  0.20478497  0.00000000       0.005
   0.15764354  0.22753886  0.00000000       0.005
   0.00000000  0.00000000  0.02262315       0.002
   0.03941089  0.02275389  0.02262315       0.009
   0.07882177  0.04550777  0.02262315       0.009
   0.11823266  0.06826166  0.02262315       0.009
   0.15764354  0.09101554  0.02262315       0.009
   0.19705443  0.11376943  0.02262315       0.009
   0.03941089  0.06826166  0.02262315       0.009
   0.07882177  0.09101554  0.02262315       0.018
   0.11823266  0.11376943  0.02262315       0.018
   0.15764354  0.13652331  0.02262315       0.018
   0.19705443  0.15927720  0.02262315       0.009
   0.07882177  0.13652331  0.02262315       0.009
   0.11823266  0.15927720  0.02262315       0.018
   0.15764354  0.18203109  0.02262315       0.018
   0.11823266  0.20478497  0.02262315       0.009
   0.15764354  0.22753886  0.02262315       0.009
   0.00000000  0.00000000  0.04524630       0.002
   0.03941089  0.02275389  0.04524630       0.009
   0.07882177  0.04550777  0.04524630       0.009
   0.11823266  0.06826166  0.04524630       0.009
   0.15764354  0.09101554  0.04524630       0.009
   0.19705443  0.11376943  0.04524630       0.009
   0.03941089  0.06826166  0.04524630       0.009
   0.07882177  0.09101554  0.04524630       0.018
   0.11823266  0.11376943  0.04524630       0.018
   0.15764354  0.13652331  0.04524630       0.018
   0.19705443  0.15927720  0.04524630       0.009
   0.07882177  0.13652331  0.04524630       0.009
   0.11823266  0.15927720  0.04524630       0.018
   0.15764354  0.18203109  0.04524630       0.018
   0.11823266  0.20478497  0.04524630       0.009
   0.15764354  0.22753886  0.04524630       0.009
   0.00000000  0.00000000  0.06786945       0.002
   0.03941089  0.02275389  0.06786945       0.009
   0.07882177  0.04550777  0.06786945       0.009
   0.11823266  0.06826166  0.06786945       0.009
   0.15764354  0.09101554  0.06786945       0.009
   0.19705443  0.11376943  0.06786945       0.009
   0.03941089  0.06826166  0.06786945       0.009
   0.07882177  0.09101554  0.06786945       0.018
   0.11823266  0.11376943  0.06786945       0.018
   0.15764354  0.13652331  0.06786945       0.018
   0.19705443  0.15927720  0.06786945       0.009
   0.07882177  0.13652331  0.06786945       0.009
   0.11823266  0.15927720  0.06786945       0.018
   0.15764354  0.18203109  0.06786945       0.018
   0.11823266  0.20478497  0.06786945       0.009
   0.15764354  0.22753886  0.06786945       0.009
   0.00000000  0.00000000  0.09049260       0.002
   0.03941089  0.02275389  0.09049260       0.009
   0.07882177  0.04550777  0.09049260       0.009
   0.11823266  0.06826166  0.09049260       0.009
   0.15764354  0.09101554  0.09049260       0.009
   0.19705443  0.11376943  0.09049260       0.009
   0.03941089  0.06826166  0.09049260       0.009
   0.07882177  0.09101554  0.09049260       0.018
   0.11823266  0.11376943  0.09049260       0.018
   0.15764354  0.13652331  0.09049260       0.018
   0.19705443  0.15927720  0.09049260       0.009
   0.07882177  0.13652331  0.09049260       0.009
   0.11823266  0.15927720  0.09049260       0.018
   0.15764354  0.18203109  0.09049260       0.018
   0.11823266  0.20478497  0.09049260       0.009
   0.15764354  0.22753886  0.09049260       0.009
   0.00000000  0.00000000  0.11311575       0.002
   0.03941089  0.02275389  0.11311575       0.009
   0.07882177  0.04550777  0.11311575       0.009
   0.11823266  0.06826166  0.11311575       0.009
   0.15764354  0.09101554  0.11311575       0.009
   0.19705443  0.11376943  0.11311575       0.009
   0.03941089  0.06826166  0.11311575       0.009
   0.07882177  0.09101554  0.11311575       0.018
   0.11823266  0.11376943  0.11311575       0.018
   0.15764354  0.13652331  0.11311575       0.018
   0.19705443  0.15927720  0.11311575       0.009
   0.07882177  0.13652331  0.11311575       0.009
   0.11823266  0.15927720  0.11311575       0.018
   0.15764354  0.18203109  0.11311575       0.018
   0.11823266  0.20478497  0.11311575       0.009
   0.15764354  0.22753886  0.11311575       0.009
 
 k-points in reciprocal lattice and weights: KPOINTS created by Atomic Simulation Env
   0.00000000  0.00000000  0.00000000       0.001
   0.09090909  0.00000000  0.00000000       0.005
   0.18181818  0.00000000  0.00000000       0.005
   0.27272727 -0.00000000  0.00000000       0.005
   0.36363636  0.00000000  0.00000000       0.005
   0.45454545  0.00000000  0.00000000       0.005
   0.09090909  0.09090909  0.00000000       0.005
   0.18181818  0.09090909  0.00000000       0.009
   0.27272727  0.09090909  0.00000000       0.009
   0.36363636  0.09090909  0.00000000       0.009
   0.45454545  0.09090909  0.00000000       0.005
   0.18181818  0.18181818  0.00000000       0.005
   0.27272727  0.18181818  0.00000000       0.009
   0.36363636  0.18181818  0.00000000       0.009
   0.27272727  0.27272727  0.00000000       0.005
   0.36363636  0.27272727  0.00000000       0.005
   0.00000000  0.00000000  0.09090909       0.002
   0.09090909  0.00000000  0.09090909       0.009
   0.18181818  0.00000000  0.09090909       0.009
   0.27272727 -0.00000000  0.09090909       0.009
   0.36363636  0.00000000  0.09090909       0.009
   0.45454545  0.00000000  0.09090909       0.009
   0.09090909  0.09090909  0.09090909       0.009
   0.18181818  0.09090909  0.09090909       0.018
   0.27272727  0.09090909  0.09090909       0.018
   0.36363636  0.09090909  0.09090909       0.018
   0.45454545  0.09090909  0.09090909       0.009
   0.18181818  0.18181818  0.09090909       0.009
   0.27272727  0.18181818  0.09090909       0.018
   0.36363636  0.18181818  0.09090909       0.018
   0.27272727  0.27272727  0.09090909       0.009
   0.36363636  0.27272727  0.09090909       0.009
   0.00000000  0.00000000  0.18181818       0.002
   0.09090909  0.00000000  0.18181818       0.009
   0.18181818  0.00000000  0.18181818       0.009
   0.27272727 -0.00000000  0.18181818       0.009
   0.36363636  0.00000000  0.18181818       0.009
   0.45454545  0.00000000  0.18181818       0.009
   0.09090909  0.09090909  0.18181818       0.009
   0.18181818  0.09090909  0.18181818       0.018
   0.27272727  0.09090909  0.18181818       0.018
   0.36363636  0.09090909  0.18181818       0.018
   0.45454545  0.09090909  0.18181818       0.009
   0.18181818  0.18181818  0.18181818       0.009
   0.27272727  0.18181818  0.18181818       0.018
   0.36363636  0.18181818  0.18181818       0.018
   0.27272727  0.27272727  0.18181818       0.009
   0.36363636  0.27272727  0.18181818       0.009
   0.00000000  0.00000000  0.27272727       0.002
   0.09090909  0.00000000  0.27272727       0.009
   0.18181818  0.00000000  0.27272727       0.009
   0.27272727 -0.00000000  0.27272727       0.009
   0.36363636  0.00000000  0.27272727       0.009
   0.45454545  0.00000000  0.27272727       0.009
   0.09090909  0.09090909  0.27272727       0.009
   0.18181818  0.09090909  0.27272727       0.018
   0.27272727  0.09090909  0.27272727       0.018
   0.36363636  0.09090909  0.27272727       0.018
   0.45454545  0.09090909  0.27272727       0.009
   0.18181818  0.18181818  0.27272727       0.009
   0.27272727  0.18181818  0.27272727       0.018
   0.36363636  0.18181818  0.27272727       0.018
   0.27272727  0.27272727  0.27272727       0.009
   0.36363636  0.27272727  0.27272727       0.009
   0.00000000  0.00000000  0.36363636       0.002
   0.09090909  0.00000000  0.36363636       0.009
   0.18181818  0.00000000  0.36363636       0.009
   0.27272727 -0.00000000  0.36363636       0.009
   0.36363636  0.00000000  0.36363636       0.009
   0.45454545  0.00000000  0.36363636       0.009
   0.09090909  0.09090909  0.36363636       0.009
   0.18181818  0.09090909  0.36363636       0.018
   0.27272727  0.09090909  0.36363636       0.018
   0.36363636  0.09090909  0.36363636       0.018
   0.45454545  0.09090909  0.36363636       0.009
   0.18181818  0.18181818  0.36363636       0.009
   0.27272727  0.18181818  0.36363636       0.018
   0.36363636  0.18181818  0.36363636       0.018
   0.27272727  0.27272727  0.36363636       0.009
   0.36363636  0.27272727  0.36363636       0.009
   0.00000000  0.00000000  0.45454545       0.002
   0.09090909  0.00000000  0.45454545       0.009
   0.18181818  0.00000000  0.45454545       0.009
   0.27272727 -0.00000000  0.45454545       0.009
   0.36363636  0.00000000  0.45454545       0.009
   0.45454545  0.00000000  0.45454545       0.009
   0.09090909  0.09090909  0.45454545       0.009
   0.18181818  0.09090909  0.45454545       0.018
   0.27272727  0.09090909  0.45454545       0.018
   0.36363636  0.09090909  0.45454545       0.018
   0.45454545  0.09090909  0.45454545       0.009
   0.18181818  0.18181818  0.45454545       0.009
   0.27272727  0.18181818  0.45454545       0.018
   0.36363636  0.18181818  0.45454545       0.018
   0.27272727  0.27272727  0.45454545       0.009
   0.36363636  0.27272727  0.45454545       0.009
 
 position of ions in fractional coordinates (direct lattice) 
   0.00000000  0.00000000  0.00000000
   0.33333333  0.66666667  0.50000000
 
 position of ions in cartesian coordinates  (Angst):
   0.00000000  0.00000000  0.00000000
   0.00000000  1.33177387  2.00920500
 


--------------------------------------------------------------------------------------------------------


 k-point   1 :   0.0000 0.0000 0.0000  plane waves:     209
 k-point   2 :   0.0909 0.0000 0.0000  plane waves:     199
 k-point   3 :   0.1818 0.0000 0.0000  plane waves:     197
 k-point   4 :   0.2727-0.0000 0.0000  plane waves:     193
 k-point   5 :   0.3636 0.0000 0.0000  plane waves:     196
 k-point   6 :   0.4545 0.0000 0.0000  plane waves:     200
 k-point   7 :   0.0909 0.0909 0.0000  plane waves:     191
 k-point   8 :   0.1818 0.0909 0.0000  plane waves:     198
 k-point   9 :   0.2727 0.0909 0.0000  plane waves:     195
 k-point  10 :   0.3636 0.0909 0.0000  plane waves:     199
 k-point  11 :   0.4545 0.0909 0.0000  plane waves:     202
 k-point  12 :   0.1818 0.1818 0.0000  plane waves:     193
 k-point  13 :   0.2727 0.1818 0.0000  plane waves:     199
 k-point  14 :   0.3636 0.1818 0.0000  plane waves:     199
 k-point  15 :   0.2727 0.2727 0.0000  plane waves:     203
 k-point  16 :   0.3636 0.2727 0.0000  plane waves:     199
 k-point  17 :   0.0000 0.0000 0.0909  plane waves:     209
 k-point  18 :   0.0909 0.0000 0.0909  plane waves:     197
 k-point  19 :   0.1818 0.0000 0.0909  plane waves:     199
 k-point  20 :   0.2727-0.0000 0.0909  plane waves:     196
 k-point  21 :   0.3636 0.0000 0.0909  plane waves:     196
 k-point  22 :   0.4545 0.0000 0.0909  plane waves:     197
 k-point  23 :   0.0909 0.0909 0.0909  plane waves:     194
 k-point  24 :   0.1818 0.0909 0.0909  plane waves:     195
 k-point  25 :   0.2727 0.0909 0.0909  plane waves:     196
 k-point  26 :   0.3636 0.0909 0.0909  plane waves:     200
 k-point  27 :   0.4545 0.0909 0.0909  plane waves:     203
 k-point  28 :   0.1818 0.1818 0.0909  plane waves:     191
 k-point  29 :   0.2727 0.1818 0.0909  plane waves:     196
 k-point  30 :   0.3636 0.1818 0.0909  plane waves:     201
 k-point  31 :   0.2727 0.2727 0.0909  plane waves:     199
 k-point  32 :   0.3636 0.2727 0.0909  plane waves:     202
 k-point  33 :   0.0000 0.0000 0.1818  plane waves:     203
 k-point  34 :   0.0909 0.0000 0.1818  plane waves:     192
 k-point  35 :   0.1818 0.0000 0.1818  plane waves:     197
 k-point  36 :   0.2727-0.0000 0.1818  plane waves:     195
 k-point  37 :   0.3636 0.0000 0.1818  plane waves:     196
 k-point  38 :   0.4545 0.0000 0.1818  plane waves:     197
 k-point  39 :   0.0909 0.0909 0.1818  plane waves:     194
 k-point  40 :   0.1818 0.0909 0.1818  plane waves:     194
 k-point  41 :   0.2727 0.0909 0.1818  plane waves:     197
 k-point  42 :   0.3636 0.0909 0.1818  plane waves:     198
 k-point  43 :   0.4545 0.0909 0.1818  plane waves:     199
 k-point  44 :   0.1818 0.1818 0.1818  plane waves:     197
 k-point  45 :   0.2727 0.1818 0.1818  plane waves:     198
 k-point  46 :   0.3636 0.1818 0.1818  plane waves:     203
 k-point  47 :   0.2727 0.2727 0.1818  plane waves:     200
 k-point  48 :   0.3636 0.2727 0.1818  plane waves:     202
 k-point  49 :   0.0000 0.0000 0.2727  plane waves:     197
 k-point  50 :   0.0909 0.0000 0.2727  plane waves:     194
 k-point  51 :   0.1818 0.0000 0.2727  plane waves:     194
 k-point  52 :   0.2727-0.0000 0.2727  plane waves:     194
 k-point  53 :   0.3636 0.0000 0.2727  plane waves:     194
 k-point  54 :   0.4545 0.0000 0.2727  plane waves:     197
 k-point  55 :   0.0909 0.0909 0.2727  plane waves:     192
 k-point  56 :   0.1818 0.0909 0.2727  plane waves:     193
 k-point  57 :   0.2727 0.0909 0.2727  plane waves:     199
 k-point  58 :   0.3636 0.0909 0.2727  plane waves:     198
 k-point  59 :   0.4545 0.0909 0.2727  plane waves:     198
 k-point  60 :   0.1818 0.1818 0.2727  plane waves:     195
 k-point  61 :   0.2727 0.1818 0.2727  plane waves:     202
 k-point  62 :   0.3636 0.1818 0.2727  plane waves:     201
 k-point  63 :   0.2727 0.2727 0.2727  plane waves:     201
 k-point  64 :   0.3636 0.2727 0.2727  plane waves:     203
 k-point  65 :   0.0000 0.0000 0.3636  plane waves:     191
 k-point  66 :   0.0909 0.0000 0.3636  plane waves:     192
 k-point  67 :   0.1818 0.0000 0.3636  plane waves:     191
 k-point  68 :   0.2727-0.0000 0.3636  plane waves:     195
 k-point  69 :   0.3636 0.0000 0.3636  plane waves:     197
 k-point  70 :   0.4545 0.0000 0.3636  plane waves:     200
 k-point  71 :   0.0909 0.0909 0.3636  plane waves:     194
 k-point  72 :   0.1818 0.0909 0.3636  plane waves:     191
 k-point  73 :   0.2727 0.0909 0.3636  plane waves:     196
 k-point  74 :   0.3636 0.0909 0.3636  plane waves:     198
 k-point  75 :   0.4545 0.0909 0.3636  plane waves:     198
 k-point  76 :   0.1818 0.1818 0.3636  plane waves:     196
 k-point  77 :   0.2727 0.1818 0.3636  plane waves:     201
 k-point  78 :   0.3636 0.1818 0.3636  plane waves:     198
 k-point  79 :   0.2727 0.2727 0.3636  plane waves:     201
 k-point  80 :   0.3636 0.2727 0.3636  plane waves:     202
 k-point  81 :   0.0000 0.0000 0.4545  plane waves:     191
 k-point  82 :   0.0909 0.0000 0.4545  plane waves:     192
 k-point  83 :   0.1818 0.0000 0.4545  plane waves:     191
 k-point  84 :   0.2727-0.0000 0.4545  plane waves:     197
 k-point  85 :   0.3636 0.0000 0.4545  plane waves:     198
 k-point  86 :   0.4545 0.0000 0.4545  plane waves:     195
 k-point  87 :   0.0909 0.0909 0.4545  plane waves:     192
 k-point  88 :   0.1818 0.0909 0.4545  plane waves:     194
 k-point  89 :   0.2727 0.0909 0.4545  plane waves:     197
 k-point  90 :   0.3636 0.0909 0.4545  plane waves:     198
 k-point  91 :   0.4545 0.0909 0.4545  plane waves:     198
 k-point  92 :   0.1818 0.1818 0.4545  plane waves:     192
 k-point  93 :   0.2727 0.1818 0.4545  plane waves:     196
 k-point  94 :   0.3636 0.1818 0.4545  plane waves:     195
 k-point  95 :   0.2727 0.2727 0.4545  plane waves:     202
 k-point  96 :   0.3636 0.2727 0.4545  plane waves:     202

 maximum number of plane-waves:       209
 maximum index in each direction: 
   IXMAX=    3   IYMAX=    3   IZMAX=    5
   IXMIN=   -3   IYMIN=   -3   IZMIN=   -5


 total amount of memory used by VASP MPI-rank0    48699. kBytes
=======================================================================

   base      :      30000. kBytes
   nonl-proj :       2895. kBytes
   grid      :        721. kBytes
   one-center:         31. kBytes
   wavefun   :      15052. kBytes
 
     INWAV:  cpu time    0.0000: real time    0.0000
 Broyden mixing: mesh for mixing (old mesh)
   NGX =  7   NGY =  7   NGZ = 11
  (NGX  = 20   NGY  = 20   NGZ  = 32)
  gives a total of    539 points

 initial charge density was supplied:
 charge density of overlapping atoms calculated
 number of electron      16.0000000 magnetization 
 keeping initial charge density in first step


--------------------------------------------------------------------------------------------------------


 Maximum index for augmentation-charges         2994 (set IRDMAX)


--------------------------------------------------------------------------------------------------------


 First call to EWALD:  gamma=   0.670
 Maximum number of real-space cells 3x 3x 2
 Maximum number of reciprocal cells 2x 2x 4

    FEWALD:  cpu time    0.0009: real time    0.0009


--------------------------------------- Iteration      1(   1)  ---------------------------------------


    POTLOK:  cpu time    0.0031: real time    0.0031
    SETDIJ:  cpu time    0.0022: real time    0.0022
     EDDAV:  cpu time    0.7556: real time    0.7759
       DOS:  cpu time    0.0057: real time    0.0057
    --------------------------------------------
      LOOP:  cpu time    0.7666: real time    0.7869

 eigenvalue-minimisations  :  9440
 total energy-change (2. order) : 0.5910270E+02  (-0.2525772E+03)
 number of electron      16.0000000 magnetization 
 augmentation part       16.0000000 magnetization 

 Free energy of the ion-electron system (eV)
  ---------------------------------------------------
  alpha Z        PSCENC =       149.29920789
  Ewald energy   TEWEN  =     -1266.82775020
  -Hartree energ DENC   =      -193.20402029
  -exchange      EXHF   =         0.00000000
  -V(xc)+E(xc)   XCENC  =         9.12056326
  PAW double counting   =      1109.69170683    -1125.09647265
  entropy T*S    EENTRO =        -0.00166674
  eigenvalues    EBANDS =       187.54622683
  atomic energy  EATOM  =      1188.57490811
  Solvation  Ediel_sol  =         0.00000000
  ---------------------------------------------------
  free energy    TOTEN  =        59.10270304 eV

  energy without entropy =       59.10436978  energy(sigma->0) =       59.10325862


--------------------------------------------------------------------------------------------------------




--------------------------------------- Iteration      1(   2)  ---------------------------------------


     EDDAV:  cpu time    0.6314: real time    0.6314
       DOS:  cpu time    0.0061: real time    0.0061
    --------------------------------------------
      LOOP:  cpu time    0.6375: real time    0.6375

 eigenvalue-minimisations  :  7840
 total energy-change (2. order) :-0.7380903E+02  (-0.6287357E+02)
 number of electron      16.0000000 magnetization 
 augmentation part       16.0000000 magnetization 

 Free energy of the ion-electron system (eV)
  ---------------------------------------------------
  alpha Z        PSCENC =       149.29920789
  Ewald energy   TEWEN  =     -1266.82775020
  -Hartree energ DENC   =      -193.20402029
  -exchange      EXHF   =         0.00000000
  -V(xc)+E(xc)   XCENC  =         9.12056326
  PAW double counting   =      1109.69170683    -1125.09647265
  entropy T*S    EENTRO =         0.00286174
  eigenvalues    EBANDS =       113.73266600
  atomic energy  EATOM  =      1188.57490811
  Solvation  Ediel_sol  =         0.00000000
  ---------------------------------------------------
  free energy    TOTEN  =       -14.70632931 eV

  energy without entropy =      -14.70919105  energy(sigma->0) =      -14.70728322


--------------------------------------------------------------------------------------------------------




--------------------------------------- Iteration      1(   3)  ---------------------------------------


     EDDAV:  cpu time    0.7480: real time    0.7480
       DOS:  cpu time    0.0065: real time    0.0065
    --------------------------------------------
      LOOP:  cpu time    0.7545: real time    0.7545

 eigenvalue-minimisations  :  9632
 total energy-change (2. order) :-0.4107069E+01  (-0.3920836E+01)
 number of electron      16.0000000 magnetization 
 augmentation part       16.0000000 magnetization 

 Free energy of the ion-electron system (eV)
  ---------------------------------------------------
  alpha Z        PSCENC =       149.29920789
  Ewald energy   TEWEN  =     -1266.82775020
  -Hartree energ DENC   =      -193.20402029
  -exchange      EXHF   =         0.00000000
  -V(xc)+E(xc)   XCENC  =         9.12056326
  PAW double counting   =      1109.69170683    -1125.09647265
  entropy T*S    EENTRO =         0.00036720
  eigenvalues    EBANDS =       109.62809111
  atomic energy  EATOM  =      1188.57490811
  Solvation  Ediel_sol  =         0.00000000
  ---------------------------------------------------
  free energy    TOTEN  =       -18.81339875 eV

  energy without entropy =      -18.81376594  energy(sigma->0) =      -18.81352115


--------------------------------------------------------------------------------------------------------




--------------------------------------- Iteration      1(   4)  ---------------------------------------


     EDDAV:  cpu time    0.6934: real time    0.6934
       DOS:  cpu time    0.0066: real time    0.0066
    --------------------------------------------
      LOOP:  cpu time    0.6999: real time    0.7000

 eigenvalue-minimisations  :  9016
 total energy-change (2. order) :-0.1572241E-01  (-0.1571360E-01)
 number of electron      16.0000000 magnetization 
 augmentation part       16.0000000 magnetization 

 Free energy of the ion-electron system (eV)
  ---------------------------------------------------
  alpha Z        PSCENC =       149.29920789
  Ewald energy   TEWEN  =     -1266.82775020
  -Hartree energ DENC   =      -193.20402029
  -exchange      EXHF   =         0.00000000
  -V(xc)+E(xc)   XCENC  =         9.12056326
  PAW double counting   =      1109.69170683    -1125.09647265
  entropy T*S    EENTRO =         0.00038338
  eigenvalues    EBANDS =       109.61235251
  atomic energy  EATOM  =      1188.57490811
  Solvation  Ediel_sol  =         0.00000000
  ---------------------------------------------------
  free energy    TOTEN  =       -18.82912116 eV

  energy without entropy =      -18.82950454  energy(sigma->0) =      -18.82924895


--------------------------------------------------------------------------------------------------------




--------------------------------------- Iteration      1(   5)  ---------------------------------------


     EDDAV:  cpu time    0.7028: real time    0.7029
       DOS:  cpu time    0.0064: real time    0.0064
    CHARGE:  cpu time    0.0177: real time    0.0177
    MIXING:  cpu time    0.0001: real time    0.0001
    --------------------------------------------
      LOOP:  cpu time    0.7271: real time    0.7272

 eigenvalue-minimisations  :  9168
 total energy-change (2. order) :-0.1141654E-04  (-0.1141548E-04)
 number of electron      16.0000074 magnetization 
 augmentation part        7.1534073 magnetization 

 Broyden mixing:
  rms(total) = 0.18840E+01    rms(broyden)= 0.18839E+01
  rms(prec ) = 0.29853E+01
  weight for this iteration     100.00

 Free energy of the ion-electron system (eV)
  ---------------------------------------------------
  alpha Z        PSCENC =       149.29920789
  Ewald energy   TEWEN  =     -1266.82775020
  -Hartree energ DENC   =      -193.20402029
  -exchange      EXHF   =         0.00000000
  -V(xc)+E(xc)   XCENC  =         9.12056326
  PAW double counting   =      1109.69170683    -1125.09647265
  entropy T*S    EENTRO =         0.00038340
  eigenvalues    EBANDS =       109.61234107
  atomic energy  EATOM  =      1188.57490811
  Solvation  Ediel_sol  =         0.00000000
  ---------------------------------------------------
  free energy    TOTEN  =       -18.82913257 eV

  energy without entropy =      -18.82951597  energy(sigma->0) =      -18.82926037


--------------------------------------------------------------------------------------------------------




--------------------------------------- Iteration      1(   6)  ---------------------------------------


    POTLOK:  cpu time    0.0029: real time    0.0029
    SETDIJ:  cpu time    0.0021: real time    0.0021
     EDDAV:  cpu time    0.8455: real time    0.8455
       DOS:  cpu time    0.0064: real time    0.0064
    CHARGE:  cpu time    0.0173: real time    0.0173
    MIXING:  cpu time    0.0002: real time    0.0002
    --------------------------------------------
      LOOP:  cpu time    0.8744: real time    0.8744

 eigenvalue-minimisations  : 11240
 total energy-change (2. order) : 0.2719656E+01  (-0.1467279E+00)
 number of electron      16.0000090 magnetization 
 augmentation part        8.3648084 magnetization 

 Broyden mixing:
  rms(total) = 0.15211E+00    rms(broyden)= 0.15202E+00
  rms(prec ) = 0.22613E+00
  weight for this iteration     100.00

 eigenvalues of (default mixing * dielectric matrix)
  average eigenvalue GAMMA=   0.9964
  0.9964

 Free energy of the ion-electron system (eV)
  ---------------------------------------------------
  alpha Z        PSCENC =       149.29920789
  Ewald energy   TEWEN  =     -1266.82775020
  -Hartree energ DENC   =      -161.58827385
  -exchange      EXHF   =         0.00000000
  -V(xc)+E(xc)   XCENC  =         7.56754694
  PAW double counting   =      1314.14538081    -1326.04157736
  entropy T*S    EENTRO =         0.00122396
  eigenvalues    EBANDS =        78.75985716
  atomic energy  EATOM  =      1188.57490811
  Solvation  Ediel_sol  =         0.00000000
  ---------------------------------------------------
  free energy    TOTEN  =       -16.10947653 eV

  energy without entropy =      -16.11070049  energy(sigma->0) =      -16.10988451


--------------------------------------------------------------------------------------------------------




--------------------------------------- Iteration      1(   7)  ---------------------------------------


    POTLOK:  cpu time    0.0030: real time    0.0030
    SETDIJ:  cpu time    0.0021: real time    0.0021
     EDDAV:  cpu time    0.7432: real time    0.7433
       DOS:  cpu time    0.0064: real time    0.0064
    CHARGE:  cpu time    0.0171: real time    0.0171
    MIXING:  cpu time    0.0002: real time    0.0002
    --------------------------------------------
      LOOP:  cpu time    0.7720: real time    0.7720

 eigenvalue-minimisations  :  9832
 total energy-change (2. order) : 0.1304141E+00  (-0.7178871E-02)
 number of electron      16.0000088 magnetization 
 augmentation part        8.1747499 magnetization 

 Broyden mixing:
  rms(total) = 0.13390E+00    rms(broyden)= 0.13390E+00
  rms(prec ) = 0.21065E+00
  weight for this iteration     100.00

 eigenvalues of (default mixing * dielectric matrix)
  average eigenvalue GAMMA=   1.1037
  0.8035  1.4039

 Free energy of the ion-electron system (eV)
  ---------------------------------------------------
  alpha Z        PSCENC =       149.29920789
  Ewald energy   TEWEN  =     -1266.82775020
  -Hartree energ DENC   =      -163.48100568
  -exchange      EXHF   =         0.00000000
  -V(xc)+E(xc)   XCENC  =         7.68866187
  PAW double counting   =      1414.99559794    -1430.30142240
  entropy T*S    EENTRO =         0.00114948
  eigenvalues    EBANDS =        84.07159054
  atomic energy  EATOM  =      1188.57490811
  Solvation  Ediel_sol  =         0.00000000
  ---------------------------------------------------
  free energy    TOTEN  =       -15.97906244 eV

  energy without entropy =      -15.98021192  energy(sigma->0) =      -15.97944560


--------------------------------------------------------------------------------------------------------




--------------------------------------- Iteration      1(   8)  ---------------------------------------


    POTLOK:  cpu time    0.0028: real time    0.0028
    SETDIJ:  cpu time    0.0021: real time    0.0021
     EDDAV:  cpu time    0.7748: real time    0.7748
       DOS:  cpu time    0.0066: real time    0.0066
    CHARGE:  cpu time    0.0174: real time    0.0174
    MIXING:  cpu time    0.0002: real time    0.0002
    --------------------------------------------
      LOOP:  cpu time    0.8039: real time    0.8039

 eigenvalue-minimisations  : 10280
 total energy-change (2. order) : 0.3295685E-01  (-0.2315266E-03)
 number of electron      16.0000088 magnetization 
 augmentation part        8.1989985 magnetization 

 Broyden mixing:
  rms(total) = 0.55313E-01    rms(broyden)= 0.55313E-01
  rms(prec ) = 0.84109E-01
  weight for this iteration     100.00

 eigenvalues of (default mixing * dielectric matrix)
  average eigenvalue GAMMA=   1.5154
  2.6511  1.0553  0.8397

 Free energy of the ion-electron system (eV)
  ---------------------------------------------------
  alpha Z        PSCENC =       149.29920789
  Ewald energy   TEWEN  =     -1266.82775020
  -Hartree energ DENC   =      -161.19928309
  -exchange      EXHF   =         0.00000000
  -V(xc)+E(xc)   XCENC  =         7.59735418
  PAW double counting   =      1508.07714735    -1525.12682122
  entropy T*S    EENTRO =         0.00116159
  eigenvalues    EBANDS =        83.65796979
  atomic energy  EATOM  =      1188.57490811
  Solvation  Ediel_sol  =         0.00000000
  ---------------------------------------------------
  free energy    TOTEN  =       -15.94610559 eV

  energy without entropy =      -15.94726718  energy(sigma->0) =      -15.94649279


--------------------------------------------------------------------------------------------------------




--------------------------------------- Iteration      1(   9)  ---------------------------------------


    POTLOK:  cpu time    0.0030: real time    0.0030
    SETDIJ:  cpu time    0.0022: real time    0.0022
     EDDAV:  cpu time    0.8064: real time    0.8065
       DOS:  cpu time    0.0066: real time    0.0066
    CHARGE:  cpu time    0.0172: real time    0.0172
    MIXING:  cpu time    0.0002: real time    0.0002
    --------------------------------------------
      LOOP:  cpu time    0.8356: real time    0.8357

 eigenvalue-minimisations  : 10664
 total energy-change (2. order) : 0.8463698E-02  (-0.8270202E-04)
 number of electron      16.0000088 magnetization 
 augmentation part        8.2097718 magnetization 

 Broyden mixing:
  rms(total) = 0.59797E-02    rms(broyden)= 0.59788E-02
  rms(prec ) = 0.78126E-02
  weight for this iteration     100.00

 eigenvalues of (default mixing * dielectric matrix)
  average eigenvalue GAMMA=   1.6011
  2.6701  0.8437  0.9933  1.8974

 Free energy of the ion-electron system (eV)
  ---------------------------------------------------
  alpha Z        PSCENC =       149.29920789
  Ewald energy   TEWEN  =     -1266.82775020
  -Hartree energ DENC   =      -159.44769179
  -exchange      EXHF   =         0.00000000
  -V(xc)+E(xc)   XCENC  =         7.53132949
  PAW double counting   =      1597.24904992    -1615.89087462
  entropy T*S    EENTRO =         0.00115703
  eigenvalues    EBANDS =        83.57302228
  atomic energy  EATOM  =      1188.57490811
  Solvation  Ediel_sol  =         0.00000000
  ---------------------------------------------------
  free energy    TOTEN  =       -15.93764189 eV

  energy without entropy =      -15.93879892  energy(sigma->0) =      -15.93802757


--------------------------------------------------------------------------------------------------------




--------------------------------------- Iteration      1(  10)  ---------------------------------------


    POTLOK:  cpu time    0.0028: real time    0.0028
    SETDIJ:  cpu time    0.0021: real time    0.0021
     EDDAV:  cpu time    0.6618: real time    0.6619
       DOS:  cpu time    0.0064: real time    0.0064
    CHARGE:  cpu time    0.0174: real time    0.0174
    MIXING:  cpu time    0.0002: real time    0.0002
    --------------------------------------------
      LOOP:  cpu time    0.6907: real time    0.6908

 eigenvalue-minimisations  :  8576
 total energy-change (2. order) :-0.1002012E-04  (-0.2722940E-05)
 number of electron      16.0000088 magnetization 
 augmentation part        8.2095795 magnetization 

 Broyden mixing:
  rms(total) = 0.22307E-02    rms(broyden)= 0.22299E-02
  rms(prec ) = 0.32739E-02
  weight for this iteration     100.00

 eigenvalues of (default mixing * dielectric matrix)
  average eigenvalue GAMMA=   1.6473
  2.5765  2.5135  0.8426  1.0022  1.3017

 Free energy of the ion-electron system (eV)
  ---------------------------------------------------
  alpha Z        PSCENC =       149.29920789
  Ewald energy   TEWEN  =     -1266.82775020
  -Hartree energ DENC   =      -159.52435239
  -exchange      EXHF   =         0.00000000
  -V(xc)+E(xc)   XCENC  =         7.53555427
  PAW double counting   =      1598.53963240    -1617.10222407
  entropy T*S    EENTRO =         0.00115331
  eigenvalues    EBANDS =        83.56621876
  atomic energy  EATOM  =      1188.57490811
  Solvation  Ediel_sol  =         0.00000000
  ---------------------------------------------------
  free energy    TOTEN  =       -15.93765191 eV

  energy without entropy =      -15.93880523  energy(sigma->0) =      -15.93803635


--------------------------------------------------------------------------------------------------------




--------------------------------------- Iteration      1(  11)  ---------------------------------------


    POTLOK:  cpu time    0.0029: real time    0.0029
    SETDIJ:  cpu time    0.0021: real time    0.0021
     EDDAV:  cpu time    0.6536: real time    0.6537
       DOS:  cpu time    0.0065: real time    0.0065
    CHARGE:  cpu time    0.0174: real time    0.0174
    MIXING:  cpu time    0.0002: real time    0.0002
    --------------------------------------------
      LOOP:  cpu time    0.6828: real time    0.6828

 eigenvalue-minimisations  :  8216
 total energy-change (2. order) : 0.1380717E-04  (-0.2022772E-07)
 number of electron      16.0000088 magnetization 
 augmentation part        8.2092914 magnetization 

 Broyden mixing:
  rms(total) = 0.16928E-03    rms(broyden)= 0.16921E-03
  rms(prec ) = 0.28016E-03
  weight for this iteration     100.00

 eigenvalues of (default mixing * dielectric matrix)
  average eigenvalue GAMMA=   1.5738
  2.5817  2.5817  0.8424  1.0087  1.0087  1.4194

 Free energy of the ion-electron system (eV)
  ---------------------------------------------------
  alpha Z        PSCENC =       149.29920789
  Ewald energy   TEWEN  =     -1266.82775020
  -Hartree energ DENC   =      -159.58696547
  -exchange      EXHF   =         0.00000000
  -V(xc)+E(xc)   XCENC  =         7.53846018
  PAW double counting   =      1597.72335453    -1616.22558940
  entropy T*S    EENTRO =         0.00115346
  eigenvalues    EBANDS =        83.56558279
  atomic energy  EATOM  =      1188.57490811
  Solvation  Ediel_sol  =         0.00000000
  ---------------------------------------------------
  free energy    TOTEN  =       -15.93763810 eV

  energy without entropy =      -15.93879156  energy(sigma->0) =      -15.93802259


--------------------------------------------------------------------------------------------------------




--------------------------------------- Iteration      1(  12)  ---------------------------------------


    POTLOK:  cpu time    0.0030: real time    0.0030
    SETDIJ:  cpu time    0.0021: real time    0.0021
     EDDAV:  cpu time    0.5243: real time    0.5243
       DOS:  cpu time    0.0059: real time    0.0059
    CHARGE:  cpu time    0.0173: real time    0.0173
    MIXING:  cpu time    0.0003: real time    0.0003
    --------------------------------------------
      LOOP:  cpu time    0.5528: real time    0.5529

 eigenvalue-minimisations  :  5984
 total energy-change (2. order) : 0.1155169E-05  (-0.8146152E-08)
 number of electron      16.0000088 magnetization 
 augmentation part        8.2092680 magnetization 

 Broyden mixing:
  rms(total) = 0.11333E-03    rms(broyden)= 0.11326E-03
  rms(prec ) = 0.12616E-03
  weight for this iteration     100.00

 eigenvalues of (default mixing * dielectric matrix)
  average eigenvalue GAMMA=   1.5492
  2.5644  2.5644  1.5831  0.8425  0.9638  1.0273  1.2986

 Free energy of the ion-electron system (eV)
  ---------------------------------------------------
  alpha Z        PSCENC =       149.29920789
  Ewald energy   TEWEN  =     -1266.82775020
  -Hartree energ DENC   =      -159.59445899
  -exchange      EXHF   =         0.00000000
  -V(xc)+E(xc)   XCENC  =         7.53879686
  PAW double counting   =      1597.67306232    -1616.16800761
  entropy T*S    EENTRO =         0.00115367
  eigenvalues    EBANDS =        83.56545099
  atomic energy  EATOM  =      1188.57490811
  Solvation  Ediel_sol  =         0.00000000
  ---------------------------------------------------
  free energy    TOTEN  =       -15.93763695 eV

  energy without entropy =      -15.93879062  energy(sigma->0) =      -15.93802151


--------------------------------------------------------------------------------------------------------




--------------------------------------- Iteration      1(  13)  ---------------------------------------


    POTLOK:  cpu time    0.0030: real time    0.0030
    SETDIJ:  cpu time    0.0021: real time    0.0021
     EDDAV:  cpu time    0.4932: real time    0.4933
       DOS:  cpu time    0.0066: real time    0.0066
    --------------------------------------------
      LOOP:  cpu time    0.5049: real time    0.5050

 eigenvalue-minimisations  :  5376
 total energy-change (2. order) :-0.3419009E-06  (-0.9541547E-09)
 number of electron      16.0000088 magnetization 
 augmentation part        8.2092680 magnetization 

 Free energy of the ion-electron system (eV)
  ---------------------------------------------------
  alpha Z        PSCENC =       149.29920789
  Ewald energy   TEWEN  =     -1266.82775020
  -Hartree energ DENC   =      -159.59308300
  -exchange      EXHF   =         0.00000000
  -V(xc)+E(xc)   XCENC  =         7.53873075
  PAW double counting   =      1597.73756852    -1616.23414904
  entropy T*S    EENTRO =         0.00115366
  eigenvalues    EBANDS =        83.56577601
  atomic energy  EATOM  =      1188.57490811
  Solvation  Ediel_sol  =         0.00000000
  ---------------------------------------------------
  free energy    TOTEN  =       -15.93763729 eV

  energy without entropy =      -15.93879095  energy(sigma->0) =      -15.93802185


--------------------------------------------------------------------------------------------------------




 average (electrostatic) potential at core
  the test charge radii are     1.0103
  (the norm of the test charge is              1.0000)
       1 -41.6009       2 -41.6010
 
 
 
 E-fermi :   8.0239     XC(G=0): -14.3610     alpha+bet :-16.7420

 Fermi energy:         8.0239429554

 k-point     1 :       0.0000    0.0000    0.0000
  band No.  band energies     occupation 
      1      -1.4180      2.00000
      2       2.4906      2.00000
      3       5.5937      2.00000
      4       6.2200      2.00000
      5       6.2201      2.00000
      6       6.5939      2.00000
      7       6.5940      2.00000
      8       7.3843      2.00006
      9       7.6120      2.01313
     10       7.6121      2.01313
     11       8.8863     -0.00000
     12       8.8863     -0.00000
     13      16.4269      0.00000
     14      32.1315      0.00000
     15      32.8818      0.00000
     16      35.4375      0.00000
     17      38.3295      0.00000
     18      38.3296      0.00000
     19      39.0601      0.00000
     20      39.0603      0.00000
     21      40.5022      0.00000
     22      41.7059      0.00000
     23      41.7059      0.00000
     24      42.7989      0.00000
     25      45.8607      0.00000
     26      45.8607      0.00000
     27      47.1429      0.00000
     28      50.1351      0.00000
     29      50.1356      0.00000
     30      52.0801      0.00000
     31      52.0802      0.00000
     32      55.0290      0.00000
     33      62.8956      0.00000
     34      63.7926      0.00000
     35      64.0236      0.00000
     36      64.0245      0.00000
     37      65.3181      0.00000
     38      67.1235      0.00000
     39      67.1246      0.00000
     40      69.4544      0.00000

 k-point     2 :       0.0909    0.0000    0.0000
  band No.  band energies     occupation 
      1      -1.0640      2.00000
      2       2.7548      2.00000
      3       5.5740      2.00000
      4       6.1805      2.00000
      5       6.3905      2.00000
      6       6.4381      2.00000
      7       6.4696      2.00000
      8       6.7961      2.00000
      9       7.4551      2.00044
     10       7.4820      2.00086
     11       8.9283     -0.00000
     12      10.1518     -0.00000
     13      16.4464      0.00000
     14      31.0600      0.00000
     15      33.2203      0.00000
     16      33.8990      0.00000
     17      35.4003      0.00000
     18      37.5414      0.00000
     19      37.5810      0.00000
     20      40.3415      0.00000
     21      41.1997      0.00000
     22      42.1572      0.00000
     23      42.6230      0.00000
     24      42.8563      0.00000
     25      47.0044      0.00000
     26      47.2888      0.00000
     27      47.5426      0.00000
     28      47.8574      0.00000
     29      51.2805      0.00000
     30      53.6206      0.00000
     31      54.5534      0.00000
     32      56.7690      0.00000
     33      61.5723      0.00000
     34      63.1467      0.00000
     35      63.4140      0.00000
     36      63.8139      0.00000
     37      64.1655      0.00000
     38      67.7681      0.00000
     39      69.3538      0.00000
     40      69.4392      0.00000

 k-point     3 :       0.1818    0.0000    0.0000
  band No.  band energies     occupation 
      1      -0.0692      2.00000
      2       3.3674      2.00000
      3       5.1625      2.00000
      4       5.3152      2.00000
      5       5.9979      2.00000
      6       6.6468      2.00000
      7       7.0437      2.00000
      8       7.0705      2.00000
      9       7.1759      2.00000
     10       7.3521      2.00002
     11       8.9995     -0.00000
     12      12.1515     -0.00000
     13      16.5264      0.00000
     14      27.4356      0.00000
     15      32.3996      0.00000
     16      32.6391      0.00000
     17      33.0298      0.00000
     18      34.1388      0.00000
     19      38.4320      0.00000
     20      39.6600      0.00000
     21      40.2764      0.00000
     22      40.4156      0.00000
     23      43.4116      0.00000
     24      44.6908      0.00000
     25      47.2531      0.00000
     26      48.1365      0.00000
     27      49.6664      0.00000
     28      52.0448      0.00000
     29      54.5173      0.00000
     30      56.5713      0.00000
     31      57.2611      0.00000
     32      59.7134      0.00000
     33      60.0488      0.00000
     34      61.2915      0.00000
     35      61.5216      0.00000
     36      62.7084      0.00000
     37      65.1738      0.00000
     38      68.5777      0.00000
     39      69.3906      0.00000
     40      70.3008      0.00000

 k-point     4 :       0.2727   -0.0000    0.0000
  band No.  band energies     occupation 
      1       1.3163      2.00000
      2       3.6294      2.00000
      3       4.2011      2.00000
      4       5.2564      2.00000
      5       5.8187      2.00000
      6       6.5866      2.00000
      7       6.8289      2.00000
      8       7.4993      2.00131
      9       7.9058      1.83148
     10       8.1314      0.22044
     11       9.0451     -0.00000
     12      14.3808      0.00000
     13      16.7082      0.00000
     14      23.3898      0.00000
     15      29.3403      0.00000
     16      29.8262      0.00000
     17      31.1073      0.00000
     18      33.9055      0.00000
     19      36.7980      0.00000
     20      39.8204      0.00000
     21      40.2009      0.00000
     22      40.4998      0.00000
     23      41.0147      0.00000
     24      44.8995      0.00000
     25      50.7767      0.00000
     26      52.3781      0.00000
     27      53.2640      0.00000
     28      54.8774      0.00000
     29      56.1269      0.00000
     30      57.0043      0.00000
     31      58.7007      0.00000
     32      60.3864      0.00000
     33      60.8911      0.00000
     34      61.5613      0.00000
     35      62.3243      0.00000
     36      64.6507      0.00000
     37      65.3339      0.00000
     38      69.1944      0.00000
     39      69.3170      0.00000
     40      70.0431      0.00000

 k-point     5 :       0.3636    0.0000    0.0000
  band No.  band energies     occupation 
      1       2.4893      2.00000
      2       3.3270      2.00000
      3       3.5531      2.00000
      4       5.4967      2.00000
      5       6.1614      2.00000
      6       6.2378      2.00000
      7       6.5405      2.00000
      8       8.7762     -0.00000
      9       8.8725     -0.00000
     10       8.9212     -0.00000
     11       9.0570     -0.00000
     12      16.4556      0.00000
     13      16.7355      0.00000
     14      20.5156      0.00000
     15      26.0191      0.00000
     16      27.8501      0.00000
     17      28.3707      0.00000
     18      32.9739      0.00000
     19      35.6144      0.00000
     20      38.8806      0.00000
     21      39.4082      0.00000
     22      41.4841      0.00000
     23      42.3104      0.00000
     24      45.1677      0.00000
     25      52.9435      0.00000
     26      54.0079      0.00000
     27      54.3492      0.00000
     28      57.5596      0.00000
     29      57.9078      0.00000
     30      58.3062      0.00000
     31      60.4890      0.00000
     32      61.3626      0.00000
     33      62.0495      0.00000
     34      62.2141      0.00000
     35      63.7795      0.00000
     36      65.4150      0.00000
     37      68.8535      0.00000
     38      69.1508      0.00000
     39      69.2056      0.00000
     40      69.5992      0.00000

 k-point     6 :       0.4545    0.0000    0.0000
  band No.  band energies     occupation 
      1       2.8541      2.00000
      2       3.1235      2.00000
      3       3.2281      2.00000
      4       5.9154      2.00000
      5       6.0981      2.00000
      6       6.3809      2.00000
      7       6.5063      2.00000
      8       9.0562     -0.00000
      9       9.3164     -0.00000
     10       9.4552     -0.00000
     11      10.7066     -0.00000
     12      14.4106      0.00000
     13      18.9429      0.00000
     14      20.5478      0.00000
     15      23.3356      0.00000
     16      25.6866      0.00000
     17      26.7376      0.00000
     18      32.3086      0.00000
     19      35.2335      0.00000
     20      37.6774      0.00000
     21      39.2372      0.00000
     22      42.3774      0.00000
     23      44.5364      0.00000
     24      45.1823      0.00000
     25      49.5836      0.00000
     26      54.8722      0.00000
     27      55.8400      0.00000
     28      59.5405      0.00000
     29      59.8574      0.00000
     30      60.6322      0.00000
     31      62.1460      0.00000
     32      62.3523      0.00000
     33      62.5731      0.00000
     34      64.8714      0.00000
     35      65.2061      0.00000
     36      67.1356      0.00000
     37      67.9673      0.00000
     38      67.9818      0.00000
     39      69.8689      0.00000
     40      70.3311      0.00000

 k-point     7 :       0.0909    0.0909    0.0000
  band No.  band energies     occupation 
      1      -0.3863      2.00000
      2       3.2150      2.00000
      3       5.3616      2.00000
      4       5.4881      2.00000
      5       6.2301      2.00000
      6       6.3005      2.00000
      7       6.8810      2.00000
      8       7.0071      2.00000
      9       7.2294      2.00000
     10       7.4545      2.00043
     11       8.9503     -0.00000
     12      11.6007     -0.00000
     13      16.5028      0.00000
     14      29.1289      0.00000
     15      30.6614      0.00000
     16      33.6665      0.00000
     17      34.6374      0.00000
     18      36.2773      0.00000
     19      36.5750      0.00000
     20      38.6217      0.00000
     21      39.9389      0.00000
     22      44.1544      0.00000
     23      44.2523      0.00000
     24      45.3075      0.00000
     25      45.9548      0.00000
     26      46.3354      0.00000
     27      46.5395      0.00000
     28      52.4725      0.00000
     29      54.8803      0.00000
     30      55.5284      0.00000
     31      55.5409      0.00000
     32      59.0873      0.00000
     33      60.2305      0.00000
     34      61.9685      0.00000
     35      62.6004      0.00000
     36      62.7866      0.00000
     37      64.1851      0.00000
     38      68.8860      0.00000
     39      69.2984      0.00000
     40      70.8633      0.00000

 k-point     8 :       0.1818    0.0909    0.0000
  band No.  band energies     occupation 
      1       0.8347      2.00000
      2       3.7857      2.00000
      3       4.5523      2.00000
      4       5.0020      2.00000
      5       5.9178      2.00000
      6       6.5248      2.00000
      7       6.7932      2.00000
      8       7.1718      2.00000
      9       7.6745      2.03308
     10       8.0380      0.88109
     11       8.9573     -0.00000
     12      13.6019      0.00000
     13      16.6810      0.00000
     14      25.4501      0.00000
     15      28.1642      0.00000
     16      31.1384      0.00000
     17      33.4201      0.00000
     18      34.0355      0.00000
     19      37.3415      0.00000
     20      37.9234      0.00000
     21      38.8826      0.00000
     22      43.5902      0.00000
     23      43.7018      0.00000
     24      44.9006      0.00000
     25      47.9400      0.00000
     26      48.7644      0.00000
     27      50.7722      0.00000
     28      55.3407      0.00000
     29      57.1890      0.00000
     30      57.6962      0.00000
     31      58.1026      0.00000
     32      60.1103      0.00000
     33      60.4592      0.00000
     34      61.4568      0.00000
     35      62.0897      0.00000
     36      62.5334      0.00000
     37      64.7795      0.00000
     38      68.9466      0.00000
     39      69.3980      0.00000
     40      70.6609      0.00000

 k-point     9 :       0.2727    0.0909    0.0000
  band No.  band energies     occupation 
      1       2.2178      2.00000
      2       3.6883      2.00000
      3       3.8391      2.00000
      4       5.1045      2.00000
      5       6.0013      2.00000
      6       6.1445      2.00000
      7       6.7574      2.00000
      8       7.6508      2.02407
      9       8.5495     -0.00128
     10       8.9560     -0.00000
     11       9.0950     -0.00000
     12      15.8649      0.00000
     13      16.9498      0.00000
     14      21.7220      0.00000
     15      26.3657      0.00000
     16      27.7565      0.00000
     17      30.7721      0.00000
     18      32.2282      0.00000
     19      36.7192      0.00000
     20      37.9000      0.00000
     21      39.3100      0.00000
     22      43.1903      0.00000
     23      43.2396      0.00000
     24      46.0724      0.00000
     25      50.0532      0.00000
     26      52.6734      0.00000
     27      54.3262      0.00000
     28      55.0191      0.00000
     29      56.2191      0.00000
     30      58.8977      0.00000
     31      59.7511      0.00000
     32      61.4848      0.00000
     33      62.0613      0.00000
     34      62.4005      0.00000
     35      63.3535      0.00000
     36      64.9198      0.00000
     37      67.7724      0.00000
     38      68.4675      0.00000
     39      68.9200      0.00000
     40      70.8434      0.00000

 k-point    10 :       0.3636    0.0909    0.0000
  band No.  band energies     occupation 
      1       3.0009      2.00000
      2       3.3660      2.00000
      3       3.4044      2.00000
      4       5.5904      2.00000
      5       5.9302      2.00000
      6       6.3878      2.00000
[...]
     17      28.3354      0.00000
     18      29.5022      0.00000
     19      34.8676      0.00000
     20      35.5861      0.00000
     21      39.3982      0.00000
     22      40.0333      0.00000
     23      45.0052      0.00000
     24      46.1348      0.00000
     25      52.0622      0.00000
     26      53.8601      0.00000
     27      56.0028      0.00000
     28      56.8256      0.00000
     29      59.4197      0.00000
     30      60.9028      0.00000
     31      61.8683      0.00000
     32      62.0417      0.00000
     33      64.4288      0.00000
     34      64.6568      0.00000
     35      65.7424      0.00000
     36      66.1468      0.00000
     37      67.1589      0.00000
     38      68.3073      0.00000
     39      70.4367      0.00000
     40      70.9710      0.00000

 k-point    91 :       0.4545    0.0909    0.4545
  band No.  band energies     occupation 
      1       2.7217      2.00000
      2       2.8868      2.00000
      3       4.2342      2.00000
      4       4.3507      2.00000
      5       6.8085      2.00000
      6       7.2696      2.00000
      7       8.0086      1.12960
      8       8.3473     -0.04457
      9       9.0987     -0.00000
     10       9.1107     -0.00000
     11      11.6106     -0.00000
     12      12.1553     -0.00000
     13      18.6087      0.00000
     14      18.6535      0.00000
     15      27.0051      0.00000
     16      27.7521      0.00000
     17      28.9789      0.00000
     18      29.4899      0.00000
     19      34.6013      0.00000
     20      34.8084      0.00000
     21      38.7330      0.00000
     22      38.9085      0.00000
     23      45.1377      0.00000
     24      46.2927      0.00000
     25      52.2786      0.00000
     26      54.1035      0.00000
     27      58.8478      0.00000
     28      59.7448      0.00000
     29      60.0309      0.00000
     30      60.5085      0.00000
     31      60.7980      0.00000
     32      61.4322      0.00000
     33      65.0526      0.00000
     34      65.5398      0.00000
     35      66.4379      0.00000
     36      67.1724      0.00000
     37      68.2450      0.00000
     38      68.2894      0.00000
     39      71.3770      0.00000
     40      71.5282      0.00000

 k-point    92 :       0.1818    0.1818    0.4545
  band No.  band energies     occupation 
      1       2.9064      2.00000
      2       3.1671      2.00000
      3       4.8970      2.00000
      4       4.9494      2.00000
      5       5.4532      2.00000
      6       5.5097      2.00000
      7       7.1964      2.00000
      8       7.4703      2.00064
      9       8.8620     -0.00000
     10       9.0003     -0.00000
     11       9.5549     -0.00000
     12      10.1566     -0.00000
     13      24.9340      0.00000
     14      25.1320      0.00000
     15      25.5380      0.00000
     16      26.6652      0.00000
     17      27.1576      0.00000
     18      28.4872      0.00000
     19      38.9443      0.00000
     20      40.0562      0.00000
     21      40.7889      0.00000
     22      41.9657      0.00000
     23      43.8813      0.00000
     24      44.0139      0.00000
     25      50.5263      0.00000
     26      51.0222      0.00000
     27      54.6758      0.00000
     28      55.3258      0.00000
     29      57.3184      0.00000
     30      58.6189      0.00000
     31      59.9503      0.00000
     32      60.4133      0.00000
     33      61.7339      0.00000
     34      61.8167      0.00000
     35      63.7625      0.00000
     36      63.8817      0.00000
     37      67.0072      0.00000
     38      68.8816      0.00000
     39      69.2006      0.00000
     40      69.6720      0.00000

 k-point    93 :       0.2727    0.1818    0.4545
  band No.  band energies     occupation 
      1       3.2147      2.00000
      2       3.3276      2.00000
      3       4.6661      2.00000
      4       4.8928      2.00000
      5       5.7971      2.00000
      6       5.9773      2.00000
      7       7.1176      2.00000
      8       7.3834      2.00006
      9       8.9772     -0.00000
     10       9.2613     -0.00000
     11      11.1829     -0.00000
     12      11.7525     -0.00000
     13      21.6707      0.00000
     14      22.2677      0.00000
     15      24.5383      0.00000
     16      25.3125      0.00000
     17      27.6988      0.00000
     18      29.5161      0.00000
     19      36.7909      0.00000
     20      38.3556      0.00000
     21      39.6779      0.00000
     22      41.1992      0.00000
     23      44.4748      0.00000
     24      44.9957      0.00000
     25      51.9271      0.00000
     26      52.4578      0.00000
     27      55.8756      0.00000
     28      57.6389      0.00000
     29      59.5158      0.00000
     30      61.1477      0.00000
     31      61.7183      0.00000
     32      62.0040      0.00000
     33      63.0365      0.00000
     34      63.1227      0.00000
     35      64.1898      0.00000
     36      64.6493      0.00000
     37      67.1564      0.00000
     38      68.9545      0.00000
     39      69.9340      0.00000
     40      70.3831      0.00000

 k-point    94 :       0.3636    0.1818    0.4545
  band No.  band energies     occupation 
      1       3.2208      2.00000
      2       3.3930      2.00000
      3       4.5323      2.00000
      4       4.7525      2.00000
      5       5.9208      2.00000
      6       6.2942      2.00000
      7       7.4968      2.00124
      8       7.6300      2.01762
      9       8.9409     -0.00000
     10       9.1333     -0.00000
     11      12.9905     -0.00000
     12      13.4564     -0.00000
     13      19.0273      0.00000
     14      19.4125      0.00000
     15      23.8863      0.00000
     16      24.6661      0.00000
     17      29.3113      0.00000
     18      30.4876      0.00000
     19      35.2579      0.00000
     20      36.3617      0.00000
     21      38.5792      0.00000
     22      40.1702      0.00000
     23      45.3133      0.00000
     24      45.7287      0.00000
     25      55.1742      0.00000
     26      55.7517      0.00000
     27      56.3538      0.00000
     28      57.9967      0.00000
     29      59.6541      0.00000
     30      60.1584      0.00000
     31      60.8732      0.00000
     32      61.8977      0.00000
     33      64.0484      0.00000
     34      64.0832      0.00000
     35      66.1303      0.00000
     36      66.6536      0.00000
     37      68.2085      0.00000
     38      68.5287      0.00000
     39      69.3873      0.00000
     40      70.3611      0.00000

 k-point    95 :       0.2727    0.2727    0.4545
  band No.  band energies     occupation 
      1       3.6539      2.00000
      2       3.7245      2.00000
      3       4.7661      2.00000
      4       5.0088      2.00000
      5       5.4529      2.00000
      6       5.6950      2.00000
      7       7.0255      2.00000
      8       7.2513      2.00000
      9       8.9572     -0.00000
     10       9.1650     -0.00000
     11      13.4712     -0.00000
     12      14.0258      0.00000
     13      20.0211      0.00000
     14      20.4869      0.00000
     15      22.0702      0.00000
     16      22.5039      0.00000
     17      29.5126      0.00000
     18      31.2116      0.00000
     19      35.2620      0.00000
     20      36.7535      0.00000
     21      38.3660      0.00000
     22      39.5745      0.00000
     23      47.3935      0.00000
     24      47.8277      0.00000
     25      52.2029      0.00000
     26      52.2877      0.00000
     27      58.8173      0.00000
     28      59.3912      0.00000
     29      59.8246      0.00000
     30      60.6564      0.00000
     31      62.2053      0.00000
     32      62.2375      0.00000
     33      62.2877      0.00000
     34      62.5202      0.00000
     35      65.8953      0.00000
     36      66.0736      0.00000
     37      67.7390      0.00000
     38      68.1127      0.00000
     39      68.6030      0.00000
     40      69.3134      0.00000

 k-point    96 :       0.3636    0.2727    0.4545
  band No.  band energies     occupation 
      1       3.8766      2.00000
      2       4.0260      2.00000
      3       4.6703      2.00000
      4       4.7575      2.00000
      5       5.4833      2.00000
      6       5.6192      2.00000
      7       7.0972      2.00000
      8       7.2674      2.00000
      9       8.9274     -0.00000
     10       9.0043     -0.00000
     11      15.3783      0.00000
     12      15.5272      0.00000
     13      18.2984      0.00000
     14      18.6732      0.00000
     15      21.4189      0.00000
     16      21.8654      0.00000
     17      31.2071      0.00000
     18      32.1107      0.00000
     19      34.4115      0.00000
     20      34.6357      0.00000
     21      38.1340      0.00000
     22      39.0052      0.00000
     23      48.7056      0.00000
     24      49.3733      0.00000
     25      53.4736      0.00000
     26      53.8912      0.00000
     27      56.7082      0.00000
     28      57.0535      0.00000
     29      60.1144      0.00000
     30      61.1542      0.00000
     31      62.1038      0.00000
     32      62.4148      0.00000
     33      63.5768      0.00000
     34      63.6181      0.00000
     35      64.1157      0.00000
     36      65.6506      0.00000
     37      67.3652      0.00000
     38      69.0228      0.00000
     39      70.5416      0.00000
     40      70.8433      0.00000


--------------------------------------------------------------------------------------------------------


 soft charge-density along one line, spin component           1
         0         1         2         3         4         5         6         7         8         9
x     7.7907    0.0000    0.0793   -0.1374   -0.0543   -0.0941    0.0210    0.0000    0.0012   -0.0021
x     0.0000    0.0000
y     7.7907    0.0000    0.0793    0.1374   -0.0543    0.0941    0.0210   -0.0000    0.0012    0.0021
y     0.0000    0.0000
z     7.7907    0.0000    0.0000   -0.0000    0.3649    0.0000    0.0000   -0.0000   -0.1486   -0.0000
z     0.0000    0.0000    0.0222   -0.0000    0.0000    0.0000    0.0000    0.0000
 total charge-density along one line
x    16.0000    0.0000    1.4339   -2.4836    0.2732    0.4733    0.0137    0.0000    0.0017   -0.0030
x    -0.0002   -0.0004    0.0003   -0.0000   -0.0001    0.0001    0.0000    0.0000   -0.0001    0.0000
x     0.0000    0.0000
y    16.0000    0.0000    1.4339    2.4836    0.2732   -0.4733    0.0137   -0.0000    0.0017    0.0030
y    -0.0002    0.0004    0.0003    0.0000   -0.0001   -0.0001    0.0000   -0.0000   -0.0001   -0.0000
y     0.0000   -0.0000
z    16.0000    0.0000    0.0000   -0.0000    5.8126    0.0000    0.0000   -0.0000    1.1912   -0.0000
z     0.0000    0.0000    0.0221   -0.0000    0.0000    0.0000    0.0023   -0.0000    0.0000    0.0000
z    -0.0005    0.0000    0.0000    0.0000    0.0002   -0.0000    0.0000    0.0000   -0.0001    0.0000
z    -0.0000    0.0000    0.0001    0.0000
 
 pseudopotential strength for first ion, spin component:           1
 -3.779   0.000  -0.000   0.000  -0.000  -4.361   0.000  -0.000
  0.000  -3.767   0.000  -0.000  -0.000   0.000  -4.350   0.000
 -0.000   0.000  -3.777   0.000  -0.000  -0.000   0.000  -4.359
  0.000  -0.000   0.000  -3.767   0.000   0.000  -0.000   0.000
 -0.000  -0.000  -0.000   0.000  -3.779  -0.000  -0.000  -0.000
 -4.361   0.000  -0.000   0.000  -0.000  -4.900   0.000  -0.000
  0.000  -4.350   0.000  -0.000  -0.000   0.000  -4.889   0.000
 -0.000   0.000  -4.359   0.000  -0.000  -0.000   0.000  -4.898
  0.000  -0.000   0.000  -4.350   0.000   0.000  -0.000   0.000
 -0.000  -0.000  -0.000   0.000  -4.361  -0.000  -0.000  -0.000
  0.000  -0.000   0.001  -0.000  -0.000   0.000  -0.000   0.000
  0.000  -0.000   0.001  -0.000  -0.000   0.000  -0.000   0.001
 -0.000   0.000   0.000   0.000  -0.001  -0.000   0.000   0.000
  0.000  -0.000   0.000  -0.000  -0.000   0.000  -0.000   0.000
 -0.001   0.000   0.000   0.000  -0.000  -0.001   0.000   0.000
 -0.000   0.000   0.000   0.000  -0.001  -0.000   0.000   0.000
  0.000  -0.000   0.000  -0.000  -0.000   0.000  -0.000   0.000
 -0.001   0.000   0.000   0.000  -0.000  -0.001   0.000   0.000
 total augmentation occupancy for first ion, spin component:           1
  1.787   0.000   0.000   0.000  -0.000  -1.314   0.000  -0.000   0.000  -0.000   0.000   0.000   0.000   0.000   0.039  -0.000
 -0.000   2.210  -0.000  -0.000  -0.000   0.000  -1.517   0.000   0.000   0.000   0.000   0.000   0.000   0.000   0.000  -0.000
  0.000   0.000   1.445  -0.000  -0.000  -0.000  -0.000  -1.034   0.000   0.000   0.024  -0.010   0.000   0.000  -0.000   0.000
  0.000  -0.000   0.000   2.210   0.000   0.000   0.000  -0.000  -1.517  -0.000   0.000   0.000   0.000   0.000   0.000   0.000
 -0.000   0.000  -0.000  -0.000   1.787   0.000   0.000   0.000  -0.000  -1.314   0.000   0.000   0.039   0.000  -0.000  -0.002
 -1.314   0.000  -0.000   0.000   0.000   2.219   0.000   0.000   0.000   0.000  -0.000   0.000  -0.000   0.000  -0.055   0.000
  0.000  -1.517   0.000   0.000   0.000   0.000   2.172  -0.000  -0.000   0.000   0.000   0.000  -0.000  -0.000   0.000   0.000
 -0.000   0.000  -1.034   0.000   0.000   0.000   0.000   1.986   0.000  -0.000  -0.089   0.006  -0.000   0.000  -0.000  -0.000
  0.000   0.000  -0.000  -1.517  -0.000   0.000  -0.000  -0.000   2.172   0.000  -0.000  -0.000   0.000   0.000  -0.000   0.000
  0.000   0.000   0.000  -0.000  -1.314   0.000   0.000  -0.000   0.000   2.219  -0.000   0.000  -0.055  -0.000   0.000   0.003
  0.000  -0.000   0.024   0.000   0.000  -0.000   0.000  -0.089  -0.000  -0.000   2.970  -0.353   0.000   0.000   0.000  -0.000
 -0.000   0.000  -0.010   0.000   0.000   0.000  -0.000   0.006  -0.000   0.000  -0.353   0.047   0.000   0.000   0.000   0.000
  0.000  -0.000  -0.000   0.000   0.039  -0.000   0.000   0.000  -0.000  -0.055   0.000  -0.000   0.404   0.000  -0.000  -0.032
  0.000   0.000   0.000   0.000   0.000   0.000   0.000   0.000   0.000   0.000   0.000   0.000  -0.000   0.386   0.000   0.000
  0.039   0.000  -0.000   0.000  -0.000  -0.055  -0.000  -0.000   0.000   0.000   0.000   0.000  -0.000   0.000   0.404   0.000
 -0.000   0.000   0.000   0.000  -0.002   0.000   0.000  -0.000   0.000   0.003  -0.000   0.000  -0.032   0.000   0.000   0.003
  0.000  -0.000   0.000  -0.000   0.000   0.000   0.000   0.000  -0.000  -0.000   0.000   0.000   0.000  -0.034   0.000  -0.000
 -0.002   0.000  -0.000   0.000   0.000   0.003   0.000   0.000   0.000  -0.000  -0.000  -0.000   0.000   0.000  -0.032  -0.000


------------------------ aborting loop because EDIFF is reached ----------------------------------------


    CHARGE:  cpu time    0.0175: real time    0.0175
    FORLOC:  cpu time    0.0002: real time    0.0002
    FORNL :  cpu time    0.0896: real time    0.0897
    STRESS:  cpu time    0.1387: real time    0.1387
    FORCOR:  cpu time    0.0030: real time    0.0030
    FORHAR:  cpu time    0.0007: real time    0.0007
    MIXING:  cpu time    0.0003: real time    0.0003

  FORCE on cell =-STRESS in cart. coord.  units (eV):
  Direction    XX          YY          ZZ          XY          YZ          ZX
  --------------------------------------------------------------------------------------
  Alpha Z   149.29921   149.29921   149.29921
  Ewald    -409.71349  -409.71349  -447.40140     0.00000     0.00000     0.00000
  Hartree    57.65345    57.65346    44.28549    -0.00000    -0.00000    -0.00000
  E(xc)     -79.63835   -79.63835   -79.40086     0.00015    -0.00000     0.00000
  Local     110.18173   110.18192   158.65837    -0.00072     0.00000    -0.00000
  n-local   -50.42243   -49.91877   -52.40072    -4.56617     1.48477     1.01701
  augment    75.22441    75.22409    75.56515     0.00086     0.00000    -0.00000
  Kinetic   156.49111   150.18819   150.97484     1.26752    -1.00471     0.13145
  Fock        0.00000     0.00000     0.00000     0.00000     0.00000     0.00000
  -------------------------------------------------------------------------------------
  Total       6.17595     6.17595    -0.41993    -0.00000    -0.00000     0.00000
  in kB     534.37671   534.37671   -36.33499    -0.00000    -0.00000     0.00000
  external pressure =      344.14 kB  Pullay stress =        0.00 kB


 VOLUME and BASIS-vectors are now :
 -----------------------------------------------------------------------------
  energy-cutoff  :      280.00
  volume of cell :       18.52
      direct lattice vectors                 reciprocal lattice vectors
     2.306700000  0.000000000  0.000000000     0.433519747  0.250292743  0.000000000
    -1.153350000  1.997660799  0.000000000     0.000000000  0.500585485  0.000000000
     0.000000000  0.000000000  4.018410000     0.000000000  0.000000000  0.248854646

  length of vectors
     2.306700000  2.306700000  4.018410000     0.500585485  0.500585485  0.248854646


 FORCES acting on ions
    electron-ion (+dipol)            ewald-force                    non-local-force                 convergence-correction
 -----------------------------------------------------------------------------------------------
   0.104E-06 -.700E-06 0.370E-14   0.627E-12 -.355E-12 -.247E-13   0.276E-16 -.137E-16 -.121E-18   -.280E-08 0.161E-08 -.165E-13
   -.550E-05 0.464E-05 0.725E-13   -.628E-12 0.363E-12 0.247E-13   -.278E-16 0.136E-16 -.203E-18   0.282E-08 -.162E-08 0.363E-13
 -----------------------------------------------------------------------------------------------
   -.540E-05 0.394E-05 0.762E-13   -.911E-15 0.760E-14 -.141E-16   -.139E-18 -.143E-18 -.324E-18   0.224E-10 -.129E-10 0.198E-13
 
 
 POSITION                                       TOTAL-FORCE (eV/Angst)
 -----------------------------------------------------------------------------------
      0.00000      0.00000      0.00000         0.000000      0.000000      0.000000
      0.00000      1.33177      2.00920        -0.000000     -0.000000     -0.000000
 -----------------------------------------------------------------------------------
    total drift:                               -0.000005      0.000004      0.000000


--------------------------------------------------------------------------------------------------------



  FREE ENERGIE OF THE ION-ELECTRON SYSTEM (eV)
  ---------------------------------------------------
  free  energy   TOTEN  =       -15.93763729 eV

  energy  without entropy=      -15.93879095  energy(sigma->0) =      -15.93802185
 


--------------------------------------------------------------------------------------------------------


    POTLOK:  cpu time    0.0053: real time    0.0053


--------------------------------------------------------------------------------------------------------


 writing wavefunctions
     LOOP+:  cpu time    9.5961: real time    9.6169
    4ORBIT:  cpu time    0.0000: real time    0.0000

 total amount of memory used by VASP MPI-rank0    48699. kBytes
=======================================================================

   base      :      30000. kBytes
   nonl-proj :       2895. kBytes
   grid      :        721. kBytes
   one-center:         31. kBytes
   wavefun   :      15052. kBytes
 
  
  
 General timing and accounting informations for this job:
 ========================================================
  
                  Total CPU time used (sec):        9.763
                            User time (sec):        9.699
                          System time (sec):        0.064
                         Elapsed time (sec):        9.772
  
                   Maximum memory used (kb):       52348.
                   Average memory used (kb):          N/A
  
                          Minor page faults:         6937
                          Major page faults:            0
                 Voluntary context switches:           26
