 vasp.6.2.0 18Jan21 (build Mar 17 2021 09:06:54) complex                        
  
 POSCAR found type information on POSCAR Cu
 POSCAR found :  1 types and       4 ions
 LDA part: xc-table for Pade appr. of Perdew
 POSCAR, INCAR and KPOINTS ok, starting setup
 FFT: planning ...
 WAVECAR not read
 WARNING: chargedensity file is incomplete
 entering main loop
       N       E                     dE             d eps       ncg     rms          rms(c)
DAV:   1     0.288391718019E+03    0.28839E+03   -0.14547E+04  2188   0.175E+03
DAV:   2     0.410208874242E+01   -0.28429E+03   -0.27434E+03  2100   0.332E+02
DAV:   3    -0.174110595390E+02   -0.21513E+02   -0.20275E+02  2346   0.135E+02
DAV:   4    -0.178286830823E+02   -0.41762E+00   -0.41717E+00  2372   0.249E+01
DAV:   5    -0.178329605751E+02   -0.42775E-02   -0.42774E-02  2862   0.222E+00    0.146E+01
DAV:   6    -0.164208991146E+02    0.14121E+01   -0.32128E+01  2286   0.111E+02    0.917E+00
DAV:   7    -0.146163015625E+02    0.18046E+01   -0.67071E+00  2372   0.489E+01    0.759E-01
DAV:   8    -0.146056014589E+02    0.10700E-01   -0.12490E-01  2800   0.461E+00    0.914E-01
DAV:   9    -0.145912094026E+02    0.14392E-01   -0.43280E-02  2414   0.399E+00    0.585E-02
DAV:  10    -0.145912986219E+02   -0.89219E-04   -0.10902E-03  2688   0.424E-01    0.123E-02
DAV:  11    -0.145912981713E+02    0.45058E-06   -0.27063E-05  2400   0.541E-02    0.645E-03
DAV:  12    -0.145913006378E+02   -0.24665E-05   -0.65620E-07  1414   0.111E-02    0.763E-04
DAV:  13    -0.145913010216E+02   -0.38381E-06   -0.26400E-07  1308   0.495E-03
   1 F= -.14591301E+02 E0= -.14592356E+02  d E =0.316391E-02
 writing wavefunctions
