unknown system                          
   1.00000000000000     
     2.330000    0.000000    0.000000
    -1.165000    2.017839    0.000000
     0.000000    0.000000    4.100000
   Fe
     2
Direct
  0.000000  0.000000  0.000000
  0.333333  0.666667  0.500000
 
   20   20   36
  160.65      152.09      129.02      98.002      66.584      40.603      22.890      13.333      9.6827      8.7025    
  8.4009      8.7026      9.6827      13.333      22.890      40.604      66.585      98.003      129.02      152.09    
  152.09      152.09      136.31      109.45      78.631      50.561      29.486      16.652      10.772      8.9901    
  8.4165      8.4154      8.9884      10.771      16.653      29.484      50.558      78.631      109.45      136.32    
  129.03      136.29      129.03      109.45      83.103      56.452      34.541      19.823      12.119      9.3140    
  8.4779      8.1940      8.4752      9.3122      12.120      19.823      34.538      56.446      83.101      109.45    
  97.997      109.37      109.37      98.005      78.628      56.449      36.436      21.764      13.254      9.6726    
  8.5598      8.0557      8.0546      8.5580      9.6729      13.257      21.767      36.435      56.442      78.618    
  66.569      78.516      82.952      78.525      66.579      50.554      34.539      21.765      13.700      9.9208    
  8.6290      7.9890      7.7678      7.9890      8.6290      9.9222      13.705      21.772      34.543      50.551    
  40.602      50.464      56.286      56.287      50.464      40.596      29.483      19.825      13.257      9.9217    
  8.6562      7.9666      7.6116      7.6126      7.9677      8.6551      9.9202      13.260      19.835      29.494    
  22.902      29.450      34.442      36.306      34.434      29.437      22.889      16.656      12.123      9.6745    
  8.6294      7.9668      7.5634      7.4334      7.5656      7.9667      8.6240      9.6667      12.120      16.661    
  13.333      16.659      19.810      21.726      21.721      19.801      16.654      13.337      10.776      9.3154    
  8.5596      7.9890      7.6116      7.4329      7.4345      7.6144      7.9889      8.5529      9.3031      10.764    
  9.6710      10.784      12.149      13.289      13.733      13.289      12.154      10.796      9.6853      8.9896    
  8.4758      8.0546      7.7677      7.6117      7.5640      7.6135      7.7722      8.0597      8.4758      8.9809    
  8.7023      9.0061      9.3519      9.7328      9.9953      9.9984      9.7414      9.3629      9.0133      8.7000    
  8.4123      8.1914      8.0543      7.9888      7.9661      7.9650      7.9886      8.0605      8.2037      8.4233    
  8.4120      8.4486      8.5284      8.6306      8.7192      8.7567      8.7245      8.6354      8.5258      8.4367    
  8.3959      8.4120      8.4752      8.5594      8.6294      8.6543      8.6240      8.5546      8.4779      8.4241    
  8.7023      8.4479      8.2560      8.1429      8.0980      8.0904      8.0913      8.0975      8.1362      8.2435    
  8.4370      8.7001      8.9893      9.3156      9.6758      9.9233      9.9205      9.6677      9.3050      8.9823    
  9.6710      9.0049      8.5267      8.1420      7.8870      7.7537      7.7138      7.7517      7.8821      8.1364    
  8.5263      9.0137      9.6854      10.776      12.124      13.259      13.704      13.260      12.120      10.764    
  13.333      10.784      9.3502      8.6287      8.0976      7.7545      7.5939      7.5923      7.7516      8.0978    
  8.6354      9.3626      10.796      13.338      16.655      19.823      21.765      21.769      19.832      16.660    
  22.901      16.660      12.149      9.7317      8.7188      8.0920      7.7156      7.5928      7.7132      8.0920    
  8.7245      9.7400      12.153      16.655      22.889      29.480      34.534      36.432      34.541      29.492    
  40.601      29.451      19.812      13.291      9.9952      8.7573      8.0929      7.7526      7.7517      8.0921    
  8.7587      9.9967      13.287      19.803      29.440      40.596      50.552      56.446      56.445      50.552    
  66.568      50.463      34.443      21.729      13.734      9.9971      8.7238      8.0977      7.8825      8.0983    
  8.7242      9.9956      13.729      21.721      34.439      50.466      66.579      78.633      83.108      78.624    
  97.997      78.511      56.284      36.309      21.724      13.287      9.7378      8.6337      8.1368      8.1380    
  8.6357      9.7376      13.284      21.721      36.310      56.290      78.520      98.005      109.46      109.46    
  129.03      109.36      82.946      56.288      34.438      19.801      12.149      9.3594      8.5262      8.2464    
  8.5284      9.3608      12.148      19.801      34.442      56.293      82.947      109.36      129.03      136.33    
  152.09      136.28      109.37      78.523      50.470      29.441      16.652      10.791      9.0124      8.4401    
  8.4411      9.0140      10.792      16.652      29.444      50.474      78.524      109.36      136.27      152.09    
  152.74      144.69      122.94      93.568      63.681      38.883      21.984      12.931      9.5267      8.5911    
  8.2941      8.5913      9.5268      12.931      21.984      38.883      63.681      93.568      122.94      144.69    
  144.69      144.69      129.82      104.41      75.147      48.380      28.256      16.050      10.525      8.8674    
  8.3021      8.3010      8.8656      10.525      16.050      28.254      48.377      75.146      104.42      129.83    
  122.95      129.80      122.94      104.41      79.398      53.996      33.070      19.044      11.770      9.1640    
  8.3565      8.0785      8.3537      9.1620      11.771      19.044      33.067      53.990      79.395      104.42    
  93.563      104.36      104.36      93.571      75.143      53.992      34.875      20.882      12.827      9.4873    
  8.4328      7.9397      7.9385      8.4308      9.4876      12.830      20.885      34.874      53.986      75.134    
  63.666      75.058      79.283      75.066      63.675      48.372      33.067      20.882      13.243      9.7121    
  8.4983      7.8724      7.6578      7.8724      8.4982      9.7134      13.247      20.889      33.071      48.370    
  38.881      48.313      53.879      53.879      48.312      38.875      28.252      19.046      12.830      9.7132    
  8.5244      7.8496      7.5056      7.5066      7.8507      8.5232      9.7116      12.833      19.055      28.263    
  21.994      28.248      33.022      34.806      33.014      28.235      21.982      16.053      11.775      9.4900    
  8.4990      7.8497      7.4586      7.3333      7.4609      7.8498      8.4936      9.4819      11.771      16.058    
  12.931      16.080      19.077      20.904      20.900      19.069      16.076      12.936      10.530      9.1660    
  8.4328      7.8723      7.5053      7.3326      7.3343      7.5083      7.8722      8.4261      9.1535      10.517    
  9.5158      10.557      11.839      12.915      13.335      12.916      11.845      10.569      9.5300      8.8671    
  8.3542      7.9382      7.6572      7.5054      7.4592      7.5074      7.6618      7.9433      8.3543      8.8585    
  8.5909      8.9005      9.2352      9.5940      9.8403      9.8435      9.6028      9.2462      8.9073      8.5883    
  8.2972      8.0752      7.9378      7.8721      7.8492      7.8481      7.8721      7.9442      8.0875      8.3084    
  8.3045      8.3490      8.4364      8.5448      8.6375      8.6763      8.6427      8.5495      8.4336      8.3368    
  8.2881      8.2969      8.3536      8.4326      8.4990      8.5226      8.4936      8.4279      8.3565      8.3092    
  8.5909      8.3482      8.1680      8.0648      8.0266      8.0223      8.0231      8.0261      8.0581      8.1556    
  8.3372      8.5884      8.8668      9.1662      9.4912      9.7148      9.7118      9.4828      9.1556      8.8601    
  9.5157      8.8991      8.4345      8.0638      7.8205      7.6946      7.6570      7.6925      7.8157      8.0584    
  8.4342      8.9077      9.5300      10.530      11.776      12.831      13.247      12.831      11.771      10.518    
  12.931      10.557      9.2334      8.5428      8.0263      7.6954      7.5414      7.5397      7.6924      8.0263    
  8.5495      9.2459      10.569      12.936      16.052      19.044      20.882      20.886      19.052      16.057    
  21.994      16.081      11.840      9.5929      8.6371      8.0239      7.6590      7.5404      7.6565      8.0238    
  8.6427      9.6015      11.844      16.076      21.982      28.249      33.062      34.871      33.070      28.262    
  38.881      28.249      19.080      12.917      9.8403      8.6769      8.0248      7.6937      7.6927      8.0238    
  8.6782      9.8420      12.914      19.070      28.238      38.874      48.370      53.989      53.989      48.371    
  63.666      48.312      33.024      20.907      13.336      9.8421      8.6417      8.0263      7.8164      8.0269    
  8.6421      9.8407      13.331      20.900      33.019      48.314      63.675      75.148      79.403      75.140    
  93.563      75.052      53.876      34.810      20.903      12.914      9.5987      8.5475      8.0590      8.0602    
  8.5496      9.5985      12.911      20.899      34.810      53.882      75.061      93.571      104.43      104.43    
  122.95      104.35      79.276      53.880      33.019      19.069      11.840      9.2420      8.4340      8.1590    
  8.4364      9.2435      11.839      19.068      33.022      53.886      79.279      104.35      122.94      129.83    
  144.69      129.79      104.35      75.064      48.319      28.240      16.073      10.564      8.9062      8.3409    
  8.3419      8.9079      10.564      16.073      28.242      48.322      75.065      104.34      129.79      144.69    
  131.07      124.36      106.11      81.181      55.497      34.026      19.460      11.848      9.1152      8.2828    
  8.0017      8.2831      9.1154      11.848      19.459      34.026      55.497      81.181      106.11      124.36    
  124.36      124.36      111.90      90.408      65.356      42.218      24.802      14.398      9.8720      8.5248    
  7.9865      7.9853      8.5227      9.8715      14.399      24.801      42.215      65.352      90.408      111.90    
  106.12      111.90      106.12      90.410      69.001      47.060      28.926      16.888      10.837      8.7600    
  8.0191      7.7597      8.0159      8.7577      10.838      16.890      28.924      47.054      68.994      90.407    
  81.177      90.396      90.399      81.185      65.351      47.056      30.475      18.430      11.672      8.9944    
  8.0770      7.6186      7.6172      8.0746      8.9944      11.676      18.434      30.476      47.051      65.342    
  55.485      65.340      68.985      65.345      55.490      42.208      28.922      18.431      12.005      9.1576    
  8.1303      7.5486      7.3531      7.5483      8.1300      9.1588      12.010      18.438      28.928      42.209    
  34.024      42.235      47.080      47.079      42.231      34.015      24.797      16.890      11.676      9.1594    
  8.1524      7.5236      7.2114      7.2124      7.5248      8.1512      9.1573      11.678      16.899      24.808    
  19.468      24.872      29.022      30.576      29.014      24.859      19.457      14.402      10.843      8.9987    
  8.1317      7.5236      7.1675      7.0552      7.1701      7.5240      8.1263      8.9899      10.838      14.405    
  11.848      14.495      17.051      18.621      18.618      17.044      14.492      11.855      9.8786      8.7635    
  8.0775      7.5479      7.2103      7.0542      7.0560      7.2136      7.5481      8.0708      8.7507      9.8655    
  9.1063      9.9615      11.017      11.913      12.265      11.914      11.023      9.9738      9.1199      8.5250    
  8.0163      7.6160      7.3514      7.2105      7.1681      7.2128      7.3563      7.6211      8.0165      8.5169    
  8.2828      8.6081      8.9287      9.2362      9.4419      9.4453      9.2451      8.9393      8.6140      8.2793    
  7.9800      7.7549      7.6157      7.5478      7.5233      7.5225      7.5483      7.6222      7.7672      7.9915    
  8.0103      8.0779      8.1868      8.3124      8.4159      8.4582      8.4209      8.3167      8.1837      8.0654    
  7.9936      7.9797      8.0157      8.0773      8.1317      8.1510      8.1266      8.0730      8.0191      7.9924    
  8.2826      8.0769      7.9326      7.8589      7.8407      7.8459      7.8467      7.8401      7.8524      7.9204    
  8.0657      8.2793      8.5247      8.7636      8.9996      9.1606      9.1573      8.9908      8.7531      8.5187    
  9.1061      8.6063      8.1846      7.8578      7.6500      7.5459      7.5156      7.5438      7.6453      7.8526    
  8.1842      8.6143      9.1200      9.8788      10.844      11.678      12.008      11.676      10.837      9.8662    
  11.848      9.9608      8.9266      8.3103      7.8403      7.5468      7.4124      7.4107      7.5436      7.8402    
  8.3168      8.9391      9.9737      11.855      14.402      16.889      18.430      18.434      16.896      14.404    
  19.468      14.496      11.017      9.2353      8.4155      7.8475      7.5177      7.4116      7.5150      7.8470    
  8.4209      9.2442      11.023      14.493      19.457      24.795      28.918      30.472      28.926      24.807    
  34.025      24.873      17.054      11.915      9.4421      8.4586      7.8483      7.5455      7.5445      7.8471    
  8.4597      9.4442      11.913      17.046      24.861      34.015      42.207      47.053      47.054      42.211    
  55.485      42.233      29.024      18.625      12.266      9.4435      8.4192      7.8405      7.6468      7.8409    
  8.4196      9.4422      12.262      18.618      29.018      42.233      55.490      65.355      69.004      65.350    
  81.177      65.332      47.076      30.580      18.622      11.912      9.2398      8.3141      7.8539      7.8553    
  8.3163      9.2398      11.909      18.618      30.579      47.081      65.341      81.185      90.421      90.418    
  106.12      90.385      68.975      47.079      29.020      17.045      11.017      8.9335      8.1841      7.9252    
  8.1868      8.9355      11.017      17.044      29.022      47.085      68.981      90.388      106.12      111.91    
  124.36      111.89      90.387      65.342      42.239      24.866      14.489      9.9668      8.6121      8.0709    
  8.0721      8.6143      9.9673      14.489      24.867      42.243      65.346      90.386      111.89      124.36    
  101.06      96.090      82.438      63.488      43.671      27.034      15.941      10.436      8.5739      7.8443    
  7.5939      7.8446      8.5742      10.436      15.941      27.033      43.671      63.488      82.438      96.090    
  96.094      96.095      86.781      70.513      51.257      33.312      19.902      12.171      9.0379      8.0247    
  7.5416      7.5404      8.0227      9.0375      12.172      19.901      33.309      51.251      70.508      86.779    
  82.444      86.804      82.448      70.515      54.054      37.031      23.001      13.923      9.6281      8.1998    
  7.5367      7.3101      7.5335      8.1974      9.6293      13.926      23.000      37.025      54.045      70.507    
  63.485      70.563      70.566      63.493      51.252      37.026      24.170      15.028      10.157      8.3413    
  7.5618      7.1629      7.1614      7.5592      8.3410      10.161      15.032      24.172      37.022      51.245    
  43.662      51.341      54.175      51.343      43.663      33.301      22.995      15.028      10.373      8.4322    
  7.5925      7.0855      6.9199      7.0851      7.5919      8.4330      10.377      15.035      23.002      33.304    
  27.033      33.444      37.237      37.235      33.437      27.021      19.895      13.925      10.162      8.4347    
  7.6067      7.0553      6.7912      6.7921      7.0564      7.6054      8.4321      10.162      13.932      19.906    
  15.947      20.078      23.293      24.503      23.285      20.066      15.938      12.175      9.6361      8.3471    
  7.5944      7.0551      6.7511      6.6571      6.7536      7.0558      7.5894      8.3380      9.6293      12.176    
  10.436      12.360      14.266      15.454      15.451      14.262      12.360      10.443      9.0462      8.2048    
  7.5628      7.0843      6.7893      6.6558      6.6576      6.7928      7.0848      7.5567      8.1926      9.0331    
  8.5675      9.2107      9.9684      10.615      10.872      10.618      9.9760      9.2229      8.5799      8.0255    
  7.5336      7.1593      6.9171      6.7896      6.7516      6.7921      6.9219      7.1642      7.5340      8.0185    
  7.8443      8.1841      8.5147      8.7841      8.9481      8.9515      8.7930      8.5244      8.1888      7.8401    
  7.5336      7.3038      7.1590      7.0843      7.0551      7.0547      7.0853      7.1654      7.3155      7.5448    
  7.6000      7.7019      7.8401      7.9871      8.1029      8.1490      8.1073      7.9907      7.8366      7.6897    
  7.5838      7.5333      7.5330      7.5626      7.5944      7.6058      7.5899      7.5591      7.5367      7.5457    
  7.8440      7.7008      7.6133      7.5840      7.5943      7.6128      7.6132      7.5934      7.5778      7.6019    
  7.6900      7.8402      8.0252      8.2048      8.3476      8.4354      8.4319      8.3388      8.1950      8.0203    
  8.5673      8.1821      7.8377      7.5829      7.4296      7.3578      7.3378      7.3555      7.4250      7.5780    
  7.8371      8.1890      8.5800      9.0465      9.6366      10.163      10.375      10.160      9.6286      9.0338    
  10.436      9.2099      8.5125      7.9849      7.5938      7.3586      7.2536      7.2519      7.3553      7.5934    
  7.9908      8.5244      9.2227      10.443      12.175      13.924      15.028      15.030      13.929      12.175    
  15.947      12.361      9.9690      8.7834      8.1023      7.6141      7.3400      7.2531      7.3373      7.6133    
  8.1073      8.7924      9.9755      12.360      15.938      19.894      22.992      24.167      23.001      19.906    
  27.033      20.079      14.269      10.618      8.9483      8.1488      7.6147      7.3579      7.3569      7.6134    
  8.1499      8.9509      10.617      14.262      20.067      27.021      33.300      37.024      37.027      33.307    
  43.662      33.441      23.295      15.458      10.874      8.9492      8.1049      7.5941      7.4275      7.5945    
  8.1054      8.9483      10.870      15.451      23.288      33.438      43.663      51.255      54.057      51.253    
  63.485      51.333      37.233      24.506      15.456      10.616      8.7865      7.9874      7.5801      7.5815    
  7.9898      8.7866      10.612      15.451      24.505      37.237      51.341      63.493      70.523      70.519    
  82.444      70.551      54.163      37.235      23.292      14.263      9.9690      8.5173      7.8372      7.6080    
  7.8401      8.5195      9.9679      14.261      23.293      37.241      54.172      70.558      82.448      86.790    
  96.094      86.793      70.551      51.340      33.445      20.074      12.357      9.2143      8.1862      7.6965    
  7.6978      8.1885      9.2148      12.356      20.074      33.449      51.345      70.556      86.795      96.095    
  69.576      66.295      57.189      44.359      30.828      19.584      12.405      9.1368      7.9811      7.3574    
  7.1516      7.3577      7.9814      9.1368      12.405      19.584      30.827      44.359      57.189      66.295    
  66.298      66.300      60.087      49.099      35.948      23.715      14.825      10.040      8.2484      7.4546    
  7.0547      7.0536      7.4528      8.2483      10.042      14.825      23.712      35.941      49.091      60.082    
  57.192      60.133      57.199      49.101      37.836      26.184      16.771      11.004      8.5129      7.5562    
  7.0014      6.8190      6.9985      7.5542      8.5144      11.007      16.771      26.178      37.825      49.090    
  44.357      49.211      49.214      44.364      35.943      26.179      17.513      11.631      8.7497      7.6384    
  6.9816      6.6612      6.6598      6.9792      7.6380      8.7529      11.636      17.515      26.177      35.937    
  30.822      36.130      38.090      36.130      30.819      23.703      16.765      11.631      8.8495      7.6848    
  6.9802      6.5707      6.4409      6.5702      6.9795      7.6851      8.8524      11.637      16.772      23.709    
  19.583      23.959      26.574      26.570      23.950      19.571      14.817      11.005      8.7548      7.6876    
  6.9828      6.5313      6.3231      6.3238      6.5322      6.9815      7.6846      8.7541      11.010      14.828    
  12.409      15.107      17.258      18.075      17.251      15.097      12.402      10.044      8.5212      7.6446    
  6.9823      6.5311      6.2857      6.2113      6.2880      6.5318      6.9781      7.6364      8.5144      10.044    
  9.1365      10.324      11.529      12.294      12.292      11.527      10.326      9.1442      8.2571      7.5618    
  6.9828      6.5692      6.3208      6.2100      6.2116      6.3240      6.5699      6.9779      7.5514      8.2455    
  7.9772      8.5105      9.0223      9.4353      9.5982      9.4391      9.0304      8.5216      7.9876      7.4557    
  6.9982      6.6571      6.4374      6.3211      6.2862      6.3235      6.4418      6.6614      6.9990      7.4504    
  7.3575      7.6986      8.0326      8.3016      8.4531      8.4563      8.3095      8.0409      7.7020      7.3534    
  7.0466      6.8122      6.6569      6.5692      6.5313      6.5311      6.5705      6.6625      6.8222      7.0563    
  7.1553      7.2937      7.4581      7.6203      7.7425      7.7897      7.7460      7.6229      7.4547      7.2830    
  7.1413      7.0464      6.9978      6.9826      6.9823      6.9824      6.9788      6.9800      7.0014      7.0572    
  7.3573      7.2927      7.2710      7.2886      7.3261      7.3558      7.3559      7.3248      7.2830      7.2613    
  7.2832      7.3534      7.4556      7.5617      7.6448      7.6878      7.6847      7.6370      7.5534      7.4519    
  7.9770      7.6969      7.4560      7.2875      7.1941      7.1552      7.1452      7.1529      7.1899      7.2832    
  7.4551      7.7023      7.9876      8.2574      8.5216      8.7552      8.8505      8.7513      8.5133      8.2459    
  9.1366      8.5100      8.0309      7.6183      7.3254      7.1557      7.0821      7.0805      7.1527      7.3248    
  7.6232      8.0410      8.5214      9.1442      10.045      11.005      11.631      11.632      11.007      10.043    
  12.409      10.326      9.0233      8.3011      7.7417      7.3565      7.1472      7.0818      7.1448      7.3557    
  7.7460      8.3093      9.0299      10.326      12.402      14.817      16.763      17.511      16.771      14.827    
  19.584      15.108      11.532      9.4380      8.4532      7.7889      7.3569      7.1555      7.1547      7.3560    
  7.7902      8.4561      9.4387      11.527      15.097      19.571      23.703      26.178      26.182      23.712    
  30.822      23.956      17.259      12.298      9.6002      8.4536      7.7431      7.3257      7.1932      7.3263    
  7.7439      8.4534      9.5973      12.292      17.252      23.951      30.820      35.945      37.838      35.946    
  44.357      36.122      26.569      18.079      12.297      9.4368      8.3027      7.6196      7.2860      7.2872    
  7.6219      8.3029      9.4337      12.292      18.076      26.571      36.128      44.364      49.106      49.103    
  57.192      49.198      38.078      26.570      17.258      11.529      9.0233      8.0336      7.4555      7.2679    
  7.4581      8.0354      9.0218      11.526      17.258      26.576      38.089      49.209      57.199      60.093    
  66.298      60.121      49.199      36.126      23.959      15.105      10.323      8.5127      7.6993      7.2901    
  7.2912      7.7012      8.5129      10.322      15.105      23.962      36.133      49.207      60.127      66.300    
  42.637      40.717      35.350      27.754      19.823      13.489      9.7692      8.1997      7.3817      6.8963    
  6.7417      6.8964      7.3817      8.1997      9.7693      13.489      19.823      27.754      35.350      40.717    
  40.718      40.720      37.047      30.517      22.731      15.675      10.866      8.5298      7.5348      6.9035    
  6.6014      6.6006      6.9022      7.5350      8.5316      10.867      15.673      22.724      30.508      37.040    
  35.352      37.108      35.359      30.519      23.810      17.012      11.794      8.8812      7.6526      6.9212    
  6.4975      6.3629      6.4955      6.9200      7.6542      8.8844      11.794      17.007      23.800      30.508    
  27.753      30.672      30.674      27.758      22.727      17.008      12.155      9.1210      7.7242      6.9391    
  6.4291      6.1918      6.1909      6.4273      6.9388      7.7266      9.1246      12.158      17.006      22.722    
  19.821      22.982      24.159      22.980      19.816      15.665      11.789      9.1212      7.7513      6.9506    
  6.3919      6.0844      5.9895      6.0840      6.3911      6.9503      7.7527      9.1253      11.795      15.672    
  13.489      16.000      17.532      17.528      15.991      13.478      10.859      8.8825      7.7285      6.9529    
  6.3811      6.0334      5.8776      5.8781      6.0340      6.3799      6.9502      7.7272      8.8859      10.868    
  9.7710      11.226      12.423      12.884      12.418      11.219      9.7661      8.5334      7.6596      6.9444    
  6.3937      6.0331      5.8413      5.7835      5.8430      6.0337      6.3906      6.9383      7.6542      8.5326    
  8.1994      8.8890      9.5471      9.9641      9.9636      9.5470      8.8917      8.2059      7.5422      6.9261    
  6.4301      6.0830      5.8756      5.7824      5.7836      5.8780      6.0838      6.4268      6.9188      7.5336    
  7.3796      7.8729      8.3027      8.5961      8.7035      8.6000      8.3099      7.8818      7.3872      6.9046    
  6.4950      6.1883      5.9864      5.8758      5.8416      5.8777      5.9897      6.1916      6.4958      6.9010    
  6.8962      7.2229      7.5402      7.7951      7.9387      7.9412      7.8012      7.5464      7.2253      6.8930    
  6.5948      6.3572      6.1881      6.0831      6.0334      6.0335      6.0843      6.1924      6.3645      6.6020    
  6.7434      6.9127      7.0942      7.2613      7.3815      7.4265      7.3837      7.2627      7.0914      6.9048    
  6.7332      6.5946      6.4946      6.4299      6.3937      6.3810      6.3914      6.4284      6.4975      6.6026    
  6.8962      6.9121      6.9527      7.0103      7.0677      7.1040      7.1039      7.0662      7.0057      6.9454    
  6.9050      6.8930      6.9045      6.9260      6.9444      6.9529      6.9505      6.9385      6.9200      6.9022    
  7.3796      7.2219      7.0927      7.0094      6.9697      6.9576      6.9554      6.9556      6.9662      7.0059    
  7.0917      7.2254      7.3872      7.5424      7.6600      7.7286      7.7515      7.7249      7.6529      7.5336    
  8.1994      7.8730      7.5392      7.2597      7.0669      6.9578      6.9112      6.9100      6.9554      7.0661    
  7.2630      7.5465      7.8816      8.2059      8.5338      8.8826      9.1209      9.1214      8.8828      8.5312    
  9.7710      8.8904      8.3040      7.7949      7.3805      7.1041      6.9568      6.9112      6.9551      7.1036    
  7.3837      7.8013      8.3096      8.8912      9.7661      10.859      11.788      12.155      11.794      10.867    
  13.489      11.227      9.5501      8.5986      7.9384      7.4253      7.1044      6.9580      6.9575      7.1040    
  7.4266      7.9413      8.5999      9.5469      11.219      13.478      15.665      17.007      17.010      15.674    
  19.820      15.998      12.424      9.9683      8.7050      7.9385      7.3810      7.0671      6.9695      7.0678    
  7.3820      7.9388      8.7033      9.9638      12.418      15.991      19.816      22.727      23.811      22.729    
  27.753      22.975      17.528      12.888      9.9676      8.5980      7.7953      7.2601      7.0087      7.0097    
  7.2619      7.7956      8.5954      9.9636      12.885      17.529      22.979      27.758      30.521      30.518    
  35.352      30.662      24.149      17.528      12.424      9.5487      8.3040      7.5403      7.0924      6.9512    
  7.0942      7.5414      8.3023      9.5456      12.423      17.533      24.158      30.672      35.359      37.050    
  40.718      37.099      30.662      22.977      15.999      11.226      8.8894      7.8744      7.2231      6.9108    
  6.9116      7.2242      7.8741      8.8876      11.225      16.002      22.984      30.670      37.106      40.720    
  23.705      22.735      20.037      16.284      12.537      9.7859      8.3109      7.4687      6.8586      6.5152    
  6.4084      6.5151      6.8584      7.4687      8.3112      9.7863      12.537      16.285      20.037      22.735    
  22.735      22.738      20.871      17.590      13.802      10.590      8.6122      7.6078      6.8965      6.4405    
  6.2308      6.2303      6.4398      6.8969      7.6095      8.6135      10.589      13.798      17.583      20.865    
  20.037      20.937      20.043      17.591      14.282      11.106      8.8779      7.6931      6.9238      6.3812    