unknown system                          
   1.00000000000000     
     2.330000    0.000000    0.000000
    -1.165000    2.017839    0.000000
     0.000000    0.000000    4.100000
   Fe
     2
Direct
  0.000000  0.000000  0.000000
  0.333333  0.666667  0.500000
 
   20   20   36
 0.16064623356E+03 0.15208582282E+03 0.12901978641E+03 0.98002253817E+02 0.66584285668E+02
 0.40603283748E+02 0.22890338147E+02 0.13333016001E+02 0.96826512036E+01 0.87025458731E+01
 0.84009107810E+01 0.87026432478E+01 0.96827204526E+01 0.13333016292E+02 0.22890411877E+02
 0.40603569306E+02 0.66584688133E+02 0.98002509458E+02 0.12901976916E+03 0.15208569581E+03
 0.15209321976E+03 0.15208869080E+03 0.13631205677E+03 0.10944561199E+03 0.78631156098E+02
 0.50561251674E+02 0.29485909693E+02 0.16652417333E+02 0.10771740276E+02 0.89901345758E+01
 0.84165256732E+01 0.84154369600E+01 0.89883853870E+01 0.10771424232E+02 0.16652689841E+02
 0.29484210454E+02 0.50558045535E+02 0.78631045781E+02 0.10945194733E+03 0.13632145257E+03
 0.12903089306E+03 0.13628996990E+03 0.12902628048E+03 0.10944691043E+03 0.83103454224E+02
 0.56452035749E+02 0.34541238472E+02 0.19822827991E+02 0.12118973752E+02 0.93140151561E+01
 0.84779051092E+01 0.81940371850E+01 0.84752159161E+01 0.93122482604E+01 0.12119851266E+02
 0.19823295557E+02 0.34537762493E+02 0.56446279440E+02 0.83101024120E+02 0.10945019523E+03
 0.97997366210E+02 0.10937166927E+03 0.10937457061E+03 0.98004999853E+02 0.78627665347E+02
 0.56449030764E+02 0.36436442744E+02 0.21764283478E+02 0.13254398252E+02 0.96725548156E+01
 0.85597921799E+01 0.80557245535E+01 0.80545805604E+01 0.85579729032E+01 0.96728821396E+01
 0.13257255677E+02 0.21766631779E+02 0.36434606563E+02 0.56442146639E+02 0.78618378586E+02
 0.66568582960E+02 0.78516144517E+02 0.82952472293E+02 0.78525068253E+02 0.66578708870E+02
 0.50554034124E+02 0.34538588780E+02 0.21764934397E+02 0.13699995310E+02 0.99207631508E+01
 0.86289674089E+01 0.79889946963E+01 0.77678440869E+01 0.79889871663E+01 0.86290231419E+01
 0.99221850502E+01 0.13704576347E+02 0.21771775026E+02 0.34542743773E+02 0.50550521588E+02
 0.40601604787E+02 0.50464236978E+02 0.56285660631E+02 0.56286731637E+02 0.50464364881E+02
 0.40595923867E+02 0.29482812056E+02 0.19824848956E+02 0.13257052679E+02 0.99216589853E+01
 0.86562448987E+01 0.79666057460E+01 0.76115853132E+01 0.76125739555E+01 0.79676875269E+01
 0.86550559788E+01 0.99202205310E+01 0.13260434406E+02 0.19834536125E+02 0.29493698920E+02
 0.22901535771E+02 0.29450029068E+02 0.34441712737E+02 0.36306272011E+02 0.34433972388E+02
 0.29437341890E+02 0.22889487248E+02 0.16655840840E+02 0.12123166411E+02 0.96745154385E+01
 0.86294447207E+01 0.79667729263E+01 0.75633768854E+01 0.74333850143E+01 0.75655973457E+01
 0.79667184706E+01 0.86240418625E+01 0.96667434293E+01 0.12119851266E+02 0.16661209251E+02
 0.13332908071E+02 0.16659168075E+02 0.19810019310E+02 0.21725713231E+02 0.21721242845E+02
 0.19800855031E+02 0.16654125590E+02 0.13337484589E+02 0.10775828830E+02 0.93154075164E+01
 0.85595858157E+01 0.79890195962E+01 0.76115810434E+01 0.74329313472E+01 0.74344886980E+01
 0.76144302541E+01 0.79888789456E+01 0.85529378765E+01 0.93030804330E+01 0.10763792064E+02
 0.96709840866E+01 0.10784000382E+02 0.12149058115E+02 0.13289400086E+02 0.13733001953E+02
 0.13289319712E+02 0.12153740197E+02 0.10795904551E+02 0.96853227015E+01 0.89896275516E+01
 0.84757729225E+01 0.80546448083E+01 0.77677076176E+01 0.76116892641E+01 0.75639893574E+01
 0.76135498325E+01 0.77722128943E+01 0.80597238077E+01 0.84758283880E+01 0.89808614401E+01
 0.87022936824E+01 0.90060996502E+01 0.93518531407E+01 0.97327516796E+01 0.99952803605E+01
 0.99983840042E+01 0.97414116402E+01 0.93629221051E+01 0.90133033013E+01 0.87000375767E+01
 0.84123347566E+01 0.81914143155E+01 0.80542952428E+01 0.79887782514E+01 0.79661270288E+01
 0.79649907922E+01 0.79886451308E+01 0.80605182354E+01 0.82036627986E+01 0.84233104725E+01
 0.84120346752E+01 0.84485719201E+01 0.85284232603E+01 0.86306105889E+01 0.87192122144E+01
 0.87566767479E+01 0.87245306114E+01 0.86353726503E+01 0.85258100655E+01 0.84366877728E+01
 0.83958998337E+01 0.84120322812E+01 0.84751604506E+01 0.85594305050E+01 0.86294447207E+01
 0.86543274694E+01 0.86239861295E+01 0.85546018426E+01 0.84779051093E+01 0.84240967102E+01
 0.87022603736E+01 0.84479085746E+01 0.82559733722E+01 0.81429025888E+01 0.80979705614E+01
 0.80903657768E+01 0.80912587253E+01 0.80975381227E+01 0.81361548502E+01 0.82435172541E+01
 0.84370203624E+01 0.87001016427E+01 0.89893420520E+01 0.93155847952E+01 0.96757964010E+01
 0.99233380050E+01 0.99204776512E+01 0.96676970678E+01 0.93050246077E+01 0.89823251293E+01
 0.96709953242E+01 0.90048949306E+01 0.85266831161E+01 0.81419671297E+01 0.78869964533E+01
 0.77537122968E+01 0.77137644586E+01 0.77516726026E+01 0.78821203852E+01 0.81364403498E+01
 0.85263420507E+01 0.90136528667E+01 0.96854031882E+01 0.10775937050E+02 0.12123698396E+02
 0.13259017199E+02 0.13704444605E+02 0.13259541499E+02 0.12119505737E+02 0.10764216329E+02
 0.13332954129E+02 0.10783724197E+02 0.93501813174E+01 0.86286534395E+01 0.80976289129E+01
 0.77545272382E+01 0.75939361078E+01 0.75923407055E+01 0.77516107306E+01 0.80977617501E+01
 0.86353874324E+01 0.93626344117E+01 0.10795842679E+02 0.13337530937E+02 0.16654907249E+02
 0.19822946308E+02 0.21764872525E+02 0.21769364854E+02 0.19832165911E+02 0.16660003152E+02
 0.22901462042E+02 0.16660218113E+02 0.12149335989E+02 0.97316578659E+01 0.87187586166E+01
 0.80919551097E+01 0.77155960369E+01 0.75928305363E+01 0.77132324736E+01 0.80920169251E+01
 0.87245306114E+01 0.97400183753E+01 0.12153127725E+02 0.16655061069E+02 0.22889487248E+02
 0.29479803838E+02 0.34533607501E+02 0.36432343196E+02 0.34541238472E+02 0.29492389940E+02
 0.40601297145E+02 0.29450900839E+02 0.19812187092E+02 0.13290570101E+02 0.99951590124E+01
 0.87572905546E+01 0.80928980143E+01 0.77526025063E+01 0.77517256928E+01 0.80920668811E+01
 0.87587104418E+01 0.99967469657E+01 0.13287333108E+02 0.19802733415E+02 0.29440323956E+02
 0.40595901782E+02 0.50552047520E+02 0.56445874120E+02 0.56444746305E+02 0.50551741123E+02
 0.66568163617E+02 0.50462539539E+02 0.34443292984E+02 0.21728818614E+02 0.13733833105E+02
 0.99971456164E+01 0.87237567743E+01 0.80976907850E+01 0.78825302806E+01 0.80982560609E+01
 0.87242103721E+01 0.99956299261E+01 0.13728616268E+02 0.21721351065E+02 0.34438970545E+02
 0.50466329400E+02 0.66578691991E+02 0.78632808595E+02 0.83108452382E+02 0.78623632152E+02
 0.97997105827E+02 0.78510650564E+02 0.56283505868E+02 0.36309337219E+02 0.21723670624E+02
 0.13287408715E+02 0.97378495553E+01 0.86337395574E+01 0.81368191396E+01 0.81380400982E+01
 0.86357114889E+01 0.97375501042E+01 0.13284252096E+02 0.21720673462E+02 0.36310424538E+02
 0.56289915107E+02 0.78519920263E+02 0.98004995111E+02 0.10946133447E+03 0.10945828393E+03
 0.12903091030E+03 0.10936366884E+03 0.82945540453E+02 0.56287635072E+02 0.34438294826E+02
 0.19800923294E+02 0.12149335989E+02 0.93593966397E+01 0.85261511310E+01 0.82464106782E+01
 0.85284232603E+01 0.93607807697E+01 0.12148445643E+02 0.19800633895E+02 0.34441712737E+02
 0.56292973306E+02 0.82947491014E+02 0.10936015017E+03 0.12902628048E+03 0.13632885791E+03
 0.15209334639E+03 0.13628281108E+03 0.10936542247E+03 0.78523322125E+02 0.50470063111E+02
 0.29441390663E+02 0.16651650842E+02 0.10791309641E+02 0.90124185021E+01 0.84400995035E+01
 0.84410954386E+01 0.90139727871E+01 0.10791523953E+02 0.16651536283E+02 0.29443500959E+02
 0.50473725069E+02 0.78523668089E+02 0.10935900245E+03 0.13627317028E+03 0.15208869042E+03
 0.15273858058E+03 0.14468552772E+03 0.12293590475E+03 0.93568024726E+02 0.63681118304E+02
 0.38882830820E+02 0.21983667997E+02 0.12930843260E+02 0.95267036967E+01 0.85911342531E+01
 0.82940745233E+01 0.85912881423E+01 0.95268289250E+01 0.12930829440E+02 0.21983631616E+02
 0.38882952280E+02 0.63681383643E+02 0.93568228692E+02 0.12293591352E+03 0.14468544251E+03
 0.14469250143E+03 0.14468869939E+03 0.12981850293E+03 0.10441348989E+03 0.75146775586E+02
 0.48380064875E+02 0.28255516309E+02 0.16049561814E+02 0.10524910783E+02 0.88674206647E+01
 0.83020869964E+01 0.83009583337E+01 0.88655748232E+01 0.10524527690E+02 0.16049899426E+02
 0.28253941960E+02 0.48376667663E+02 0.75145717660E+02 0.10441813538E+03 0.12982618904E+03
 0.12294635238E+03 0.12980229693E+03 0.12294307931E+03 0.10441495631E+03 0.79398343279E+02
 0.53995562108E+02 0.33069743142E+02 0.19043637842E+02 0.11770207985E+02 0.91639773326E+01
 0.83565218631E+01 0.80784767966E+01 0.83536755577E+01 0.91620295435E+01 0.11771111130E+02
 0.19044460557E+02 0.33066689646E+02 0.53989683140E+02 0.79394813401E+02 0.10441649934E+03
 0.93563416705E+02 0.10435595368E+03 0.10435894031E+03 0.93571166361E+02 0.75143011211E+02
 0.53992214458E+02 0.34875121560E+02 0.20881675302E+02 0.12826580060E+02 0.94873466470E+01
 0.84327620984E+01 0.79397082594E+01 0.79384764006E+01 0.84307530288E+01 0.94875710480E+01
 0.12829616676E+02 0.20884528983E+02 0.34873927379E+02 0.53985800181E+02 0.75133846762E+02
 0.63666302011E+02 0.75058186360E+02 0.79283408386E+02 0.75066160584E+02 0.63675071056E+02
 0.48371990336E+02 0.33066556103E+02 0.20882283445E+02 0.13242617303E+02 0.97120514228E+01
 0.84982775929E+01 0.78724460897E+01 0.76578079619E+01 0.78723573810E+01 0.84982420905E+01
 0.97134275996E+01 0.13247228157E+02 0.20889340969E+02 0.33071332422E+02 0.48369608751E+02
 0.38881137398E+02 0.48313462475E+02 0.53878825057E+02 0.53879365423E+02 0.48312419977E+02
 0.38874503360E+02 0.28251708492E+02 0.19045630715E+02 0.12829650095E+02 0.97132390685E+01
 0.85243979438E+01 0.78495899529E+01 0.75055686194E+01 0.75065701236E+01 0.78507101943E+01
 0.85232102253E+01 0.97116127184E+01 0.12832613781E+02 0.19054970383E+02 0.28262815753E+02
 0.21994070472E+02 0.28247686414E+02 0.33022294369E+02 0.34806497096E+02 0.33014380340E+02
 0.28234965071E+02 0.21982395229E+02 0.16053178215E+02 0.11775095248E+02 0.94899901623E+01
 0.84990185857E+01 0.78497066793E+01 0.74585819613E+01 0.73332500957E+01 0.74609080225E+01
 0.78497850931E+01 0.84935993152E+01 0.94818692818E+01 0.11771111130E+02 0.16057848118E+02
 0.12930698355E+02 0.16079915125E+02 0.19077301311E+02 0.20904012055E+02 0.20899777058E+02
 0.19068722791E+02 0.16075549254E+02 0.12935836343E+02 0.10529754887E+02 0.91660023197E+01
 0.84327650742E+01 0.78722669748E+01 0.75052503889E+01 0.73326399202E+01 0.73342709609E+01
 0.75082539196E+01 0.78722262957E+01 0.84260721277E+01 0.91534656840E+01 0.10517337693E+02
 0.95157828508E+01 0.10557192941E+02 0.11839444004E+02 0.12915338250E+02 0.13334947729E+02
 0.12915699930E+02 0.11844606564E+02 0.10569252359E+02 0.95299753555E+01 0.88671112486E+01
 0.83541805521E+01 0.79381839595E+01 0.76572160102E+01 0.75053814742E+01 0.74591891796E+01
 0.75073835006E+01 0.76618435188E+01 0.79432883868E+01 0.83542827760E+01 0.88585159111E+01
 0.85909476022E+01 0.89005038655E+01 0.92351934627E+01 0.95939887027E+01 0.98403220107E+01
 0.98435136564E+01 0.96027631151E+01 0.92461506048E+01 0.89073426948E+01 0.85883065292E+01
 0.82971786048E+01 0.80751921981E+01 0.79378434193E+01 0.78720575199E+01 0.78491574395E+01
 0.78481156120E+01 0.78721055494E+01 0.79441797054E+01 0.80875122815E+01 0.83083577861E+01
 0.83045133793E+01 0.83489534831E+01 0.84364081817E+01 0.85448434183E+01 0.86374762725E+01
 0.86763075311E+01 0.86427441754E+01 0.85494954777E+01 0.84336202368E+01 0.83368410867E+01
 0.82881252340E+01 0.82968820106E+01 0.83535733338E+01 0.84325900430E+01 0.84990185857E+01
 0.85226270086E+01 0.84936348175E+01 0.84279061661E+01 0.83565218631E+01 0.83091898546E+01
 0.85908533985E+01 0.83481943853E+01 0.81679784355E+01 0.80647732742E+01 0.80265932512E+01
 0.80222661239E+01 0.80231251271E+01 0.80261278195E+01 0.80580736898E+01 0.81555653757E+01
 0.83371658873E+01 0.85883662148E+01 0.88668303939E+01 0.91661520891E+01 0.94911607969E+01
 0.97147730950E+01 0.97117705681E+01 0.94828155155E+01 0.91555632426E+01 0.88600808980E+01
 0.95157321884E+01 0.88990951270E+01 0.84345077204E+01 0.80637950621E+01 0.78205202126E+01
 0.76945619426E+01 0.76570281398E+01 0.76924944873E+01 0.78156781683E+01 0.80583545445E+01
 0.84341528891E+01 0.89076832350E+01 0.95300499215E+01 0.10529885972E+02 0.11775627900E+02
 0.12831464977E+02 0.13246727426E+02 0.12831392046E+02 0.11770740638E+02 0.10517851871E+02
 0.12930754647E+02 0.10556773688E+02 0.92333629306E+01 0.85428219013E+01 0.80262566523E+01
 0.76954045127E+01 0.75413820239E+01 0.75397491829E+01 0.76924058741E+01 0.80263200609E+01
 0.85495401449E+01 0.92458986778E+01 0.10569163746E+02 0.12935878815E+02 0.16052377049E+02
 0.19043904447E+02 0.20882194832E+02 0.20886398675E+02 0.19052421400E+02 0.16056709339E+02
 0.21994106853E+02 0.16080967278E+02 0.11839717143E+02 0.95929358091E+01 0.86370533918E+01
 0.80238853262E+01 0.76589687169E+01 0.75403602981E+01 0.76564954875E+01 0.80237773850E+01
 0.86427441754E+01 0.96014894623E+01 0.11843999346E+02 0.16076351281E+02 0.21982395228E+02
 0.28248960498E+02 0.33061913327E+02 0.34871242687E+02 0.33069743142E+02 0.28261642108E+02
 0.38880996834E+02 0.28248597078E+02 0.19079578686E+02 0.12916709416E+02 0.98402979139E+01
 0.86768618516E+01 0.80247861994E+01 0.76936591402E+01 0.76927279568E+01 0.80238192549E+01
 0.86781854628E+01 0.98420202109E+01 0.12913865944E+02 0.19070425692E+02 0.28237688837E+02
 0.38874484256E+02 0.48370156350E+02 0.53989236458E+02 0.53988701149E+02 0.48371171978E+02
 0.63666023239E+02 0.48311603670E+02 0.33023851614E+02 0.20907381667E+02 0.13335992591E+02
 0.98421318997E+01 0.86417096017E+01 0.80263452655E+01 0.78163966550E+01 0.80268741058E+01
 0.86421324824E+01 0.98406625510E+01 0.13330898738E+02 0.20899908143E+02 0.33019036550E+02
 0.48314234859E+02 0.63675057621E+02 0.75147823197E+02 0.79402999489E+02 0.75139716674E+02
 0.93563209848E+02 0.75052166394E+02 0.53876248372E+02 0.34809694538E+02 0.20902566789E+02
 0.12913728524E+02 0.95986837991E+01 0.85475481655E+01 0.80589801846E+01 0.80602392514E+01
 0.85496143498E+01 0.95984630399E+01 0.12910523373E+02 0.20899328263E+02 0.34810422194E+02
 0.53882365420E+02 0.75061345707E+02 0.93571163470E+02 0.10442846613E+03 0.10442536368E+03
 0.12294634360E+03 0.10434714970E+03 0.79275617470E+02 0.53880127826E+02 0.33019195404E+02
 0.19069050369E+02 0.11839717143E+02 0.92419686486E+01 0.84339750681E+01 0.81590032496E+01
 0.84364081817E+01 0.92435472537E+01 0.11838836786E+02 0.19068475894E+02 0.33022294369E+02
 0.53885704507E+02 0.79278765611E+02 0.10434543399E+03 0.12294307931E+03 0.12983425618E+03
 0.14469258563E+03 0.12979439354E+03 0.10434878612E+03 0.75064039183E+02 0.48318661582E+02
 0.28239705181E+02 0.16072976253E+02 0.10563920213E+02 0.89061530389E+01 0.83408556187E+01
 0.83419395171E+01 0.89079023176E+01 0.10564250852E+02 0.16072726128E+02 0.28241518282E+02
 0.48322335268E+02 0.75065244272E+02 0.10434408378E+03 0.12978654407E+03 0.14468869839E+03
 0.13107051246E+03 0.12435856038E+03 0.10610874575E+03 0.81181255335E+02 0.55497352723E+02
 0.34025981812E+02 0.19459689990E+02 0.11848439042E+02 0.91151992242E+01 0.82828406494E+01
 0.80016947870E+01 0.82831094723E+01 0.91154395841E+01 0.11848398668E+02 0.19459429544E+02
 0.34025764781E+02 0.55497331893E+02 0.81181349395E+02 0.10610880748E+03 0.12435856228E+03
 0.12436436962E+03 0.12436243744E+03 0.11189823386E+03 0.90408133206E+02 0.65355582834E+02
 0.42218419139E+02 0.24802245211E+02 0.14398309526E+02 0.98720036832E+01 0.85247735723E+01
 0.79865497689E+01 0.79853483519E+01 0.85227468444E+01 0.98715154659E+01 0.14398874490E+02
 0.24801069537E+02 0.42214637311E+02 0.65352194668E+02 0.90408498397E+02 0.11190154111E+03
 0.10611740183E+03 0.11189836991E+03 0.10611750651E+03 0.90409994644E+02 0.69000559551E+02
 0.47059986153E+02 0.28926293229E+02 0.16888423714E+02 0.10836750160E+02 0.87599931789E+01
 0.80190961000E+01 0.77597094914E+01 0.80159445394E+01 0.87576899133E+01 0.10837758780E+02
 0.16890135577E+02 0.28924313235E+02 0.47053847705E+02 0.68994314693E+02 0.90407172734E+02
 0.81177425611E+02 0.90395945284E+02 0.90399087118E+02 0.81185328333E+02 0.65351195223E+02
 0.47055844984E+02 0.30475257561E+02 0.18430090145E+02 0.11672178896E+02 0.89944469565E+01
 0.80769944954E+01 0.76186021261E+01 0.76171891631E+01 0.80745825165E+01 0.89944312065E+01
 0.11675584325E+02 0.18434079579E+02 0.30475589125E+02 0.47050638484E+02 0.65342463541E+02
 0.55484998342E+02 0.65339734847E+02 0.68984885360E+02 0.65345194747E+02 0.55490221827E+02
 0.42208353475E+02 0.28921842307E+02 0.18430589501E+02 0.12005029733E+02 0.91575558904E+01
 0.81302941454E+01 0.75485822897E+01 0.73531036677E+01 0.75482991051E+01 0.81300218617E+01
 0.91587501741E+01 0.12009566777E+02 0.18438003363E+02 0.28928052438E+02 0.42208829969E+02
 0.34024345884E+02 0.42235443204E+02 0.47079672675E+02 0.47078871962E+02 0.42231468290E+02
 0.34015389777E+02 0.24796760921E+02 0.16890331156E+02 0.11676221148E+02 0.91594338514E+01
 0.81523786349E+01 0.75235980165E+01 0.72113715442E+01 0.72123820977E+01 0.75247732514E+01
 0.81511760508E+01 0.91573312778E+01 0.11678089214E+02 0.16898687479E+02 0.24808295776E+02
 0.19468023892E+02 0.24871856054E+02 0.29022263190E+02 0.30576027381E+02 0.29014041597E+02
 0.24859231177E+02 0.19457408132E+02 0.14402360112E+02 0.10843269657E+02 0.89987111273E+01
 0.81316568561E+01 0.75235860853E+01 0.71675223366E+01 0.70551588598E+01 0.71700531839E+01
 0.75239700791E+01 0.81262826588E+01 0.89898916977E+01 0.10837758780E+02 0.14405297556E+02
 0.11848212867E+02 0.14494650354E+02 0.17051325971E+02 0.18621458376E+02 0.18617894621E+02
 0.17044381192E+02 0.14492065145E+02 0.11854653541E+02 0.98786346924E+01 0.87635342260E+01
 0.80774985344E+01 0.75478984449E+01 0.72102923929E+01 0.70541824395E+01 0.70559603850E+01
 0.72136151930E+01 0.75481133040E+01 0.80708445329E+01 0.87507427090E+01 0.98655223227E+01
 0.91062595074E+01 0.99615053608E+01 0.11017134138E+02 0.11912943455E+02 0.12264929646E+02
 0.11914446551E+02 0.11023485149E+02 0.99738292503E+01 0.91198975124E+01 0.85249653137E+01
 0.80162836801E+01 0.76160057193E+01 0.73514001745E+01 0.72104781941E+01 0.71681080653E+01
 0.72127904405E+01 0.73562571419E+01 0.76211129478E+01 0.80165302681E+01 0.85169395023E+01
 0.82827959195E+01 0.86081430572E+01 0.89286986235E+01 0.92361878145E+01 0.94418938286E+01
 0.94452663021E+01 0.92451456443E+01 0.89392627728E+01 0.86140306940E+01 0.82792889348E+01
 0.79799847913E+01 0.77548565157E+01 0.76156921664E+01 0.75477706932E+01 0.75232839141E+01
 0.75224926731E+01 0.75482687368E+01 0.76222123579E+01 0.77671560497E+01 0.79914692469E+01
 0.80102891350E+01 0.80778929349E+01 0.81868479674E+01 0.83124318099E+01 0.84158531508E+01
 0.84582496770E+01 0.84208933996E+01 0.83167172646E+01 0.81836702655E+01 0.80654318133E+01
 0.79935711221E+01 0.79797070971E+01 0.80156979514E+01 0.80772768746E+01 0.81316568561E+01
 0.81509955972E+01 0.81265549425E+01 0.80730348520E+01 0.80190961000E+01 0.79923929696E+01
 0.82825754706E+01 0.80769368167E+01 0.79325822864E+01 0.78589125980E+01 0.78406654365E+01
 0.78459222856E+01 0.78466569827E+01 0.78400594716E+01 0.78523662451E+01 0.79204284458E+01
 0.80657328508E+01 0.82793373089E+01 0.85247001349E+01 0.87636136036E+01 0.89995920301E+01
 0.91605875689E+01 0.91572907116E+01 0.89907883506E+01 0.87531253523E+01 0.85187010514E+01
 0.91060782502E+01 0.86063203880E+01 0.81846229145E+01 0.78578431363E+01 0.76500321128E+01
 0.75459316785E+01 0.75155583832E+01 0.75437828964E+01 0.76452781798E+01 0.78526314239E+01
 0.81841968914E+01 0.86143442469E+01 0.91199566152E+01 0.98788204935E+01 0.10843796283E+02
 0.11677640044E+02 0.12008242310E+02 0.11676102681E+02 0.10837276786E+02 0.98661963411E+01
 0.11848285408E+02 0.99608119374E+01 0.89265736386E+01 0.83102840558E+01 0.78403045997E+01
 0.75468017959E+01 0.74124095586E+01 0.74107033064E+01 0.75436292619E+01 0.78401710159E+01
 0.83168350404E+01 0.89391028544E+01 0.99736756158E+01 0.11854685707E+02 0.14401898023E+02
 0.16889065895E+02 0.18430435866E+02 0.18433860295E+02 0.16895710354E+02 0.14404270503E+02
 0.19468284338E+02 0.14495733406E+02 0.11017465293E+02 0.92352643103E+01 0.84154515084E+01
 0.78475204719E+01 0.75177100752E+01 0.74116102001E+01 0.75150317573E+01 0.78470375280E+01
 0.84208933996E+01 0.92441863674E+01 0.11022899421E+02 0.14492525068E+02 0.19457408132E+02
 0.24794696301E+02 0.28918103104E+02 0.30471979501E+02 0.28926293229E+02 0.24807406829E+02
 0.34024552120E+02 0.24872845175E+02 0.17053896675E+02 0.11914818203E+02 0.94420604414E+01
 0.84585678285E+01 0.78483044406E+01 0.75455257376E+01 0.75445019858E+01 0.78470867995E+01
 0.84597152284E+01 0.94441501623E+01 0.11913016859E+02 0.17045625083E+02 0.24861276593E+02
 0.34015378981E+02 0.42206923783E+02 0.47053350892E+02 0.47054282840E+02 0.42211182105E+02
 0.55485015584E+02 0.42233176816E+02 0.29023769465E+02 0.18625468702E+02 0.12266467500E+02
 0.94434901342E+01 0.84191942989E+01 0.78404582342E+01 0.76468159483E+01 0.78409306153E+01
 0.84195959412E+01 0.94422073815E+01 0.12261772584E+02 0.18618080422E+02 0.29017784388E+02
 0.42232887186E+02 0.55490218239E+02 0.65355119007E+02 0.69004302342E+02 0.65349775492E+02
 0.81177334077E+02 0.65332462150E+02 0.47076095090E+02 0.30579542085E+02 0.18621547444E+02
 0.11912326637E+02 0.92398312928E+01 0.83140516797E+01 0.78539218780E+01 0.78552565184E+01
 0.83163172096E+01 0.92397955199E+01 0.11909022197E+02 0.18617722919E+02 0.30579332915E+02
 0.47081374324E+02 0.65341273489E+02 0.81185330860E+02 0.90421048908E+02 0.90417861807E+02
 0.10611734009E+03 0.90385258149E+02 0.68975074661E+02 0.47079300978E+02 0.29020026675E+02
 0.17045339836E+02 0.11017465293E+02 0.89335471509E+01 0.81840962886E+01 0.79251899608E+01
 0.81868479674E+01 0.89355122174E+01 0.11016548409E+02 0.17044013023E+02 0.29022263190E+02
 0.47085380926E+02 0.68981146157E+02 0.90388036187E+02 0.10611750651E+03 0.11191116835E+03
 0.12436436484E+03 0.11188873282E+03 0.90386580839E+02 0.65342187866E+02 0.42238981274E+02
 0.24865611024E+02 0.14489283224E+02 0.99667700292E+01 0.86121248454E+01 0.80708671805E+01
 0.80721243362E+01 0.86142610674E+01 0.99673098182E+01 0.14488660096E+02 0.24866667321E+02
 0.42242666558E+02 0.65345539304E+02 0.90386217042E+02 0.11188543244E+03 0.12436243456E+03
 0.10106133356E+03 0.96090209587E+02 0.82437713027E+02 0.63487914790E+02 0.43670958971E+02
 0.27033838059E+02 0.15941370223E+02 0.10435900928E+02 0.85738859527E+01 0.78442840938E+01
 0.75938594683E+01 0.78446081800E+01 0.85741850400E+01 0.10435851698E+02 0.15940995353E+02
 0.27033434422E+02 0.43670769669E+02 0.63487937509E+02 0.82437801859E+02 0.96090262627E+02
 0.96094398513E+02 0.96094703147E+02 0.86780989229E+02 0.70512623279E+02 0.51257264107E+02
 0.33312441617E+02 0.19901943328E+02 0.12170789584E+02 0.90379329579E+01 0.80247184043E+01
 0.75415606204E+01 0.75403566022E+01 0.80226613604E+01 0.90374937829E+01 0.12171775389E+02
 0.19901452148E+02 0.33308507625E+02 0.51251407613E+02 0.70508068754E+02 0.86779115707E+02
 0.82443930500E+02 0.86803819145E+02 0.82447874250E+02 0.70514844282E+02 0.54054261161E+02
 0.37031008816E+02 0.23000567908E+02 0.13923283947E+02 0.96280795499E+01 0.81998229230E+01
 0.75367455063E+01 0.73101468995E+01 0.75335054310E+01 0.81973934454E+01 0.96293076857E+01
 0.13925979854E+02 0.22999846989E+02 0.37024752241E+02 0.54045128280E+02 0.70507151831E+02
 0.63485190360E+02 0.70562963906E+02 0.70566100997E+02 0.63492840547E+02 0.51252371456E+02
 0.37026180265E+02 0.24169743250E+02 0.15027610953E+02 0.10157001935E+02 0.83412844869E+01
 0.75618402285E+01 0.71629256007E+01 0.71614229744E+01 0.75591857071E+01 0.83410457589E+01
 0.10160582832E+02 0.15032497785E+02 0.24171562450E+02 0.37022446581E+02 0.51244524578E+02
 0.43662087178E+02 0.51341140320E+02 0.54174662287E+02 0.51343385026E+02 0.43662913220E+02
 0.33300630849E+02 0.22994954876E+02 0.15027982484E+02 0.10372572404E+02 0.84321800381E+01
 0.75924761237E+01 0.70855484209E+01 0.69199133206E+01 0.70850750286E+01 0.75919207361E+01
 0.84329834999E+01 0.10376598896E+02 0.15035244934E+02 0.23002400838E+02 0.33304371739E+02
 0.27032525027E+02 0.33443902398E+02 0.37237171605E+02 0.37234845423E+02 0.33436674972E+02
 0.27021210192E+02 0.19894898236E+02 0.13925046233E+02 0.10161920662E+02 0.84347078933E+01
 0.76066748431E+01 0.70552934110E+01 0.67911890309E+01 0.67921427278E+01 0.70564159152E+01
 0.76054201618E+01 0.84320741045E+01 0.10162420585E+02 0.13931942059E+02 0.19906497429E+02
 0.15947123994E+02 0.20078210382E+02 0.23293246951E+02 0.24502609472E+02 0.23285083490E+02
 0.20066274332E+02 0.15938106215E+02 0.12175170189E+02 0.96360920506E+01 0.83470894684E+01
 0.75944202860E+01 0.70551320982E+01 0.67510608074E+01 0.66570687164E+01 0.67536460905E+01
 0.70557860517E+01 0.75893668863E+01 0.83380190782E+01 0.96293076857E+01 0.12176190807E+02
 0.10435612496E+02 0.12359911312E+02 0.14266300060E+02 0.15453729478E+02 0.15451160292E+02
 0.14261678414E+02 0.12359569041E+02 0.10443192599E+02 0.90462322653E+01 0.82048481347E+01
 0.75628375907E+01 0.70843233716E+01 0.67893361851E+01 0.66557583588E+01 0.66575874502E+01
 0.67928129212E+01 0.70848358266E+01 0.75566777602E+01 0.81925798384E+01 0.90331186944E+01
 0.85675207337E+01 0.92107010038E+01 0.99684455072E+01 0.10615099577E+02 0.10871620905E+02
 0.10617955314E+02 0.99760348595E+01 0.92228979981E+01 0.85799388921E+01 0.80254814584E+01
 0.75335652654E+01 0.71592618111E+01 0.69170602082E+01 0.67895753870E+01 0.67515964727E+01
 0.67920984263E+01 0.69219315052E+01 0.71641701233E+01 0.75340410963E+01 0.80185254740E+01
 0.78443386998E+01 0.81840841586E+01 0.85146966788E+01 0.87841480438E+01 0.89480586440E+01
 0.89514998805E+01 0.87929625123E+01 0.85244350444E+01 0.81887595976E+01 0.78401478111E+01
 0.75335629470E+01 0.73038148206E+01 0.71589923308E+01 0.70842930934E+01 0.70551220466E+01
 0.70546534958E+01 0.70852789407E+01 0.71654032694E+01 0.73154691888E+01 0.75447619689E+01
 0.75999881094E+01 0.77019070458E+01 0.78400795891E+01 0.79870557879E+01 0.81028617355E+01
 0.81490032706E+01 0.81073393965E+01 0.79906541497E+01 0.78366124577E+01 0.76897356181E+01
 0.75838293985E+01 0.75333190580E+01 0.75330296001E+01 0.75625727974E+01 0.75944202860E+01
 0.76057910389E+01 0.75899222738E+01 0.75590674884E+01 0.75367455064E+01 0.75457220981E+01
 0.78440485104E+01 0.77008487651E+01 0.76133014494E+01 0.75839943729E+01 0.75943132275E+01
 0.76127589013E+01 0.76132481357E+01 0.75934083063E+01 0.75777609591E+01 0.76019315547E+01
 0.76899967927E+01 0.78401817079E+01 0.80252458750E+01 0.82048445161E+01 0.83476045835E+01
 0.84353817053E+01 0.84319444547E+01 0.83387729214E+01 0.81950056973E+01 0.80203469344E+01
 0.85672604982E+01 0.81820643451E+01 0.78377060976E+01 0.75828712045E+01 0.74295946239E+01
 0.73577794538E+01 0.73377699228E+01 0.73555334817E+01 0.74249943826E+01 0.75779965425E+01
 0.78371092712E+01 0.81890290778E+01 0.85799777440E+01 0.90464714673E+01 0.96365888641E+01
 0.10162830058E+02 0.10374629440E+02 0.10159749084E+02 0.96285763634E+01 0.90337970714E+01
 0.10435679924E+02 0.92099258950E+01 0.85125233443E+01 0.79848714134E+01 0.75938334470E+01
 0.73585676458E+01 0.72536343760E+01 0.72519144068E+01 0.73553124775E+01 0.75934228855E+01
 0.79908495627E+01 0.85243865684E+01 0.92226769939E+01 0.10443210797E+02 0.12175111661E+02
 0.13924357842E+02 0.15027761479E+02 0.15030137098E+02 0.13928557760E+02 0.12175146475E+02
 0.15947498865E+02 0.12361089840E+02 0.99690190390E+01 0.87834423124E+01 0.81023430629E+01
 0.76140775257E+01 0.73399826985E+01 0.72531226725E+01 0.73372731093E+01 0.76133032515E+01
 0.81073393965E+01 0.87924023329E+01 0.99754991942E+01 0.12359620538E+02 0.15938106215E+02
 0.19893698141E+02 0.22992401026E+02 0.24167286800E+02 0.23000567908E+02 0.19905788515E+02
 0.27032930120E+02 0.20079233730E+02 0.14269229323E+02 0.10617518915E+02 0.89482985673E+01
 0.81488334442E+01 0.76146947655E+01 0.73578807110E+01 0.73568715147E+01 0.76134312570E+01
 0.81499368009E+01 0.89508614216E+01 0.10617047375E+02 0.14262347151E+02 0.20067461802E+02
 0.27021211648E+02 0.33299722910E+02 0.37024341055E+02 0.37026863946E+02 0.33307397791E+02
 0.43662288018E+02 0.33441190794E+02 0.23294705327E+02 0.15458369047E+02 0.10873584703E+02
 0.89492065064E+01 0.81048853752E+01 0.75940544512E+01 0.74275491251E+01 0.75945488109E+01
 0.81054040478E+01 0.89483281242E+01 0.10869614258E+02 0.15451399494E+02 0.23287625802E+02
 0.33437584367E+02 0.43662924757E+02 0.51255118605E+02 0.54056803473E+02 0.51253128221E+02
 0.63485178784E+02 0.51332690451E+02 0.37232650704E+02 0.24506416778E+02 0.15455633040E+02
 0.10615690847E+02 0.87864690183E+01 0.79873864159E+01 0.75801351978E+01 0.75814939497E+01
 0.79897662033E+01 0.87866145703E+01 0.10612363570E+02 0.15451232674E+02 0.24505065947E+02
 0.37236672034E+02 0.51340649019E+02 0.63492851690E+02 0.70522633098E+02 0.70519495172E+02
 0.82443841668E+02 0.70550587119E+02 0.54163012416E+02 0.37234953082E+02 0.23292163015E+02
 0.14263282998E+02 0.99690190390E+01 0.85173407253E+01 0.78372092841E+01 0.76080274807E+01
 0.78400795891E+01 0.85194655838E+01 0.99679098419E+01 0.14261022473E+02 0.23293246951E+02
 0.37241300595E+02 0.54172108437E+02 0.70558315462E+02 0.82447874250E+02 0.86790163501E+02
 0.96094339460E+02 0.86792655817E+02 0.70551495631E+02 0.51339556331E+02 0.33445320667E+02
 0.20074195918E+02 0.12356669267E+02 0.92142767726E+01 0.81861942185E+01 0.76964833083E+01
 0.76978027637E+01 0.81884835121E+01 0.92148308772E+01 0.12355542237E+02 0.20074360040E+02
 0.33448941667E+02 0.51345270193E+02 0.70556086884E+02 0.86794636462E+02 0.96094697134E+02
 0.69575748809E+02 0.66295143262E+02 0.57188613912E+02 0.44358926645E+02 0.30827505609E+02
 0.19584043652E+02 0.12405444968E+02 0.91368137064E+01 0.79811338676E+01 0.73574460463E+01
 0.71516078744E+01 0.73576851211E+01 0.79813525810E+01 0.91367828343E+01 0.12405200848E+02
 0.19583810820E+02 0.30827436811E+02 0.44358980744E+02 0.57188671982E+02 0.66295160247E+02
 0.66297637946E+02 0.66299687731E+02 0.60087392405E+02 0.49098852233E+02 0.35948173881E+02
 0.23715166193E+02 0.14824877291E+02 0.10040223095E+02 0.82484056620E+01 0.74546122647E+01