   2   2   0   0
  0.9638209E+01  0.2330000E-09  0.2330000E-09  0.4100000E-09  0.5000000E-15
  1.000000000000000E-004
  CAR 
 unknown system                          
     73.44037680     -5.24669076  301      7.62152572      1.00000000
     -5.247  0.0000E+00  0.0000E+00
     -4.984  0.0000E+00  0.0000E+00
     -4.722  0.0000E+00  0.0000E+00
     -4.460  0.0000E+00  0.0000E+00
     -4.198  0.0000E+00  0.0000E+00
     -3.935  0.0000E+00  0.0000E+00
     -3.673  0.0000E+00  0.0000E+00
     -3.411 -0.8801E-33 -0.2308E-33
     -3.148 -0.1098E-23 -0.2880E-24
     -2.886 -0.4256E-16 -0.1116E-16
     -2.624 -0.4826E-10 -0.1266E-10
     -2.361 -0.1629E-05 -0.4274E-06
     -2.099 -0.1368E-02 -0.3592E-03
     -1.837  0.1830E-02  0.1209E-03
     -1.575  0.2416E+00  0.6349E-01
     -1.312  0.4455E-01  0.7518E-01
     -1.050 -0.6196E-02  0.7355E-01
     -0.788 -0.6122E-02  0.7195E-01
     -0.525  0.4635E+00  0.1935E+00
     -0.263  0.1198E+00  0.2249E+00
     -0.001 -0.1030E-01  0.2222E+00
      0.261 -0.4809E-04  0.2222E+00
      0.524 -0.4794E-08  0.2222E+00
      0.786 -0.1572E-06  0.2222E+00
      1.048 -0.4607E-03  0.2221E+00
      1.311 -0.2078E-01  0.2167E+00
      1.573  0.2581E+00  0.2843E+00
      1.835  0.1152E+01  0.5864E+00
      2.097  0.3480E+01  0.1499E+01
      2.360  0.1128E+01  0.1795E+01
      2.622 -0.9433E-02  0.1793E+01
      2.884  0.3024E+01  0.2586E+01
      3.147  0.1811E+01  0.3061E+01
      3.409  0.1312E+01  0.3405E+01
      3.671  0.2356E+01  0.4023E+01
      3.933  0.4108E+01  0.5101E+01
      4.196  0.4673E+01  0.6326E+01
      4.458  0.3056E+01  0.7128E+01
      4.720 -0.2201E-01  0.7122E+01
      4.983  0.2881E+01  0.7878E+01
      5.245  0.3158E+01  0.8706E+01
      5.507  0.1316E+01  0.9051E+01
      5.769  0.4720E+01  0.1029E+02
      6.032  0.4766E+01  0.1154E+02
      6.294  0.2726E+01  0.1225E+02
      6.556  0.2536E+01  0.1292E+02
      6.819  0.5045E+01  0.1424E+02
      7.081  0.1294E+01  0.1458E+02
      7.343  0.6550E+00  0.1475E+02
      7.606  0.4392E+01  0.1591E+02
      7.868  0.9754E+01  0.1846E+02
      8.130  0.7315E+01  0.2038E+02
      8.392  0.4982E+01  0.2169E+02
      8.655  0.3908E+00  0.2179E+02
      8.917 -0.5319E-01  0.2178E+02
      9.179 -0.3970E-03  0.2178E+02
      9.442 -0.6529E-07  0.2178E+02
      9.704 -0.9636E-07  0.2178E+02
      9.966 -0.6430E-03  0.2178E+02
     10.228 -0.8405E-01  0.2176E+02
     10.491  0.1094E+01  0.2204E+02
     10.753  0.2483E+01  0.2269E+02
     11.015 -0.9696E-01  0.2267E+02
     11.278 -0.6705E-02  0.2267E+02
     11.540 -0.4075E-05  0.2267E+02
     11.802 -0.6452E-10  0.2267E+02
     12.064  0.0000E+00  0.2267E+02
     12.327  0.0000E+00  0.2267E+02
     12.589 -0.1701E-28  0.2267E+02
     12.851 -0.4980E-20  0.2267E+02
     13.114 -0.4360E-13  0.2267E+02
     13.376 -0.1165E-07  0.2267E+02
     13.638 -0.8680E-04  0.2267E+02
     13.900 -0.1300E-01  0.2266E+02
     14.163  0.1646E+00  0.2271E+02
     14.425  0.4288E+00  0.2282E+02
     14.687 -0.3067E-01  0.2281E+02
     14.950  0.1211E+00  0.2284E+02
     15.212  0.1487E+01  0.2323E+02
     15.474  0.1803E+01  0.2371E+02
     15.737  0.4438E+01  0.2487E+02
     15.999  0.4068E+00  0.2498E+02
     16.261 -0.5032E-01  0.2496E+02
     16.523 -0.1912E-03  0.2496E+02
     16.786 -0.1687E-07  0.2496E+02
     17.048 -0.4227E-13  0.2496E+02
     17.310 -0.4130E-19  0.2496E+02
     17.573 -0.2725E-12  0.2496E+02
     17.835 -0.5476E-07  0.2496E+02
     18.097 -0.3034E-03  0.2496E+02
     18.359 -0.3134E-01  0.2495E+02
     18.622  0.4270E+00  0.2507E+02
     18.884  0.7683E+00  0.2527E+02
     19.146 -0.9314E-02  0.2527E+02
     19.409  0.4982E+00  0.2540E+02
     19.671  0.4708E-01  0.2541E+02
     19.933 -0.5716E-01  0.2539E+02
     20.195  0.5882E+00  0.2555E+02
     20.458  0.2698E+01  0.2626E+02
     20.720  0.4262E+01  0.2737E+02
     20.982 -0.1394E+00  0.2734E+02
     21.245 -0.3804E-01  0.2733E+02
     21.507  0.1333E+00  0.2736E+02
     21.769  0.3015E+01  0.2815E+02
     22.031  0.8156E+00  0.2837E+02
     22.294  0.4722E-02  0.2837E+02
     22.556  0.9236E+00  0.2861E+02
     22.818  0.2358E+00  0.2867E+02
     23.081 -0.2037E-01  0.2867E+02
     23.343 -0.2958E-02  0.2867E+02
     23.605 -0.1260E+00  0.2863E+02
     23.868  0.2069E+01  0.2918E+02
     24.130  0.2147E+01  0.2974E+02
     24.392 -0.1306E+00  0.2970E+02
     24.654 -0.2965E-02  0.2970E+02
     24.917 -0.1014E-05  0.2970E+02
     25.179 -0.7883E-09  0.2970E+02
     25.441 -0.2259E-04  0.2970E+02
     25.704 -0.1624E-01  0.2970E+02
     25.966  0.4786E-01  0.2971E+02
     26.228  0.2517E+01  0.3037E+02
     26.490  0.8652E+00  0.3060E+02
     26.753 -0.2110E-01  0.3059E+02
     27.015 -0.4495E-02  0.3059E+02
     27.277 -0.5403E-01  0.3058E+02
     27.540  0.7984E+00  0.3079E+02
     27.802  0.9941E+00  0.3105E+02
     28.064  0.6967E-01  0.3107E+02
     28.326  0.1537E+01  0.3147E+02
     28.589  0.1134E+01  0.3177E+02
     28.851  0.2897E+01  0.3253E+02
     29.113  0.2452E+01  0.3317E+02
     29.376  0.1580E+01  0.3358E+02
     29.638 -0.1102E+00  0.3356E+02
     29.900 -0.7128E-01  0.3354E+02
     30.162  0.1004E+01  0.3380E+02
     30.425  0.1406E+01  0.3417E+02
     30.687 -0.7761E-01  0.3415E+02
     30.949 -0.2970E-02  0.3415E+02
     31.212 -0.9210E-02  0.3415E+02
     31.474  0.1775E+00  0.3419E+02
     31.736  0.5130E+00  0.3433E+02
     31.999  0.3487E+01  0.3524E+02
     32.261  0.4094E+00  0.3535E+02
     32.523  0.1418E+01  0.3572E+02
     32.785  0.3264E-01  0.3573E+02
     33.048  0.3116E+01  0.3655E+02
     33.310  0.4618E+01  0.3776E+02
     33.572 -0.1944E+00  0.3771E+02
     33.835 -0.1172E-01  0.3770E+02
     34.097 -0.3968E-02  0.3770E+02
     34.359 -0.5212E-01  0.3769E+02
     34.621  0.1401E+01  0.3806E+02
     34.884  0.6837E+00  0.3824E+02
     35.146 -0.8174E-01  0.3821E+02
     35.408  0.4127E+00  0.3832E+02
     35.671  0.7851E+00  0.3853E+02
     35.933 -0.3590E-01  0.3852E+02
     36.195 -0.1794E-02  0.3852E+02
     36.457 -0.1171E-05  0.3852E+02
     36.720 -0.6270E-03  0.3852E+02
     36.982 -0.4482E-01  0.3851E+02
     37.244  0.5003E+00  0.3864E+02
     37.507  0.3215E+01  0.3948E+02
     37.769  0.6985E+00  0.3966E+02
     38.031  0.1696E+01  0.4011E+02
     38.293  0.3097E+01  0.4092E+02
     38.556  0.1044E+01  0.4120E+02
     38.818  0.3419E+00  0.4128E+02
     39.080  0.2082E+01  0.4183E+02
     39.343  0.4913E-01  0.4184E+02
     39.605  0.4942E+00  0.4197E+02
     39.867  0.2616E+01  0.4266E+02
     40.130  0.5456E+00  0.4280E+02
     40.392  0.8963E+00  0.4304E+02
     40.654  0.8405E-01  0.4306E+02
     40.916  0.4775E+00  0.4319E+02
     41.179  0.2769E-02  0.4319E+02
     41.441 -0.1007E-01  0.4318E+02
     41.703 -0.1172E-01  0.4318E+02
     41.966  0.1563E+01  0.4359E+02
     42.228  0.3679E+00  0.4369E+02
     42.490  0.1420E+01  0.4406E+02
     42.752  0.2346E+01  0.4467E+02
     43.015  0.2753E+00  0.4475E+02
     43.277 -0.5033E-01  0.4473E+02
     43.539  0.2504E+00  0.4480E+02
     43.802  0.2184E+01  0.4537E+02
     44.064  0.2749E+01  0.4609E+02
     44.326  0.4167E+00  0.4620E+02
     44.588  0.3581E+00  0.4630E+02
     44.851  0.2023E+00  0.4635E+02
     45.113  0.1351E+01  0.4670E+02
     45.375  0.2230E+01  0.4729E+02
     45.638  0.1126E+00  0.4732E+02
     45.900  0.3508E-01  0.4733E+02
     46.162  0.3192E+00  0.4741E+02
     46.424  0.1262E+01  0.4774E+02
     46.687  0.1153E+00  0.4777E+02
     46.949  0.7825E+00  0.4798E+02
     47.211  0.3976E+00  0.4808E+02
     47.474 -0.2982E-01  0.4807E+02
     47.736 -0.2725E-02  0.4807E+02
     47.998 -0.3963E-03  0.4807E+02
     48.261  0.4553E+00  0.4819E+02
     48.523  0.3680E+00  0.4829E+02
     48.785  0.1188E+01  0.4860E+02
     49.047  0.2611E+00  0.4867E+02
     49.310 -0.2778E-01  0.4866E+02
     49.572  0.2835E+01  0.4941E+02
     49.834  0.6786E+00  0.4958E+02
     50.097  0.3181E+01  0.5042E+02
     50.359  0.1742E+01  0.5087E+02
     50.621  0.1825E+01  0.5135E+02
     50.883 -0.7249E-01  0.5133E+02
     51.146 -0.5287E-01  0.5132E+02
     51.408  0.3912E+00  0.5142E+02
     51.670  0.4443E+01  0.5259E+02
     51.933  0.3177E+01  0.5342E+02
     52.195  0.3164E+01  0.5425E+02
     52.457  0.1368E+01  0.5461E+02
     52.719 -0.6668E-01  0.5459E+02
     52.982 -0.1117E-01  0.5459E+02
     53.244  0.1640E+00  0.5463E+02
     53.506  0.6016E+00  0.5479E+02
     53.769  0.2911E+01  0.5555E+02
     54.031  0.1448E+01  0.5593E+02
     54.293  0.2738E+00  0.5601E+02
     54.555 -0.9557E-01  0.5598E+02
     54.818  0.1060E+01  0.5626E+02
     55.080  0.3497E+01  0.5718E+02
     55.342  0.1257E+01  0.5751E+02
     55.605 -0.9245E-01  0.5748E+02
     55.867 -0.1762E-01  0.5748E+02
     56.129  0.1584E+00  0.5752E+02
     56.392  0.9325E+00  0.5776E+02
     56.654  0.2185E+01  0.5834E+02
     56.916  0.7362E+01  0.6027E+02
     57.178  0.3155E+01  0.6109E+02
     57.441 -0.2265E+00  0.6104E+02
     57.703 -0.6125E-01  0.6102E+02
     57.965  0.2714E+01  0.6173E+02
     58.228  0.7656E+00  0.6193E+02
     58.490  0.4737E+00  0.6206E+02
     58.752  0.1689E+01  0.6250E+02
     59.014  0.5563E+00  0.6265E+02
     59.277  0.1385E+01  0.6301E+02
     59.539  0.1476E+01  0.6340E+02
     59.801  0.4320E+00  0.6351E+02
     60.064  0.1311E+01  0.6385E+02
     60.326  0.2541E+00  0.6392E+02
     60.588  0.2363E+01  0.6454E+02
     60.850  0.3676E+01  0.6550E+02
     61.113  0.5207E+00  0.6564E+02
     61.375  0.2678E+01  0.6634E+02
     61.637  0.2726E+01  0.6706E+02
     61.900  0.1293E+01  0.6740E+02
     62.162  0.1013E+01  0.6766E+02
     62.424  0.2976E+01  0.6844E+02
     62.686  0.3527E+01  0.6937E+02
     62.949  0.2675E+01  0.7007E+02
     63.211 -0.9645E-02  0.7007E+02
     63.473  0.4209E+00  0.7018E+02
     63.736  0.2914E+01  0.7094E+02
     63.998  0.2929E+00  0.7102E+02
     64.260  0.3700E+01  0.7199E+02
     64.523  0.1551E+01  0.7240E+02
     64.785  0.1928E+00  0.7245E+02
     65.047  0.2904E+00  0.7252E+02
     65.309 -0.1012E+00  0.7250E+02
     65.572  0.1551E+01  0.7290E+02
     65.834  0.2590E+01  0.7358E+02
     66.096  0.3047E+01  0.7438E+02
     66.359  0.8377E+00  0.7460E+02
     66.621  0.2694E+00  0.7467E+02
     66.883  0.1458E+01  0.7505E+02
     67.145  0.3369E+01  0.7594E+02
     67.408  0.2689E+01  0.7664E+02
     67.670  0.9913E+00  0.7690E+02
     67.932 -0.3505E-01  0.7689E+02
     68.195  0.1705E+01  0.7734E+02
     68.457  0.1130E+01  0.7764E+02
     68.719 -0.6345E-01  0.7762E+02
     68.981  0.4022E+00  0.7773E+02
     69.244  0.1828E+01  0.7821E+02
     69.506  0.2745E-02  0.7821E+02
     69.768  0.4058E+01  0.7927E+02
     70.031  0.2854E+01  0.8002E+02
     70.293 -0.6540E-01  0.8000E+02
     70.555 -0.1132E-01  0.8000E+02
     70.817 -0.1306E-04  0.8000E+02
     71.080 -0.3855E-09  0.8000E+02
     71.342 -0.5017E-15  0.8000E+02
     71.604  0.0000E+00  0.8000E+02
     71.867  0.0000E+00  0.8000E+02
     72.129  0.0000E+00  0.8000E+02
     72.391  0.0000E+00  0.8000E+02
     72.654  0.0000E+00  0.8000E+02
     72.916  0.0000E+00  0.8000E+02
     73.178  0.0000E+00  0.8000E+02
     73.440  0.0000E+00  0.8000E+02
