    2    2    1    1
  0.9638209E+01  0.2330000E-09  0.2330000E-09  0.4100000E-09  0.5000000E-15
  1.000000000000000E-004
  CAR 
 unknown system                          
     16      6     40
 
  0.0000000E+00  0.0000000E+00  0.0000000E+00  0.3703704E-01
    1       -1.670006   1.000000
    2        2.154948   1.000000
    3        5.077692   1.000000
    4        5.585492   1.000000
    5        5.585570   1.000000
    6        5.912228   1.000000
    7        5.912325   1.000000
    8        6.859044   1.000000
    9        7.075699   1.000392
   10        7.075770   1.000392
   11        8.219694  -0.000098
   12        8.219765  -0.000098
   13       15.253481   0.000000
   14       31.423389   0.000000
   15       31.648440   0.000000
   16       34.523000   0.000000
   17       37.224820   0.000000
   18       37.224890   0.000000
   19       37.973050   0.000000
   20       37.973178   0.000000
   21       38.764670   0.000000
   22       40.748131   0.000000
   23       40.748242   0.000000
   24       41.822546   0.000000
   25       44.591040   0.000000
   26       44.591096   0.000000
   27       45.566259   0.000000
   28       48.526499   0.000000
   29       48.526842   0.000000
   30       50.457279   0.000000
   31       50.457499   0.000000
   32       53.187472   0.000000
   33       60.955402   0.000000
   34       62.798150   0.000000
   35       62.798897   0.000000
   36       62.936844   0.000000
   37       64.088830   0.000000
   38       65.483839   0.000000
   39       65.484790   0.000000
   40       67.170108   0.000000
 
  0.3333333E+00  0.3584281E-16  0.0000000E+00  0.2222222E+00
    1        1.827062   1.000000
    2        3.031069   1.000000
    3        3.405419   1.000000
    4        4.864036   1.000000
    5        5.549629   1.000000
    6        5.782209   1.000000
    7        6.164009   1.000000
    8        7.661588   0.334195
    9        7.733034   0.099949
   10        7.878156  -0.034973
   11        8.350510  -0.000002
   12       15.075232   0.000000
   13       15.651831   0.000000
   14       20.221152   0.000000
   15       26.128896   0.000000
   16       27.554076   0.000000
   17       28.188293   0.000000
   18       32.421831   0.000000
   19       34.585544   0.000000
   20       38.127591   0.000000
   21       38.321950   0.000000
   22       39.656444   0.000000
   23       39.790641   0.000000
   24       43.625581   0.000000
   25       51.939953   0.000000
   26       52.081589   0.000000
   27       52.249392   0.000000
   28       54.789952   0.000000
   29       55.085332   0.000000
   30       56.788237   0.000000
   31       58.539571   0.000000
   32       59.380040   0.000000
   33       59.871241   0.000000
   34       60.583639   0.000000
   35       62.273166   0.000000
   36       64.088011   0.000000
   37       66.700249   0.000000
   38       67.227375   0.000000
   39       67.429855   0.000000
   40       68.083096   0.000000
 
  0.3333333E+00  0.3333333E+00  0.0000000E+00  0.7407407E-01
    1        3.386665   1.000000
    2        4.001328   1.000000
    3        4.001419   1.000000
    4        4.109692   1.000000
    5        5.202440   1.000000
    6        5.202464   1.000000
    7        6.159598   1.000000
    8        7.767827   0.029607
    9        7.814045  -0.020798
   10        7.814207  -0.020901
   11       14.220062   0.000000
   12       15.520860   0.000000
   13       15.521032   0.000000
   14       21.912481   0.000000
   15       22.476360   0.000000
   16       22.476378   0.000000
   17       23.817060   0.000000
   18       26.115174   0.000000
   19       26.115359   0.000000
   20       41.898371   0.000000
   21       46.216822   0.000000
   22       46.216939   0.000000
   23       46.374093   0.000000
   24       46.906708   0.000000
   25       46.906854   0.000000
   26       49.928070   0.000000
   27       51.873337   0.000000
   28       51.873365   0.000000
   29       53.969606   0.000000
   30       56.227144   0.000000
   31       56.227189   0.000000
   32       58.666360   0.000000
   33       61.370420   0.000000
   34       61.370611   0.000000
   35       66.140304   0.000000
   36       68.278082   0.000000
   37       68.278365   0.000000
   38       69.038524   0.000000
   39       69.038588   0.000000
   40       69.135145   0.000000
 
  0.0000000E+00  0.0000000E+00  0.3333333E+00  0.7407407E-01
    1       -0.604183   1.000000
    2        1.563686   1.000000
    3        4.839946   1.000000
    4        5.136048   1.000000
    5        5.552172   1.000000
    6        5.552241   1.000000
    7        5.729537   1.000000
    8        5.729620   1.000000
    9        7.488765   0.946595
   10        7.488827   0.946477
   11        8.047568  -0.005133
   12        8.047630  -0.005127
   13       19.286012   0.000000
   14       26.339084   0.000000
   15       31.829899   0.000000
   16       33.012104   0.000000
   17       37.793561   0.000000
   18       37.793587   0.000000
   19       38.079994   0.000000
   20       38.080054   0.000000
   21       40.213092   0.000000
   22       40.213211   0.000000
   23       41.905211   0.000000
   24       41.905288   0.000000
   25       42.790891   0.000000
   26       44.222210   0.000000
   27       48.170838   0.000000
   28       51.409414   0.000000
   29       51.489876   0.000000
   30       51.490073   0.000000
   31       53.922752   0.000000
   32       53.922913   0.000000
   33       56.479386   0.000000
   34       58.959814   0.000000
   35       59.136288   0.000000
   36       59.136527   0.000000
   37       60.367700   0.000000
   38       60.368212   0.000000
   39       64.782082   0.000000
   40       69.093176   0.000000
 
  0.3333333E+00  0.3584281E-16  0.3333333E+00  0.4444444E+00
    1        2.040384   1.000000
    2        2.774740   1.000000
    3        3.720953   1.000000
    4        4.276755   1.000000
    5        5.850722   1.000000
    6        6.578080   1.000000
    7        6.631975   1.000000
    8        7.453261   0.999877
    9        7.770567   0.025328
   10        7.862040  -0.035380
   11        8.127888  -0.001003
   12       10.540119  -0.000000
   13       20.518125   0.000000
   14       21.650913   0.000000
   15       23.878215   0.000000
   16       28.749238   0.000000
   17       29.100844   0.000000
   18       31.887976   0.000000
   19       33.041982   0.000000
   20       33.114839   0.000000
   21       37.385936   0.000000
   22       42.512896   0.000000
   23       43.876234   0.000000
   24       45.142883   0.000000
   25       49.483111   0.000000
   26       50.011357   0.000000
   27       51.620274   0.000000
   28       53.602454   0.000000
   29       56.663703   0.000000
   30       56.930615   0.000000
   31       57.894081   0.000000
   32       60.674137   0.000000
   33       61.406809   0.000000
   34       62.434011   0.000000
   35       62.709463   0.000000
   36       63.578499   0.000000
   37       64.243886   0.000000
   38       65.994831   0.000000
   39       67.032845   0.000000
   40       69.696284   0.000000
 
  0.3333333E+00  0.3333333E+00  0.3333333E+00  0.1481481E+00
    1        3.751248   1.000000
    2        4.002659   1.000000
    3        4.002710   1.000000
    4        4.117922   1.000000
    5        5.016553   1.000000
    6        5.016594   1.000000
    7        6.200239   1.000000
    8        6.931753   1.000006
    9        8.169980  -0.000367
   10        8.170059  -0.000366
   11       15.480756   0.000000
   12       15.480860   0.000000
   13       15.645403   0.000000
   14       18.657823   0.000000
   15       20.514684   0.000000
   16       20.514733   0.000000
   17       28.465536   0.000000
   18       30.183119   0.000000
   19       30.183225   0.000000
   20       35.447299   0.000000
   21       38.939075   0.000000
   22       38.939167   0.000000
   23       48.719919   0.000000
   24       50.378688   0.000000
   25       50.378764   0.000000
   26       51.626176   0.000000
   27       54.985529   0.000000
   28       54.985568   0.000000
   29       56.767433   0.000000
   30       56.904335   0.000000
   31       56.904399   0.000000
   32       61.137358   0.000000
   33       61.872322   0.000000
   34       61.872441   0.000000
   35       65.574995   0.000000
   36       65.646583   0.000000
   37       65.646919   0.000000
   38       69.655432   0.000000
   39       69.863610   0.000000
   40       69.863692   0.000000
