Automatically generated mesh
       6
Reciprocal lattice
    0.00000000000000    0.00000000000000    0.00000000000000             1
    0.33333333333334    0.00000000000000    0.00000000000000             6
    0.33333333333334    0.33333333333334    0.00000000000000             2
    0.00000000000000    0.00000000000000    0.33333333333334             2
    0.33333333333334    0.00000000000000    0.33333333333334            12
    0.33333333333334    0.33333333333334    0.33333333333334             4
