       N       E                     dE             d eps       ncg     rms          rms(c)
DAV:   1    -0.150206496731E+02   -0.15021E+02   -0.19392E-04   552   0.228E-01    0.113E-01
DAV:   2    -0.150126299344E+02    0.80197E-02   -0.24849E-04   528   0.269E-01    0.138E-01
DAV:   3    -0.150122637498E+02    0.36618E-03   -0.65019E-06   576   0.530E-02    0.582E-02
DAV:   4    -0.150122649550E+02   -0.12052E-05   -0.70673E-07   384   0.123E-02    0.596E-02
DAV:   5    -0.150122649048E+02    0.50153E-07   -0.12551E-07   264   0.299E-03
   1 F= -.15012265E+02 E0= -.15016474E+02  d E =0.126262E-01
