<?xml version="1.0" encoding="ISO-8859-1"?>
<modeling>
 <generator>
  <i name="program" type="string">vasp </i>
  <i name="version" type="string">6.2.0  </i>
  <i name="subversion" type="string">18Jan21 (build Mar 17 2021 09:06:54) complex                          serial </i>
  <i name="platform" type="string">LinuxIFC </i>
  <i name="date" type="string">2021 09 09 </i>
  <i name="time" type="string">13:51:20 </i>
 </generator>
 <incar>
  <i type="string" name="PREC">normal</i>
  <i type="int" name="ICHARG">     1</i>
  <i type="int" name="IBRION">    -1</i>
  <i name="EDIFF">      0.00000100</i>
  <i type="int" name="NSW">     0</i>
  <i name="ENCUT">    280.00000000</i>
  <i type="int" name="NBANDS">    40</i>
  <i type="int" name="ISMEAR">     1</i>
  <i name="SIGMA">      0.20000000</i>
  <i type="logical" name="LCHARG"> T  </i>
  <i type="int" name="KPAR">     1</i>
  <i type="int" name="NCORE">     1</i>
  <i type="string" name="GGA">PE</i>
 </incar>
 <primitive_cell>
  <structure name="primitive_cell" >
   <crystal>
    <varray name="basis" >
     <v>       2.33000000       0.00000000       0.00000000 </v>
     <v>      -1.16500000       2.01783919       0.00000000 </v>
     <v>       0.00000000       0.00000000       4.10000000 </v>
    </varray>
    <i name="volume">     19.27641779 </i>
    <varray name="rec_basis" >
     <v>       0.42918455       0.24778982       0.00000000 </v>
     <v>       0.00000000       0.49557963       0.00000000 </v>
     <v>       0.00000000       0.00000000       0.24390244 </v>
    </varray>
   </crystal>
   <varray name="positions" >
    <v>       0.00000000       0.00000000       0.00000000 </v>
    <v>       0.33333333       0.66666667       0.50000000 </v>
   </varray>
  </structure>
  <varray name="primitive_index" >
   <v type="int" >        1 </v>
   <v type="int" >        2 </v>
  </varray>
 </primitive_cell>
 <kpoints>
  <generation param="Monkhorst-Pack">
   <v type="int" name="divisions">       3        3        3 </v>
   <v name="usershift">      0.00000000       0.00000000       0.00000000 </v>
   <v name="genvec1">      0.33333333      -0.00000000       0.00000000 </v>
   <v name="genvec2">      0.00000000       0.33333333       0.00000000 </v>
   <v name="genvec3">      0.00000000       0.00000000       0.33333333 </v>
   <v name="shift">      0.00000000       0.00000000       0.00000000 </v>
  </generation>
  <varray name="kpointlist" >
   <v>       0.00000000       0.00000000       0.00000000 </v>
   <v>       0.33333333       0.00000000       0.00000000 </v>
   <v>       0.33333333       0.33333333       0.00000000 </v>
   <v>       0.00000000       0.00000000       0.33333333 </v>
   <v>       0.33333333       0.00000000       0.33333333 </v>
   <v>       0.33333333       0.33333333       0.33333333 </v>
  </varray>
  <varray name="weights" >
   <v>       0.03703704 </v>
   <v>       0.22222222 </v>
   <v>       0.07407407 </v>
   <v>       0.07407407 </v>
   <v>       0.44444444 </v>
   <v>       0.14814815 </v>
  </varray>
 </kpoints>
 <parameters>
  <separator name="general" >
   <i type="string" name="SYSTEM">unknown system</i>
   <i type="logical" name="LCOMPAT"> F  </i>
  </separator>
  <separator name="electronic" >
   <i type="string" name="PREC">normal</i>
   <i name="ENMAX">    280.00000000</i>
   <i name="ENAUG">    511.36800000</i>
   <i name="EDIFF">      0.00000100</i>
   <i type="int" name="IALGO">    38</i>
   <i type="int" name="IWAVPR">     0</i>
   <i type="int" name="NBANDS">    40</i>
   <i type="int" name="NBANDSLOW">    -1</i>
   <i type="int" name="NBANDSHIGH">    -1</i>
   <i name="NELECT">     16.00000000</i>
   <i type="int" name="TURBO">     0</i>
   <i type="int" name="IRESTART">     0</i>
   <i type="int" name="NREBOOT">     0</i>
   <i type="int" name="NMIN">     0</i>
   <i name="EREF">      0.00000000</i>
   <separator name="electronic smearing" >
    <i type="int" name="ISMEAR">     1</i>
    <i name="SIGMA">      0.20000000</i>
    <i name="KSPACING">      0.50000000</i>
    <i type="logical" name="KGAMMA"> T  </i>
    <i type="logical" name="KBLOWUP"> T  </i>
   </separator>
   <separator name="electronic projectors" >
    <i type="logical" name="LREAL"> F  </i>
    <v name="ROPT">      0.00000000</v>
    <i type="int" name="LMAXPAW">  -100</i>
    <i type="int" name="LMAXMIX">     2</i>
    <i type="logical" name="NLSPLINE"> F  </i>
   </separator>
   <separator name="electronic startup" >
    <i type="int" name="ISTART">     1</i>
    <i type="int" name="ICHARG">     1</i>
    <i type="int" name="INIWAV">     1</i>
   </separator>
   <separator name="electronic spin" >
    <i type="int" name="ISPIN">     1</i>
    <i type="logical" name="LNONCOLLINEAR"> F  </i>
    <v name="MAGMOM">      1.00000000      1.00000000</v>
    <i name="NUPDOWN">     -1.00000000</i>
    <i type="logical" name="LSORBIT"> F  </i>
    <v name="SAXIS">      0.00000000      0.00000000      1.00000000</v>
    <i type="logical" name="LSPIRAL"> F  </i>
    <v name="QSPIRAL">      0.00000000      0.00000000      0.00000000</v>
    <i type="logical" name="LZEROZ"> F  </i>
   </separator>
   <separator name="electronic exchange-correlation" >
    <i type="logical" name="LASPH"> F  </i>
    <i type="logical" name="LMETAGGA"> F  </i>
   </separator>
   <separator name="electronic convergence" >
    <i type="int" name="NELM">    60</i>
    <i type="int" name="NELMDL">     0</i>
    <i type="int" name="NELMIN">     2</i>
    <i name="ENINI">    280.00000000</i>
    <separator name="electronic convergence detail" >
     <i type="logical" name="LDIAG"> T  </i>
     <i type="logical" name="LSUBROT"> F  </i>
     <i name="WEIMIN">      0.00000000</i>
     <i name="EBREAK">      0.00000001</i>
     <i name="DEPER">      0.30000000</i>
     <i type="int" name="NRMM">     4</i>
     <i name="TIME">      0.40000000</i>
    </separator>
   </separator>
   <separator name="electronic mixer" >
    <i name="AMIX">      0.40000000</i>
    <i name="BMIX">      1.00000000</i>
    <i name="AMIN">      0.10000000</i>
    <i name="AMIX_MAG">      1.60000000</i>
    <i name="BMIX_MAG">      1.00000000</i>
    <separator name="electronic mixer details" >
     <i type="int" name="IMIX">     4</i>
     <i type="logical" name="MIXFIRST"> F  </i>
     <i type="int" name="MAXMIX">   -45</i>
     <i name="WC">    100.00000000</i>
     <i type="int" name="INIMIX">     1</i>
     <i type="int" name="MIXPRE">     1</i>
     <i type="int" name="MREMOVE">     5</i>
    </separator>
   </separator>
   <separator name="electronic dipolcorrection" >
    <i type="logical" name="LDIPOL"> F  </i>
    <i type="logical" name="LMONO"> F  </i>
    <i type="int" name="IDIPOL">     0</i>
    <i name="EPSILON">      1.00000000</i>
    <v name="DIPOL">   -100.00000000   -100.00000000   -100.00000000</v>
    <i name="EFIELD">      0.00000000</i>
   </separator>
  </separator>
  <separator name="grids" >
   <i type="int" name="NGX">    10</i>
   <i type="int" name="NGY">    10</i>
   <i type="int" name="NGZ">    18</i>
   <i type="int" name="NGXF">    20</i>
   <i type="int" name="NGYF">    20</i>
   <i type="int" name="NGZF">    36</i>
   <i type="logical" name="ADDGRID"> F  </i>
  </separator>
  <separator name="ionic" >
   <i type="int" name="NSW">     0</i>
   <i type="int" name="IBRION">    -1</i>
   <i type="int" name="MDALGO">     0</i>
   <i type="int" name="ISIF">     2</i>
   <i name="PSTRESS">      0.00000000</i>
   <i name="EDIFFG">      0.00001000</i>
   <i type="int" name="NFREE">     0</i>
   <i name="POTIM">      0.50000000</i>
   <i name="SMASS">     -3.00000000</i>
   <i name="SCALEE">      1.00000000</i>
  </separator>
  <separator name="ionic md" >
   <i name="TEBEG">      0.00010000</i>
   <i name="TEEND">      0.00010000</i>
   <i type="int" name="NBLOCK">     1</i>
   <i type="int" name="KBLOCK">     1</i>
   <i type="int" name="NPACO">   256</i>
   <i name="APACO">     16.00000000</i>
  </separator>
  <separator name="symmetry" >
   <i type="int" name="ISYM">     2</i>
   <i name="SYMPREC">      0.00001000</i>
  </separator>
  <separator name="dos" >
   <i type="int" name="LORBIT">     0</i>
   <v name="RWIGS">     -1.00000000</v>
   <i type="int" name="NEDOS">   301</i>
   <i name="EMIN">     10.00000000</i>
   <i name="EMAX">    -10.00000000</i>
   <i name="EFERMI">      0.00000000</i>
  </separator>
  <separator name="writing" >
   <i type="int" name="NWRITE">     2</i>
   <i type="logical" name="LWAVE"> T  </i>
   <i type="logical" name="LDOWNSAMPLE"> F  </i>
   <i type="logical" name="LCHARG"> T  </i>
   <i type="logical" name="LPARD"> F  </i>
   <i type="logical" name="LVTOT"> F  </i>
   <i type="logical" name="LVHAR"> F  </i>
   <i type="logical" name="LELF"> F  </i>
   <i type="logical" name="LOPTICS"> F  </i>
   <v name="STM">      0.00000000      0.00000000      0.00000000      0.00000000      0.00000000      0.00000000      0.00000000</v>
  </separator>
  <separator name="performance" >
   <i type="int" name="NPAR">     1</i>
   <i type="int" name="NSIM">     4</i>
   <i type="int" name="NBLK">    -1</i>
   <i type="logical" name="LPLANE"> T  </i>
   <i type="logical" name="LSCALAPACK"> F  </i>
   <i type="logical" name="LSCAAWARE"> F  </i>
   <i type="logical" name="LSCALU"> F  </i>
   <i type="logical" name="LASYNC"> F  </i>
   <i type="logical" name="LORBITALREAL"> F  </i>
  </separator>
  <separator name="miscellaneous" >
   <i type="int" name="IDIOT">     3</i>
   <i type="int" name="PHON_NSTRUCT">    -1</i>
   <i type="logical" name="LMUSIC"> F  </i>
   <v name="POMASS">     55.84700000</v>
   <v name="DARWINR">      0.00000000</v>
   <v name="DARWINV">      1.00000000</v>
   <i type="logical" name="LCORR"> T  </i>
  </separator>
  <i type="logical" name="GGA_COMPAT"> T  </i>
  <i type="logical" name="LBERRY"> F  </i>
  <i type="int" name="ICORELEVEL">     0</i>
  <i type="logical" name="LDAU"> F  </i>
  <i type="int" name="I_CONSTRAINED_M">     0</i>
  <separator name="electronic exchange-correlation" >
   <i type="string" name="GGA">PE</i>
   <i type="int" name="VOSKOWN">     0</i>
   <i type="logical" name="LHFCALC"> F  </i>
   <i type="string" name="PRECFOCK"></i>
   <i type="logical" name="LSYMGRAD"> F  </i>
   <i type="logical" name="LHFONE"> F  </i>
   <i type="logical" name="LRHFCALC"> F  </i>
   <i type="logical" name="LTHOMAS"> F  </i>
   <i type="logical" name="LMODELHF"> F  </i>
   <i type="logical" name="LFOCKACE"> F  </i>
   <i name="ENCUT4O">     -1.00000000</i>
   <i type="int" name="EXXOEP">     0</i>
   <i type="int" name="FOURORBIT">     0</i>
   <i name="AEXX">      0.00000000</i>
   <i name="HFALPHA">      0.00000000</i>
   <i name="MCALPHA">      0.00000000</i>
   <i name="ALDAX">      1.00000000</i>
   <i name="AGGAX">      1.00000000</i>
   <i name="ALDAC">      1.00000000</i>
   <i name="AGGAC">      1.00000000</i>
   <i type="int" name="NKREDX">     1</i>
   <i type="int" name="NKREDY">     1</i>
   <i type="int" name="NKREDZ">     1</i>
   <i type="logical" name="SHIFTRED"> F  </i>
   <i type="logical" name="ODDONLY"> F  </i>
   <i type="logical" name="EVENONLY"> F  </i>
   <i type="int" name="LMAXFOCK">     0</i>
   <i type="int" name="NMAXFOCKAE">     0</i>
   <i type="logical" name="LFOCKAEDFT"> F  </i>
   <i name="HFSCREEN">      0.00000000</i>
   <i name="HFSCREENC">      0.00000000</i>
   <i type="int" name="NBANDSGWLOW">     0</i>
  </separator>
  <separator name="vdW DFT" >
   <i type="logical" name="LUSE_VDW"> F  </i>
   <i name="Zab_VDW">     -0.84910000</i>
   <i name="PARAM1">      0.12340000</i>
   <i name="PARAM2">      1.00000000</i>
   <i name="PARAM3">      0.00000000</i>
  </separator>
  <separator name="model GW" >
   <i type="int" name="MODEL_GW">     0</i>
   <i name="MODEL_EPS0">      5.78292534</i>
   <i name="MODEL_ALPHA">      1.00000000</i>
  </separator>
  <separator name="linear response parameters" >
   <i type="logical" name="LEPSILON"> F  </i>
   <i type="logical" name="LRPA"> F  </i>
   <i type="logical" name="LNABLA"> F  </i>
   <i type="logical" name="LVEL"> F  </i>
   <i type="int" name="KINTER">     0</i>
   <i name="CSHIFT">      0.10000000</i>
   <i name="OMEGAMAX">     -1.00000000</i>
   <i name="DEG_THRESHOLD">      0.00200000</i>
   <i name="RTIME">     -0.10000000</i>
   <i name="WPLASMAI">      0.00000000</i>
   <v name="DFIELD">      0.00000000      0.00000000      0.00000000</v>
   <v name="WPLASMA">      0.00000000      0.00000000      0.00000000      0.00000000      0.00000000      0.00000000      0.00000000      0.00000000      0.00000000</v>
  </separator>
  <separator name="orbital magnetization" >
   <i type="logical" name="NUCIND"> F  </i>
   <v name="MAGPOS">      0.00000000      0.00000000      0.00000000</v>
   <i type="logical" name="LNICSALL"> T  </i>
   <i type="logical" name="ORBITALMAG"> F  </i>
   <i type="logical" name="LMAGBLOCH"> F  </i>
   <i type="logical" name="LCHIMAG"> F  </i>
   <i type="logical" name="LGAUGE"> T  </i>
   <i type="int" name="MAGATOM">     0</i>
   <v name="MAGDIPOL">      0.00000000      0.00000000      0.00000000</v>
   <v name="AVECCONST">      0.00000000      0.00000000      0.00000000</v>
  </separator>
  <separator name="response functions" >
   <i type="logical" name="LFINITE_TEMPERATURE"> F  </i>
   <i type="logical" name="LADDER"> F  </i>
   <i type="logical" name="LRPAFORCE"> F  </i>
   <i type="logical" name="LFXC"> F  </i>
   <i type="logical" name="LHARTREE"> T  </i>
   <i type="int" name="IBSE">     0</i>
   <v type="int" name="KPOINT">    -1     0     0     0</v>
   <i type="logical" name="LTCTC"> F  </i>
   <i type="logical" name="LTCTE"> F  </i>
   <i type="logical" name="LTETE"> F  </i>
   <i type="logical" name="LTRIPLET"> F  </i>
   <i type="logical" name="LFXCEPS"> F  </i>
   <i type="logical" name="LFXHEG"> F  </i>
   <i type="int" name="NATURALO">     2</i>
   <i type="logical" name="LHOLEGF"> F  </i>
   <i type="logical" name="L2ORDER"> F  </i>
   <i type="logical" name="LDMP1"> F  </i>
   <i type="logical" name="LMP2LT"> F  </i>
   <i type="logical" name="LSMP2LT"> F  </i>
   <i type="logical" name="LGWLF"> F  </i>
   <i name="ENCUTGW">     -2.00000000</i>
   <i name="ENCUTGWSOFT">     -2.00000000</i>
   <i name="ENCUTLF">     -1.00000000</i>
   <i type="logical" name="LESF_SPLINES"> F  </i>
   <i type="int" name="LMAXMP2">    -1</i>
   <i name="SCISSOR">      0.00000000</i>
   <i type="int" name="NOMEGA">     0</i>
   <i type="int" name="NOMEGAR">     0</i>
   <i type="int" name="NBANDSGW">    -1</i>
   <i type="int" name="NBANDSO">    -1</i>
   <i type="int" name="NBANDSV">    -1</i>
   <i type="int" name="NELM">     1</i>
   <i type="int" name="NELMHF">     1</i>
   <i type="int" name="DIM">     3</i>
   <i type="int" name="IESPILON">     4</i>
   <i type="int" name="ANTIRES">     0</i>
   <i name="OMEGAMAX">    -30.00000000</i>
   <i name="OMEGAMIN">    -30.00000000</i>
   <i name="OMEGATL">   -200.00000000</i>
   <i type="int" name="OMEGAGRID">     0</i>
   <i name="CSHIFT">     -0.10000000</i>
   <i type="logical" name="LSELFENERGY"> F  </i>
   <i type="logical" name="LSPECTRAL"> F  </i>
   <i type="logical" name="LSPECTRALGW"> F  </i>
   <i type="logical" name="LSINGLES"> F  </i>
   <i type="logical" name="LFERMIGW"> F  </i>
   <i type="logical" name="ODDONLYGW"> F  </i>
   <i type="logical" name="EVENONLYGW"> F  </i>
   <i type="int" name="NKREDLFX">     1</i>
   <i type="int" name="NKREDLFY">     1</i>
   <i type="int" name="NKREDLFZ">     1</i>
   <i type="int" name="MAXMEM">  2800</i>
   <i type="int" name="TELESCOPE">     0</i>
   <i type="int" name="NTAUPAR">    -1</i>
   <i type="int" name="NOMEGAPAR">    -1</i>
   <i name="DAMP_NEWTON">      0.80000001</i>
   <i name="LAMBDA">      1.00000000</i>
  </separator>
  <separator name="External order field" >
   <i name="OFIELD_KAPPA">      0.00000000</i>
   <v name="OFIELD_K">      0.00000000      0.00000000      0.00000000</v>
   <i name="OFIELD_Q6_NEAR">      0.00000000</i>
   <i name="OFIELD_Q6_FAR">      0.00000000</i>
   <i name="OFIELD_A">      0.00000000</i>
  </separator>
 </parameters>
 <atominfo>
  <atoms>       2 </atoms>
  <types>       1 </types>
  <array name="atoms" >
   <dimension dim="1">ion</dimension>
   <field type="string">element</field>
   <field type="int">atomtype</field>
   <set>
    <rc><c>Fe</c><c>   1</c></rc>
    <rc><c>Fe</c><c>   1</c></rc>
   </set>
  </array>
  <array name="atomtypes" >
   <dimension dim="1">type</dimension>
   <field type="int">atomspertype</field>
   <field type="string">element</field>
   <field>mass</field>
   <field>valence</field>
   <field type="string">pseudopotential</field>
   <set>
    <rc><c>   2</c><c>Fe</c><c>     55.84700000</c><c>      8.00000000</c><c>  PAW_PBE Fe 06Sep2000                  </c></rc>
   </set>
  </array>
 </atominfo>
 <structure name="initialpos" >
  <crystal>
   <varray name="basis" >
    <v>       2.33000000       0.00000000       0.00000000 </v>
    <v>      -1.16500000       2.01783919       0.00000000 </v>
    <v>       0.00000000       0.00000000       4.10000000 </v>
   </varray>
   <i name="volume">     19.27641779 </i>
   <varray name="rec_basis" >
    <v>       0.42918455       0.24778982       0.00000000 </v>
    <v>       0.00000000       0.49557963       0.00000000 </v>
    <v>       0.00000000       0.00000000       0.24390244 </v>
   </varray>
  </crystal>
  <varray name="positions" >
   <v>       0.00000000       0.00000000       0.00000000 </v>
   <v>       0.33333333       0.66666667       0.50000000 </v>
  </varray>
 </structure>
 <calculation>
  <scstep>
   <time name="dav">    0.08    0.08</time>
   <time name="total">    0.09    0.09</time>
   <energy>
    <i name="alphaZ">    143.41622339 </i>
    <i name="ewald">  -1249.69361233 </i>
    <i name="hartreedc">   -162.24776018 </i>
    <i name="XCdc">      7.12620619 </i>
    <i name="pawpsdc">   1554.81080454 </i>
    <i name="pawaedc">  -1573.87462227 </i>
    <i name="eentropy">      0.01864814 </i>
    <i name="bandstr">     76.84855473 </i>
    <i name="atom">   1188.57490811 </i>
    <i name="e_fr_energy">    -15.02064967 </i>
    <i name="e_wo_entrp">    -15.03929782 </i>
    <i name="e_0_energy">    -15.02686572 </i>
   </energy>
  </scstep>
  <scstep>
   <time name="dav">    0.04    0.04</time>
   <time name="total">    0.05    0.05</time>
   <energy>
    <i name="e_fr_energy">    -15.01262993 </i>
    <i name="e_wo_entrp">    -15.02405665 </i>
    <i name="e_0_energy">    -15.01643884 </i>
   </energy>
  </scstep>
  <scstep>
   <time name="dav">    0.06    0.06</time>
   <time name="total">    0.07    0.07</time>
   <energy>
    <i name="e_fr_energy">    -15.01226375 </i>
    <i name="e_wo_entrp">    -15.02518477 </i>
    <i name="e_0_energy">    -15.01657076 </i>
   </energy>
  </scstep>
  <scstep>
   <time name="dav">    0.04    0.04</time>
   <time name="total">    0.04    0.04</time>
   <energy>
    <i name="e_fr_energy">    -15.01226495 </i>
    <i name="e_wo_entrp">    -15.02483157 </i>
    <i name="e_0_energy">    -15.01645383 </i>
   </energy>
  </scstep>
  <scstep>
   <time name="dav">    0.04    0.04</time>
   <time name="total">    0.04    0.04</time>
   <energy>
    <i name="alphaZ">    143.41622339 </i>
    <i name="ewald">  -1249.69361233 </i>
    <i name="hartreedc">   -162.24787137 </i>
    <i name="XCdc">      7.12617544 </i>
    <i name="pawpsdc">   1554.81269575 </i>
    <i name="pawaedc">  -1573.88414178 </i>
    <i name="eentropy">      0.01262618 </i>
    <i name="bandstr">     76.87073169 </i>
    <i name="atom">   1188.57490811 </i>
    <i name="e_fr_energy">    -15.01226490 </i>
    <i name="e_wo_entrp">    -15.02489108 </i>
    <i name="e_0_energy">    -15.01647363 </i>
   </energy>
  </scstep>
  <structure>
   <crystal>
    <varray name="basis" >
     <v>       2.33000000       0.00000000       0.00000000 </v>
     <v>      -1.16500000       2.01783919       0.00000000 </v>
     <v>       0.00000000       0.00000000       4.10000000 </v>
    </varray>
    <i name="volume">     19.27641779 </i>
    <varray name="rec_basis" >
     <v>       0.42918455       0.24778982       0.00000000 </v>
     <v>       0.00000000       0.49557963       0.00000000 </v>
     <v>       0.00000000       0.00000000       0.24390244 </v>
    </varray>
   </crystal>
   <varray name="positions" >
    <v>       0.00000000       0.00000000       0.00000000 </v>
    <v>       0.33333333       0.66666667       0.50000000 </v>
   </varray>
  </structure>
  <varray name="forces" >
   <v>       0.00000000       0.00000000      -0.00000000 </v>
   <v>      -0.00000000      -0.00000000       0.00000000 </v>
  </varray>
  <varray name="stress" >
   <v>     615.51284059       0.00000000       0.00000000 </v>
   <v>       0.00000000     615.51284059      -0.00000000 </v>
   <v>       0.00000000      -0.00000000    -252.64239714 </v>
  </varray>
  <energy>
   <i name="e_fr_energy">    -15.01226490 </i>
   <i name="e_wo_entrp">    -15.02489108 </i>
   <i name="e_0_energy">    -15.01647363 </i>
  </energy>
  <time name="totalsc">    0.35    0.35</time>
  <eigenvalues>
   <array>
    <dimension dim="1">band</dimension>
    <dimension dim="2">kpoint</dimension>
    <dimension dim="3">spin</dimension>
    <field>eigene</field>
    <field>occ</field>
    <set>
     <set comment="spin 1">
      <set comment="kpoint 1">
       <r>   -1.6700    1.0000 </r>
       <r>    2.1549    1.0000 </r>
       <r>    5.0777    1.0000 </r>
       <r>    5.5855    1.0000 </r>
       <r>    5.5856    1.0000 </r>
       <r>    5.9122    1.0000 </r>
       <r>    5.9123    1.0000 </r>
       <r>    6.8590    1.0000 </r>
       <r>    7.0757    1.0004 </r>
       <r>    7.0758    1.0004 </r>
       <r>    8.2197   -0.0001 </r>
       <r>    8.2198   -0.0001 </r>
       <r>   15.2535    0.0000 </r>
       <r>   31.4234    0.0000 </r>
       <r>   31.6484    0.0000 </r>
       <r>   34.5230    0.0000 </r>
       <r>   37.2248    0.0000 </r>
       <r>   37.2249    0.0000 </r>
       <r>   37.9730    0.0000 </r>
       <r>   37.9732    0.0000 </r>
       <r>   38.7647    0.0000 </r>
       <r>   40.7481    0.0000 </r>
       <r>   40.7482    0.0000 </r>
       <r>   41.8225    0.0000 </r>
       <r>   44.5910    0.0000 </r>
       <r>   44.5911    0.0000 </r>
       <r>   45.5663    0.0000 </r>
       <r>   48.5265    0.0000 </r>
       <r>   48.5268    0.0000 </r>
       <r>   50.4573    0.0000 </r>
       <r>   50.4575    0.0000 </r>
       <r>   53.1875    0.0000 </r>
       <r>   60.9554    0.0000 </r>
       <r>   62.7982    0.0000 </r>
       <r>   62.7989    0.0000 </r>
       <r>   62.9368    0.0000 </r>
       <r>   64.0888    0.0000 </r>
       <r>   65.4838    0.0000 </r>
       <r>   65.4848    0.0000 </r>
       <r>   67.1701    0.0000 </r>
      </set>
      <set comment="kpoint 2">
       <r>    1.8271    1.0000 </r>
       <r>    3.0311    1.0000 </r>
       <r>    3.4054    1.0000 </r>
       <r>    4.8640    1.0000 </r>
       <r>    5.5496    1.0000 </r>
       <r>    5.7822    1.0000 </r>
       <r>    6.1640    1.0000 </r>
       <r>    7.6616    0.3342 </r>
       <r>    7.7330    0.0999 </r>
       <r>    7.8782   -0.0350 </r>
       <r>    8.3505   -0.0000 </r>
       <r>   15.0752    0.0000 </r>
       <r>   15.6518    0.0000 </r>
       <r>   20.2212    0.0000 </r>
       <r>   26.1289    0.0000 </r>
       <r>   27.5541    0.0000 </r>
       <r>   28.1883    0.0000 </r>
       <r>   32.4218    0.0000 </r>
       <r>   34.5855    0.0000 </r>
       <r>   38.1276    0.0000 </r>
       <r>   38.3219    0.0000 </r>
       <r>   39.6564    0.0000 </r>
       <r>   39.7906    0.0000 </r>
       <r>   43.6256    0.0000 </r>
       <r>   51.9400    0.0000 </r>
       <r>   52.0816    0.0000 </r>
       <r>   52.2494    0.0000 </r>
       <r>   54.7900    0.0000 </r>
       <r>   55.0853    0.0000 </r>
       <r>   56.7882    0.0000 </r>
       <r>   58.5396    0.0000 </r>
       <r>   59.3800    0.0000 </r>
       <r>   59.8712    0.0000 </r>
       <r>   60.5836    0.0000 </r>
       <r>   62.2732    0.0000 </r>
       <r>   64.0880    0.0000 </r>
       <r>   66.7002    0.0000 </r>
       <r>   67.2274    0.0000 </r>
       <r>   67.4299    0.0000 </r>
       <r>   68.0831    0.0000 </r>
      </set>
      <set comment="kpoint 3">
       <r>    3.3867    1.0000 </r>
       <r>    4.0013    1.0000 </r>
       <r>    4.0014    1.0000 </r>
       <r>    4.1097    1.0000 </r>
       <r>    5.2024    1.0000 </r>
       <r>    5.2025    1.0000 </r>
       <r>    6.1596    1.0000 </r>
       <r>    7.7678    0.0296 </r>
       <r>    7.8140   -0.0208 </r>
       <r>    7.8142   -0.0209 </r>
       <r>   14.2201    0.0000 </r>
       <r>   15.5209    0.0000 </r>
       <r>   15.5210    0.0000 </r>
       <r>   21.9125    0.0000 </r>
       <r>   22.4764    0.0000 </r>
       <r>   22.4764    0.0000 </r>
       <r>   23.8171    0.0000 </r>
       <r>   26.1152    0.0000 </r>
       <r>   26.1154    0.0000 </r>
       <r>   41.8984    0.0000 </r>
       <r>   46.2168    0.0000 </r>
       <r>   46.2169    0.0000 </r>
       <r>   46.3741    0.0000 </r>
       <r>   46.9067    0.0000 </r>
       <r>   46.9069    0.0000 </r>
       <r>   49.9281    0.0000 </r>
       <r>   51.8733    0.0000 </r>
       <r>   51.8734    0.0000 </r>
       <r>   53.9696    0.0000 </r>
       <r>   56.2271    0.0000 </r>
       <r>   56.2272    0.0000 </r>
       <r>   58.6664    0.0000 </r>
       <r>   61.3704    0.0000 </r>
       <r>   61.3706    0.0000 </r>
       <r>   66.1403    0.0000 </r>
       <r>   68.2781    0.0000 </r>
       <r>   68.2784    0.0000 </r>
       <r>   69.0385    0.0000 </r>
       <r>   69.0386    0.0000 </r>
       <r>   69.1351    0.0000 </r>
      </set>
      <set comment="kpoint 4">
       <r>   -0.6042    1.0000 </r>
       <r>    1.5637    1.0000 </r>
       <r>    4.8399    1.0000 </r>
       <r>    5.1360    1.0000 </r>
       <r>    5.5522    1.0000 </r>
       <r>    5.5522    1.0000 </r>
       <r>    5.7295    1.0000 </r>
       <r>    5.7296    1.0000 </r>
       <r>    7.4888    0.9466 </r>
       <r>    7.4888    0.9465 </r>
       <r>    8.0476   -0.0051 </r>
       <r>    8.0476   -0.0051 </r>
       <r>   19.2860    0.0000 </r>
       <r>   26.3391    0.0000 </r>
       <r>   31.8299    0.0000 </r>
       <r>   33.0121    0.0000 </r>
       <r>   37.7936    0.0000 </r>
       <r>   37.7936    0.0000 </r>
       <r>   38.0800    0.0000 </r>
       <r>   38.0801    0.0000 </r>
       <r>   40.2131    0.0000 </r>
       <r>   40.2132    0.0000 </r>
       <r>   41.9052    0.0000 </r>
       <r>   41.9053    0.0000 </r>
       <r>   42.7909    0.0000 </r>
       <r>   44.2222    0.0000 </r>
       <r>   48.1708    0.0000 </r>
       <r>   51.4094    0.0000 </r>
       <r>   51.4899    0.0000 </r>
       <r>   51.4901    0.0000 </r>
       <r>   53.9228    0.0000 </r>
       <r>   53.9229    0.0000 </r>
       <r>   56.4794    0.0000 </r>
       <r>   58.9598    0.0000 </r>
       <r>   59.1363    0.0000 </r>
       <r>   59.1365    0.0000 </r>
       <r>   60.3677    0.0000 </r>
       <r>   60.3682    0.0000 </r>
       <r>   64.7821    0.0000 </r>
       <r>   69.0932    0.0000 </r>
      </set>
      <set comment="kpoint 5">
       <r>    2.0404    1.0000 </r>
       <r>    2.7747    1.0000 </r>
       <r>    3.7210    1.0000 </r>
       <r>    4.2768    1.0000 </r>
       <r>    5.8507    1.0000 </r>
       <r>    6.5781    1.0000 </r>
       <r>    6.6320    1.0000 </r>
       <r>    7.4533    0.9999 </r>
       <r>    7.7706    0.0253 </r>
       <r>    7.8620   -0.0354 </r>
       <r>    8.1279   -0.0010 </r>
       <r>   10.5401   -0.0000 </r>
       <r>   20.5181    0.0000 </r>
       <r>   21.6509    0.0000 </r>
       <r>   23.8782    0.0000 </r>
       <r>   28.7492    0.0000 </r>
       <r>   29.1008    0.0000 </r>
       <r>   31.8880    0.0000 </r>
       <r>   33.0420    0.0000 </r>
       <r>   33.1148    0.0000 </r>
       <r>   37.3859    0.0000 </r>
       <r>   42.5129    0.0000 </r>
       <r>   43.8762    0.0000 </r>
       <r>   45.1429    0.0000 </r>
       <r>   49.4831    0.0000 </r>
       <r>   50.0114    0.0000 </r>
       <r>   51.6203    0.0000 </r>
       <r>   53.6025    0.0000 </r>
       <r>   56.6637    0.0000 </r>
       <r>   56.9306    0.0000 </r>
       <r>   57.8941    0.0000 </r>
       <r>   60.6741    0.0000 </r>
       <r>   61.4068    0.0000 </r>
       <r>   62.4340    0.0000 </r>
       <r>   62.7095    0.0000 </r>
       <r>   63.5785    0.0000 </r>
       <r>   64.2439    0.0000 </r>
       <r>   65.9948    0.0000 </r>
       <r>   67.0328    0.0000 </r>
       <r>   69.6963    0.0000 </r>
      </set>
      <set comment="kpoint 6">
       <r>    3.7512    1.0000 </r>
       <r>    4.0027    1.0000 </r>
       <r>    4.0027    1.0000 </r>
       <r>    4.1179    1.0000 </r>
       <r>    5.0166    1.0000 </r>
       <r>    5.0166    1.0000 </r>
       <r>    6.2002    1.0000 </r>
       <r>    6.9318    1.0000 </r>
       <r>    8.1700   -0.0004 </r>
       <r>    8.1701   -0.0004 </r>
       <r>   15.4808    0.0000 </r>
       <r>   15.4809    0.0000 </r>
       <r>   15.6454    0.0000 </r>
       <r>   18.6578    0.0000 </r>
       <r>   20.5147    0.0000 </r>
       <r>   20.5147    0.0000 </r>
       <r>   28.4655    0.0000 </r>
       <r>   30.1831    0.0000 </r>
       <r>   30.1832    0.0000 </r>
       <r>   35.4473    0.0000 </r>
       <r>   38.9391    0.0000 </r>
       <r>   38.9392    0.0000 </r>
       <r>   48.7199    0.0000 </r>
       <r>   50.3787    0.0000 </r>
       <r>   50.3788    0.0000 </r>
       <r>   51.6262    0.0000 </r>
       <r>   54.9855    0.0000 </r>
       <r>   54.9856    0.0000 </r>
       <r>   56.7674    0.0000 </r>
       <r>   56.9043    0.0000 </r>
       <r>   56.9044    0.0000 </r>
       <r>   61.1374    0.0000 </r>
       <r>   61.8723    0.0000 </r>
       <r>   61.8724    0.0000 </r>
       <r>   65.5750    0.0000 </r>
       <r>   65.6466    0.0000 </r>
       <r>   65.6469    0.0000 </r>
       <r>   69.6554    0.0000 </r>
       <r>   69.8636    0.0000 </r>
       <r>   69.8637    0.0000 </r>
      </set>
     </set>
    </set>
   </array>
  </eigenvalues>
  <separator name="orbital magnetization" >
   <v name="MAGDIPOLOUT">      0.00000000      0.00000000      0.00000000</v>
  </separator>
  <dos>
   <i name="efermi">      7.62152572 </i>
   <total>
    <array>
     <dimension dim="1">gridpoints</dimension>
     <dimension dim="2">spin</dimension>
     <field>energy</field>
     <field>total</field>
     <field>integrated</field>
     <set>
      <set comment="spin 1">
       <r>    -5.2467     0.0000     0.0000 </r>
       <r>    -4.9844     0.0000     0.0000 </r>
       <r>    -4.7221     0.0000     0.0000 </r>
       <r>    -4.4598     0.0000     0.0000 </r>
       <r>    -4.1975     0.0000     0.0000 </r>
       <r>    -3.9352     0.0000     0.0000 </r>
       <r>    -3.6729     0.0000     0.0000 </r>
       <r>    -3.4107    -0.0000    -0.0000 </r>
       <r>    -3.1484    -0.0000    -0.0000 </r>
       <r>    -2.8861    -0.0000    -0.0000 </r>
       <r>    -2.6238    -0.0000    -0.0000 </r>
       <r>    -2.3615    -0.0000    -0.0000 </r>
       <r>    -2.0992    -0.0014    -0.0004 </r>
       <r>    -1.8369     0.0018     0.0001 </r>
       <r>    -1.5746     0.2416     0.0635 </r>
       <r>    -1.3123     0.0445     0.0752 </r>
       <r>    -1.0500    -0.0062     0.0736 </r>
       <r>    -0.7878    -0.0061     0.0719 </r>
       <r>    -0.5255     0.4635     0.1935 </r>
       <r>    -0.2632     0.1198     0.2249 </r>
       <r>    -0.0009    -0.0103     0.2222 </r>
       <r>     0.2614    -0.0000     0.2222 </r>
       <r>     0.5237    -0.0000     0.2222 </r>
       <r>     0.7860    -0.0000     0.2222 </r>
       <r>     1.0483    -0.0005     0.2221 </r>
       <r>     1.3106    -0.0208     0.2167 </r>
       <r>     1.5729     0.2581     0.2843 </r>
       <r>     1.8351     1.1517     0.5864 </r>
       <r>     2.0974     3.4800     1.4992 </r>
       <r>     2.3597     1.1284     1.7951 </r>
       <r>     2.6220    -0.0094     1.7927 </r>
       <r>     2.8843     3.0242     2.5859 </r>
       <r>     3.1466     1.8114     3.0610 </r>
       <r>     3.4089     1.3123     3.4052 </r>
       <r>     3.6712     2.3557     4.0231 </r>
       <r>     3.9335     4.1083     5.1006 </r>
       <r>     4.1958     4.6729     6.3263 </r>
       <r>     4.4580     3.0559     7.1278 </r>
       <r>     4.7203    -0.0220     7.1221 </r>
       <r>     4.9826     2.8806     7.8776 </r>
       <r>     5.2449     3.1579     8.7059 </r>
       <r>     5.5072     1.3160     9.0511 </r>
       <r>     5.7695     4.7199    10.2891 </r>
       <r>     6.0318     4.7660    11.5391 </r>
       <r>     6.2941     2.7259    12.2541 </r>
       <r>     6.5564     2.5359    12.9192 </r>
       <r>     6.8187     5.0449    14.2425 </r>
       <r>     7.0809     1.2939    14.5818 </r>
       <r>     7.3432     0.6550    14.7536 </r>
       <r>     7.6055     4.3919    15.9056 </r>
       <r>     7.8678     9.7545    18.4641 </r>
       <r>     8.1301     7.3149    20.3827 </r>
       <r>     8.3924     4.9817    21.6893 </r>
       <r>     8.6547     0.3908    21.7918 </r>
       <r>     8.9170    -0.0532    21.7779 </r>
       <r>     9.1793    -0.0004    21.7778 </r>
       <r>     9.4416    -0.0000    21.7778 </r>
       <r>     9.7039    -0.0000    21.7778 </r>
       <r>     9.9661    -0.0006    21.7776 </r>
       <r>    10.2284    -0.0840    21.7556 </r>
       <r>    10.4907     1.0942    22.0426 </r>
       <r>    10.7530     2.4831    22.6939 </r>
       <r>    11.0153    -0.0970    22.6684 </r>
       <r>    11.2776    -0.0067    22.6667 </r>
       <r>    11.5399    -0.0000    22.6667 </r>
       <r>    11.8022    -0.0000    22.6667 </r>
       <r>    12.0645     0.0000    22.6667 </r>
       <r>    12.3268     0.0000    22.6667 </r>
       <r>    12.5890    -0.0000    22.6667 </r>
       <r>    12.8513    -0.0000    22.6667 </r>
       <r>    13.1136    -0.0000    22.6667 </r>
       <r>    13.3759    -0.0000    22.6667 </r>
       <r>    13.6382    -0.0001    22.6666 </r>
       <r>    13.9005    -0.0130    22.6632 </r>
       <r>    14.1628     0.1646    22.7064 </r>
       <r>    14.4251     0.4288    22.8189 </r>
       <r>    14.6874    -0.0307    22.8108 </r>
       <r>    14.9497     0.1211    22.8426 </r>
       <r>    15.2119     1.4867    23.2325 </r>
       <r>    15.4742     1.8033    23.7055 </r>
       <r>    15.7365     4.4377    24.8695 </r>
       <r>    15.9988     0.4068    24.9762 </r>
       <r>    16.2611    -0.0503    24.9630 </r>
       <r>    16.5234    -0.0002    24.9630 </r>
       <r>    16.7857    -0.0000    24.9630 </r>
       <r>    17.0480    -0.0000    24.9630 </r>
       <r>    17.3103    -0.0000    24.9630 </r>
       <r>    17.5726    -0.0000    24.9630 </r>
       <r>    17.8348    -0.0000    24.9630 </r>
       <r>    18.0971    -0.0003    24.9629 </r>
       <r>    18.3594    -0.0313    24.9547 </r>
       <r>    18.6217     0.4270    25.0667 </r>
       <r>    18.8840     0.7683    25.2682 </r>
       <r>    19.1463    -0.0093    25.2657 </r>
       <r>    19.4086     0.4982    25.3964 </r>
       <r>    19.6709     0.0471    25.4088 </r>
       <r>    19.9332    -0.0572    25.3938 </r>
       <r>    20.1955     0.5882    25.5480 </r>
       <r>    20.4578     2.6977    26.2556 </r>
       <r>    20.7200     4.2619    27.3735 </r>
       <r>    20.9823    -0.1394    27.3369 </r>
       <r>    21.2446    -0.0380    27.3269 </r>
       <r>    21.5069     0.1333    27.3619 </r>
       <r>    21.7692     3.0154    28.1528 </r>
       <r>    22.0315     0.8156    28.3667 </r>
       <r>    22.2938     0.0047    28.3680 </r>
       <r>    22.5561     0.9236    28.6102 </r>
       <r>    22.8184     0.2358    28.6720 </r>
       <r>    23.0807    -0.0204    28.6667 </r>
       <r>    23.3429    -0.0030    28.6659 </r>
       <r>    23.6052    -0.1260    28.6329 </r>
       <r>    23.8675     2.0691    29.1756 </r>
       <r>    24.1298     2.1471    29.7387 </r>
       <r>    24.3921    -0.1306    29.7045 </r>
       <r>    24.6544    -0.0030    29.7037 </r>
       <r>    24.9167    -0.0000    29.7037 </r>
       <r>    25.1790    -0.0000    29.7037 </r>
       <r>    25.4413    -0.0000    29.7037 </r>
       <r>    25.7036    -0.0162    29.6994 </r>
       <r>    25.9658     0.0479    29.7120 </r>
       <r>    26.2281     2.5169    30.3722 </r>
       <r>    26.4904     0.8652    30.5991 </r>
       <r>    26.7527    -0.0211    30.5936 </r>
       <r>    27.0150    -0.0045    30.5924 </r>
       <r>    27.2773    -0.0540    30.5782 </r>
       <r>    27.5396     0.7984    30.7876 </r>
       <r>    27.8019     0.9941    31.0484 </r>
       <r>    28.0642     0.0697    31.0667 </r>
       <r>    28.3265     1.5368    31.4697 </r>
       <r>    28.5887     1.1341    31.7672 </r>
       <r>    28.8510     2.8971    32.5271 </r>
       <r>    29.1133     2.4516    33.1701 </r>
       <r>    29.3756     1.5804    33.5846 </r>
       <r>    29.6379    -0.1102    33.5558 </r>
       <r>    29.9002    -0.0713    33.5371 </r>
       <r>    30.1625     1.0036    33.8003 </r>
       <r>    30.4248     1.4062    34.1691 </r>
       <r>    30.6871    -0.0776    34.1488 </r>
       <r>    30.9494    -0.0030    34.1480 </r>
       <r>    31.2117    -0.0092    34.1456 </r>
       <r>    31.4739     0.1775    34.1921 </r>
       <r>    31.7362     0.5130    34.3267 </r>
       <r>    31.9985     3.4868    35.2412 </r>
       <r>    32.2608     0.4094    35.3486 </r>
       <r>    32.5231     1.4183    35.7206 </r>
       <r>    32.7854     0.0326    35.7292 </r>
       <r>    33.0477     3.1165    36.5466 </r>
       <r>    33.3100     4.6176    37.7578 </r>
       <r>    33.5723    -0.1944    37.7068 </r>
       <r>    33.8346    -0.0117    37.7037 </r>
       <r>    34.0968    -0.0040    37.7027 </r>
       <r>    34.3591    -0.0521    37.6890 </r>
       <r>    34.6214     1.4005    38.0563 </r>
       <r>    34.8837     0.6837    38.2357 </r>
       <r>    35.1460    -0.0817    38.2142 </r>
       <r>    35.4083     0.4127    38.3225 </r>
       <r>    35.6706     0.7851    38.5284 </r>
       <r>    35.9329    -0.0359    38.5190 </r>
       <r>    36.1952    -0.0018    38.5185 </r>
       <r>    36.4575    -0.0000    38.5185 </r>
       <r>    36.7197    -0.0006    38.5184 </r>
       <r>    36.9820    -0.0448    38.5066 </r>
       <r>    37.2443     0.5003    38.6378 </r>
       <r>    37.5066     3.2147    39.4810 </r>
       <r>    37.7689     0.6985    39.6642 </r>
       <r>    38.0312     1.6961    40.1091 </r>
       <r>    38.2935     3.0973    40.9215 </r>
       <r>    38.5558     1.0436    41.1952 </r>
       <r>    38.8181     0.3419    41.2849 </r>
       <r>    39.0804     2.0823    41.8310 </r>
       <r>    39.3426     0.0491    41.8439 </r>
       <r>    39.6049     0.4942    41.9735 </r>
       <r>    39.8672     2.6159    42.6597 </r>
       <r>    40.1295     0.5456    42.8028 </r>
       <r>    40.3918     0.8963    43.0379 </r>
       <r>    40.6541     0.0840    43.0599 </r>
       <r>    40.9164     0.4775    43.1852 </r>
       <r>    41.1787     0.0028    43.1859 </r>
       <r>    41.4410    -0.0101    43.1832 </r>
       <r>    41.7033    -0.0117    43.1802 </r>
       <r>    41.9655     1.5628    43.5901 </r>
       <r>    42.2278     0.3679    43.6866 </r>
       <r>    42.4901     1.4204    44.0591 </r>
       <r>    42.7524     2.3460    44.6745 </r>
       <r>    43.0147     0.2753    44.7467 </r>
       <r>    43.2770    -0.0503    44.7335 </r>
       <r>    43.5393     0.2504    44.7991 </r>
       <r>    43.8016     2.1840    45.3720 </r>
       <r>    44.0639     2.7494    46.0931 </r>
       <r>    44.3262     0.4167    46.2024 </r>
       <r>    44.5885     0.3581    46.2963 </r>
       <r>    44.8507     0.2023    46.3494 </r>
       <r>    45.1130     1.3511    46.7038 </r>
       <r>    45.3753     2.2301    47.2887 </r>
       <r>    45.6376     0.1126    47.3183 </r>
       <r>    45.8999     0.0351    47.3275 </r>
       <r>    46.1622     0.3192    47.4112 </r>
       <r>    46.4245     1.2619    47.7422 </r>
       <r>    46.6868     0.1153    47.7724 </r>
       <r>    46.9491     0.7825    47.9777 </r>
       <r>    47.2114     0.3976    48.0820 </r>
       <r>    47.4736    -0.0298    48.0741 </r>
       <r>    47.7359    -0.0027    48.0734 </r>
       <r>    47.9982    -0.0004    48.0733 </r>
       <r>    48.2605     0.4553    48.1927 </r>
       <r>    48.5228     0.3680    48.2893 </r>
       <r>    48.7851     1.1877    48.6008 </r>
       <r>    49.0474     0.2611    48.6693 </r>
       <r>    49.3097    -0.0278    48.6620 </r>
       <r>    49.5720     2.8355    49.4057 </r>
       <r>    49.8343     0.6786    49.5837 </r>
       <r>    50.0965     3.1807    50.4180 </r>
       <r>    50.3588     1.7420    50.8749 </r>
       <r>    50.6211     1.8251    51.3536 </r>
       <r>    50.8834    -0.0725    51.3346 </r>
       <r>    51.1457    -0.0529    51.3207 </r>
       <r>    51.4080     0.3912    51.4233 </r>
       <r>    51.6703     4.4432    52.5887 </r>
       <r>    51.9326     3.1769    53.4220 </r>
       <r>    52.1949     3.1644    54.2520 </r>
       <r>    52.4572     1.3684    54.6109 </r>
       <r>    52.7194    -0.0667    54.5934 </r>
       <r>    52.9817    -0.0112    54.5905 </r>
       <r>    53.2440     0.1640    54.6335 </r>
       <r>    53.5063     0.6016    54.7913 </r>
       <r>    53.7686     2.9109    55.5548 </r>
       <r>    54.0309     1.4481    55.9346 </r>
       <r>    54.2932     0.2738    56.0065 </r>
       <r>    54.5555    -0.0956    55.9814 </r>
       <r>    54.8178     1.0598    56.2594 </r>
       <r>    55.0801     3.4965    57.1765 </r>
       <r>    55.3424     1.2567    57.5061 </r>
       <r>    55.6046    -0.0925    57.4818 </r>
       <r>    55.8669    -0.0176    57.4772 </r>
       <r>    56.1292     0.1584    57.5188 </r>
       <r>    56.3915     0.9325    57.7633 </r>
       <r>    56.6538     2.1846    58.3363 </r>
       <r>    56.9161     7.3624    60.2674 </r>
       <r>    57.1784     3.1546    61.0948 </r>
       <r>    57.4407    -0.2265    61.0354 </r>
       <r>    57.7030    -0.0613    61.0194 </r>
       <r>    57.9653     2.7140    61.7312 </r>
       <r>    58.2275     0.7656    61.9320 </r>
       <r>    58.4898     0.4737    62.0563 </r>
       <r>    58.7521     1.6893    62.4994 </r>
       <r>    59.0144     0.5563    62.6453 </r>
       <r>    59.2767     1.3846    63.0084 </r>
       <r>    59.5390     1.4764    63.3957 </r>
       <r>    59.8013     0.4320    63.5090 </r>
       <r>    60.0636     1.3107    63.8528 </r>
       <r>    60.3259     0.2541    63.9194 </r>
       <r>    60.5882     2.3633    64.5393 </r>
       <r>    60.8504     3.6756    65.5033 </r>
       <r>    61.1127     0.5207    65.6399 </r>
       <r>    61.3750     2.6781    66.3424 </r>
       <r>    61.6373     2.7260    67.0574 </r>
       <r>    61.8996     1.2930    67.3965 </r>
       <r>    62.1619     1.0132    67.6623 </r>
       <r>    62.4242     2.9755    68.4427 </r>
       <r>    62.6865     3.5268    69.3678 </r>
       <r>    62.9488     2.6750    70.0694 </r>
       <r>    63.2111    -0.0096    70.0669 </r>
       <r>    63.4733     0.4209    70.1773 </r>
       <r>    63.7356     2.9144    70.9417 </r>
       <r>    63.9979     0.2929    71.0185 </r>
       <r>    64.2602     3.7004    71.9891 </r>
       <r>    64.5225     1.5513    72.3960 </r>
       <r>    64.7848     0.1928    72.4465 </r>
       <r>    65.0471     0.2904    72.5227 </r>
       <r>    65.3094    -0.1012    72.4962 </r>
       <r>    65.5717     1.5513    72.9031 </r>
       <r>    65.8340     2.5902    73.5824 </r>
       <r>    66.0963     3.0474    74.3818 </r>
       <r>    66.3585     0.8377    74.6015 </r>
       <r>    66.6208     0.2694    74.6721 </r>
       <r>    66.8831     1.4578    75.0545 </r>
       <r>    67.1454     3.3688    75.9381 </r>
       <r>    67.4077     2.6895    76.6435 </r>
       <r>    67.6700     0.9913    76.9035 </r>
       <r>    67.9323    -0.0351    76.8943 </r>
       <r>    68.1946     1.7054    77.3416 </r>
       <r>    68.4569     1.1296    77.6379 </r>
       <r>    68.7192    -0.0635    77.6213 </r>
       <r>    68.9814     0.4022    77.7268 </r>
       <r>    69.2437     1.8284    78.2063 </r>
       <r>    69.5060     0.0027    78.2071 </r>
       <r>    69.7683     4.0582    79.2715 </r>
       <r>    70.0306     2.8542    80.0201 </r>
       <r>    70.2929    -0.0654    80.0030 </r>
       <r>    70.5552    -0.0113    80.0000 </r>
       <r>    70.8175    -0.0000    80.0000 </r>
       <r>    71.0798    -0.0000    80.0000 </r>
       <r>    71.3421    -0.0000    80.0000 </r>
       <r>    71.6043     0.0000    80.0000 </r>
       <r>    71.8666     0.0000    80.0000 </r>
       <r>    72.1289     0.0000    80.0000 </r>
       <r>    72.3912     0.0000    80.0000 </r>
       <r>    72.6535     0.0000    80.0000 </r>
       <r>    72.9158     0.0000    80.0000 </r>
       <r>    73.1781     0.0000    80.0000 </r>
       <r>    73.4404     0.0000    80.0000 </r>
      </set>
     </set>
    </array>
   </total>
  </dos>
 </calculation>
 <structure name="finalpos" >
  <crystal>
   <varray name="basis" >
    <v>       2.33000000       0.00000000       0.00000000 </v>
    <v>      -1.16500000       2.01783919       0.00000000 </v>
    <v>       0.00000000       0.00000000       4.10000000 </v>
   </varray>
   <i name="volume">     19.27641779 </i>
   <varray name="rec_basis" >
    <v>       0.42918455       0.24778982       0.00000000 </v>
    <v>       0.00000000       0.49557963       0.00000000 </v>
    <v>       0.00000000       0.00000000       0.24390244 </v>
   </varray>
  </crystal>
  <varray name="positions" >
   <v>       0.00000000       0.00000000       0.00000000 </v>
   <v>       0.33333333       0.66666667       0.50000000 </v>
  </varray>
 </structure>
</modeling>
