    4    4    1    1
  0.1380865E+02  0.3808352E-09  0.3808352E-09  0.3808352E-09  0.5000000E-15
  1.000000000000000E-004
  CAR 
 unknown system                          
     44     35     30
 
  0.0000000E+00  0.0000000E+00  0.0000000E+00  0.1371742E-02
    1       -2.427889   1.000000
    2        1.754111   1.000000
    3        1.754111   1.000000
    4        1.754111   1.000000
    5        2.116567   1.000000
    6        2.116567   1.000000
    7        2.116567   1.000000
    8        3.206428   1.000000
    9        3.206428   1.000000
   10        3.206428   1.000000
   11        3.855479   1.000000
   12        3.855479   1.000000
   13        4.288267   1.000000
   14        4.288267   1.000000
   15        4.288267   1.000000
   16        4.409885   1.000000
   17        4.409885   1.000000
   18        4.409885   1.000000
   19        4.409885   1.000000
   20        4.409885   1.000000
   21        4.409885   1.000000
   22        7.412848  -0.000000
   23        7.412848  -0.000000
   24        7.412848  -0.000000
   25       11.881245   0.000000
   26       11.881245   0.000000
   27       11.881245   0.000000
   28       17.720792   0.000000
   29       17.720792   0.000000
   30       17.720792   0.000000
 
  0.1111111E+00  0.0000000E+00  0.0000000E+00  0.8230453E-02
    1       -2.293722   1.000000
    2        1.746436   1.000000
    3        1.811597   1.000000
    4        1.811597   1.000000
    5        2.148130   1.000000
    6        2.150294   1.000000
    7        2.150294   1.000000
    8        3.172225   1.000000
    9        3.234645   1.000000
   10        3.234645   1.000000
   11        3.824588   1.000000
   12        3.868299   1.000000
   13        4.227444   1.000000
   14        4.227444   1.000000
   15        4.248390   1.000000
   16        4.248390   1.000000
   17        4.274962   1.000000
   18        4.362595   1.000000
   19        4.362595   1.000000
   20        4.409961   1.000000
   21        4.409961   1.000000
   22        6.558228  -0.000000
   23        7.719230  -0.000000
   24        7.719230  -0.000000
   25       11.939030   0.000000
   26       11.939030   0.000000
   27       13.015350   0.000000
   28       16.874097   0.000000
   29       16.874270   0.000000
   30       17.110445   0.000000
 
  0.2222222E+00  0.0000000E+00  0.0000000E+00  0.8230453E-02
    1       -1.895625   1.000000
    2        1.671076   1.000000
    3        1.968934   1.000000
    4        1.968934   1.000000
    5        2.239549   1.000000
    6        2.252462   1.000000
    7        2.252462   1.000000
    8        3.074234   1.000000
    9        3.317837   1.000000
   10        3.317837   1.000000
   11        3.738404   1.000000
   12        3.826297   1.000000
   13        3.826297   1.000000
   14        3.905214   1.000000
   15        4.135309   1.000000
   16        4.135309   1.000000
   17        4.231683   1.000000
   18        4.231683   1.000000
   19        4.236937   1.000000
   20        4.410134   1.000000
   21        4.410134   1.000000
   22        5.116343   1.000084
   23        8.490581  -0.000000
   24        8.490581  -0.000000
   25       12.121047   0.000000
   26       12.121047   0.000000
   27       15.312812   0.000000
   28       15.312812   0.000000
   29       15.341068   0.000000
   30       15.902769   0.000000
 
  0.3333333E+00  0.0000000E+00  0.0000000E+00  0.8230453E-02
    1       -1.249575   1.000000
    2        1.331873   1.000000
    3        2.176696   1.000000
    4        2.176696   1.000000
    5        2.380927   1.000000
    6        2.425449   1.000000
    7        2.425449   1.000000
    8        2.925457   1.000000
    9        3.389800   1.000000
   10        3.389800   1.000000
   11        3.452086   1.000000
   12        3.452086   1.000000
   13        3.619312   1.000000
   14        3.962062   1.000000
   15        3.978014   1.000000
   16        3.978014   1.000000
   17        4.008614   1.000000
   18        4.044427   1.000000
   19        4.044427   1.000000
   20        4.178552   1.000000
   21        4.410353   1.000000
   22        4.410353   1.000000
   23        9.539583  -0.000000
   24        9.539583  -0.000000
   25       12.452075   0.000000
   26       12.452075   0.000000
   27       13.699511   0.000000
   28       13.699511   0.000000
   29       14.709339   0.000000
   30       14.709339   0.000000
 
  0.4444444E+00  0.0000000E+00  0.0000000E+00  0.8230453E-02
    1       -0.395700   1.000000
    2        0.557142   1.000000
    3        2.339419   1.000000
    4        2.339419   1.000000
    5        2.556031   1.000000
    6        2.673445   1.000000
    7        2.673445   1.000000
    8        2.745175   1.000000
    9        2.996957   1.000000
   10        2.996957   1.000000
   11        3.517637   1.000000
   12        3.553228   1.000000
   13        3.628750   1.000000
   14        3.628750   1.000000
   15        3.833485   1.000000
   16        3.833485   1.000000
   17        3.848782   1.000000
   18        3.848782   1.000000
   19        4.032199   1.000000
   20        4.107361   1.000000
   21        4.410682   1.000000
   22        4.410682   1.000000
   23       10.780139  -0.000000
   24       10.780139  -0.000000
   25       12.175095   0.000000
   26       12.175095   0.000000
   27       12.965342   0.000000
   28       12.965342   0.000000
   29       13.727040   0.000000
   30       13.727040   0.000000
 
  0.1111111E+00  0.1111111E+00  0.0000000E+00  0.1646091E-01
    1       -2.160434   1.000000
    2        1.806709   1.000000
    3        1.806709   1.000000
    4        1.866258   1.000000
    5        2.180729   1.000000
    6        2.180729   1.000000
    7        2.182213   1.000000
    8        3.154424   1.000000
    9        3.247717   1.000000
   10        3.257663   1.000000
   11        3.816858   1.000000
   12        3.863037   1.000000
   13        4.102772   1.000000
   14        4.138161   1.000000
   15        4.138161   1.000000
   16        4.211463   1.000000
   17        4.262264   1.000000
   18        4.262264   1.000000
   19        4.362461   1.000000
   20        4.362461   1.000000
   21        4.379148   1.000000
   22        6.852330  -0.000000
   23        6.852330  -0.000000
   24        7.999010  -0.000000
   25       11.999058   0.000000
   26       13.099563   0.000000
   27       13.099563   0.000000
   28       15.284802   0.000000
   29       17.048020   0.000000
   30       17.050786   0.000000
 
  0.2222222E+00  0.1111111E+00  0.0000000E+00  0.3292181E-01
    1       -1.765114   1.000000
    2        1.740479   1.000000
    3        1.972496   1.000000
    4        2.015868   1.000000
    5        2.268877   1.000000
    6        2.277889   1.000000
    7        2.279562   1.000000
    8        3.068379   1.000000
    9        3.322489   1.000000
   10        3.323565   1.000000
   11        3.734738   1.000000
   12        3.746564   1.000000
   13        3.762233   1.000000
   14        3.901561   1.000000
   15        3.939030   1.000000
   16        4.106103   1.000000
   17        4.145023   1.000000
   18        4.227468   1.000000
   19        4.231066   1.000000
   20        4.362080   1.000000
   21        4.362884   1.000000
   22        5.455444   1.034152
   23        7.549095  -0.000000
   24        8.727066  -0.000000
   25       12.187641   0.000000
   26       13.360795   0.000000
   27       13.592054   0.000000
   28       15.442087   0.000000
   29       15.476347   0.000000
   30       16.054195   0.000000
 
  0.3333333E+00  0.1111111E+00  0.0000000E+00  0.3292181E-01
    1       -1.124277   1.000000
    2        1.417078   1.000000
    3        2.193743   1.000000
    4        2.217925   1.000000
    5        2.404910   1.000000
    6        2.433787   1.000000
    7        2.446403   1.000000
    8        2.927691   1.000000
    9        3.308304   1.000000
   10        3.362905   1.000000
   11        3.406465   1.000000
   12        3.453935   1.000000
   13        3.620938   1.000000
   14        3.665134   1.000000
   15        3.959211   1.000000
   16        3.972402   1.000000
   17        3.988467   1.000000
   18        4.043437   1.000000
   19        4.130954   1.000000
   20        4.359631   1.000000
   21        4.361358   1.000000
   22        4.505125   1.000000
   23        8.452941  -0.000000
   24        9.743810  -0.000000
   25       12.051847   0.000000
   26       12.531235   0.000000
   27       13.817307   0.000000
   28       13.863142   0.000000
   29       14.846957   0.000000
   30       16.562147   0.000000
 
  0.4444444E+00  0.1111111E+00  0.0000000E+00  0.3292181E-01
    1       -0.279148   1.000000
    2        0.659957   1.000000
    3        2.374159   1.000000
    4        2.384657   1.000000
    5        2.573737   1.000000
    6        2.643160   1.000000
    7        2.684406   1.000000
    8        2.755263   1.000000
    9        2.934793   1.000000
   10        2.993197   1.000000
   11        3.404985   1.000000
   12        3.405825   1.000000
   13        3.629149   1.000000
   14        3.720702   1.000000
   15        3.832967   1.000000
   16        3.842134   1.000000
   17        3.854242   1.000000
   18        3.920641   1.000000
   19        4.064280   1.000000
   20        4.185519   1.000000
   21        4.359574   1.000000
   22        4.360346   1.000000
   23        9.501746  -0.000000
   24       10.694364  -0.000000
   25       10.963399  -0.000000
   26       12.345390   0.000000
   27       13.061724   0.000000
   28       13.810178   0.000000
   29       14.538233   0.000000
   30       15.449840   0.000000
 
  0.2222222E+00  0.2222222E+00  0.0000000E+00  0.1646091E-01
    1       -1.378709   1.000000
    2        1.933005   1.000000
    3        1.933005   1.000000
    4        2.142495   1.000000
    5        2.355509   1.000000
    6        2.357563   1.000000
    7        2.357563   1.000000
    8        3.024781   1.000000
    9        3.341272   1.000000
   10        3.364864   1.000000
   11        3.512111   1.000000
   12        3.512111   1.000000
   13        3.564015   1.000000
   14        3.723151   1.000000
   15        3.941739   1.000000
   16        4.021229   1.000000
   17        4.127039   1.000000
   18        4.127039   1.000000
   19        4.229534   1.000000
   20        4.229534   1.000000
   21        4.288364   1.000000
   22        6.104669  -0.010179
   23        6.104669  -0.010179
   24        9.373681  -0.000000
   25       11.796314   0.000000
   26       12.400353   0.000000
   27       15.744353   0.000000
   28       15.744353   0.000000
   29       15.953469   0.000000
   30       15.953469   0.000000
 
  0.3333333E+00  0.2222222E+00  0.0000000E+00  0.3292181E-01
    1       -0.754920   1.000000
    2        1.654832   1.000000
    3        2.197564   1.000000
    4        2.316892   1.000000
    5        2.471698   1.000000
    6        2.477170   1.000000
    7        2.506186   1.000000
    8        2.922348   1.000000
    9        3.121830   1.000000
   10        3.274828   1.000000
   11        3.276674   1.000000
   12        3.348924   1.000000
   13        3.473240   1.000000
   14        3.676934   1.000000
   15        3.900290   1.000000
   16        3.979838   1.000000
   17        4.039017   1.000000
   18        4.041850   1.000000
   19        4.054569   1.000000
   20        4.227619   1.000000
   21        4.247232   1.000000
   22        5.034538   1.000007
   23        6.887883  -0.000000
   24       10.233856  -0.000000
   25       10.320422  -0.000000
   26       12.774060   0.000000
   27       14.340184   0.000000
   28       15.211778   0.000000
   29       16.290947   0.000000
   30       16.710483   0.000000
 
  0.4444444E+00  0.2222222E+00  0.0000000E+00  0.3292181E-01
    1        0.060835   1.000000
    2        0.953276   1.000000
    3        2.438880   1.000000
    4        2.509858   1.000000
    5        2.560070   1.000000
    6        2.624494   1.000000
    7        2.714911   1.000000
    8        2.780412   1.000000
    9        2.796598   1.000000
   10        2.978146   1.000000
   11        3.211121   1.000000
   12        3.286785   1.000000
   13        3.636389   1.000000
   14        3.727727   1.000000
   15        3.809872   1.000000
   16        3.833950   1.000000
   17        3.843029   1.000000
   18        3.880450   1.000000
   19        4.219772   1.000000
   20        4.227167   1.000000
   21        4.231396   1.000000
   22        4.482321   1.000000
   23        7.809657  -0.000000
   24        8.911128  -0.000000
   25       11.490199   0.000000
   26       12.839713   0.000000
   27       13.349274   0.000000
   28       14.157896   0.000000
   29       17.032279   0.000000
   30       17.707993   0.000000
 
  0.3333333E+00  0.3333333E+00  0.0000000E+00  0.1646091E-01
    1       -0.165033   1.000000
    2        1.985496   1.000000
    3        1.985496   1.000000
    4        2.399620   1.000000
    5        2.573145   1.000000
    6        2.596294   1.000000
    7        2.596294   1.000000
    8        2.884836   1.000000
    9        2.999648   1.000000
   10        2.999648   1.000000
   11        3.128977   1.000000
   12        3.301418   1.000000
   13        3.539986   1.000000
   14        3.628580   1.000000
   15        3.807284   1.000000
   16        3.903535   1.000000
   17        3.903535   1.000000
   18        4.042697   1.000000
   19        4.042697   1.000000
   20        4.143544   1.000000
   21        4.231707   1.000000
   22        5.654399   0.762143
   23        5.654399   0.762143
   24        8.675710  -0.000000
   25       11.196535   0.000000
   26       13.202213   0.000000
   27       15.097019   0.000000
   28       15.097019   0.000000
   29       15.860488   0.000000
   30       15.860488   0.000000
 
  0.4444444E+00  0.3333333E+00  0.0000000E+00  0.3292181E-01
    1        0.589673   1.000000
    2        1.384247   1.000000
    3        2.291576   1.000000
    4        2.423540   1.000000
    5        2.686696   1.000000
    6        2.702437   1.000000
    7        2.756133   1.000000
    8        2.804387   1.000000
    9        2.806047   1.000000
   10        2.943138   1.000000
   11        3.067474   1.000000
   12        3.206434   1.000000
   13        3.644605   1.000000
   14        3.668325   1.000000
   15        3.734987   1.000000
   16        3.764562   1.000000
   17        3.773784   1.000000
   18        3.844820   1.000000
   19        4.052032   1.000000
   20        4.080722   1.000000
   21        4.487396   1.000000
   22        4.897274   1.000000
   23        6.420447  -0.000004
   24        7.408521  -0.000000
   25       12.309769   0.000000
   26       13.619200   0.000000
   27       13.844113   0.000000
   28       14.726722   0.000000
   29       16.096186   0.000000
   30       16.744875   0.000000
 
  0.4444444E+00  0.4444444E+00  0.0000000E+00  0.1646091E-01
    1        1.230161   1.000000
    2        1.845895   1.000000
    3        1.845895   1.000000
    4        2.204976   1.000000
    5        2.794095   1.000000
    6        2.794095   1.000000
    7        2.813614   1.000000
    8        2.856381   1.000000
    9        2.880442   1.000000
   10        2.970063   1.000000
   11        2.970063   1.000000
   12        3.121450   1.000000
   13        3.591641   1.000000
   14        3.650289   1.000000
   15        3.657275   1.000000
   16        3.657275   1.000000
   17        3.746819   1.000000
   18        3.880085   1.000000
   19        3.880085   1.000000
   20        3.956678   1.000000
   21        4.862832   1.000000
   22        5.453240   1.033869
   23        5.453240   1.033869
   24        6.258041  -0.000476
   25       13.372655   0.000000
   26       14.565591   0.000000
   27       14.642888   0.000000
   28       14.642888   0.000000
   29       15.530883   0.000000
   30       15.530884   0.000000
 
  0.1111111E+00  0.1111111E+00  0.1111111E+00  0.1097394E-01
    1       -2.028109   1.000000
    2        1.863395   1.000000
    3        1.863395   1.000000
    4        1.863395   1.000000
    5        2.211885   1.000000
    6        2.211885   1.000000
    7        2.211885   1.000000
    8        3.139137   1.000000
    9        3.267457   1.000000
   10        3.267457   1.000000
   11        3.836047   1.000000
   12        3.836047   1.000000
   13        4.030533   1.000000
   14        4.030533   1.000000
   15        4.030533   1.000000
   16        4.167211   1.000000
   17        4.167211   1.000000
   18        4.167211   1.000000
   19        4.368179   1.000000
   20        4.368179   1.000000
   21        4.368179   1.000000
   22        7.109506  -0.000000
   23        7.109506  -0.000000
   24        7.109506  -0.000000
   25       13.185932   0.000000
   26       13.185932   0.000000
   27       13.185932   0.000000
   28       15.447517   0.000000
   29       15.447517   0.000000
   30       15.447517   0.000000
 
  0.2222222E+00  0.1111111E+00  0.1111111E+00  0.3292181E-01
    1       -1.635956   1.000000
    2        1.803692   1.000000
    3        2.018574   1.000000
    4        2.018574   1.000000
    5        2.297689   1.000000
    6        2.305030   1.000000
    7        2.305030   1.000000
    8        3.064207   1.000000
    9        3.323536   1.000000
   10        3.327174   1.000000
   11        3.680964   1.000000
   12        3.680964   1.000000
   13        3.767333   1.000000
   14        3.812858   1.000000
   15        3.890657   1.000000
   16        4.051470   1.000000
   17        4.075909   1.000000
   18        4.075909   1.000000
   19        4.329179   1.000000
   20        4.350408   1.000000
   21        4.350408   1.000000
   22        5.700959   0.580665
   23        7.752514  -0.000000
   24        7.752514  -0.000000
   25       13.449186   0.000000
   26       13.449186   0.000000
   27       13.755248   0.000000
   28       13.755248   0.000000
   29       15.538498   0.000000
   30       15.926922   0.000000
 
  0.3333333E+00  0.1111111E+00  0.1111111E+00  0.3292181E-01
    1       -1.001133   1.000000
    2        1.493878   1.000000
    3        2.229367   1.000000
    4        2.229367   1.000000
    5        2.430595   1.000000
    6        2.454051   1.000000
    7        2.454051   1.000000
    8        2.933026   1.000000
    9        3.294607   1.000000
   10        3.294607   1.000000
   11        3.389800   1.000000
   12        3.426326   1.000000
   13        3.501385   1.000000
   14        3.720511   1.000000
   15        3.894006   1.000000
   16        3.946795   1.000000
   17        3.946795   1.000000
   18        3.972479   1.000000
   19        4.260646   1.000000
   20        4.334472   1.000000
   21        4.334472   1.000000
   22        4.674765   1.000000
   23        8.617290  -0.000000
   24        8.617290  -0.000000
   25       12.211607   0.000000
   26       12.211607   0.000000
   27       13.928455   0.000000
   28       13.928455   0.000000
   29       16.674183   0.000000
   30       16.703852   0.000000
 
  0.4444444E+00  0.1111111E+00  0.1111111E+00  0.3292181E-01
    1       -0.166321   1.000000
    2        0.756310   1.000000
    3        2.417760   1.000000
    4        2.417760   1.000000
    5        2.594339   1.000000
    6        2.622618   1.000000
    7        2.622618   1.000000
    8        2.769078   1.000000
    9        2.971568   1.000000
   10        2.971568   1.000000
   11        3.336748   1.000000
   12        3.362549   1.000000
   13        3.561340   1.000000
   14        3.722727   1.000000
   15        3.831471   1.000000
   16        3.831471   1.000000
   17        3.837789   1.000000
   18        4.070024   1.000000
   19        4.132567   1.000000
   20        4.170401   1.000000
   21        4.327539   1.000000
   22        4.327539   1.000000
   23        9.622527  -0.000000
   24        9.622527  -0.000000
   25       10.880151  -0.000000
   26       10.880151  -0.000000
   27       14.622267   0.000000
   28       14.622267   0.000000
   29       15.582643   0.000000
   30       15.582643   0.000000
 
  0.2222222E+00  0.2222222E+00  0.1111111E+00  0.3292181E-01
    1       -1.254003   1.000000
    2        1.976104   1.000000
    3        1.976104   1.000000
    4        2.140302   1.000000
    5        2.384007   1.000000
    6        2.385602   1.000000
    7        2.385602   1.000000
    8        3.029050   1.000000
    9        3.338649   1.000000
   10        3.351485   1.000000
   11        3.472752   1.000000
   12        3.472752   1.000000
   13        3.501966   1.000000
   14        3.769816   1.000000
   15        3.921779   1.000000
   16        3.954436   1.000000
   17        3.973468   1.000000
   18        3.973468   1.000000
   19        4.313964   1.000000
   20        4.313964   1.000000
   21        4.314106   1.000000
   22        6.269861  -0.000355
   23        6.269861  -0.000355
   24        8.295540  -0.000000
   25       11.964777   0.000000
   26       13.743030   0.000000
   27       14.201870   0.000000
   28       14.201870   0.000000
   29       15.861023   0.000000
   30       15.861023   0.000000
 
  0.3333333E+00  0.2222222E+00  0.1111111E+00  0.6584362E-01
    1       -0.638995   1.000000
    2        1.702321   1.000000
    3        2.205306   1.000000
    4        2.299849   1.000000
    5        2.501390   1.000000
    6        2.510641   1.000000
    7        2.525437   1.000000
    8        2.939113   1.000000
    9        3.140319   1.000000
   10        3.245821   1.000000
   11        3.253632   1.000000
   12        3.343629   1.000000
   13        3.417820   1.000000
   14        3.762306   1.000000
   15        3.819008   1.000000
   16        3.843388   1.000000
   17        3.881329   1.000000
   18        4.035796   1.000000
   19        4.239357   1.000000
   20        4.271431   1.000000
   21        4.271818   1.000000
   22        5.125632   1.000109
   23        7.012079  -0.000000
   24        9.037414  -0.000000
   25       10.456231  -0.000000
   26       12.658951   0.000000
   27       14.243015   0.000000
   28       14.931393   0.000000
   29       16.386531   0.000000
   30       17.125339   0.000000
 
  0.4444444E+00  0.2222222E+00  0.1111111E+00  0.6584362E-01
    1        0.160922   1.000000
    2        1.027240   1.000000
    3        2.419924   1.000000
    4        2.466281   1.000000
    5        2.566240   1.000000
    6        2.623067   1.000000
    7        2.658843   1.000000
    8        2.808270   1.000000
    9        2.943004   1.000000
   10        3.024914   1.000000
   11        3.200905   1.000000
   12        3.278572   1.000000
   13        3.518595   1.000000
   14        3.656728   1.000000
   15        3.761155   1.000000
   16        3.780756   1.000000
   17        3.886213   1.000000
   18        4.095734   1.000000
   19        4.195384   1.000000
   20        4.246036   1.000000
   21        4.246086   1.000000
   22        4.478432   1.000000
   23        7.905020  -0.000000
   24        8.935406  -0.000000
   25       10.221942  -0.000000
   26       11.319606   0.000000
   27       14.976523   0.000000
   28       15.901097   0.000000
   29       15.944802   0.000000
   30       17.136536   0.000000
 
  0.3333333E+00  0.3333333E+00  0.1111111E+00  0.3292181E-01
    1       -0.063969   1.000000
    2        1.971845   1.000000
    3        1.971845   1.000000
    4        2.332480   1.000000
    5        2.617790   1.000000
    6        2.647303   1.000000
    7        2.647303   1.000000
    8        2.921003   1.000000
    9        3.035159   1.000000
   10        3.035159   1.000000
   11        3.157332   1.000000
   12        3.301319   1.000000
   13        3.432655   1.000000
   14        3.730025   1.000000
   15        3.751793   1.000000
   16        3.751793   1.000000
   17        3.759543   1.000000
   18        4.174282   1.000000
   19        4.174282   1.000000
   20        4.197633   1.000000
   21        4.206654   1.000000
   22        5.718917   0.505092
   23        5.718917   0.505092
   24        8.656495  -0.000000
   25       10.010535  -0.000000
   26       13.371520   0.000000
   27       13.371520   0.000000
   28       14.783430   0.000000
   29       16.884691   0.000000
   30       17.802621   0.000000
 
  0.4444444E+00  0.3333333E+00  0.1111111E+00  0.6584362E-01
    1        0.662755   1.000000
    2        1.411215   1.000000
    3        2.197294   1.000000
    4        2.310882   1.000000
    5        2.728100   1.000000
    6        2.770597   1.000000
    7        2.773877   1.000000
    8        2.863537   1.000000
    9        2.943317   1.000000
   10        3.049949   1.000000
   11        3.083940   1.000000
   12        3.211557   1.000000
   13        3.487310   1.000000
   14        3.602955   1.000000
   15        3.656027   1.000000
   16        3.675456   1.000000
   17        3.848416   1.000000
   18        4.021643   1.000000
   19        4.132105   1.000000
   20        4.141563   1.000000
   21        4.460195   1.000000
   22        4.894827   1.000000
   23        6.474342  -0.000001
   24        7.453267  -0.000000
   25       10.887139  -0.000000
   26       12.021999   0.000000
   27       14.323060   0.000000
   28       15.496651   0.000000
   29       15.562833   0.000000
   30       16.580527   0.000000
 
  0.4444444E+00  0.4444444E+00  0.1111111E+00  0.3292181E-01
    1        1.253527   1.000000
    2        1.799842   1.000000
    3        1.799842   1.000000
    4        2.099360   1.000000
    5        2.889997   1.000000
    6        2.911227   1.000000
    7        2.914604   1.000000
    8        2.914604   1.000000
    9        2.999580   1.000000
   10        2.999580   1.000000
   11        3.024685   1.000000
   12        3.136048   1.000000
   13        3.476456   1.000000
   14        3.550142   1.000000
   15        3.550142   1.000000
   16        3.561796   1.000000
   17        3.872501   1.000000
   18        3.990708   1.000000
   19        3.990708   1.000000
   20        4.039702   1.000000
   21        4.838932   1.000000
   22        5.456931   1.034329
   23        5.456931   1.034329
   24        6.281501  -0.000264
   25       11.813314   0.000000
   26       12.959584   0.000000
   27       12.959584   0.000000
   28       14.119033   0.000000
   29       16.390971   0.000000
   30       17.456093   0.000000
 
  0.2222222E+00  0.2222222E+00  0.2222222E+00  0.1097394E-01
    1       -0.886653   1.000000
    2        2.081021   1.000000
    3        2.081021   1.000000
    4        2.081021   1.000000
    5        2.475441   1.000000
    6        2.475441   1.000000
    7        2.475441   1.000000
    8        3.026343   1.000000
    9        3.337592   1.000000
   10        3.337592   1.000000
   11        3.343583   1.000000
   12        3.343583   1.000000
   13        3.343583   1.000000
   14        3.814480   1.000000
   15        3.814480   1.000000
   16        3.814480   1.000000
   17        3.880466   1.000000
   18        3.880466   1.000000
   19        4.337555   1.000000
   20        4.337555   1.000000
   21        4.337555   1.000000
   22        6.713335  -0.000000
   23        6.713335  -0.000000
   24        6.713335  -0.000000
   25       12.416576   0.000000
   26       12.416576   0.000000
   27       12.416576   0.000000
   28       16.181875   0.000000
   29       16.181875   0.000000
   30       16.181875   0.000000
 
  0.3333333E+00  0.2222222E+00  0.2222222E+00  0.3292181E-01
    1       -0.301080   1.000000
    2        1.815380   1.000000
    3        2.195304   1.000000
    4        2.195304   1.000000
    5        2.610697   1.000000
    6        2.610697   1.000000
    7        2.618901   1.000000
    8        2.985402   1.000000
    9        3.181141   1.000000
   10        3.181141   1.000000
   11        3.192037   1.000000
   12        3.325420   1.000000
   13        3.355327   1.000000
   14        3.660282   1.000000
   15        3.715900   1.000000
   16        3.715900   1.000000
   17        3.895210   1.000000
   18        4.014229   1.000000
   19        4.301489   1.000000
   20        4.301489   1.000000
   21        4.317728   1.000000
   22        5.423502   1.028399
   23        7.347046  -0.000000
   24        7.347046  -0.000000
   25       10.888782  -0.000000
   26       10.888782  -0.000000
   27       13.133273   0.000000
   28       16.659582   0.000000
   29       16.726110   0.000000
   30       16.726110   0.000000
 
  0.4444444E+00  0.2222222E+00  0.2222222E+00  0.3292181E-01
    1        0.444910   1.000000
    2        1.223610   1.000000
    3        2.276210   1.000000
    4        2.276210   1.000000
    5        2.691609   1.000000
    6        2.691609   1.000000
    7        2.772513   1.000000
    8        2.898371   1.000000
    9        3.111166   1.000000
   10        3.111166   1.000000
   11        3.170807   1.000000
   12        3.253204   1.000000
   13        3.416775   1.000000
   14        3.521664   1.000000
   15        3.646690   1.000000
   16        3.646690   1.000000
   17        4.095674   1.000000
   18        4.144046   1.000000
   19        4.250374   1.000000
   20        4.261672   1.000000
   21        4.261672   1.000000
   22        4.570266   1.000000
   23        8.045837  -0.000000
   24        8.045837  -0.000000
   25        9.738718  -0.000000
   26        9.738718  -0.000000
   27       14.089065   0.000000
   28       15.266819   0.000000
   29       17.494895   0.000000
   30       17.494895   0.000000
 
  0.3333333E+00  0.3333333E+00  0.2222222E+00  0.3292181E-01
    1        0.223752   1.000000
    2        1.932604   1.000000
    3        1.932604   1.000000
    4        2.150889   1.000000
    5        2.744883   1.000000
    6        2.784557   1.000000
    7        2.784557   1.000000