unknown system                          
   1.00000000000000     
     3.808352    0.000000    0.000000
     0.000000    3.808352    0.000000
     0.000000    0.000000    3.808352
   Cu
     4
Direct
  0.000000  0.000000  0.000000
  0.500000  0.500000  0.000000
  0.500000  0.000000  0.500000
  0.000000  0.500000  0.500000
 
   36   36   36
  975.92      926.93      793.64      610.66      419.00      252.69      131.74      60.643      29.805      20.123    
  14.779      11.259      9.1615      7.9635      7.2236      6.6974      6.3519      6.1976      6.1649      6.1976    
  6.3519      6.6974      7.2236      7.9635      9.1615      11.259      14.779      20.123      29.805      60.643    
  131.74      252.69      419.00      610.66      793.64      926.93      926.93      880.23      753.16      578.75    
  396.22      238.21      123.88      57.285      28.829      19.809      14.598      11.180      9.1428      7.9731    
  7.2460      6.7273      6.3856      6.2313      6.1976      6.2313      6.3856      6.7273      7.2460      7.9731    
  9.1428      11.180      14.598      19.809      28.829      57.285      123.88      238.21      396.22      578.75    
  753.16      880.23      793.64      753.16      643.03      492.01      334.51      199.28      103.03      48.612    
  26.390      18.913      14.097      10.972      9.1083      8.0255      7.3431      6.8552      6.5336      6.3856    
  6.3519      6.3856      6.5336      6.8552      7.3431      8.0255      9.1083      10.972      14.097      18.913    
  26.390      48.612      103.03      199.28      334.51      492.01      643.03      753.16      610.66      578.75    
  492.01      373.47      250.87      147.42      76.139      38.043      23.538      17.577      13.384      10.705    
  9.1038      8.1605      7.5590      7.1325      6.8552      6.7273      6.6974      6.7273      6.8552      7.1325    
  7.5590      8.1605      9.1038      10.705      13.384      17.577      23.538      38.043      76.139      147.42    
  250.87      373.47      492.01      578.75      419.00      396.22      334.51      250.87      165.85      96.381    
  51.161      29.101      20.917      16.016      12.603      10.457      9.1697      8.3983      7.9026      7.5590    
  7.3431      7.2460      7.2236      7.2460      7.3431      7.5590      7.9026      8.3983      9.1697      10.457    
  12.603      16.016      20.917      29.101      51.161      96.381      165.85      250.87      334.51      396.22    
  252.69      238.21      199.28      147.42      96.381      56.984      33.629      23.395      18.299      14.466    
  11.896      10.302      9.3437      8.7645      8.3983      8.1605      8.0255      7.9731      7.9635      7.9731    
  8.0255      8.1605      8.3983      8.7645      9.3437      10.302      11.896      14.466      18.299      23.395    
  33.629      56.984      96.381      147.42      199.28      238.21      131.74      123.88      103.03      76.139    
  51.161      33.629      24.413      19.628      15.857      13.134      11.372      10.306      9.6869      9.3437    
  9.1697      9.1038      9.1083      9.1428      9.1615      9.1428      9.1083      9.1038      9.1697      9.3437    
  9.6869      10.306      11.372      13.134      15.857      19.628      24.413      33.629      51.161      76.139    
  103.03      123.88      60.643      57.285      48.612      38.043      29.101      23.395      19.628      16.375    
  13.860      12.146      11.101      10.538      10.306      10.302      10.457      10.705      10.972      11.180    
  11.259      11.180      10.972      10.705      10.457      10.302      10.306      10.538      11.101      12.146    
  13.860      16.375      19.628      23.395      29.101      38.043      48.612      57.285      29.805      28.829    
  26.390      23.538      20.917      18.299      15.857      13.860      12.431      11.552      11.139      11.101    
  11.372      11.896      12.603      13.384      14.097      14.598      14.779      14.598      14.097      13.384    
  12.603      11.896      11.372      11.101      11.139      11.552      12.431      13.860      15.857      18.299    
  20.917      23.538      26.390      28.829      20.123      19.809      18.913      17.577      16.016      14.466    
  13.134      12.146      11.552      11.356      11.552      12.146      13.134      14.466      16.016      17.577    
  18.913      19.809      20.123      19.809      18.913      17.577      16.016      14.466      13.134      12.146    
  11.552      11.356      11.552      12.146      13.134      14.466      16.016      17.577      18.913      19.809    
  14.779      14.598      14.097      13.384      12.603      11.896      11.372      11.101      11.139      11.552    
  12.431      13.860      15.857      18.299      20.917      23.538      26.390      28.829      29.805      28.829    
  26.390      23.538      20.917      18.299      15.857      13.860      12.431      11.552      11.139      11.101    
  11.372      11.896      12.603      13.384      14.097      14.598      11.259      11.180      10.972      10.705    
  10.457      10.302      10.306      10.538      11.101      12.146      13.860      16.375      19.628      23.395    
  29.101      38.043      48.612      57.285      60.643      57.285      48.612      38.043      29.101      23.395    
  19.628      16.375      13.860      12.146      11.101      10.538      10.306      10.302      10.457      10.705    
  10.972      11.180      9.1615      9.1428      9.1083      9.1038      9.1697      9.3437      9.6869      10.306    
  11.372      13.134      15.857      19.628      24.413      33.629      51.161      76.139      103.03      123.88    
  131.74      123.88      103.03      76.139      51.161      33.629      24.413      19.628      15.857      13.134    
  11.372      10.306      9.6869      9.3437      9.1697      9.1038      9.1083      9.1428      7.9635      7.9731    
  8.0255      8.1605      8.3983      8.7645      9.3437      10.302      11.896      14.466      18.299      23.395    
  33.629      56.984      96.381      147.42      199.28      238.21      252.69      238.21      199.28      147.42    
  96.381      56.984      33.629      23.395      18.299      14.466      11.896      10.302      9.3437      8.7645    
  8.3983      8.1605      8.0255      7.9731      7.2236      7.2460      7.3431      7.5590      7.9026      8.3983    
  9.1697      10.457      12.603      16.016      20.917      29.101      51.161      96.381      165.85      250.87    
  334.51      396.22      419.00      396.22      334.51      250.87      165.85      96.381      51.161      29.101    
  20.917      16.016      12.603      10.457      9.1697      8.3983      7.9026      7.5590      7.3431      7.2460    
  6.6974      6.7273      6.8552      7.1325      7.5590      8.1605      9.1038      10.705      13.384      17.577    
  23.538      38.043      76.139      147.42      250.87      373.47      492.01      578.75      610.66      578.75    
  492.01      373.47      250.87      147.42      76.139      38.043      23.538      17.577      13.384      10.705    
  9.1038      8.1605      7.5590      7.1325      6.8552      6.7273      6.3519      6.3856      6.5336      6.8552    
  7.3431      8.0255      9.1083      10.972      14.097      18.913      26.390      48.612      103.03      199.28    
  334.51      492.01      643.03      753.16      793.64      753.16      643.03      492.01      334.51      199.28    
  103.03      48.612      26.390      18.913      14.097      10.972      9.1083      8.0255      7.3431      6.8552    
  6.5336      6.3856      6.1976      6.2313      6.3856      6.7273      7.2460      7.9731      9.1428      11.180    
  14.598      19.809      28.829      57.285      123.88      238.21      396.22      578.75      753.16      880.23    
  926.93      880.23      753.16      578.75      396.22      238.21      123.88      57.285      28.829      19.809    
  14.598      11.180      9.1428      7.9731      7.2460      6.7273      6.3856      6.2313      6.1649      6.1976    
  6.3519      6.6974      7.2236      7.9635      9.1615      11.259      14.779      20.123      29.805      60.643    
  131.74      252.69      419.00      610.66      793.64      926.93      975.92      926.93      793.64      610.66    
  419.00      252.69      131.74      60.643      29.805      20.123      14.779      11.259      9.1615      7.9635    
  7.2236      6.6974      6.3519      6.1976      6.1976      6.2313      6.3856      6.7273      7.2460      7.9731    
  9.1428      11.180      14.598      19.809      28.829      57.285      123.88      238.21      396.22      578.75    
  753.16      880.23      926.93      880.23      753.16      578.75      396.22      238.21      123.88      57.285    
  28.829      19.809      14.598      11.180      9.1428      7.9731      7.2460      6.7273      6.3856      6.2313    
  6.3519      6.3856      6.5336      6.8552      7.3431      8.0255      9.1083      10.972      14.097      18.913    
  26.390      48.612      103.03      199.28      334.51      492.01      643.03      753.16      793.64      753.16    
  643.03      492.01      334.51      199.28      103.03      48.612      26.390      18.913      14.097      10.972    
  9.1083      8.0255      7.3431      6.8552      6.5336      6.3856      6.6974      6.7273      6.8552      7.1325    
  7.5590      8.1605      9.1038      10.705      13.384      17.577      23.538      38.043      76.139      147.42    
  250.87      373.47      492.01      578.75      610.66      578.75      492.01      373.47      250.87      147.42    
  76.139      38.043      23.538      17.577      13.384      10.705      9.1038      8.1605      7.5590      7.1325    
  6.8552      6.7273      7.2236      7.2460      7.3431      7.5590      7.9026      8.3983      9.1697      10.457    
  12.603      16.016      20.917      29.101      51.161      96.381      165.85      250.87      334.51      396.22    
  419.00      396.22      334.51      250.87      165.85      96.381      51.161      29.101      20.917      16.016    
  12.603      10.457      9.1697      8.3983      7.9026      7.5590      7.3431      7.2460      7.9635      7.9731    
  8.0255      8.1605      8.3983      8.7645      9.3437      10.302      11.896      14.466      18.299      23.395    
  33.629      56.984      96.381      147.42      199.28      238.21      252.69      238.21      199.28      147.42    
  96.381      56.984      33.629      23.395      18.299      14.466      11.896      10.302      9.3437      8.7645    
  8.3983      8.1605      8.0255      7.9731      9.1615      9.1428      9.1083      9.1038      9.1697      9.3437    
  9.6869      10.306      11.372      13.134      15.857      19.628      24.413      33.629      51.161      76.139    
  103.03      123.88      131.74      123.88      103.03      76.139      51.161      33.629      24.413      19.628    
  15.857      13.134      11.372      10.306      9.6869      9.3437      9.1697      9.1038      9.1083      9.1428    
  11.259      11.180      10.972      10.705      10.457      10.302      10.306      10.538      11.101      12.146    
  13.860      16.375      19.628      23.395      29.101      38.043      48.612      57.285      60.643      57.285    
  48.612      38.043      29.101      23.395      19.628      16.375      13.860      12.146      11.101      10.538    
  10.306      10.302      10.457      10.705      10.972      11.180      14.779      14.598      14.097      13.384    
  12.603      11.896      11.372      11.101      11.139      11.552      12.431      13.860      15.857      18.299    
  20.917      23.538      26.390      28.829      29.805      28.829      26.390      23.538      20.917      18.299    
  15.857      13.860      12.431      11.552      11.139      11.101      11.372      11.896      12.603      13.384    
  14.097      14.598      20.123      19.809      18.913      17.577      16.016      14.466      13.134      12.146    
  11.552      11.356      11.552      12.146      13.134      14.466      16.016      17.577      18.913      19.809    
  20.123      19.809      18.913      17.577      16.016      14.466      13.134      12.146      11.552      11.356    
  11.552      12.146      13.134      14.466      16.016      17.577      18.913      19.809      29.805      28.829    
  26.390      23.538      20.917      18.299      15.857      13.860      12.431      11.552      11.139      11.101    
  11.372      11.896      12.603      13.384      14.097      14.598      14.779      14.598      14.097      13.384    
  12.603      11.896      11.372      11.101      11.139      11.552      12.431      13.860      15.857      18.299    
  20.917      23.538      26.390      28.829      60.643      57.285      48.612      38.043      29.101      23.395    
  19.628      16.375      13.860      12.146      11.101      10.538      10.306      10.302      10.457      10.705    
  10.972      11.180      11.259      11.180      10.972      10.705      10.457      10.302      10.306      10.538    
  11.101      12.146      13.860      16.375      19.628      23.395      29.101      38.043      48.612      57.285    
  131.74      123.88      103.03      76.139      51.161      33.629      24.413      19.628      15.857      13.134    
  11.372      10.306      9.6869      9.3437      9.1697      9.1038      9.1083      9.1428      9.1615      9.1428    
  9.1083      9.1038      9.1697      9.3437      9.6869      10.306      11.372      13.134      15.857      19.628    
  24.413      33.629      51.161      76.139      103.03      123.88      252.69      238.21      199.28      147.42    
  96.381      56.984      33.629      23.395      18.299      14.466      11.896      10.302      9.3437      8.7645    
  8.3983      8.1605      8.0255      7.9731      7.9635      7.9731      8.0255      8.1605      8.3983      8.7645    
  9.3437      10.302      11.896      14.466      18.299      23.395      33.629      56.984      96.381      147.42    
  199.28      238.21      419.00      396.22      334.51      250.87      165.85      96.381      51.161      29.101    
  20.917      16.016      12.603      10.457      9.1697      8.3983      7.9026      7.5590      7.3431      7.2460    
  7.2236      7.2460      7.3431      7.5590      7.9026      8.3983      9.1697      10.457      12.603      16.016    
  20.917      29.101      51.161      96.381      165.85      250.87      334.51      396.22      610.66      578.75    
  492.01      373.47      250.87      147.42      76.139      38.043      23.538      17.577      13.384      10.705    
  9.1038      8.1605      7.5590      7.1325      6.8552      6.7273      6.6974      6.7273      6.8552      7.1325    
  7.5590      8.1605      9.1038      10.705      13.384      17.577      23.538      38.043      76.139      147.42    
  250.87      373.47      492.01      578.75      793.64      753.16      643.03      492.01      334.51      199.28    
  103.03      48.612      26.390      18.913      14.097      10.972      9.1083      8.0255      7.3431      6.8552    
  6.5336      6.3856      6.3519      6.3856      6.5336      6.8552      7.3431      8.0255      9.1083      10.972    
  14.097      18.913      26.390      48.612      103.03      199.28      334.51      492.01      643.03      753.16    
  926.93      880.23      753.16      578.75      396.22      238.21      123.88      57.285      28.829      19.809    
  14.598      11.180      9.1428      7.9731      7.2460      6.7273      6.3856      6.2313      6.1976      6.2313    
  6.3856      6.7273      7.2460      7.9731      9.1428      11.180      14.598      19.809      28.829      57.285    
  123.88      238.21      396.22      578.75      753.16      880.23      926.93      880.23      753.16      578.75    
  396.22      238.21      123.88      57.285      28.829      19.809      14.598      11.180      9.1428      7.9731    
  7.2460      6.7273      6.3856      6.2313      6.1976      6.2313      6.3856      6.7273      7.2460      7.9731    
  9.1428      11.180      14.598      19.809      28.829      57.285      123.88      238.21      396.22      578.75    
  753.16      880.23      880.23      835.71      714.58      548.35      374.56      224.50      116.49      54.168    
  27.938      19.500      14.422      11.103      9.1242      7.9823      7.2680      6.7571      6.4197      6.2657    
  6.2313      6.2657      6.4197      6.7571      7.2680      7.9823      9.1242      11.103      14.422      19.500    
  27.938      54.168      116.49      224.50      374.56      548.35      714.58      835.71      753.16      714.58    
  609.62      465.75      315.91      187.66      96.911      46.137      25.710      18.622      13.933      10.901    
  9.0895      8.0326      7.3630      6.8832      6.5666      6.4197      6.3856      6.4197      6.5666      6.8832    
  7.3630      8.0326      9.0895      10.901      13.933      18.622      25.710      46.137      96.911      187.66    
  315.91      465.75      609.62      714.58      578.75      548.35      465.75      352.97      236.55      138.69    
  71.746      36.395      23.083      17.317      13.239      10.639      9.0837      8.1632      7.5736      7.1553    
  6.8832      6.7571      6.7273      6.7571      6.8832      7.1553      7.5736      8.1632      9.0837      10.639    
  13.239      17.317      23.083      36.395      71.746      138.69      236.55      352.97      465.75      548.35    
  396.22      374.56      315.91      236.55      156.09      90.699      48.514      28.205      20.577      15.795    
  12.481      10.398      9.1471      8.3945      7.9095      7.5736      7.3630      7.2680      7.2460      7.2680    
  7.3630      7.5736      7.9095      8.3945      9.1471      10.398      12.481      15.795      20.577      28.205    
  48.514      90.699      156.09      236.55      315.91      374.56      238.21      224.50      187.66      138.69    
  90.699      53.919      32.358      22.958      18.017      14.288      11.795      10.249      9.3169      8.7521    
  8.3945      8.1632      8.0326      7.9823      7.9731      7.9823      8.0326      8.1632      8.3945      8.7521    
  9.3169      10.249      11.795      14.288      18.017      22.958      32.358      53.919      90.699      138.69    
  187.66      224.50      123.88      116.49      96.911      71.746      48.514      32.358      23.910      19.313    
  15.639      12.996      11.288      10.254      9.6517      9.3169      9.1471      9.0837      9.0895      9.1242    
  9.1428      9.1242      9.0895      9.0837      9.1471      9.3169      9.6517      10.254      11.288      12.996    
  15.639      19.313      23.910      32.358      48.514      71.746      96.911      116.49      57.285      54.168    
  46.137      36.395      28.205      22.958      19.313      16.143      13.702      12.041      11.028      10.481    
  10.254      10.249      10.398      10.639      10.901      11.103      11.180      11.103      10.901      10.639    
  10.398      10.249      10.254      10.481      11.028      12.041      13.702      16.143      19.313      22.958    
  28.205      36.395      46.137      54.168      28.829      27.938      25.710      23.083      20.577      18.017    
  15.639      13.702      12.318      11.467      11.066      11.028      11.288      11.795      12.481      13.239    
  13.933      14.422      14.598      14.422      13.933      13.239      12.481      11.795      11.288      11.028    
  11.066      11.467      12.318      13.702      15.639      18.017      20.577      23.083      25.710      27.938    
  19.809      19.500      18.622      17.317      15.795      14.288      12.996      12.041      11.467      11.278    
  11.467      12.041      12.996      14.288      15.795      17.317      18.622      19.500      19.809      19.500    
  18.622      17.317      15.795      14.288      12.996      12.041      11.467      11.278      11.467      12.041    
  12.996      14.288      15.795      17.317      18.622      19.500      14.598      14.422      13.933      13.239    
  12.481      11.795      11.288      11.028      11.066      11.467      12.318      13.702      15.639      18.017    
  20.577      23.083      25.710      27.938      28.829      27.938      25.710      23.083      20.577      18.017    
  15.639      13.702      12.318      11.467      11.066      11.028      11.288      11.795      12.481      13.239    
  13.933      14.422      11.180      11.103      10.901      10.639      10.398      10.249      10.254      10.481    
  11.028      12.041      13.702      16.143      19.313      22.958      28.205      36.395      46.137      54.168    
  57.285      54.168      46.137      36.395      28.205      22.958      19.313      16.143      13.702      12.041    
  11.028      10.481      10.254      10.249      10.398      10.639      10.901      11.103      9.1428      9.1242    
  9.0895      9.0837      9.1471      9.3169      9.6517      10.254      11.288      12.996      15.639      19.313    
  23.910      32.358      48.514      71.746      96.911      116.49      123.88      116.49      96.911      71.746    
  48.514      32.358      23.910      19.313      15.639      12.996      11.288      10.254      9.6517      9.3169    
  9.1471      9.0837      9.0895      9.1242      7.9731      7.9823      8.0326      8.1632      8.3945      8.7521    
  9.3169      10.249      11.795      14.288      18.017      22.958      32.358      53.919      90.699      138.69    
  187.66      224.50      238.21      224.50      187.66      138.69      90.699      53.919      32.358      22.958    
  18.017      14.288      11.795      10.249      9.3169      8.7521      8.3945      8.1632      8.0326      7.9823    
  7.2460      7.2680      7.3630      7.5736      7.9095      8.3945      9.1471      10.398      12.481      15.795    
  20.577      28.205      48.514      90.699      156.09      236.55      315.91      374.56      396.22      374.56    
  315.91      236.55      156.09      90.699      48.514      28.205      20.577      15.795      12.481      10.398    
  9.1471      8.3945      7.9095      7.5736      7.3630      7.2680      6.7273      6.7571      6.8832      7.1553    
  7.5736      8.1632      9.0837      10.639      13.239      17.317      23.083      36.395      71.746      138.69    
  236.55      352.97      465.75      548.35      578.75      548.35      465.75      352.97      236.55      138.69    
  71.746      36.395      23.083      17.317      13.239      10.639      9.0837      8.1632      7.5736      7.1553    
  6.8832      6.7571      6.3856      6.4197      6.5666      6.8832      7.3630      8.0326      9.0895      10.901    
  13.933      18.622      25.710      46.137      96.911      187.66      315.91      465.75      609.62      714.58    
  753.16      714.58      609.62      465.75      315.91      187.66      96.911      46.137      25.710      18.622    
  13.933      10.901      9.0895      8.0326      7.3630      6.8832      6.5666      6.4197      6.2313      6.2657    
  6.4197      6.7571      7.2680      7.9823      9.1242      11.103      14.422      19.500      27.938      54.168    
  116.49      224.50      374.56      548.35      714.58      835.71      880.23      835.71      714.58      548.35    
  374.56      224.50      116.49      54.168      27.938      19.500      14.422      11.103      9.1242      7.9823    
  7.2680      6.7571      6.4197      6.2657      6.1976      6.2313      6.3856      6.7273      7.2460      7.9731    
  9.1428      11.180      14.598      19.809      28.829      57.285      123.88      238.21      396.22      578.75    
  753.16      880.23      926.93      880.23      753.16      578.75      396.22      238.21      123.88      57.285    
  28.829      19.809      14.598      11.180      9.1428      7.9731      7.2460      6.7273      6.3856      6.2313    
  6.2313      6.2657      6.4197      6.7571      7.2680      7.9823      9.1242      11.103      14.422      19.500    
  27.938      54.168      116.49      224.50      374.56      548.35      714.58      835.71      880.23      835.71    
  714.58      548.35      374.56      224.50      116.49      54.168      27.938      19.500      14.422      11.103    
  9.1242      7.9823      7.2680      6.7571      6.4197      6.2657      6.3856      6.4197      6.5666      6.8832    
  7.3630      8.0326      9.0895      10.901      13.933      18.622      25.710      46.137      96.911      187.66    
  315.91      465.75      609.62      714.58      753.16      714.58      609.62      465.75      315.91      187.66    
  96.911      46.137      25.710      18.622      13.933      10.901      9.0895      8.0326      7.3630      6.8832    
  6.5666      6.4197      6.7273      6.7571      6.8832      7.1553      7.5736      8.1632      9.0837      10.639    
  13.239      17.317      23.083      36.395      71.746      138.69      236.55      352.97      465.75      548.35    
  578.75      548.35      465.75      352.97      236.55      138.69      71.746      36.395      23.083      17.317    
  13.239      10.639      9.0837      8.1632      7.5736      7.1553      6.8832      6.7571      7.2460      7.2680    
  7.3630      7.5736      7.9095      8.3945      9.1471      10.398      12.481      15.795      20.577      28.205    
  48.514      90.699      156.09      236.55      315.91      374.56      396.22      374.56      315.91      236.55    
  156.09      90.699      48.514      28.205      20.577      15.795      12.481      10.398      9.1471      8.3945    
  7.9095      7.5736      7.3630      7.2680      7.9731      7.9823      8.0326      8.1632      8.3945      8.7521    
  9.3169      10.249      11.795      14.288      18.017      22.958      32.358      53.919      90.699      138.69    
  187.66      224.50      238.21      224.50      187.66      138.69      90.699      53.919      32.358      22.958    
  18.017      14.288      11.795      10.249      9.3169      8.7521      8.3945      8.1632      8.0326      7.9823    
  9.1428      9.1242      9.0895      9.0837      9.1471      9.3169      9.6517      10.254      11.288      12.996    
  15.639      19.313      23.910      32.358      48.514      71.746      96.911      116.49      123.88      116.49    
  96.911      71.746      48.514      32.358      23.910      19.313      15.639      12.996      11.288      10.254    
  9.6517      9.3169      9.1471      9.0837      9.0895      9.1242      11.180      11.103      10.901      10.639    
  10.398      10.249      10.254      10.481      11.028      12.041      13.702      16.143      19.313      22.958    
  28.205      36.395      46.137      54.168      57.285      54.168      46.137      36.395      28.205      22.958    
  19.313      16.143      13.702      12.041      11.028      10.481      10.254      10.249      10.398      10.639    
  10.901      11.103      14.598      14.422      13.933      13.239      12.481      11.795      11.288      11.028    
  11.066      11.467      12.318      13.702      15.639      18.017      20.577      23.083      25.710      27.938    
  28.829      27.938      25.710      23.083      20.577      18.017      15.639      13.702      12.318      11.467    
  11.066      11.028      11.288      11.795      12.481      13.239      13.933      14.422      19.809      19.500    
  18.622      17.317      15.795      14.288      12.996      12.041      11.467      11.278      11.467      12.041    
  12.996      14.288      15.795      17.317      18.622      19.500      19.809      19.500      18.622      17.317    
  15.795      14.288      12.996      12.041      11.467      11.278      11.467      12.041      12.996      14.288    
  15.795      17.317      18.622      19.500      28.829      27.938      25.710      23.083      20.577      18.017    
  15.639      13.702      12.318      11.467      11.066      11.028      11.288      11.795      12.481      13.239    
  13.933      14.422      14.598      14.422      13.933      13.239      12.481      11.795      11.288      11.028    
  11.066      11.467      12.318      13.702      15.639      18.017      20.577      23.083      25.710      27.938    
  57.285      54.168      46.137      36.395      28.205      22.958      19.313      16.143      13.702      12.041    
  11.028      10.481      10.254      10.249      10.398      10.639      10.901      11.103      11.180      11.103    
  10.901      10.639      10.398      10.249      10.254      10.481      11.028      12.041      13.702      16.143    
  19.313      22.958      28.205      36.395      46.137      54.168      123.88      116.49      96.911      71.746    
  48.514      32.358      23.910      19.313      15.639      12.996      11.288      10.254      9.6517      9.3169    
  9.1471      9.0837      9.0895      9.1242      9.1428      9.1242      9.0895      9.0837      9.1471      9.3169    
  9.6517      10.254      11.288      12.996      15.639      19.313      23.910      32.358      48.514      71.746    
  96.911      116.49      238.21      224.50      187.66      138.69      90.699      53.919      32.358      22.958    
  18.017      14.288      11.795      10.249      9.3169      8.7521      8.3945      8.1632      8.0326      7.9823    
  7.9731      7.9823      8.0326      8.1632      8.3945      8.7521      9.3169      10.249      11.795      14.288    
  18.017      22.958      32.358      53.919      90.699      138.69      187.66      224.50      396.22      374.56    