unknown system                          
   1.00000000000000     
     3.808352    0.000000    0.000000
     0.000000    3.808352    0.000000
     0.000000    0.000000    3.808352
   Cu
     4
Direct
  0.000000  0.000000  0.000000
  0.500000  0.500000  0.000000
  0.500000  0.000000  0.500000
  0.000000  0.500000  0.500000
 
   36   36   36
 0.97591505167E+03 0.92692944182E+03 0.79364178199E+03 0.61065750558E+03 0.41899699762E+03
 0.25268506727E+03 0.13174310167E+03 0.60642975632E+02 0.29804510323E+02 0.20123352782E+02
 0.14778870772E+02 0.11258741139E+02 0.91615432503E+01 0.79634571917E+01 0.72236409710E+01
 0.66974241238E+01 0.63518502806E+01 0.61976278919E+01 0.61648535450E+01 0.61976278919E+01
 0.63518502806E+01 0.66974241238E+01 0.72236409710E+01 0.79634571917E+01 0.91615432503E+01
 0.11258741139E+02 0.14778870772E+02 0.20123352782E+02 0.29804510323E+02 0.60642975632E+02
 0.13174310167E+03 0.25268506727E+03 0.41899699762E+03 0.61065750558E+03 0.79364178199E+03
 0.92692944182E+03 0.92692944182E+03 0.88023161537E+03 0.75316337482E+03 0.57874547358E+03
 0.39621819199E+03 0.23820977405E+03 0.12387967735E+03 0.57285011936E+02 0.28829176281E+02
 0.19808524827E+02 0.14598143739E+02 0.11180191175E+02 0.91427794070E+01 0.79731037635E+01
 0.72460120915E+01 0.67272657082E+01 0.63856040851E+01 0.62312938280E+01 0.61976278919E+01
 0.62312938280E+01 0.63856040851E+01 0.67272657082E+01 0.72460120915E+01 0.79731037635E+01
 0.91427794070E+01 0.11180191175E+02 0.14598143739E+02 0.19808524827E+02 0.28829176281E+02
 0.57285011936E+02 0.12387967735E+03 0.23820977405E+03 0.39621819199E+03 0.57874547358E+03
 0.75316337482E+03 0.88023161537E+03 0.79364178199E+03 0.75316337482E+03 0.64303162766E+03
 0.49201097917E+03 0.33450812585E+03 0.19928138964E+03 0.10303242434E+03 0.48612064288E+02
 0.26390316603E+02 0.18912712250E+02 0.14096676052E+02 0.10972495281E+02 0.91082800603E+01
 0.80254630324E+01 0.73431229663E+01 0.68551961861E+01 0.65336047567E+01 0.63856040851E+01
 0.63518502806E+01 0.63856040851E+01 0.65336047567E+01 0.68551961861E+01 0.73431229663E+01
 0.80254630324E+01 0.91082800603E+01 0.10972495281E+02 0.14096676052E+02 0.18912712250E+02
 0.26390316603E+02 0.48612064288E+02 0.10303242434E+03 0.19928138964E+03 0.33450812585E+03
 0.49201097917E+03 0.64303162766E+03 0.75316337482E+03 0.61065750558E+03 0.57874547358E+03
 0.49201097917E+03 0.37347361394E+03 0.25087164792E+03 0.14742068414E+03 0.76139188996E+02
 0.38043090675E+02 0.23538480304E+02 0.17577390055E+02 0.13383640820E+02 0.10704668220E+02
 0.91037612279E+01 0.81604649183E+01 0.75590077226E+01 0.71325196816E+01 0.68551961861E+01
 0.67272657082E+01 0.66974241238E+01 0.67272657082E+01 0.68551961861E+01 0.71325196816E+01
 0.75590077226E+01 0.81604649183E+01 0.91037612278E+01 0.10704668220E+02 0.13383640820E+02
 0.17577390055E+02 0.23538480304E+02 0.38043090675E+02 0.76139188996E+02 0.14742068414E+03
 0.25087164792E+03 0.37347361394E+03 0.49201097917E+03 0.57874547358E+03 0.41899699762E+03
 0.39621819199E+03 0.33450812585E+03 0.25087164792E+03 0.16584590860E+03 0.96381202058E+02
 0.51161143868E+02 0.29100632761E+02 0.20916963940E+02 0.16015727346E+02 0.12603413810E+02
 0.10457086956E+02 0.91696853277E+01 0.83982836624E+01 0.79026077354E+01 0.75590077226E+01
 0.73431229663E+01 0.72460120915E+01 0.72236409710E+01 0.72460120915E+01 0.73431229663E+01
 0.75590077226E+01 0.79026077354E+01 0.83982836624E+01 0.91696853277E+01 0.10457086956E+02
 0.12603413810E+02 0.16015727346E+02 0.20916963940E+02 0.29100632761E+02 0.51161143868E+02
 0.96381202058E+02 0.16584590860E+03 0.25087164792E+03 0.33450812585E+03 0.39621819199E+03
 0.25268506727E+03 0.23820977405E+03 0.19928138964E+03 0.14742068414E+03 0.96381202058E+02
 0.56984035764E+02 0.33629185907E+02 0.23394713385E+02 0.18298994696E+02 0.14466296020E+02
 0.11896482819E+02 0.10302406388E+02 0.93436994777E+01 0.87644722695E+01 0.83982836624E+01
 0.81604649183E+01 0.80254630324E+01 0.79731037635E+01 0.79634571917E+01 0.79731037635E+01
 0.80254630324E+01 0.81604649183E+01 0.83982836624E+01 0.87644722695E+01 0.93436994777E+01
 0.10302406388E+02 0.11896482819E+02 0.14466296020E+02 0.18298994696E+02 0.23394713385E+02
 0.33629185907E+02 0.56984035764E+02 0.96381202058E+02 0.14742068414E+03 0.19928138964E+03
 0.23820977405E+03 0.13174310167E+03 0.12387967735E+03 0.10303242434E+03 0.76139188996E+02
 0.51161143868E+02 0.33629185907E+02 0.24412657749E+02 0.19628225462E+02 0.15856712569E+02
 0.13133582711E+02 0.11371522841E+02 0.10305684681E+02 0.96868900378E+01 0.93436994777E+01
 0.91696853277E+01 0.91037612279E+01 0.91082800603E+01 0.91427794070E+01 0.91615432503E+01
 0.91427794070E+01 0.91082800603E+01 0.91037612279E+01 0.91696853277E+01 0.93436994777E+01
 0.96868900378E+01 0.10305684681E+02 0.11371522841E+02 0.13133582711E+02 0.15856712569E+02
 0.19628225462E+02 0.24412657749E+02 0.33629185907E+02 0.51161143868E+02 0.76139188996E+02
 0.10303242434E+03 0.12387967735E+03 0.60642975632E+02 0.57285011936E+02 0.48612064288E+02
 0.38043090675E+02 0.29100632761E+02 0.23394713385E+02 0.19628225462E+02 0.16375032154E+02
 0.13860252915E+02 0.12145722337E+02 0.11100694043E+02 0.10538143758E+02 0.10305684681E+02
 0.10302406388E+02 0.10457086956E+02 0.10704668220E+02 0.10972495281E+02 0.11180191175E+02
 0.11258741139E+02 0.11180191175E+02 0.10972495281E+02 0.10704668220E+02 0.10457086956E+02
 0.10302406388E+02 0.10305684681E+02 0.10538143758E+02 0.11100694043E+02 0.12145722337E+02
 0.13860252915E+02 0.16375032154E+02 0.19628225462E+02 0.23394713385E+02 0.29100632761E+02
 0.38043090675E+02 0.48612064288E+02 0.57285011936E+02 0.29804510323E+02 0.28829176281E+02
 0.26390316603E+02 0.23538480304E+02 0.20916963940E+02 0.18298994696E+02 0.15856712569E+02
 0.13860252915E+02 0.12430649701E+02 0.11552153549E+02 0.11138819242E+02 0.11100694043E+02
 0.11371522841E+02 0.11896482819E+02 0.12603413810E+02 0.13383640820E+02 0.14096676052E+02
 0.14598143739E+02 0.14778870772E+02 0.14598143739E+02 0.14096676052E+02 0.13383640820E+02
 0.12603413810E+02 0.11896482819E+02 0.11371522841E+02 0.11100694043E+02 0.11138819242E+02
 0.11552153549E+02 0.12430649701E+02 0.13860252915E+02 0.15856712569E+02 0.18298994696E+02
 0.20916963940E+02 0.23538480304E+02 0.26390316603E+02 0.28829176281E+02 0.20123352782E+02
 0.19808524827E+02 0.18912712250E+02 0.17577390055E+02 0.16015727346E+02 0.14466296020E+02
 0.13133582711E+02 0.12145722337E+02 0.11552153549E+02 0.11355838016E+02 0.11552153549E+02
 0.12145722337E+02 0.13133582711E+02 0.14466296020E+02 0.16015727346E+02 0.17577390055E+02
 0.18912712250E+02 0.19808524827E+02 0.20123352782E+02 0.19808524827E+02 0.18912712250E+02
 0.17577390055E+02 0.16015727346E+02 0.14466296020E+02 0.13133582711E+02 0.12145722337E+02
 0.11552153549E+02 0.11355838016E+02 0.11552153549E+02 0.12145722337E+02 0.13133582711E+02
 0.14466296020E+02 0.16015727346E+02 0.17577390055E+02 0.18912712250E+02 0.19808524827E+02
 0.14778870772E+02 0.14598143739E+02 0.14096676052E+02 0.13383640820E+02 0.12603413810E+02
 0.11896482819E+02 0.11371522841E+02 0.11100694043E+02 0.11138819242E+02 0.11552153549E+02
 0.12430649701E+02 0.13860252915E+02 0.15856712569E+02 0.18298994696E+02 0.20916963940E+02
 0.23538480304E+02 0.26390316603E+02 0.28829176281E+02 0.29804510323E+02 0.28829176281E+02
 0.26390316603E+02 0.23538480304E+02 0.20916963940E+02 0.18298994696E+02 0.15856712569E+02
 0.13860252915E+02 0.12430649701E+02 0.11552153549E+02 0.11138819242E+02 0.11100694043E+02
 0.11371522841E+02 0.11896482819E+02 0.12603413810E+02 0.13383640820E+02 0.14096676052E+02
 0.14598143739E+02 0.11258741139E+02 0.11180191175E+02 0.10972495281E+02 0.10704668220E+02
 0.10457086956E+02 0.10302406388E+02 0.10305684681E+02 0.10538143758E+02 0.11100694043E+02
 0.12145722337E+02 0.13860252915E+02 0.16375032154E+02 0.19628225462E+02 0.23394713385E+02
 0.29100632761E+02 0.38043090675E+02 0.48612064288E+02 0.57285011936E+02 0.60642975632E+02
 0.57285011936E+02 0.48612064288E+02 0.38043090675E+02 0.29100632761E+02 0.23394713385E+02
 0.19628225462E+02 0.16375032154E+02 0.13860252915E+02 0.12145722337E+02 0.11100694043E+02
 0.10538143758E+02 0.10305684681E+02 0.10302406388E+02 0.10457086956E+02 0.10704668220E+02
 0.10972495281E+02 0.11180191175E+02 0.91615432503E+01 0.91427794070E+01 0.91082800603E+01
 0.91037612279E+01 0.91696853277E+01 0.93436994777E+01 0.96868900378E+01 0.10305684681E+02
 0.11371522841E+02 0.13133582711E+02 0.15856712569E+02 0.19628225462E+02 0.24412657749E+02
 0.33629185907E+02 0.51161143868E+02 0.76139188996E+02 0.10303242434E+03 0.12387967735E+03
 0.13174310167E+03 0.12387967735E+03 0.10303242434E+03 0.76139188996E+02 0.51161143868E+02
 0.33629185907E+02 0.24412657749E+02 0.19628225462E+02 0.15856712569E+02 0.13133582711E+02
 0.11371522841E+02 0.10305684681E+02 0.96868900378E+01 0.93436994777E+01 0.91696853277E+01
 0.91037612279E+01 0.91082800603E+01 0.91427794070E+01 0.79634571917E+01 0.79731037635E+01
 0.80254630324E+01 0.81604649183E+01 0.83982836624E+01 0.87644722695E+01 0.93436994777E+01
 0.10302406388E+02 0.11896482819E+02 0.14466296020E+02 0.18298994696E+02 0.23394713385E+02
 0.33629185907E+02 0.56984035764E+02 0.96381202058E+02 0.14742068414E+03 0.19928138964E+03
 0.23820977405E+03 0.25268506727E+03 0.23820977405E+03 0.19928138964E+03 0.14742068414E+03
 0.96381202058E+02 0.56984035764E+02 0.33629185907E+02 0.23394713385E+02 0.18298994696E+02
 0.14466296020E+02 0.11896482819E+02 0.10302406388E+02 0.93436994777E+01 0.87644722695E+01
 0.83982836624E+01 0.81604649183E+01 0.80254630324E+01 0.79731037635E+01 0.72236409710E+01
 0.72460120915E+01 0.73431229663E+01 0.75590077226E+01 0.79026077354E+01 0.83982836624E+01
 0.91696853277E+01 0.10457086956E+02 0.12603413810E+02 0.16015727346E+02 0.20916963940E+02
 0.29100632761E+02 0.51161143868E+02 0.96381202058E+02 0.16584590860E+03 0.25087164792E+03
 0.33450812585E+03 0.39621819199E+03 0.41899699762E+03 0.39621819199E+03 0.33450812585E+03
 0.25087164792E+03 0.16584590860E+03 0.96381202058E+02 0.51161143868E+02 0.29100632761E+02
 0.20916963940E+02 0.16015727346E+02 0.12603413810E+02 0.10457086956E+02 0.91696853277E+01
 0.83982836624E+01 0.79026077354E+01 0.75590077226E+01 0.73431229663E+01 0.72460120915E+01
 0.66974241238E+01 0.67272657082E+01 0.68551961861E+01 0.71325196816E+01 0.75590077226E+01
 0.81604649183E+01 0.91037612279E+01 0.10704668220E+02 0.13383640820E+02 0.17577390055E+02
 0.23538480304E+02 0.38043090675E+02 0.76139188996E+02 0.14742068414E+03 0.25087164792E+03
 0.37347361394E+03 0.49201097917E+03 0.57874547358E+03 0.61065750558E+03 0.57874547358E+03
 0.49201097917E+03 0.37347361394E+03 0.25087164792E+03 0.14742068414E+03 0.76139188996E+02
 0.38043090675E+02 0.23538480304E+02 0.17577390055E+02 0.13383640820E+02 0.10704668220E+02
 0.91037612279E+01 0.81604649183E+01 0.75590077226E+01 0.71325196816E+01 0.68551961861E+01
 0.67272657082E+01 0.63518502806E+01 0.63856040851E+01 0.65336047567E+01 0.68551961861E+01
 0.73431229663E+01 0.80254630324E+01 0.91082800603E+01 0.10972495281E+02 0.14096676052E+02
 0.18912712250E+02 0.26390316603E+02 0.48612064288E+02 0.10303242434E+03 0.19928138964E+03
 0.33450812585E+03 0.49201097917E+03 0.64303162766E+03 0.75316337482E+03 0.79364178199E+03
 0.75316337482E+03 0.64303162766E+03 0.49201097917E+03 0.33450812585E+03 0.19928138964E+03
 0.10303242434E+03 0.48612064288E+02 0.26390316603E+02 0.18912712250E+02 0.14096676052E+02
 0.10972495281E+02 0.91082800603E+01 0.80254630324E+01 0.73431229663E+01 0.68551961861E+01
 0.65336047567E+01 0.63856040851E+01 0.61976278919E+01 0.62312938280E+01 0.63856040851E+01
 0.67272657082E+01 0.72460120915E+01 0.79731037635E+01 0.91427794070E+01 0.11180191175E+02
 0.14598143739E+02 0.19808524827E+02 0.28829176281E+02 0.57285011936E+02 0.12387967735E+03
 0.23820977405E+03 0.39621819199E+03 0.57874547358E+03 0.75316337482E+03 0.88023161537E+03
 0.92692944182E+03 0.88023161537E+03 0.75316337482E+03 0.57874547358E+03 0.39621819199E+03
 0.23820977405E+03 0.12387967735E+03 0.57285011936E+02 0.28829176281E+02 0.19808524827E+02
 0.14598143739E+02 0.11180191175E+02 0.91427794070E+01 0.79731037635E+01 0.72460120915E+01
 0.67272657082E+01 0.63856040851E+01 0.62312938280E+01 0.61648535450E+01 0.61976278919E+01
 0.63518502806E+01 0.66974241238E+01 0.72236409710E+01 0.79634571917E+01 0.91615432503E+01
 0.11258741139E+02 0.14778870772E+02 0.20123352782E+02 0.29804510323E+02 0.60642975632E+02
 0.13174310167E+03 0.25268506727E+03 0.41899699762E+03 0.61065750558E+03 0.79364178199E+03
 0.92692944182E+03 0.97591505167E+03 0.92692944182E+03 0.79364178199E+03 0.61065750558E+03
 0.41899699762E+03 0.25268506727E+03 0.13174310167E+03 0.60642975632E+02 0.29804510323E+02
 0.20123352782E+02 0.14778870772E+02 0.11258741139E+02 0.91615432503E+01 0.79634571917E+01
 0.72236409710E+01 0.66974241238E+01 0.63518502806E+01 0.61976278919E+01 0.61976278919E+01
 0.62312938280E+01 0.63856040851E+01 0.67272657082E+01 0.72460120915E+01 0.79731037635E+01
 0.91427794070E+01 0.11180191175E+02 0.14598143739E+02 0.19808524827E+02 0.28829176281E+02
 0.57285011936E+02 0.12387967735E+03 0.23820977405E+03 0.39621819199E+03 0.57874547358E+03
 0.75316337482E+03 0.88023161537E+03 0.92692944182E+03 0.88023161537E+03 0.75316337482E+03
 0.57874547358E+03 0.39621819199E+03 0.23820977405E+03 0.12387967735E+03 0.57285011936E+02
 0.28829176281E+02 0.19808524827E+02 0.14598143739E+02 0.11180191175E+02 0.91427794070E+01
 0.79731037635E+01 0.72460120915E+01 0.67272657082E+01 0.63856040851E+01 0.62312938280E+01
 0.63518502806E+01 0.63856040851E+01 0.65336047567E+01 0.68551961861E+01 0.73431229663E+01
 0.80254630324E+01 0.91082800603E+01 0.10972495281E+02 0.14096676052E+02 0.18912712250E+02
 0.26390316603E+02 0.48612064288E+02 0.10303242434E+03 0.19928138964E+03 0.33450812585E+03
 0.49201097917E+03 0.64303162766E+03 0.75316337482E+03 0.79364178199E+03 0.75316337482E+03
 0.64303162766E+03 0.49201097917E+03 0.33450812585E+03 0.19928138964E+03 0.10303242434E+03
 0.48612064288E+02 0.26390316603E+02 0.18912712250E+02 0.14096676052E+02 0.10972495281E+02
 0.91082800603E+01 0.80254630324E+01 0.73431229663E+01 0.68551961861E+01 0.65336047567E+01
 0.63856040851E+01 0.66974241238E+01 0.67272657082E+01 0.68551961861E+01 0.71325196816E+01
 0.75590077226E+01 0.81604649183E+01 0.91037612279E+01 0.10704668220E+02 0.13383640820E+02
 0.17577390055E+02 0.23538480304E+02 0.38043090675E+02 0.76139188996E+02 0.14742068414E+03
 0.25087164792E+03 0.37347361394E+03 0.49201097917E+03 0.57874547358E+03 0.61065750558E+03
 0.57874547358E+03 0.49201097917E+03 0.37347361394E+03 0.25087164792E+03 0.14742068414E+03
 0.76139188996E+02 0.38043090675E+02 0.23538480304E+02 0.17577390055E+02 0.13383640820E+02
 0.10704668220E+02 0.91037612279E+01 0.81604649183E+01 0.75590077226E+01 0.71325196816E+01
 0.68551961861E+01 0.67272657082E+01 0.72236409710E+01 0.72460120915E+01 0.73431229663E+01
 0.75590077226E+01 0.79026077354E+01 0.83982836624E+01 0.91696853277E+01 0.10457086956E+02
 0.12603413810E+02 0.16015727346E+02 0.20916963940E+02 0.29100632761E+02 0.51161143868E+02
 0.96381202058E+02 0.16584590860E+03 0.25087164792E+03 0.33450812585E+03 0.39621819199E+03
 0.41899699762E+03 0.39621819199E+03 0.33450812585E+03 0.25087164792E+03 0.16584590860E+03
 0.96381202058E+02 0.51161143868E+02 0.29100632761E+02 0.20916963940E+02 0.16015727346E+02
 0.12603413810E+02 0.10457086956E+02 0.91696853277E+01 0.83982836624E+01 0.79026077354E+01
 0.75590077226E+01 0.73431229663E+01 0.72460120915E+01 0.79634571917E+01 0.79731037635E+01
 0.80254630324E+01 0.81604649183E+01 0.83982836624E+01 0.87644722695E+01 0.93436994777E+01
 0.10302406388E+02 0.11896482819E+02 0.14466296020E+02 0.18298994696E+02 0.23394713385E+02
 0.33629185907E+02 0.56984035764E+02 0.96381202058E+02 0.14742068414E+03 0.19928138964E+03
 0.23820977405E+03 0.25268506727E+03 0.23820977405E+03 0.19928138964E+03 0.14742068414E+03
 0.96381202058E+02 0.56984035764E+02 0.33629185907E+02 0.23394713385E+02 0.18298994696E+02
 0.14466296020E+02 0.11896482819E+02 0.10302406388E+02 0.93436994777E+01 0.87644722695E+01
 0.83982836624E+01 0.81604649183E+01 0.80254630324E+01 0.79731037635E+01 0.91615432503E+01
 0.91427794070E+01 0.91082800603E+01 0.91037612279E+01 0.91696853277E+01 0.93436994777E+01
 0.96868900378E+01 0.10305684681E+02 0.11371522841E+02 0.13133582711E+02 0.15856712569E+02
 0.19628225462E+02 0.24412657749E+02 0.33629185907E+02 0.51161143868E+02 0.76139188996E+02
 0.10303242434E+03 0.12387967735E+03 0.13174310167E+03 0.12387967735E+03 0.10303242434E+03
 0.76139188996E+02 0.51161143868E+02 0.33629185907E+02 0.24412657749E+02 0.19628225462E+02
 0.15856712569E+02 0.13133582711E+02 0.11371522841E+02 0.10305684681E+02 0.96868900378E+01
 0.93436994777E+01 0.91696853277E+01 0.91037612279E+01 0.91082800603E+01 0.91427794070E+01
 0.11258741139E+02 0.11180191175E+02 0.10972495281E+02 0.10704668220E+02 0.10457086956E+02
 0.10302406388E+02 0.10305684681E+02 0.10538143758E+02 0.11100694043E+02 0.12145722337E+02
 0.13860252915E+02 0.16375032154E+02 0.19628225462E+02 0.23394713385E+02 0.29100632761E+02
 0.38043090675E+02 0.48612064288E+02 0.57285011936E+02 0.60642975632E+02 0.57285011936E+02
 0.48612064288E+02 0.38043090675E+02 0.29100632761E+02 0.23394713385E+02 0.19628225462E+02
 0.16375032154E+02 0.13860252915E+02 0.12145722337E+02 0.11100694043E+02 0.10538143758E+02
 0.10305684681E+02 0.10302406388E+02 0.10457086956E+02 0.10704668220E+02 0.10972495281E+02
 0.11180191175E+02 0.14778870772E+02 0.14598143739E+02 0.14096676052E+02 0.13383640820E+02
 0.12603413810E+02 0.11896482819E+02 0.11371522841E+02 0.11100694043E+02 0.11138819242E+02
 0.11552153549E+02 0.12430649701E+02 0.13860252915E+02 0.15856712569E+02 0.18298994696E+02
 0.20916963940E+02 0.23538480304E+02 0.26390316603E+02 0.28829176281E+02 0.29804510323E+02
 0.28829176281E+02 0.26390316603E+02 0.23538480304E+02 0.20916963940E+02 0.18298994696E+02
 0.15856712569E+02 0.13860252915E+02 0.12430649701E+02 0.11552153549E+02 0.11138819242E+02
 0.11100694043E+02 0.11371522841E+02 0.11896482819E+02 0.12603413810E+02 0.13383640820E+02
 0.14096676052E+02 0.14598143739E+02 0.20123352782E+02 0.19808524827E+02 0.18912712250E+02
 0.17577390055E+02 0.16015727346E+02 0.14466296020E+02 0.13133582711E+02 0.12145722337E+02
 0.11552153549E+02 0.11355838016E+02 0.11552153549E+02 0.12145722337E+02 0.13133582711E+02
 0.14466296020E+02 0.16015727346E+02 0.17577390055E+02 0.18912712250E+02 0.19808524827E+02
 0.20123352782E+02 0.19808524827E+02 0.18912712250E+02 0.17577390055E+02 0.16015727346E+02
 0.14466296020E+02 0.13133582711E+02 0.12145722337E+02 0.11552153549E+02 0.11355838016E+02
 0.11552153549E+02 0.12145722337E+02 0.13133582711E+02 0.14466296020E+02 0.16015727346E+02
 0.17577390055E+02 0.18912712250E+02 0.19808524827E+02 0.29804510323E+02 0.28829176281E+02
 0.26390316603E+02 0.23538480304E+02 0.20916963940E+02 0.18298994696E+02 0.15856712569E+02
 0.13860252915E+02 0.12430649701E+02 0.11552153549E+02 0.11138819242E+02 0.11100694043E+02
 0.11371522841E+02 0.11896482819E+02 0.12603413810E+02 0.13383640820E+02 0.14096676052E+02
 0.14598143739E+02 0.14778870772E+02 0.14598143739E+02 0.14096676052E+02 0.13383640820E+02
 0.12603413810E+02 0.11896482819E+02 0.11371522841E+02 0.11100694043E+02 0.11138819242E+02
 0.11552153549E+02 0.12430649701E+02 0.13860252915E+02 0.15856712569E+02 0.18298994696E+02
 0.20916963940E+02 0.23538480304E+02 0.26390316603E+02 0.28829176281E+02 0.60642975632E+02
 0.57285011936E+02 0.48612064288E+02 0.38043090675E+02 0.29100632761E+02 0.23394713385E+02
 0.19628225462E+02 0.16375032154E+02 0.13860252915E+02 0.12145722337E+02 0.11100694043E+02
 0.10538143758E+02 0.10305684681E+02 0.10302406388E+02 0.10457086956E+02 0.10704668220E+02
 0.10972495281E+02 0.11180191175E+02 0.11258741139E+02 0.11180191175E+02 0.10972495281E+02
 0.10704668220E+02 0.10457086956E+02 0.10302406388E+02 0.10305684681E+02 0.10538143758E+02
 0.11100694043E+02 0.12145722337E+02 0.13860252915E+02 0.16375032154E+02 0.19628225462E+02
 0.23394713385E+02 0.29100632761E+02 0.38043090675E+02 0.48612064288E+02 0.57285011936E+02
 0.13174310167E+03 0.12387967735E+03 0.10303242434E+03 0.76139188996E+02 0.51161143868E+02
 0.33629185907E+02 0.24412657749E+02 0.19628225462E+02 0.15856712569E+02 0.13133582711E+02
 0.11371522841E+02 0.10305684681E+02 0.96868900378E+01 0.93436994777E+01 0.91696853277E+01
 0.91037612279E+01 0.91082800603E+01 0.91427794070E+01 0.91615432503E+01 0.91427794070E+01
 0.91082800603E+01 0.91037612279E+01 0.91696853277E+01 0.93436994777E+01 0.96868900378E+01
 0.10305684681E+02 0.11371522841E+02 0.13133582711E+02 0.15856712569E+02 0.19628225462E+02
 0.24412657749E+02 0.33629185907E+02 0.51161143868E+02 0.76139188996E+02 0.10303242434E+03
 0.12387967735E+03 0.25268506727E+03 0.23820977405E+03 0.19928138964E+03 0.14742068414E+03
 0.96381202058E+02 0.56984035764E+02 0.33629185907E+02 0.23394713385E+02 0.18298994696E+02
 0.14466296020E+02 0.11896482819E+02 0.10302406388E+02 0.93436994777E+01 0.87644722695E+01
 0.83982836624E+01 0.81604649183E+01 0.80254630324E+01 0.79731037635E+01 0.79634571917E+01
 0.79731037635E+01 0.80254630324E+01 0.81604649183E+01 0.83982836624E+01 0.87644722695E+01
 0.93436994777E+01 0.10302406388E+02 0.11896482819E+02 0.14466296020E+02 0.18298994696E+02
 0.23394713385E+02 0.33629185907E+02 0.56984035764E+02 0.96381202058E+02 0.14742068414E+03
 0.19928138964E+03 0.23820977405E+03 0.41899699762E+03 0.39621819199E+03 0.33450812585E+03
 0.25087164792E+03 0.16584590860E+03 0.96381202058E+02 0.51161143868E+02 0.29100632761E+02
 0.20916963940E+02 0.16015727346E+02 0.12603413810E+02 0.10457086956E+02 0.91696853277E+01
 0.83982836624E+01 0.79026077354E+01 0.75590077226E+01 0.73431229663E+01 0.72460120915E+01
 0.72236409710E+01 0.72460120915E+01 0.73431229663E+01 0.75590077226E+01 0.79026077354E+01
 0.83982836624E+01 0.91696853277E+01 0.10457086956E+02 0.12603413810E+02 0.16015727346E+02
 0.20916963940E+02 0.29100632761E+02 0.51161143868E+02 0.96381202058E+02 0.16584590860E+03
 0.25087164792E+03 0.33450812585E+03 0.39621819199E+03 0.61065750558E+03 0.57874547358E+03
 0.49201097917E+03 0.37347361394E+03 0.25087164792E+03 0.14742068414E+03 0.76139188996E+02
 0.38043090675E+02 0.23538480304E+02 0.17577390055E+02 0.13383640820E+02 0.10704668220E+02
 0.91037612279E+01 0.81604649183E+01 0.75590077226E+01 0.71325196816E+01 0.68551961861E+01
 0.67272657082E+01 0.66974241238E+01 0.67272657082E+01 0.68551961861E+01 0.71325196816E+01
 0.75590077226E+01 0.81604649183E+01 0.91037612279E+01 0.10704668220E+02 0.13383640820E+02
 0.17577390055E+02 0.23538480304E+02 0.38043090675E+02 0.76139188996E+02 0.14742068414E+03
 0.25087164792E+03 0.37347361394E+03 0.49201097917E+03 0.57874547358E+03 0.79364178199E+03
 0.75316337482E+03 0.64303162766E+03 0.49201097917E+03 0.33450812585E+03 0.19928138964E+03
 0.10303242434E+03 0.48612064288E+02 0.26390316603E+02 0.18912712250E+02 0.14096676052E+02
 0.10972495281E+02 0.91082800603E+01 0.80254630324E+01 0.73431229663E+01 0.68551961861E+01
 0.65336047567E+01 0.63856040851E+01 0.63518502806E+01 0.63856040851E+01 0.65336047567E+01
 0.68551961861E+01 0.73431229663E+01 0.80254630324E+01 0.91082800603E+01 0.10972495281E+02
 0.14096676052E+02 0.18912712250E+02 0.26390316603E+02 0.48612064288E+02 0.10303242434E+03
 0.19928138964E+03 0.33450812585E+03 0.49201097917E+03 0.64303162766E+03 0.75316337482E+03
 0.92692944182E+03 0.88023161537E+03 0.75316337482E+03 0.57874547358E+03 0.39621819199E+03
 0.23820977405E+03 0.12387967735E+03 0.57285011936E+02 0.28829176281E+02 0.19808524827E+02
 0.14598143739E+02 0.11180191175E+02 0.91427794070E+01 0.79731037635E+01 0.72460120915E+01
 0.67272657082E+01 0.63856040851E+01 0.62312938280E+01 0.61976278919E+01 0.62312938280E+01
 0.63856040851E+01 0.67272657082E+01 0.72460120915E+01 0.79731037635E+01 0.91427794070E+01
 0.11180191175E+02 0.14598143739E+02 0.19808524827E+02 0.28829176281E+02 0.57285011936E+02
 0.12387967735E+03 0.23820977405E+03 0.39621819199E+03 0.57874547358E+03 0.75316337482E+03
 0.88023161537E+03 0.92692944182E+03 0.88023161537E+03 0.75316337482E+03 0.57874547358E+03
 0.39621819199E+03 0.23820977405E+03 0.12387967735E+03 0.57285011936E+02 0.28829176281E+02
 0.19808524827E+02 0.14598143739E+02 0.11180191175E+02 0.91427794070E+01 0.79731037635E+01
 0.72460120915E+01 0.67272657082E+01 0.63856040851E+01 0.62312938280E+01 0.61976278919E+01
 0.62312938280E+01 0.63856040851E+01 0.67272657082E+01 0.72460120915E+01 0.79731037635E+01
 0.91427794070E+01 0.11180191175E+02 0.14598143739E+02 0.19808524827E+02 0.28829176281E+02
 0.57285011936E+02 0.12387967735E+03 0.23820977405E+03 0.39621819199E+03 0.57874547358E+03
 0.75316337482E+03 0.88023161537E+03 0.88023161537E+03 0.83571467504E+03 0.71458013259E+03
 0.54834670498E+03 0.37455811155E+03 0.22449815180E+03 0.11648510126E+03 0.54168198478E+02
 0.27938397645E+02 0.19499836008E+02 0.14421897347E+02 0.11103483458E+02 0.91241621378E+01
 0.79823229455E+01 0.72680377644E+01 0.67570658379E+01 0.64196963291E+01 0.62656787507E+01
 0.62312938280E+01 0.62656787507E+01 0.64196963291E+01 0.67570658379E+01 0.72680377644E+01
 0.79823229455E+01 0.91241621378E+01 0.11103483458E+02 0.14421897347E+02 0.19499836008E+02
 0.27938397645E+02 0.54168198478E+02 0.11648510126E+03 0.22449815180E+03 0.37455811155E+03
 0.54834670498E+03 0.71458013259E+03 0.83571467504E+03 0.75316337482E+03 0.71458013259E+03
 0.60961628774E+03 0.46575049551E+03 0.31591317392E+03 0.18765920934E+03 0.96910709755E+02
 0.46136516182E+02 0.25709663487E+02 0.18622474340E+02 0.13933110360E+02 0.10900649743E+02
 0.90895272940E+01 0.80326465326E+01 0.73629668874E+01 0.68832466645E+01 0.65666198958E+01
 0.64196963291E+01 0.63856040851E+01 0.64196963291E+01 0.65666198958E+01 0.68832466645E+01
 0.73629668874E+01 0.80326465326E+01 0.90895272940E+01 0.10900649743E+02 0.13933110360E+02
 0.18622474340E+02 0.25709663487E+02 0.46136516182E+02 0.96910709755E+02 0.18765920934E+03
 0.31591317392E+03 0.46575049551E+03 0.60961628774E+03 0.71458013259E+03 0.57874547358E+03
 0.54834670498E+03 0.46575049551E+03 0.35296704822E+03 0.23654525797E+03 0.13869169228E+03
 0.71745567467E+02 0.36395459079E+02 0.23083020070E+02 0.17317286491E+02 0.13238862402E+02
 0.10639255811E+02 0.90837497890E+01 0.81631797251E+01 0.75735861788E+01 0.71552651156E+01
 0.68832466645E+01 0.67570658379E+01 0.67272657082E+01 0.67570658379E+01 0.68832466645E+01
 0.71552651156E+01 0.75735861788E+01 0.81631797251E+01 0.90837497890E+01 0.10639255811E+02
 0.13238862402E+02 0.17317286491E+02 0.23083020070E+02 0.36395459079E+02 0.71745567467E+02
 0.13869169228E+03 0.23654525797E+03 0.35296704822E+03 0.46575049551E+03 0.54834670498E+03
 0.39621819199E+03 0.37455811155E+03 0.31591317392E+03 0.23654525797E+03 0.15608910006E+03
 0.90699339929E+02 0.48513541128E+02 0.28205183773E+02 0.20576712501E+02 0.15794777447E+02
 0.12480525832E+02 0.10398234764E+02 0.91471309474E+01 0.83945465295E+01 0.79094834465E+01
 0.75735861788E+01 0.73629668874E+01 0.72680377644E+01 0.72460120915E+01 0.72680377644E+01
 0.73629668874E+01 0.75735861788E+01 0.79094834465E+01 0.83945465295E+01 0.91471309474E+01
 0.10398234764E+02 0.12480525832E+02 0.15794777447E+02 0.20576712501E+02 0.28205183773E+02
 0.48513541128E+02 0.90699339929E+02 0.15608910006E+03 0.23654525797E+03 0.31591317392E+03
 0.37455811155E+03 0.23820977405E+03 0.22449815180E+03 0.18765920934E+03 0.13869169228E+03
 0.90699339929E+02 0.53918635856E+02 0.32357542181E+02 0.22958150969E+02 0.18016885236E+02
 0.14288377446E+02 0.11795118039E+02 0.10248723592E+02 0.93168629105E+01 0.87520629461E+01
 0.83945465295E+01 0.81631797251E+01 0.80326465326E+01 0.79823229455E+01 0.79731037635E+01
 0.79823229455E+01 0.80326465326E+01 0.81631797251E+01 0.83945465295E+01 0.87520629461E+01
 0.93168629105E+01 0.10248723592E+02 0.11795118039E+02 0.14288377446E+02 0.18016885236E+02
 0.22958150969E+02 0.32357542181E+02 0.53918635856E+02 0.90699339929E+02 0.13869169228E+03
 0.18765920934E+03 0.22449815180E+03 0.12387967735E+03 0.11648510126E+03 0.96910709755E+02
 0.71745567467E+02 0.48513541128E+02 0.32357542181E+02 0.23910484790E+02 0.19312983151E+02
 0.15639206340E+02 0.12996151501E+02 0.11287809225E+02 0.10253591420E+02 0.96516918053E+01
 0.93168629105E+01 0.91471309474E+01 0.90837497890E+01 0.90895272940E+01 0.91241621378E+01
 0.91427794070E+01 0.91241621378E+01 0.90895272940E+01 0.90837497890E+01 0.91471309474E+01
 0.93168629105E+01 0.96516918053E+01 0.10253591420E+02 0.11287809225E+02 0.12996151501E+02
 0.15639206340E+02 0.19312983151E+02 0.23910484790E+02 0.32357542181E+02 0.48513541128E+02
 0.71745567467E+02 0.96910709755E+02 0.11648510126E+03 0.57285011936E+02 0.54168198478E+02
 0.46136516182E+02 0.36395459079E+02 0.28205183773E+02 0.22958150969E+02 0.19312983151E+02
 0.16143118929E+02 0.13702008605E+02 0.12040538895E+02 0.11027569521E+02 0.10480950260E+02
 0.10253591420E+02 0.10248723592E+02 0.10398234764E+02 0.10639255811E+02 0.10900649743E+02
 0.11103483458E+02 0.11180191175E+02 0.11103483458E+02 0.10900649743E+02 0.10639255811E+02
 0.10398234764E+02 0.10248723592E+02 0.10253591420E+02 0.10480950260E+02 0.11027569521E+02
 0.12040538895E+02 0.13702008605E+02 0.16143118929E+02 0.19312983151E+02 0.22958150969E+02
 0.28205183773E+02 0.36395459079E+02 0.46136516182E+02 0.54168198478E+02 0.28829176281E+02
 0.27938397645E+02 0.25709663487E+02 0.23083020070E+02 0.20576712501E+02 0.18016885236E+02
 0.15639206340E+02 0.13702008605E+02 0.12317672561E+02 0.11467349603E+02 0.11066324443E+02
 0.11027569521E+02 0.11287809225E+02 0.11795118039E+02 0.12480525832E+02 0.13238862402E+02
 0.13933110360E+02 0.14421897347E+02 0.14598143739E+02 0.14421897347E+02 0.13933110360E+02
 0.13238862402E+02 0.12480525832E+02 0.11795118039E+02 0.11287809225E+02 0.11027569521E+02
 0.11066324443E+02 0.11467349603E+02 0.12317672561E+02 0.13702008605E+02 0.15639206340E+02
 0.18016885236E+02 0.20576712501E+02 0.23083020070E+02 0.25709663487E+02 0.27938397645E+02
 0.19808524827E+02 0.19499836008E+02 0.18622474340E+02 0.17317286491E+02 0.15794777447E+02