    4    4    1    1
  0.1380865E+02  0.3808352E-09  0.3808352E-09  0.3808352E-09  0.5000000E-15
  1.000000000000000E-004
  CAR 
 unknown system                          
     44     35     30
 
  0.0000000E+00  0.0000000E+00  0.0000000E+00  0.1371742E-02
    1       -2.427880   1.000000
    2        1.754022   1.000000
    3        1.754022   1.000000
    4        1.754022   1.000000
    5        2.116465   1.000000
    6        2.116465   1.000000
    7        2.116465   1.000000
    8        3.206308   1.000000
    9        3.206308   1.000000
   10        3.206308   1.000000
   11        3.855333   1.000000
   12        3.855333   1.000000
   13        4.288116   1.000000
   14        4.288116   1.000000
   15        4.288116   1.000000
   16        4.409749   1.000000
   17        4.409749   1.000000
   18        4.409749   1.000000
   19        4.409749   1.000000
   20        4.409749   1.000000
   21        4.409749   1.000000
   22        7.412850  -0.000000
   23        7.412850  -0.000000
   24        7.412850  -0.000000
   25       11.881196   0.000000
   26       11.881196   0.000000
   27       11.881196   0.000000
   28       17.720798   0.000000
   29       17.720798   0.000000
   30       17.720798   0.000000
 
  0.1111111E+00  0.0000000E+00  0.0000000E+00  0.8230453E-02
    1       -2.293713   1.000000
    2        1.746351   1.000000
    3        1.811507   1.000000
    4        1.811507   1.000000
    5        2.148028   1.000000
    6        2.150193   1.000000
    7        2.150193   1.000000
    8        3.172106   1.000000
    9        3.234526   1.000000
   10        3.234526   1.000000
   11        3.824444   1.000000
   12        3.868154   1.000000
   13        4.227316   1.000000
   14        4.227316   1.000000
   15        4.248239   1.000000
   16        4.248239   1.000000
   17        4.274810   1.000000
   18        4.362459   1.000000
   19        4.362459   1.000000
   20        4.409824   1.000000
   21        4.409824   1.000000
   22        6.558216  -0.000000
   23        7.719224  -0.000000
   24        7.719224  -0.000000
   25       11.938983   0.000000
   26       11.938983   0.000000
   27       13.015311   0.000000
   28       16.874091   0.000000
   29       16.874092   0.000000
   30       17.110447   0.000000
 
  0.2222222E+00  0.0000000E+00  0.0000000E+00  0.8230453E-02
    1       -1.895616   1.000000
    2        1.671006   1.000000
    3        1.968841   1.000000
    4        1.968841   1.000000
    5        2.239446   1.000000
    6        2.252360   1.000000
    7        2.252360   1.000000
    8        3.074117   1.000000
    9        3.317716   1.000000
   10        3.317716   1.000000
   11        3.738261   1.000000
   12        3.826181   1.000000
   13        3.826181   1.000000
   14        3.905068   1.000000
   15        4.135161   1.000000
   16        4.135161   1.000000
   17        4.231550   1.000000
   18        4.231550   1.000000
   19        4.236786   1.000000
   20        4.409997   1.000000
   21        4.409997   1.000000
   22        5.116306   1.000084
   23        8.490563  -0.000000
   24        8.490563  -0.000000
   25       12.121004   0.000000
   26       12.121004   0.000000
   27       15.312795   0.000000
   28       15.312795   0.000000
   29       15.341039   0.000000
   30       15.902765   0.000000
 
  0.3333333E+00  0.0000000E+00  0.0000000E+00  0.8230453E-02
    1       -1.249567   1.000000
    2        1.331837   1.000000
    3        2.176599   1.000000
    4        2.176599   1.000000
    5        2.380822   1.000000
    6        2.425348   1.000000
    7        2.425348   1.000000
    8        2.925343   1.000000
    9        3.389692   1.000000
   10        3.389692   1.000000
   11        3.451964   1.000000
   12        3.451964   1.000000
   13        3.619174   1.000000
   14        3.961916   1.000000
   15        3.977870   1.000000
   16        3.977870   1.000000
   17        4.008535   1.000000
   18        4.044297   1.000000
   19        4.044297   1.000000
   20        4.178402   1.000000
   21        4.410216   1.000000
   22        4.410216   1.000000
   23        9.539559  -0.000000
   24        9.539559  -0.000000
   25       12.452039   0.000000
   26       12.452039   0.000000
   27       13.699488   0.000000
   28       13.699488   0.000000
   29       14.709327   0.000000
   30       14.709327   0.000000
 
  0.4444444E+00  0.0000000E+00  0.0000000E+00  0.8230453E-02
    1       -0.395694   1.000000
    2        0.557137   1.000000
    3        2.339318   1.000000
    4        2.339318   1.000000
    5        2.555923   1.000000
    6        2.673343   1.000000
    7        2.673343   1.000000
    8        2.745063   1.000000
    9        2.996853   1.000000
   10        2.996853   1.000000
   11        3.517505   1.000000
   12        3.553112   1.000000
   13        3.628626   1.000000
   14        3.628626   1.000000
   15        3.833358   1.000000
   16        3.833358   1.000000
   17        3.848641   1.000000
   18        3.848641   1.000000
   19        4.032051   1.000000
   20        4.107212   1.000000
   21        4.410546   1.000000
   22        4.410546   1.000000
   23       10.780112  -0.000000
   24       10.780112  -0.000000
   25       12.175069   0.000000
   26       12.175069   0.000000
   27       12.965315   0.000000
   28       12.965315   0.000000
   29       13.727019   0.000000
   30       13.727019   0.000000
 
  0.1111111E+00  0.1111111E+00  0.0000000E+00  0.1646091E-01
    1       -2.160424   1.000000
    2        1.806623   1.000000
    3        1.806623   1.000000
    4        1.866167   1.000000
    5        2.180627   1.000000
    6        2.180627   1.000000
    7        2.182112   1.000000
    8        3.154306   1.000000
    9        3.247597   1.000000
   10        3.257543   1.000000
   11        3.816714   1.000000
   12        3.862892   1.000000
   13        4.102649   1.000000
   14        4.138031   1.000000
   15        4.138031   1.000000
   16        4.211313   1.000000
   17        4.262119   1.000000
   18        4.262119   1.000000
   19        4.362325   1.000000
   20        4.362325   1.000000
   21        4.379012   1.000000
   22        6.852308  -0.000000
   23        6.852308  -0.000000
   24        7.998999  -0.000000
   25       11.999012   0.000000
   26       13.099525   0.000000
   27       13.099525   0.000000
   28       15.284793   0.000000
   29       17.048007   0.000000
   30       17.048057   0.000000
 
  0.2222222E+00  0.1111111E+00  0.0000000E+00  0.3292181E-01
    1       -1.765105   1.000000
    2        1.740407   1.000000
    3        1.972406   1.000000
    4        2.015774   1.000000
    5        2.268774   1.000000
    6        2.277789   1.000000
    7        2.279460   1.000000
    8        3.068262   1.000000
    9        3.322368   1.000000
   10        3.323444   1.000000
   11        3.734624   1.000000
   12        3.746422   1.000000
   13        3.762119   1.000000
   14        3.901416   1.000000
   15        3.938911   1.000000
   16        4.105956   1.000000
   17        4.144877   1.000000
   18        4.227322   1.000000
   19        4.230933   1.000000
   20        4.361945   1.000000
   21        4.362748   1.000000
   22        5.455390   1.034154
   23        7.549062  -0.000000
   24        8.727046  -0.000000
   25       12.187599   0.000000
   26       13.360761   0.000000
   27       13.592038   0.000000
   28       15.442058   0.000000
   29       15.476330   0.000000
   30       16.054191   0.000000
 
  0.3333333E+00  0.1111111E+00  0.0000000E+00  0.3292181E-01
    1       -1.124269   1.000000
    2        1.417040   1.000000
    3        2.193648   1.000000
    4        2.217827   1.000000
    5        2.404805   1.000000
    6        2.433687   1.000000
    7        2.446302   1.000000
    8        2.927577   1.000000
    9        3.308197   1.000000
   10        3.362797   1.000000
   11        3.406341   1.000000
   12        3.453813   1.000000
   13        3.620830   1.000000
   14        3.664997   1.000000
   15        3.959068   1.000000
   16        3.972256   1.000000
   17        3.988324   1.000000
   18        4.043307   1.000000
   19        4.130812   1.000000
   20        4.359496   1.000000
   21        4.361223   1.000000
   22        4.505018   1.000000
   23        8.452905  -0.000000
   24        9.743784  -0.000000
   25       12.051824   0.000000
   26       12.531199   0.000000
   27       13.817278   0.000000
   28       13.863118   0.000000
   29       14.846945   0.000000
   30       16.562134   0.000000
 
  0.4444444E+00  0.1111111E+00  0.0000000E+00  0.3292181E-01
    1       -0.279143   1.000000
    2        0.659951   1.000000
    3        2.374059   1.000000
    4        2.384555   1.000000
    5        2.573629   1.000000
    6        2.643060   1.000000
    7        2.684304   1.000000
    8        2.755152   1.000000
    9        2.934691   1.000000
   10        2.993093   1.000000
   11        3.404865   1.000000
   12        3.405697   1.000000
   13        3.629024   1.000000
   14        3.720573   1.000000
   15        3.832840   1.000000
   16        3.841994   1.000000
   17        3.854102   1.000000
   18        3.920511   1.000000
   19        4.064134   1.000000
   20        4.185378   1.000000
   21        4.359438   1.000000
   22        4.360210   1.000000
   23        9.501712  -0.000000
   24       10.694335  -0.000000
   25       10.963371  -0.000000
   26       12.345363   0.000000
   27       13.061697   0.000000
   28       13.810160   0.000000
   29       14.538208   0.000000
   30       15.449821   0.000000
 
  0.2222222E+00  0.2222222E+00  0.0000000E+00  0.1646091E-01
    1       -1.378700   1.000000
    2        1.932929   1.000000
    3        1.932929   1.000000
    4        2.142397   1.000000
    5        2.355411   1.000000
    6        2.357460   1.000000
    7        2.357460   1.000000
    8        3.024666   1.000000
    9        3.341150   1.000000
   10        3.364743   1.000000
   11        3.512002   1.000000
   12        3.512002   1.000000
   13        3.563905   1.000000
   14        3.723009   1.000000
   15        3.941596   1.000000
   16        4.021084   1.000000
   17        4.126894   1.000000
   18        4.126894   1.000000
   19        4.229401   1.000000
   20        4.229401   1.000000
   21        4.288229   1.000000
   22        6.104609  -0.010176
   23        6.104609  -0.010176
   24        9.373656  -0.000000
   25       11.796292   0.000000
   26       12.400316   0.000000
   27       15.744327   0.000000
   28       15.744327   0.000000
   29       15.953449   0.000000
   30       15.953449   0.000000
 
  0.3333333E+00  0.2222222E+00  0.0000000E+00  0.3292181E-01
    1       -0.754913   1.000000
    2        1.654790   1.000000
    3        2.197481   1.000000
    4        2.316789   1.000000
    5        2.471603   1.000000
    6        2.477065   1.000000
    7        2.506083   1.000000
    8        2.922235   1.000000
    9        3.121725   1.000000
   10        3.274717   1.000000
   11        3.276567   1.000000
   12        3.348799   1.000000
   13        3.473118   1.000000
   14        3.676795   1.000000
   15        3.900147   1.000000
   16        3.979696   1.000000
   17        4.038876   1.000000
   18        4.041719   1.000000
   19        4.054428   1.000000
   20        4.227486   1.000000
   21        4.247098   1.000000
   22        5.034440   1.000007
   23        6.887826  -0.000000
   24       10.233827  -0.000000
   25       10.320394  -0.000000
   26       12.774028   0.000000
   27       14.340158   0.000000
   28       15.211768   0.000000
   29       16.290924   0.000000
   30       16.710460   0.000000
 
  0.4444444E+00  0.2222222E+00  0.0000000E+00  0.3292181E-01
    1        0.060838   1.000000
    2        0.953266   1.000000
    3        2.438790   1.000000
    4        2.509752   1.000000
    5        2.559979   1.000000
    6        2.624387   1.000000
    7        2.714807   1.000000
    8        2.780302   1.000000
    9        2.796495   1.000000
   10        2.978042   1.000000
   11        3.211000   1.000000
   12        3.286658   1.000000
   13        3.636264   1.000000
   14        3.727592   1.000000
   15        3.809732   1.000000
   16        3.833822   1.000000
   17        3.842889   1.000000
   18        3.880313   1.000000
   19        4.219634   1.000000
   20        4.227033   1.000000
   21        4.231263   1.000000
   22        4.482194   1.000000
   23        7.809609  -0.000000
   24        8.911090  -0.000000
   25       11.490169   0.000000
   26       12.839685   0.000000
   27       13.349249   0.000000
   28       14.157879   0.000000
   29       17.032259   0.000000
   30       17.707902   0.000000
 
  0.3333333E+00  0.3333333E+00  0.0000000E+00  0.1646091E-01
    1       -0.165028   1.000000
    2        1.985445   1.000000
    3        1.985445   1.000000
    4        2.399521   1.000000
    5        2.573048   1.000000
    6        2.596189   1.000000
    7        2.596189   1.000000
    8        2.884726   1.000000
    9        2.999535   1.000000
   10        2.999535   1.000000
   11        3.128872   1.000000
   12        3.301294   1.000000
   13        3.539862   1.000000
   14        3.628441   1.000000
   15        3.807143   1.000000
   16        3.903395   1.000000
   17        3.903395   1.000000
   18        4.042566   1.000000
   19        4.042566   1.000000
   20        4.143412   1.000000
   21        4.231569   1.000000
   22        5.654312   0.762179
   23        5.654312   0.762179
   24        8.675671  -0.000000
   25       11.196504   0.000000
   26       13.202186   0.000000
   27       15.096992   0.000000
   28       15.096992   0.000000
   29       15.860478   0.000000
   30       15.860478   0.000000
 
  0.4444444E+00  0.3333333E+00  0.0000000E+00  0.3292181E-01
    1        0.589671   1.000000
    2        1.384229   1.000000
    3        2.291514   1.000000
    4        2.423459   1.000000
    5        2.686589   1.000000
    6        2.702330   1.000000
    7        2.756029   1.000000
    8        2.804272   1.000000
    9        2.805939   1.000000
   10        2.943034   1.000000
   11        3.067352   1.000000
   12        3.206310   1.000000
   13        3.644468   1.000000
   14        3.668199   1.000000
   15        3.734848   1.000000
   16        3.764425   1.000000
   17        3.773645   1.000000
   18        3.844692   1.000000
   19        4.051902   1.000000
   20        4.080591   1.000000
   21        4.487264   1.000000
   22        4.897157   1.000000
   23        6.420377  -0.000004
   24        7.408468  -0.000000
   25       12.309738   0.000000
   26       13.619170   0.000000
   27       13.844092   0.000000
   28       14.726707   0.000000
   29       16.096158   0.000000
   30       16.744866   0.000000
 
  0.4444444E+00  0.4444444E+00  0.0000000E+00  0.1646091E-01
    1        1.230148   1.000000
    2        1.845860   1.000000
    3        1.845860   1.000000
    4        2.204916   1.000000
    5        2.793989   1.000000
    6        2.793989   1.000000
    7        2.813507   1.000000
    8        2.856269   1.000000
    9        2.880338   1.000000
   10        2.969945   1.000000
   11        2.969945   1.000000
   12        3.121330   1.000000
   13        3.591503   1.000000
   14        3.650151   1.000000
   15        3.657137   1.000000
   16        3.657137   1.000000
   17        3.746692   1.000000
   18        3.879956   1.000000
   19        3.879956   1.000000
   20        3.956548   1.000000
   21        4.862710   1.000000
   22        5.453140   1.033866
   23        5.453140   1.033866
   24        6.257966  -0.000476
   25       13.372624   0.000000
   26       14.565574   0.000000
   27       14.642858   0.000000
   28       14.642858   0.000000
   29       15.530871   0.000000
   30       15.530871   0.000000
 
  0.1111111E+00  0.1111111E+00  0.1111111E+00  0.1097394E-01
    1       -2.028100   1.000000
    2        1.863308   1.000000
    3        1.863308   1.000000
    4        1.863308   1.000000
    5        2.211783   1.000000
    6        2.211783   1.000000
    7        2.211783   1.000000
    8        3.139020   1.000000
    9        3.267336   1.000000
   10        3.267336   1.000000
   11        3.835902   1.000000
   12        3.835902   1.000000
   13        4.030413   1.000000
   14        4.030413   1.000000
   15        4.030413   1.000000
   16        4.167065   1.000000
   17        4.167065   1.000000
   18        4.167065   1.000000
   19        4.368040   1.000000
   20        4.368040   1.000000
   21        4.368040   1.000000
   22        7.109479  -0.000000
   23        7.109479  -0.000000
   24        7.109479  -0.000000
   25       13.185896   0.000000
   26       13.185896   0.000000
   27       13.185896   0.000000
   28       15.447507   0.000000
   29       15.447507   0.000000
   30       15.447507   0.000000
 
  0.2222222E+00  0.1111111E+00  0.1111111E+00  0.3292181E-01
    1       -1.635948   1.000000
    2        1.803619   1.000000
    3        2.018483   1.000000
    4        2.018483   1.000000
    5        2.297586   1.000000
    6        2.304929   1.000000
    7        2.304929   1.000000
    8        3.064091   1.000000
    9        3.323414   1.000000
   10        3.327053   1.000000
   11        3.680852   1.000000
   12        3.680852   1.000000
   13        3.767191   1.000000
   14        3.812747   1.000000
   15        3.890513   1.000000
   16        4.051330   1.000000
   17        4.075765   1.000000
   18        4.075765   1.000000
   19        4.329036   1.000000
   20        4.350271   1.000000
   21        4.350271   1.000000
   22        5.700901   0.580586
   23        7.752479  -0.000000
   24        7.752479  -0.000000
   25       13.449154   0.000000
   26       13.449154   0.000000
   27       13.755231   0.000000
   28       13.755231   0.000000
   29       15.538471   0.000000
   30       15.926910   0.000000
 
  0.3333333E+00  0.1111111E+00  0.1111111E+00  0.3292181E-01
    1       -1.001125   1.000000
    2        1.493839   1.000000
    3        2.229271   1.000000
    4        2.229271   1.000000
    5        2.430491   1.000000
    6        2.453951   1.000000
    7        2.453951   1.000000
    8        2.932912   1.000000
    9        3.294501   1.000000
   10        3.294501   1.000000
   11        3.389675   1.000000
   12        3.426202   1.000000
   13        3.501278   1.000000
   14        3.720375   1.000000
   15        3.893872   1.000000
   16        3.946653   1.000000
   17        3.946653   1.000000
   18        3.972334   1.000000
   19        4.260502   1.000000
   20        4.334336   1.000000
   21        4.334336   1.000000
   22        4.674666   1.000000
   23        8.617253  -0.000000
   24        8.617253  -0.000000
   25       12.211584   0.000000
   26       12.211584   0.000000
   27       13.928426   0.000000
   28       13.928426   0.000000
   29       16.673343   0.000000
   30       16.703839   0.000000
 
  0.4444444E+00  0.1111111E+00  0.1111111E+00  0.3292181E-01
    1       -0.166317   1.000000
    2        0.756303   1.000000
    3        2.417659   1.000000
    4        2.417659   1.000000
    5        2.594232   1.000000
    6        2.622518   1.000000
    7        2.622518   1.000000
    8        2.768967   1.000000
    9        2.971464   1.000000
   10        2.971464   1.000000
   11        3.336628   1.000000
   12        3.362422   1.000000
   13        3.561214   1.000000
   14        3.722598   1.000000
   15        3.831331   1.000000
   16        3.831331   1.000000
   17        3.837662   1.000000
   18        4.069879   1.000000
   19        4.132446   1.000000
   20        4.170256   1.000000
   21        4.327403   1.000000
   22        4.327403   1.000000
   23        9.622493  -0.000000
   24        9.622493  -0.000000
   25       10.880121  -0.000000
   26       10.880121  -0.000000
   27       14.622244   0.000000
   28       14.622244   0.000000
   29       15.582624   0.000000
   30       15.582624   0.000000
 
  0.2222222E+00  0.2222222E+00  0.1111111E+00  0.3292181E-01
    1       -1.253995   1.000000
    2        1.976025   1.000000
    3        1.976025   1.000000
    4        2.140206   1.000000
    5        2.383908   1.000000
    6        2.385500   1.000000
    7        2.385500   1.000000
    8        3.028936   1.000000
    9        3.338527   1.000000
   10        3.351363   1.000000
   11        3.472644   1.000000
   12        3.472644   1.000000
   13        3.501858   1.000000
   14        3.769675   1.000000
   15        3.921636   1.000000
   16        3.954294   1.000000
   17        3.973329   1.000000
   18        3.973329   1.000000
   19        4.313824   1.000000
   20        4.313824   1.000000
   21        4.313968   1.000000
   22        6.269802  -0.000355
   23        6.269802  -0.000355
   24        8.295503  -0.000000
   25       11.964756   0.000000
   26       13.743000   0.000000
   27       14.201853   0.000000
   28       14.201853   0.000000
   29       15.860997   0.000000
   30       15.860997   0.000000
 
  0.3333333E+00  0.2222222E+00  0.1111111E+00  0.6584362E-01
    1       -0.638989   1.000000
    2        1.702275   1.000000
    3        2.205221   1.000000
    4        2.299750   1.000000
    5        2.501294   1.000000
    6        2.510537   1.000000
    7        2.525336   1.000000
    8        2.939002   1.000000
    9        3.140214   1.000000
   10        3.245715   1.000000
   11        3.253521   1.000000
   12        3.343505   1.000000
   13        3.417695   1.000000
   14        3.762169   1.000000
   15        3.818875   1.000000
   16        3.843249   1.000000
   17        3.881191   1.000000
   18        4.035655   1.000000
   19        4.239216   1.000000
   20        4.271294   1.000000
   21        4.271681   1.000000
   22        5.125538   1.000109
   23        7.012024  -0.000000
   24        9.037378  -0.000000
   25       10.456201  -0.000000
   26       12.658927   0.000000
   27       14.242989   0.000000
   28       14.931373   0.000000
   29       16.386508   0.000000
   30       17.125325   0.000000
 
  0.4444444E+00  0.2222222E+00  0.1111111E+00  0.6584362E-01
    1        0.160924   1.000000
    2        1.027228   1.000000
    3        2.419834   1.000000
    4        2.466185   1.000000
    5        2.566141   1.000000
    6        2.622964   1.000000
    7        2.658737   1.000000
    8        2.808162   1.000000
    9        2.942901   1.000000
   10        3.024809   1.000000
   11        3.200783   1.000000
   12        3.278446   1.000000
   13        3.518468   1.000000
   14        3.656598   1.000000
   15        3.761017   1.000000
   16        3.780619   1.000000
   17        3.886081   1.000000
   18        4.095597   1.000000
   19        4.195245   1.000000
   20        4.245901   1.000000
   21        4.245951   1.000000
   22        4.478309   1.000000
   23        7.904973  -0.000000
   24        8.935370  -0.000000
   25       10.221905  -0.000000
   26       11.319576   0.000000
   27       14.976501   0.000000
   28       15.901077   0.000000
   29       15.944785   0.000000
   30       17.097123   0.000000
 
  0.3333333E+00  0.3333333E+00  0.1111111E+00  0.3292181E-01
    1       -0.063966   1.000000
    2        1.971788   1.000000
    3        1.971788   1.000000
    4        2.332385   1.000000
    5        2.617691   1.000000
    6        2.647202   1.000000
    7        2.647202   1.000000
    8        2.920895   1.000000
    9        3.035047   1.000000
   10        3.035047   1.000000
   11        3.157227   1.000000
   12        3.301195   1.000000
   13        3.432527   1.000000
   14        3.729888   1.000000
   15        3.751659   1.000000
   16        3.751659   1.000000
   17        3.759406   1.000000
   18        4.174145   1.000000
   19        4.174145   1.000000
   20        4.197497   1.000000
   21        4.206515   1.000000
   22        5.718834   0.505119
   23        5.718834   0.505119
   24        8.656459  -0.000000
   25       10.010496  -0.000000
   26       13.371496   0.000000
   27       13.371496   0.000000
   28       14.783407   0.000000
   29       16.884671   0.000000
   30       17.802607   0.000000
 
  0.4444444E+00  0.3333333E+00  0.1111111E+00  0.6584362E-01
    1        0.662750   1.000000
    2        1.411191   1.000000
    3        2.197224   1.000000
    4        2.310799   1.000000
    5        2.727993   1.000000
    6        2.770495   1.000000
    7        2.773771   1.000000
    8        2.863432   1.000000
    9        2.943211   1.000000
   10        3.049847   1.000000
   11        3.083818   1.000000
   12        3.211433   1.000000
   13        3.487180   1.000000
   14        3.602824   1.000000
   15        3.655891   1.000000
   16        3.675321   1.000000
   17        3.848283   1.000000
   18        4.021509   1.000000
   19        4.131970   1.000000
   20        4.141428   1.000000
   21        4.460063   1.000000
   22        4.894714   1.000000
   23        6.474275  -0.000001
   24        7.453216  -0.000000
   25       10.887104  -0.000000
   26       12.021969   0.000000
   27       14.323036   0.000000
   28       15.496628   0.000000
   29       15.562812   0.000000
   30       16.580510   0.000000
 
  0.4444444E+00  0.4444444E+00  0.1111111E+00  0.3292181E-01
    1        1.253507   1.000000
    2        1.799798   1.000000
    3        1.799798   1.000000
    4        2.099294   1.000000
    5        2.889885   1.000000
    6        2.911127   1.000000
    7        2.914507   1.000000
    8        2.914507   1.000000
    9        2.999460   1.000000
   10        2.999460   1.000000
   11        3.024585   1.000000
   12        3.135927   1.000000
   13        3.476324   1.000000
   14        3.550009   1.000000
   15        3.550009   1.000000
   16        3.561661   1.000000
   17        3.872368   1.000000
   18        3.990574   1.000000
   19        3.990574   1.000000
   20        4.039568   1.000000
   21        4.838813   1.000000
   22        5.456836   1.034327
   23        5.456836   1.034327
   24        6.281429  -0.000264
   25       11.813282   0.000000
   26       12.959556   0.000000
   27       12.959556   0.000000
   28       14.119008   0.000000
   29       16.390952   0.000000
   30       17.456077   0.000000
 
  0.2222222E+00  0.2222222E+00  0.2222222E+00  0.1097394E-01
    1       -0.886646   1.000000
    2        2.080937   1.000000
    3        2.080937   1.000000
    4        2.080937   1.000000
    5        2.475342   1.000000
    6        2.475342   1.000000
    7        2.475342   1.000000
    8        3.026233   1.000000
    9        3.337468   1.000000
   10        3.337468   1.000000
   11        3.343478   1.000000
   12        3.343478   1.000000
   13        3.343478   1.000000
   14        3.814344   1.000000
   15        3.814344   1.000000
   16        3.814344   1.000000
   17        3.880325   1.000000
   18        3.880325   1.000000
   19        4.337414   1.000000
   20        4.337414   1.000000
   21        4.337414   1.000000
   22        6.713278  -0.000000
   23        6.713278  -0.000000
   24        6.713278  -0.000000
   25       12.416554   0.000000
   26       12.416554   0.000000
   27       12.416554   0.000000
   28       16.181851   0.000000
   29       16.181851   0.000000
   30       16.181851   0.000000
 
  0.3333333E+00  0.2222222E+00  0.2222222E+00  0.3292181E-01
    1       -0.301076   1.000000
    2        1.815324   1.000000
    3        2.195216   1.000000
    4        2.195216   1.000000
    5        2.610597   1.000000
    6        2.610597   1.000000
    7        2.618801   1.000000
    8        2.985295   1.000000
    9        3.181036   1.000000
   10        3.181036   1.000000
   11        3.191927   1.000000
   12        3.325295   1.000000
   13        3.355201   1.000000
   14        3.660150   1.000000
   15        3.715765   1.000000
   16        3.715765   1.000000
   17        3.895074   1.000000
   18        4.014087   1.000000
   19        4.301350   1.000000
   20        4.301350   1.000000
   21        4.317585   1.000000
   22        5.423418   1.028397
   23        7.346996  -0.000000
   24        7.346996  -0.000000
   25       10.888752  -0.000000
   26       10.888752  -0.000000
   27       13.133249   0.000000
   28       16.659562   0.000000
   29       16.726089   0.000000
   30       16.726089   0.000000
 
  0.4444444E+00  0.2222222E+00  0.2222222E+00  0.3292181E-01
    1        0.444907   1.000000
    2        1.223588   1.000000
    3        2.276122   1.000000
    4        2.276122   1.000000
    5        2.691504   1.000000
    6        2.691504   1.000000
    7        2.772413   1.000000
    8        2.898268   1.000000
    9        3.111063   1.000000
   10        3.111063   1.000000
   11        3.170686   1.000000
   12        3.253077   1.000000
   13        3.416648   1.000000
   14        3.521535   1.000000
   15        3.646555   1.000000
   16        3.646555   1.000000
   17        4.095547   1.000000
   18        4.143903   1.000000
   19        4.250231   1.000000
   20        4.261534   1.000000
   21        4.261534   1.000000
   22        4.570155   1.000000
   23        8.045798  -0.000000
   24        8.045798  -0.000000
   25        9.738676  -0.000000
   26        9.738676  -0.000000
   27       14.089041   0.000000
   28       15.266797   0.000000
   29       17.494876   0.000000
   30       17.494876   0.000000
 
  0.3333333E+00  0.3333333E+00  0.2222222E+00  0.3292181E-01
    1        0.223750   1.000000
    2        1.932537   1.000000
    3        1.932537   1.000000
    4        2.150803   1.000000
    5        2.744778   1.000000
    6        2.784455   1.000000
    7        2.784455   1.000000