<?xml version="1.0" encoding="ISO-8859-1"?>
<modeling>
 <generator>
  <i name="program" type="string">vasp </i>
  <i name="version" type="string">6.2.0  </i>
  <i name="subversion" type="string">18Jan21 (build Mar 17 2021 09:06:54) complex                          serial </i>
  <i name="platform" type="string">LinuxIFC </i>
  <i name="date" type="string">2021 08 03 </i>
  <i name="time" type="string">10:15:55 </i>
 </generator>
 <incar>
  <i type="string" name="PREC">normal</i>
  <i type="int" name="ICHARG">     1</i>
  <i type="int" name="IBRION">     1</i>
  <i name="EDIFF">      0.00000100</i>
  <i type="int" name="NSW">     0</i>
  <i type="int" name="ISIF">     4</i>
  <i name="ENCUT">    320.00000000</i>
  <i type="int" name="NBANDS">    30</i>
  <i type="int" name="ISMEAR">     1</i>
  <i name="SIGMA">      0.20000000</i>
  <i type="logical" name="LCHARG"> T  </i>
  <i type="int" name="KPAR">     1</i>
  <i type="int" name="NCORE">     1</i>
  <i type="string" name="GGA">PE</i>
 </incar>
 <primitive_cell>
  <structure name="primitive_cell" >
   <crystal>
    <varray name="basis" >
     <v>       1.90417576      -1.90417576       0.00000000 </v>
     <v>       1.90417576       0.00000000       1.90417576 </v>
     <v>       0.00000000      -1.90417576       1.90417576 </v>
    </varray>
    <i name="volume">     13.80864595 </i>
    <varray name="rec_basis" >
     <v>       0.26258080      -0.26258080      -0.26258080 </v>
     <v>       0.26258080       0.26258080       0.26258080 </v>
     <v>      -0.26258080      -0.26258080       0.26258080 </v>
    </varray>
   </crystal>
   <varray name="positions" >
    <v>       0.00000000       0.00000000       0.00000000 </v>
   </varray>
  </structure>
  <varray name="primitive_index" >
   <v type="int" >        1 </v>
  </varray>
 </primitive_cell>
 <kpoints>
  <generation param="Monkhorst-Pack">
   <v type="int" name="divisions">       9        9        9 </v>
   <v name="usershift">      0.00000000       0.00000000       0.00000000 </v>
   <v name="genvec1">      0.11111111       0.00000000       0.00000000 </v>
   <v name="genvec2">      0.00000000       0.11111111       0.00000000 </v>
   <v name="genvec3">      0.00000000       0.00000000       0.11111111 </v>
   <v name="shift">      0.00000000       0.00000000       0.00000000 </v>
  </generation>
  <varray name="kpointlist" >
   <v>       0.00000000       0.00000000       0.00000000 </v>
   <v>       0.11111111       0.00000000       0.00000000 </v>
   <v>       0.22222222       0.00000000       0.00000000 </v>
   <v>       0.33333333       0.00000000       0.00000000 </v>
   <v>       0.44444444       0.00000000       0.00000000 </v>
   <v>       0.11111111       0.11111111       0.00000000 </v>
   <v>       0.22222222       0.11111111       0.00000000 </v>
   <v>       0.33333333       0.11111111       0.00000000 </v>
   <v>       0.44444444       0.11111111       0.00000000 </v>
   <v>       0.22222222       0.22222222       0.00000000 </v>
   <v>       0.33333333       0.22222222       0.00000000 </v>
   <v>       0.44444444       0.22222222       0.00000000 </v>
   <v>       0.33333333       0.33333333       0.00000000 </v>
   <v>       0.44444444       0.33333333       0.00000000 </v>
   <v>       0.44444444       0.44444444       0.00000000 </v>
   <v>       0.11111111       0.11111111       0.11111111 </v>
   <v>       0.22222222       0.11111111       0.11111111 </v>
   <v>       0.33333333       0.11111111       0.11111111 </v>
   <v>       0.44444444       0.11111111       0.11111111 </v>
   <v>       0.22222222       0.22222222       0.11111111 </v>
   <v>       0.33333333       0.22222222       0.11111111 </v>
   <v>       0.44444444       0.22222222       0.11111111 </v>
   <v>       0.33333333       0.33333333       0.11111111 </v>
   <v>       0.44444444       0.33333333       0.11111111 </v>
   <v>       0.44444444       0.44444444       0.11111111 </v>
   <v>       0.22222222       0.22222222       0.22222222 </v>
   <v>       0.33333333       0.22222222       0.22222222 </v>
   <v>       0.44444444       0.22222222       0.22222222 </v>
   <v>       0.33333333       0.33333333       0.22222222 </v>
   <v>       0.44444444       0.33333333       0.22222222 </v>
   <v>       0.44444444       0.44444444       0.22222222 </v>
   <v>       0.33333333       0.33333333       0.33333333 </v>
   <v>       0.44444444       0.33333333       0.33333333 </v>
   <v>       0.44444444       0.44444444       0.33333333 </v>
   <v>       0.44444444       0.44444444       0.44444444 </v>
  </varray>
  <varray name="weights" >
   <v>       0.00137174 </v>
   <v>       0.00823045 </v>
   <v>       0.00823045 </v>
   <v>       0.00823045 </v>
   <v>       0.00823045 </v>
   <v>       0.01646091 </v>
   <v>       0.03292181 </v>
   <v>       0.03292181 </v>
   <v>       0.03292181 </v>
   <v>       0.01646091 </v>
   <v>       0.03292181 </v>
   <v>       0.03292181 </v>
   <v>       0.01646091 </v>
   <v>       0.03292181 </v>
   <v>       0.01646091 </v>
   <v>       0.01097394 </v>
   <v>       0.03292181 </v>
   <v>       0.03292181 </v>
   <v>       0.03292181 </v>
   <v>       0.03292181 </v>
   <v>       0.06584362 </v>
   <v>       0.06584362 </v>
   <v>       0.03292181 </v>
   <v>       0.06584362 </v>
   <v>       0.03292181 </v>
   <v>       0.01097394 </v>
   <v>       0.03292181 </v>
   <v>       0.03292181 </v>
   <v>       0.03292181 </v>
   <v>       0.06584362 </v>
   <v>       0.03292181 </v>
   <v>       0.01097394 </v>
   <v>       0.03292181 </v>
   <v>       0.03292181 </v>
   <v>       0.01097394 </v>
  </varray>
 </kpoints>
 <parameters>
  <separator name="general" >
   <i type="string" name="SYSTEM">unknown system</i>
   <i type="logical" name="LCOMPAT"> F  </i>
  </separator>
  <separator name="electronic" >
   <i type="string" name="PREC">normal</i>
   <i name="ENMAX">    320.00000000</i>
   <i name="ENAUG">    586.98000000</i>
   <i name="EDIFF">      0.00000100</i>
   <i type="int" name="IALGO">    38</i>
   <i type="int" name="IWAVPR">     0</i>
   <i type="int" name="NBANDS">    30</i>
   <i type="int" name="NBANDSLOW">    -1</i>
   <i type="int" name="NBANDSHIGH">    -1</i>
   <i name="NELECT">     44.00000000</i>
   <i type="int" name="TURBO">     0</i>
   <i type="int" name="IRESTART">     0</i>
   <i type="int" name="NREBOOT">     0</i>
   <i type="int" name="NMIN">     0</i>
   <i name="EREF">      0.00000000</i>
   <separator name="electronic smearing" >
    <i type="int" name="ISMEAR">     1</i>
    <i name="SIGMA">      0.20000000</i>
    <i name="KSPACING">      0.50000000</i>
    <i type="logical" name="KGAMMA"> T  </i>
    <i type="logical" name="KBLOWUP"> T  </i>
   </separator>
   <separator name="electronic projectors" >
    <i type="logical" name="LREAL"> F  </i>
    <v name="ROPT">      0.00000000</v>
    <i type="int" name="LMAXPAW">  -100</i>
    <i type="int" name="LMAXMIX">     2</i>
    <i type="logical" name="NLSPLINE"> F  </i>
   </separator>
   <separator name="electronic startup" >
    <i type="int" name="ISTART">     1</i>
    <i type="int" name="ICHARG">     1</i>
    <i type="int" name="INIWAV">     1</i>
   </separator>
   <separator name="electronic spin" >
    <i type="int" name="ISPIN">     1</i>
    <i type="logical" name="LNONCOLLINEAR"> F  </i>
    <v name="MAGMOM">      1.00000000      1.00000000      1.00000000      1.00000000</v>
    <i name="NUPDOWN">     -1.00000000</i>
    <i type="logical" name="LSORBIT"> F  </i>
    <v name="SAXIS">      0.00000000      0.00000000      1.00000000</v>
    <i type="logical" name="LSPIRAL"> F  </i>
    <v name="QSPIRAL">      0.00000000      0.00000000      0.00000000</v>
    <i type="logical" name="LZEROZ"> F  </i>
   </separator>
   <separator name="electronic exchange-correlation" >
    <i type="logical" name="LASPH"> F  </i>
    <i type="logical" name="LMETAGGA"> F  </i>
   </separator>
   <separator name="electronic convergence" >
    <i type="int" name="NELM">    60</i>
    <i type="int" name="NELMDL">     0</i>
    <i type="int" name="NELMIN">     2</i>
    <i name="ENINI">    320.00000000</i>
    <separator name="electronic convergence detail" >
     <i type="logical" name="LDIAG"> T  </i>
     <i type="logical" name="LSUBROT"> F  </i>
     <i name="WEIMIN">      0.00000000</i>
     <i name="EBREAK">      0.00000001</i>
     <i name="DEPER">      0.30000000</i>
     <i type="int" name="NRMM">     4</i>
     <i name="TIME">      0.40000000</i>
    </separator>
   </separator>
   <separator name="electronic mixer" >
    <i name="AMIX">      0.40000000</i>
    <i name="BMIX">      1.00000000</i>
    <i name="AMIN">      0.10000000</i>
    <i name="AMIX_MAG">      1.60000000</i>
    <i name="BMIX_MAG">      1.00000000</i>
    <separator name="electronic mixer details" >
     <i type="int" name="IMIX">     4</i>
     <i type="logical" name="MIXFIRST"> F  </i>
     <i type="int" name="MAXMIX">   -45</i>
     <i name="WC">    100.00000000</i>
     <i type="int" name="INIMIX">     1</i>
     <i type="int" name="MIXPRE">     1</i>
     <i type="int" name="MREMOVE">     5</i>
    </separator>
   </separator>
   <separator name="electronic dipolcorrection" >
    <i type="logical" name="LDIPOL"> F  </i>
    <i type="logical" name="LMONO"> F  </i>
    <i type="int" name="IDIPOL">     0</i>
    <i name="EPSILON">      1.00000000</i>
    <v name="DIPOL">   -100.00000000   -100.00000000   -100.00000000</v>
    <i name="EFIELD">      0.00000000</i>
   </separator>
  </separator>
  <separator name="grids" >
   <i type="int" name="NGX">    18</i>
   <i type="int" name="NGY">    18</i>
   <i type="int" name="NGZ">    18</i>
   <i type="int" name="NGXF">    36</i>
   <i type="int" name="NGYF">    36</i>
   <i type="int" name="NGZF">    36</i>
   <i type="logical" name="ADDGRID"> F  </i>
  </separator>
  <separator name="ionic" >
   <i type="int" name="NSW">     0</i>
   <i type="int" name="IBRION">    -1</i>
   <i type="int" name="MDALGO">     0</i>
   <i type="int" name="ISIF">     4</i>
   <i name="PSTRESS">      0.00000000</i>
   <i name="EDIFFG">      0.00001000</i>
   <i type="int" name="NFREE">     0</i>
   <i name="POTIM">      0.50000000</i>
   <i name="SMASS">     -3.00000000</i>
   <i name="SCALEE">      1.00000000</i>
  </separator>
  <separator name="ionic md" >
   <i name="TEBEG">      0.00010000</i>
   <i name="TEEND">      0.00010000</i>
   <i type="int" name="NBLOCK">     1</i>
   <i type="int" name="KBLOCK">     1</i>
   <i type="int" name="NPACO">   256</i>
   <i name="APACO">     16.00000000</i>
  </separator>
  <separator name="symmetry" >
   <i type="int" name="ISYM">     2</i>
   <i name="SYMPREC">      0.00001000</i>
  </separator>
  <separator name="dos" >
   <i type="int" name="LORBIT">     0</i>
   <v name="RWIGS">     -1.00000000</v>
   <i type="int" name="NEDOS">   301</i>
   <i name="EMIN">     10.00000000</i>
   <i name="EMAX">    -10.00000000</i>
   <i name="EFERMI">      0.00000000</i>
  </separator>
  <separator name="writing" >
   <i type="int" name="NWRITE">     2</i>
   <i type="logical" name="LWAVE"> T  </i>
   <i type="logical" name="LDOWNSAMPLE"> F  </i>
   <i type="logical" name="LCHARG"> T  </i>
   <i type="logical" name="LPARD"> F  </i>
   <i type="logical" name="LVTOT"> F  </i>
   <i type="logical" name="LVHAR"> F  </i>
   <i type="logical" name="LELF"> F  </i>
   <i type="logical" name="LOPTICS"> F  </i>
   <v name="STM">      0.00000000      0.00000000      0.00000000      0.00000000      0.00000000      0.00000000      0.00000000</v>
  </separator>
  <separator name="performance" >
   <i type="int" name="NPAR">     1</i>
   <i type="int" name="NSIM">     4</i>
   <i type="int" name="NBLK">    -1</i>
   <i type="logical" name="LPLANE"> T  </i>
   <i type="logical" name="LSCALAPACK"> F  </i>
   <i type="logical" name="LSCAAWARE"> F  </i>
   <i type="logical" name="LSCALU"> F  </i>
   <i type="logical" name="LASYNC"> F  </i>
   <i type="logical" name="LORBITALREAL"> F  </i>
  </separator>
  <separator name="miscellaneous" >
   <i type="int" name="IDIOT">     3</i>
   <i type="int" name="PHON_NSTRUCT">    -1</i>
   <i type="logical" name="LMUSIC"> F  </i>
   <v name="POMASS">     63.54600000</v>
   <v name="DARWINR">      0.00000000</v>
   <v name="DARWINV">      1.00000000</v>
   <i type="logical" name="LCORR"> T  </i>
  </separator>
  <i type="logical" name="GGA_COMPAT"> T  </i>
  <i type="logical" name="LBERRY"> F  </i>
  <i type="int" name="ICORELEVEL">     0</i>
  <i type="logical" name="LDAU"> F  </i>
  <i type="int" name="I_CONSTRAINED_M">     0</i>
  <separator name="electronic exchange-correlation" >
   <i type="string" name="GGA">PE</i>
   <i type="int" name="VOSKOWN">     0</i>
   <i type="logical" name="LHFCALC"> F  </i>
   <i type="string" name="PRECFOCK"></i>
   <i type="logical" name="LSYMGRAD"> F  </i>
   <i type="logical" name="LHFONE"> F  </i>
   <i type="logical" name="LRHFCALC"> F  </i>
   <i type="logical" name="LTHOMAS"> F  </i>
   <i type="logical" name="LMODELHF"> F  </i>
   <i type="logical" name="LFOCKACE"> F  </i>
   <i name="ENCUT4O">     -1.00000000</i>
   <i type="int" name="EXXOEP">     0</i>
   <i type="int" name="FOURORBIT">     0</i>
   <i name="AEXX">      0.00000000</i>
   <i name="HFALPHA">      0.00000000</i>
   <i name="MCALPHA">      0.00000000</i>
   <i name="ALDAX">      1.00000000</i>
   <i name="AGGAX">      1.00000000</i>
   <i name="ALDAC">      1.00000000</i>
   <i name="AGGAC">      1.00000000</i>
   <i type="int" name="NKREDX">     1</i>
   <i type="int" name="NKREDY">     1</i>
   <i type="int" name="NKREDZ">     1</i>
   <i type="logical" name="SHIFTRED"> F  </i>
   <i type="logical" name="ODDONLY"> F  </i>
   <i type="logical" name="EVENONLY"> F  </i>
   <i type="int" name="LMAXFOCK">     0</i>
   <i type="int" name="NMAXFOCKAE">     0</i>
   <i type="logical" name="LFOCKAEDFT"> F  </i>
   <i name="HFSCREEN">      0.00000000</i>
   <i name="HFSCREENC">      0.00000000</i>
   <i type="int" name="NBANDSGWLOW">     0</i>
  </separator>
  <separator name="vdW DFT" >
   <i type="logical" name="LUSE_VDW"> F  </i>
   <i name="Zab_VDW">     -0.84910000</i>
   <i name="PARAM1">      0.12340000</i>
   <i name="PARAM2">      1.00000000</i>
   <i name="PARAM3">      0.00000000</i>
  </separator>
  <separator name="model GW" >
   <i type="int" name="MODEL_GW">     0</i>
   <i name="MODEL_EPS0">      8.28518757</i>
   <i name="MODEL_ALPHA">      1.00000000</i>
  </separator>
  <separator name="linear response parameters" >
   <i type="logical" name="LEPSILON"> F  </i>
   <i type="logical" name="LRPA"> F  </i>
   <i type="logical" name="LNABLA"> F  </i>
   <i type="logical" name="LVEL"> F  </i>
   <i type="int" name="KINTER">     0</i>
   <i name="CSHIFT">      0.10000000</i>
   <i name="OMEGAMAX">     -1.00000000</i>
   <i name="DEG_THRESHOLD">      0.00200000</i>
   <i name="RTIME">     -0.10000000</i>
   <i name="WPLASMAI">      0.00000000</i>
   <v name="DFIELD">      0.00000000      0.00000000      0.00000000</v>
   <v name="WPLASMA">      0.00000000      0.00000000      0.00000000      0.00000000      0.00000000      0.00000000      0.00000000      0.00000000      0.00000000</v>
  </separator>
  <separator name="orbital magnetization" >
   <i type="logical" name="NUCIND"> F  </i>
   <v name="MAGPOS">      0.00000000      0.00000000      0.00000000</v>
   <i type="logical" name="LNICSALL"> T  </i>
   <i type="logical" name="ORBITALMAG"> F  </i>
   <i type="logical" name="LMAGBLOCH"> F  </i>
   <i type="logical" name="LCHIMAG"> F  </i>
   <i type="logical" name="LGAUGE"> T  </i>
   <i type="int" name="MAGATOM">     0</i>
   <v name="MAGDIPOL">      0.00000000      0.00000000      0.00000000</v>
   <v name="AVECCONST">      0.00000000      0.00000000      0.00000000</v>
  </separator>
  <separator name="response functions" >
   <i type="logical" name="LFINITE_TEMPERATURE"> F  </i>
   <i type="logical" name="LADDER"> F  </i>
   <i type="logical" name="LRPAFORCE"> F  </i>
   <i type="logical" name="LFXC"> F  </i>
   <i type="logical" name="LHARTREE"> T  </i>
   <i type="int" name="IBSE">     0</i>
   <v type="int" name="KPOINT">    -1     0     0     0</v>
   <i type="logical" name="LTCTC"> F  </i>
   <i type="logical" name="LTCTE"> F  </i>
   <i type="logical" name="LTETE"> F  </i>
   <i type="logical" name="LTRIPLET"> F  </i>
   <i type="logical" name="LFXCEPS"> F  </i>
   <i type="logical" name="LFXHEG"> F  </i>
   <i type="int" name="NATURALO">     2</i>
   <i type="logical" name="LHOLEGF"> F  </i>
   <i type="logical" name="L2ORDER"> F  </i>
   <i type="logical" name="LDMP1"> F  </i>
   <i type="logical" name="LMP2LT"> F  </i>
   <i type="logical" name="LSMP2LT"> F  </i>
   <i type="logical" name="LGWLF"> F  </i>
   <i name="ENCUTGW">     -2.00000000</i>
   <i name="ENCUTGWSOFT">     -2.00000000</i>
   <i name="ENCUTLF">     -1.00000000</i>
   <i type="logical" name="LESF_SPLINES"> F  </i>
   <i type="int" name="LMAXMP2">    -1</i>
   <i name="SCISSOR">      0.00000000</i>
   <i type="int" name="NOMEGA">     0</i>
   <i type="int" name="NOMEGAR">     0</i>
   <i type="int" name="NBANDSGW">    -1</i>
   <i type="int" name="NBANDSO">    -1</i>
   <i type="int" name="NBANDSV">    -1</i>
   <i type="int" name="NELM">     1</i>
   <i type="int" name="NELMHF">     1</i>
   <i type="int" name="DIM">     3</i>
   <i type="int" name="IESPILON">     4</i>
   <i type="int" name="ANTIRES">     0</i>
   <i name="OMEGAMAX">    -30.00000000</i>
   <i name="OMEGAMIN">    -30.00000000</i>
   <i name="OMEGATL">   -200.00000000</i>
   <i type="int" name="OMEGAGRID">     0</i>
   <i name="CSHIFT">     -0.10000000</i>
   <i type="logical" name="LSELFENERGY"> F  </i>
   <i type="logical" name="LSPECTRAL"> F  </i>
   <i type="logical" name="LSPECTRALGW"> F  </i>
   <i type="logical" name="LSINGLES"> F  </i>
   <i type="logical" name="LFERMIGW"> F  </i>
   <i type="logical" name="ODDONLYGW"> F  </i>
   <i type="logical" name="EVENONLYGW"> F  </i>
   <i type="int" name="NKREDLFX">     1</i>
   <i type="int" name="NKREDLFY">     1</i>
   <i type="int" name="NKREDLFZ">     1</i>
   <i type="int" name="MAXMEM">  2800</i>
   <i type="int" name="TELESCOPE">     0</i>
   <i type="int" name="NTAUPAR">    -1</i>
   <i type="int" name="NOMEGAPAR">    -1</i>
   <i name="DAMP_NEWTON">      0.80000001</i>
   <i name="LAMBDA">      1.00000000</i>
  </separator>
  <separator name="External order field" >
   <i name="OFIELD_KAPPA">      0.00000000</i>
   <v name="OFIELD_K">      0.00000000      0.00000000      0.00000000</v>
   <i name="OFIELD_Q6_NEAR">      0.00000000</i>
   <i name="OFIELD_Q6_FAR">      0.00000000</i>
   <i name="OFIELD_A">      0.00000000</i>
  </separator>
 </parameters>
 <atominfo>
  <atoms>       4 </atoms>
  <types>       1 </types>
  <array name="atoms" >
   <dimension dim="1">ion</dimension>
   <field type="string">element</field>
   <field type="int">atomtype</field>
   <set>
    <rc><c>Cu</c><c>   1</c></rc>
    <rc><c>Cu</c><c>   1</c></rc>
    <rc><c>Cu</c><c>   1</c></rc>
    <rc><c>Cu</c><c>   1</c></rc>
   </set>
  </array>
  <array name="atomtypes" >
   <dimension dim="1">type</dimension>
   <field type="int">atomspertype</field>
   <field type="string">element</field>
   <field>mass</field>
   <field>valence</field>
   <field type="string">pseudopotential</field>
   <set>
    <rc><c>   4</c><c>Cu</c><c>     63.54600000</c><c>     11.00000000</c><c>  PAW_PBE Cu 22Jun2005                  </c></rc>
   </set>
  </array>
 </atominfo>
 <structure name="initialpos" >
  <crystal>
   <varray name="basis" >
    <v>       3.80835153       0.00000000       0.00000000 </v>
    <v>       0.00000000       3.80835153       0.00000000 </v>
    <v>       0.00000000       0.00000000       3.80835153 </v>
   </varray>
   <i name="volume">     55.23458381 </i>
   <varray name="rec_basis" >
    <v>       0.26258080       0.00000000       0.00000000 </v>
    <v>       0.00000000       0.26258080       0.00000000 </v>
    <v>       0.00000000       0.00000000       0.26258080 </v>
   </varray>
  </crystal>
  <varray name="positions" >
   <v>       0.00000000       0.00000000       0.00000000 </v>
   <v>       0.50000000       0.50000000       0.00000000 </v>
   <v>       0.50000000       0.00000000       0.50000000 </v>
   <v>       0.00000000       0.50000000       0.50000000 </v>
  </varray>
 </structure>
 <calculation>
  <scstep>
   <time name="dav">    0.59    0.61</time>
   <time name="total">    0.65    0.67</time>
   <energy>
    <i name="alphaZ">    211.84641552 </i>
    <i name="ewald">  -4195.27747664 </i>
    <i name="hartreedc">  -1484.59505170 </i>
    <i name="XCdc">    177.54666449 </i>
    <i name="pawpsdc">   5084.26052172 </i>
    <i name="pawaedc">  -5512.62375675 </i>
    <i name="eentropy">      0.00316926 </i>
    <i name="bandstr">    140.47057276 </i>
    <i name="atom">   5563.77610493 </i>
    <i name="e_fr_energy">    -14.59283641 </i>
    <i name="e_wo_entrp">    -14.59600567 </i>
    <i name="e_0_energy">    -14.59389283 </i>
   </energy>
  </scstep>
  <scstep>
   <time name="dav">    0.55    0.55</time>
   <time name="total">    0.61    0.61</time>
   <energy>
    <i name="e_fr_energy">    -14.59130298 </i>
    <i name="e_wo_entrp">    -14.59446357 </i>
    <i name="e_0_energy">    -14.59235651 </i>
   </energy>
  </scstep>
  <scstep>
   <time name="dav">    0.50    0.50</time>
   <time name="total">    0.56    0.56</time>
   <energy>
    <i name="e_fr_energy">    -14.59130115 </i>
    <i name="e_wo_entrp">    -14.59446410 </i>
    <i name="e_0_energy">    -14.59235547 </i>
   </energy>
  </scstep>
  <scstep>
   <time name="dav">    0.36    0.36</time>
   <time name="total">    0.38    0.38</time>
   <energy>
    <i name="alphaZ">    211.84641552 </i>
    <i name="ewald">  -4195.27747664 </i>
    <i name="hartreedc">  -1484.58942347 </i>
    <i name="XCdc">    177.54638416 </i>
    <i name="pawpsdc">   5084.25734102 </i>
    <i name="pawaedc">  -5512.62281633 </i>
    <i name="eentropy">      0.00316355 </i>
    <i name="bandstr">    140.46900623 </i>
    <i name="atom">   5563.77610493 </i>
    <i name="e_fr_energy">    -14.59130104 </i>
    <i name="e_wo_entrp">    -14.59446458 </i>
    <i name="e_0_energy">    -14.59235555 </i>
   </energy>
  </scstep>
  <structure>
   <crystal>
    <varray name="basis" >
     <v>       3.80835153       0.00000000       0.00000000 </v>
     <v>       0.00000000       3.80835153       0.00000000 </v>
     <v>       0.00000000       0.00000000       3.80835153 </v>
    </varray>
    <i name="volume">     55.23458381 </i>
    <varray name="rec_basis" >
     <v>       0.26258080       0.00000000       0.00000000 </v>
     <v>       0.00000000       0.26258080       0.00000000 </v>
     <v>       0.00000000       0.00000000       0.26258080 </v>
    </varray>
   </crystal>
   <varray name="positions" >
    <v>       0.00000000       0.00000000       0.00000000 </v>
    <v>       0.50000000       0.50000000       0.00000000 </v>
    <v>       0.50000000       0.00000000       0.50000000 </v>
    <v>       0.00000000       0.50000000       0.50000000 </v>
   </varray>
  </structure>
  <varray name="forces" >
   <v>      -0.00000000      -0.00000000       0.00000000 </v>
   <v>       0.00000000       0.00000000       0.00000000 </v>
   <v>      -0.00000000      -0.00000000      -0.00000000 </v>
   <v>       0.00000000       0.00000000       0.00000000 </v>
  </varray>
  <varray name="stress" >
   <v>    -140.07702275       0.00000000       0.00000000 </v>
   <v>       0.00000000    -140.07702275       0.00000000 </v>
   <v>       0.00000000       0.00000000    -140.07702275 </v>
  </varray>
  <energy>
   <i name="e_fr_energy">    -14.59130104 </i>
   <i name="e_wo_entrp">    -14.59446458 </i>
   <i name="e_0_energy">    -14.59235555 </i>
  </energy>
  <time name="totalsc">    2.67    2.69</time>
  <eigenvalues>
   <array>
    <dimension dim="1">band</dimension>
    <dimension dim="2">kpoint</dimension>
    <dimension dim="3">spin</dimension>
    <field>eigene</field>
    <field>occ</field>
    <set>
     <set comment="spin 1">
      <set comment="kpoint 1">
       <r>   -2.4279    1.0000 </r>
       <r>    1.7540    1.0000 </r>
       <r>    1.7540    1.0000 </r>
       <r>    1.7540    1.0000 </r>
       <r>    2.1165    1.0000 </r>
       <r>    2.1165    1.0000 </r>
       <r>    2.1165    1.0000 </r>
       <r>    3.2063    1.0000 </r>
       <r>    3.2063    1.0000 </r>
       <r>    3.2063    1.0000 </r>
       <r>    3.8553    1.0000 </r>
       <r>    3.8553    1.0000 </r>
       <r>    4.2881    1.0000 </r>
       <r>    4.2881    1.0000 </r>
       <r>    4.2881    1.0000 </r>
       <r>    4.4097    1.0000 </r>
       <r>    4.4097    1.0000 </r>
       <r>    4.4097    1.0000 </r>
       <r>    4.4097    1.0000 </r>
       <r>    4.4097    1.0000 </r>
       <r>    4.4097    1.0000 </r>
       <r>    7.4129   -0.0000 </r>
       <r>    7.4129   -0.0000 </r>
       <r>    7.4129   -0.0000 </r>
       <r>   11.8812    0.0000 </r>
       <r>   11.8812    0.0000 </r>
       <r>   11.8812    0.0000 </r>
       <r>   17.7208    0.0000 </r>
       <r>   17.7208    0.0000 </r>
       <r>   17.7208    0.0000 </r>
      </set>
      <set comment="kpoint 2">
       <r>   -2.2937    1.0000 </r>
       <r>    1.7464    1.0000 </r>
       <r>    1.8115    1.0000 </r>
       <r>    1.8115    1.0000 </r>
       <r>    2.1480    1.0000 </r>
       <r>    2.1502    1.0000 </r>
       <r>    2.1502    1.0000 </r>
       <r>    3.1721    1.0000 </r>
       <r>    3.2345    1.0000 </r>
       <r>    3.2345    1.0000 </r>
       <r>    3.8244    1.0000 </r>
       <r>    3.8682    1.0000 </r>
       <r>    4.2273    1.0000 </r>
       <r>    4.2273    1.0000 </r>
       <r>    4.2482    1.0000 </r>
       <r>    4.2482    1.0000 </r>
       <r>    4.2748    1.0000 </r>
       <r>    4.3625    1.0000 </r>
       <r>    4.3625    1.0000 </r>
       <r>    4.4098    1.0000 </r>
       <r>    4.4098    1.0000 </r>
       <r>    6.5582   -0.0000 </r>
       <r>    7.7192   -0.0000 </r>
       <r>    7.7192   -0.0000 </r>
       <r>   11.9390    0.0000 </r>
       <r>   11.9390    0.0000 </r>
       <r>   13.0153    0.0000 </r>
       <r>   16.8741    0.0000 </r>
       <r>   16.8741    0.0000 </r>
       <r>   17.1104    0.0000 </r>
      </set>
      <set comment="kpoint 3">
       <r>   -1.8956    1.0000 </r>
       <r>    1.6710    1.0000 </r>
       <r>    1.9688    1.0000 </r>
       <r>    1.9688    1.0000 </r>
       <r>    2.2394    1.0000 </r>
       <r>    2.2524    1.0000 </r>
       <r>    2.2524    1.0000 </r>
       <r>    3.0741    1.0000 </r>
       <r>    3.3177    1.0000 </r>
       <r>    3.3177    1.0000 </r>
       <r>    3.7383    1.0000 </r>
       <r>    3.8262    1.0000 </r>
       <r>    3.8262    1.0000 </r>
       <r>    3.9051    1.0000 </r>
       <r>    4.1352    1.0000 </r>
       <r>    4.1352    1.0000 </r>
       <r>    4.2315    1.0000 </r>
       <r>    4.2315    1.0000 </r>
       <r>    4.2368    1.0000 </r>
       <r>    4.4100    1.0000 </r>
       <r>    4.4100    1.0000 </r>
       <r>    5.1163    1.0001 </r>
       <r>    8.4906   -0.0000 </r>
       <r>    8.4906   -0.0000 </r>
       <r>   12.1210    0.0000 </r>
       <r>   12.1210    0.0000 </r>
       <r>   15.3128    0.0000 </r>
       <r>   15.3128    0.0000 </r>
       <r>   15.3410    0.0000 </r>
       <r>   15.9028    0.0000 </r>
      </set>
      <set comment="kpoint 4">
       <r>   -1.2496    1.0000 </r>
       <r>    1.3318    1.0000 </r>
       <r>    2.1766    1.0000 </r>
       <r>    2.1766    1.0000 </r>
       <r>    2.3808    1.0000 </r>
       <r>    2.4253    1.0000 </r>
       <r>    2.4253    1.0000 </r>
       <r>    2.9253    1.0000 </r>
       <r>    3.3897    1.0000 </r>
       <r>    3.3897    1.0000 </r>
       <r>    3.4520    1.0000 </r>
       <r>    3.4520    1.0000 </r>
       <r>    3.6192    1.0000 </r>
       <r>    3.9619    1.0000 </r>
       <r>    3.9779    1.0000 </r>
       <r>    3.9779    1.0000 </r>
       <r>    4.0085    1.0000 </r>
       <r>    4.0443    1.0000 </r>
       <r>    4.0443    1.0000 </r>
       <r>    4.1784    1.0000 </r>
       <r>    4.4102    1.0000 </r>
       <r>    4.4102    1.0000 </r>
       <r>    9.5396   -0.0000 </r>
       <r>    9.5396   -0.0000 </r>
       <r>   12.4520    0.0000 </r>
       <r>   12.4520    0.0000 </r>
       <r>   13.6995    0.0000 </r>
       <r>   13.6995    0.0000 </r>
       <r>   14.7093    0.0000 </r>
       <r>   14.7093    0.0000 </r>
      </set>
      <set comment="kpoint 5">
       <r>   -0.3957    1.0000 </r>
       <r>    0.5571    1.0000 </r>
       <r>    2.3393    1.0000 </r>
       <r>    2.3393    1.0000 </r>
       <r>    2.5559    1.0000 </r>
       <r>    2.6733    1.0000 </r>
       <r>    2.6733    1.0000 </r>
       <r>    2.7451    1.0000 </r>
       <r>    2.9969    1.0000 </r>
       <r>    2.9969    1.0000 </r>
       <r>    3.5175    1.0000 </r>
       <r>    3.5531    1.0000 </r>
       <r>    3.6286    1.0000 </r>
       <r>    3.6286    1.0000 </r>
       <r>    3.8334    1.0000 </r>
       <r>    3.8334    1.0000 </r>
       <r>    3.8486    1.0000 </r>
       <r>    3.8486    1.0000 </r>
       <r>    4.0321    1.0000 </r>
       <r>    4.1072    1.0000 </r>
       <r>    4.4105    1.0000 </r>
       <r>    4.4105    1.0000 </r>
       <r>   10.7801   -0.0000 </r>
       <r>   10.7801   -0.0000 </r>
       <r>   12.1751    0.0000 </r>
       <r>   12.1751    0.0000 </r>
       <r>   12.9653    0.0000 </r>
       <r>   12.9653    0.0000 </r>
       <r>   13.7270    0.0000 </r>
       <r>   13.7270    0.0000 </r>
      </set>
      <set comment="kpoint 6">
       <r>   -2.1604    1.0000 </r>
       <r>    1.8066    1.0000 </r>
       <r>    1.8066    1.0000 </r>
       <r>    1.8662    1.0000 </r>
       <r>    2.1806    1.0000 </r>
       <r>    2.1806    1.0000 </r>
       <r>    2.1821    1.0000 </r>
       <r>    3.1543    1.0000 </r>
       <r>    3.2476    1.0000 </r>
       <r>    3.2575    1.0000 </r>
       <r>    3.8167    1.0000 </r>
       <r>    3.8629    1.0000 </r>
       <r>    4.1026    1.0000 </r>
       <r>    4.1380    1.0000 </r>
       <r>    4.1380    1.0000 </r>
       <r>    4.2113    1.0000 </r>
       <r>    4.2621    1.0000 </r>
       <r>    4.2621    1.0000 </r>
       <r>    4.3623    1.0000 </r>
       <r>    4.3623    1.0000 </r>
       <r>    4.3790    1.0000 </r>
       <r>    6.8523   -0.0000 </r>
       <r>    6.8523   -0.0000 </r>
       <r>    7.9990   -0.0000 </r>
       <r>   11.9990    0.0000 </r>
       <r>   13.0995    0.0000 </r>
       <r>   13.0995    0.0000 </r>
       <r>   15.2848    0.0000 </r>
       <r>   17.0480    0.0000 </r>
       <r>   17.0481    0.0000 </r>
      </set>
      <set comment="kpoint 7">
       <r>   -1.7651    1.0000 </r>
       <r>    1.7404    1.0000 </r>
       <r>    1.9724    1.0000 </r>
       <r>    2.0158    1.0000 </r>
       <r>    2.2688    1.0000 </r>
       <r>    2.2778    1.0000 </r>
       <r>    2.2795    1.0000 </r>
       <r>    3.0683    1.0000 </r>
       <r>    3.3224    1.0000 </r>
       <r>    3.3234    1.0000 </r>
       <r>    3.7346    1.0000 </r>
       <r>    3.7464    1.0000 </r>
       <r>    3.7621    1.0000 </r>
       <r>    3.9014    1.0000 </r>
       <r>    3.9389    1.0000 </r>
       <r>    4.1060    1.0000 </r>
       <r>    4.1449    1.0000 </r>
       <r>    4.2273    1.0000 </r>
       <r>    4.2309    1.0000 </r>
       <r>    4.3619    1.0000 </r>
       <r>    4.3627    1.0000 </r>
       <r>    5.4554    1.0342 </r>
       <r>    7.5491   -0.0000 </r>
       <r>    8.7270   -0.0000 </r>
       <r>   12.1876    0.0000 </r>
       <r>   13.3608    0.0000 </r>
       <r>   13.5920    0.0000 </r>
       <r>   15.4421    0.0000 </r>
       <r>   15.4763    0.0000 </r>
       <r>   16.0542    0.0000 </r>
      </set>
      <set comment="kpoint 8">
       <r>   -1.1243    1.0000 </r>
       <r>    1.4170    1.0000 </r>
       <r>    2.1936    1.0000 </r>
       <r>    2.2178    1.0000 </r>
       <r>    2.4048    1.0000 </r>
       <r>    2.4337    1.0000 </r>
       <r>    2.4463    1.0000 </r>
       <r>    2.9276    1.0000 </r>
       <r>    3.3082    1.0000 </r>
       <r>    3.3628    1.0000 </r>
       <r>    3.4063    1.0000 </r>
       <r>    3.4538    1.0000 </r>
       <r>    3.6208    1.0000 </r>
       <r>    3.6650    1.0000 </r>
       <r>    3.9591    1.0000 </r>
       <r>    3.9723    1.0000 </r>
       <r>    3.9883    1.0000 </r>
       <r>    4.0433    1.0000 </r>
       <r>    4.1308    1.0000 </r>
       <r>    4.3595    1.0000 </r>
       <r>    4.3612    1.0000 </r>
       <r>    4.5050    1.0000 </r>
       <r>    8.4529   -0.0000 </r>
       <r>    9.7438   -0.0000 </r>
       <r>   12.0518    0.0000 </r>
       <r>   12.5312    0.0000 </r>
       <r>   13.8173    0.0000 </r>
       <r>   13.8631    0.0000 </r>
       <r>   14.8469    0.0000 </r>
       <r>   16.5621    0.0000 </r>
      </set>
      <set comment="kpoint 9">
       <r>   -0.2791    1.0000 </r>
       <r>    0.6600    1.0000 </r>
       <r>    2.3741    1.0000 </r>
       <r>    2.3846    1.0000 </r>
       <r>    2.5736    1.0000 </r>
       <r>    2.6431    1.0000 </r>
       <r>    2.6843    1.0000 </r>
       <r>    2.7552    1.0000 </r>
       <r>    2.9347    1.0000 </r>
       <r>    2.9931    1.0000 </r>
       <r>    3.4049    1.0000 </r>
       <r>    3.4057    1.0000 </r>
       <r>    3.6290    1.0000 </r>
       <r>    3.7206    1.0000 </r>
       <r>    3.8328    1.0000 </r>
       <r>    3.8420    1.0000 </r>
       <r>    3.8541    1.0000 </r>
       <r>    3.9205    1.0000 </r>
       <r>    4.0641    1.0000 </r>
       <r>    4.1854    1.0000 </r>
       <r>    4.3594    1.0000 </r>
       <r>    4.3602    1.0000 </r>
       <r>    9.5017   -0.0000 </r>
       <r>   10.6943   -0.0000 </r>
       <r>   10.9634   -0.0000 </r>
       <r>   12.3454    0.0000 </r>
       <r>   13.0617    0.0000 </r>
       <r>   13.8102    0.0000 </r>
       <r>   14.5382    0.0000 </r>
       <r>   15.4498    0.0000 </r>
      </set>
      <set comment="kpoint 10">
       <r>   -1.3787    1.0000 </r>
       <r>    1.9329    1.0000 </r>
       <r>    1.9329    1.0000 </r>
       <r>    2.1424    1.0000 </r>
       <r>    2.3554    1.0000 </r>
       <r>    2.3575    1.0000 </r>
       <r>    2.3575    1.0000 </r>
       <r>    3.0247    1.0000 </r>
       <r>    3.3411    1.0000 </r>
       <r>    3.3647    1.0000 </r>
       <r>    3.5120    1.0000 </r>
       <r>    3.5120    1.0000 </r>
       <r>    3.5639    1.0000 </r>
       <r>    3.7230    1.0000 </r>
       <r>    3.9416    1.0000 </r>
       <r>    4.0211    1.0000 </r>
       <r>    4.1269    1.0000 </r>
       <r>    4.1269    1.0000 </r>
       <r>    4.2294    1.0000 </r>
       <r>    4.2294    1.0000 </r>
       <r>    4.2882    1.0000 </r>
       <r>    6.1046   -0.0102 </r>
       <r>    6.1046   -0.0102 </r>
       <r>    9.3737   -0.0000 </r>
       <r>   11.7963    0.0000 </r>
       <r>   12.4003    0.0000 </r>
       <r>   15.7443    0.0000 </r>
       <r>   15.7443    0.0000 </r>
       <r>   15.9534    0.0000 </r>
       <r>   15.9534    0.0000 </r>
      </set>
      <set comment="kpoint 11">
       <r>   -0.7549    1.0000 </r>
       <r>    1.6548    1.0000 </r>
       <r>    2.1975    1.0000 </r>
       <r>    2.3168    1.0000 </r>
       <r>    2.4716    1.0000 </r>
       <r>    2.4771    1.0000 </r>
       <r>    2.5061    1.0000 </r>
       <r>    2.9222    1.0000 </r>
       <r>    3.1217    1.0000 </r>
       <r>    3.2747    1.0000 </r>
       <r>    3.2766    1.0000 </r>
       <r>    3.3488    1.0000 </r>
       <r>    3.4731    1.0000 </r>
       <r>    3.6768    1.0000 </r>
       <r>    3.9001    1.0000 </r>
       <r>    3.9797    1.0000 </r>
       <r>    4.0389    1.0000 </r>
       <r>    4.0417    1.0000 </r>
       <r>    4.0544    1.0000 </r>
       <r>    4.2275    1.0000 </r>
       <r>    4.2471    1.0000 </r>
       <r>    5.0344    1.0000 </r>
       <r>    6.8878   -0.0000 </r>
       <r>   10.2338   -0.0000 </r>
       <r>   10.3204   -0.0000 </r>
       <r>   12.7740    0.0000 </r>
       <r>   14.3402    0.0000 </r>
       <r>   15.2118    0.0000 </r>
       <r>   16.2909    0.0000 </r>
       <r>   16.7105    0.0000 </r>
      </set>
      <set comment="kpoint 12">
       <r>    0.0608    1.0000 </r>
       <r>    0.9533    1.0000 </r>
       <r>    2.4388    1.0000 </r>
       <r>    2.5098    1.0000 </r>
       <r>    2.5600    1.0000 </r>
       <r>    2.6244    1.0000 </r>
       <r>    2.7148    1.0000 </r>
       <r>    2.7803    1.0000 </r>
       <r>    2.7965    1.0000 </r>
       <r>    2.9780    1.0000 </r>
       <r>    3.2110    1.0000 </r>
       <r>    3.2867    1.0000 </r>
       <r>    3.6363    1.0000 </r>
       <r>    3.7276    1.0000 </r>
       <r>    3.8097    1.0000 </r>
       <r>    3.8338    1.0000 </r>
       <r>    3.8429    1.0000 </r>
       <r>    3.8803    1.0000 </r>
       <r>    4.2196    1.0000 </r>
       <r>    4.2270    1.0000 </r>
       <r>    4.2313    1.0000 </r>
       <r>    4.4822    1.0000 </r>
       <r>    7.8096   -0.0000 </r>
       <r>    8.9111   -0.0000 </r>
       <r>   11.4902    0.0000 </r>
       <r>   12.8397    0.0000 </r>
       <r>   13.3492    0.0000 </r>
       <r>   14.1579    0.0000 </r>
       <r>   17.0323    0.0000 </r>
       <r>   17.7079    0.0000 </r>
      </set>
      <set comment="kpoint 13">
       <r>   -0.1650    1.0000 </r>
       <r>    1.9854    1.0000 </r>
       <r>    1.9854    1.0000 </r>
       <r>    2.3995    1.0000 </r>
       <r>    2.5730    1.0000 </r>
       <r>    2.5962    1.0000 </r>
       <r>    2.5962    1.0000 </r>
       <r>    2.8847    1.0000 </r>
       <r>    2.9995    1.0000 </r>
       <r>    2.9995    1.0000 </r>
       <r>    3.1289    1.0000 </r>
       <r>    3.3013    1.0000 </r>
       <r>    3.5399    1.0000 </r>
       <r>    3.6284    1.0000 </r>
       <r>    3.8071    1.0000 </r>
       <r>    3.9034    1.0000 </r>
       <r>    3.9034    1.0000 </r>
       <r>    4.0426    1.0000 </r>
       <r>    4.0426    1.0000 </r>
       <r>    4.1434    1.0000 </r>
       <r>    4.2316    1.0000 </r>
       <r>    5.6543    0.7622 </r>
       <r>    5.6543    0.7622 </r>
       <r>    8.6757   -0.0000 </r>
       <r>   11.1965    0.0000 </r>
       <r>   13.2022    0.0000 </r>
       <r>   15.0970    0.0000 </r>
       <r>   15.0970    0.0000 </r>
       <r>   15.8605    0.0000 </r>
       <r>   15.8605    0.0000 </r>
      </set>
      <set comment="kpoint 14">
       <r>    0.5897    1.0000 </r>
       <r>    1.3842    1.0000 </r>
       <r>    2.2915    1.0000 </r>
       <r>    2.4235    1.0000 </r>
       <r>    2.6866    1.0000 </r>
       <r>    2.7023    1.0000 </r>
       <r>    2.7560    1.0000 </r>
       <r>    2.8043    1.0000 </r>
       <r>    2.8059    1.0000 </r>
       <r>    2.9430    1.0000 </r>
       <r>    3.0674    1.0000 </r>
       <r>    3.2063    1.0000 </r>
       <r>    3.6445    1.0000 </r>
       <r>    3.6682    1.0000 </r>
       <r>    3.7348    1.0000 </r>
       <r>    3.7644    1.0000 </r>
       <r>    3.7736    1.0000 </r>
       <r>    3.8447    1.0000 </r>
       <r>    4.0519    1.0000 </r>
       <r>    4.0806    1.0000 </r>
       <r>    4.4873    1.0000 </r>
       <r>    4.8972    1.0000 </r>
       <r>    6.4204   -0.0000 </r>
       <r>    7.4085   -0.0000 </r>
       <r>   12.3097    0.0000 </r>
       <r>   13.6192    0.0000 </r>
       <r>   13.8441    0.0000 </r>
       <r>   14.7267    0.0000 </r>
       <r>   16.0962    0.0000 </r>
       <r>   16.7449    0.0000 </r>
      </set>
      <set comment="kpoint 15">
       <r>    1.2301    1.0000 </r>
       <r>    1.8459    1.0000 </r>
       <r>    1.8459    1.0000 </r>
       <r>    2.2049    1.0000 </r>
       <r>    2.7940    1.0000 </r>
       <r>    2.7940    1.0000 </r>
       <r>    2.8135    1.0000 </r>
       <r>    2.8563    1.0000 </r>
       <r>    2.8803    1.0000 </r>
       <r>    2.9699    1.0000 </r>
       <r>    2.9699    1.0000 </r>
       <r>    3.1213    1.0000 </r>
       <r>    3.5915    1.0000 </r>
       <r>    3.6502    1.0000 </r>
       <r>    3.6571    1.0000 </r>
       <r>    3.6571    1.0000 </r>
       <r>    3.7467    1.0000 </r>
       <r>    3.8800    1.0000 </r>
       <r>    3.8800    1.0000 </r>
       <r>    3.9565    1.0000 </r>
       <r>    4.8627    1.0000 </r>
       <r>    5.4531    1.0339 </r>
       <r>    5.4531    1.0339 </r>
       <r>    6.2580   -0.0005 </r>
       <r>   13.3726    0.0000 </r>
       <r>   14.5656    0.0000 </r>
       <r>   14.6429    0.0000 </r>
       <r>   14.6429    0.0000 </r>
       <r>   15.5309    0.0000 </r>
       <r>   15.5309    0.0000 </r>
      </set>
      <set comment="kpoint 16">
       <r>   -2.0281    1.0000 </r>
       <r>    1.8633    1.0000 </r>
       <r>    1.8633    1.0000 </r>
       <r>    1.8633    1.0000 </r>
       <r>    2.2118    1.0000 </r>
       <r>    2.2118    1.0000 </r>
       <r>    2.2118    1.0000 </r>
       <r>    3.1390    1.0000 </r>
       <r>    3.2673    1.0000 </r>
       <r>    3.2673    1.0000 </r>
       <r>    3.8359    1.0000 </r>
       <r>    3.8359    1.0000 </r>
       <r>    4.0304    1.0000 </r>
       <r>    4.0304    1.0000 </r>
       <r>    4.0304    1.0000 </r>
       <r>    4.1671    1.0000 </r>
       <r>    4.1671    1.0000 </r>
       <r>    4.1671    1.0000 </r>
       <r>    4.3680    1.0000 </r>
       <r>    4.3680    1.0000 </r>
       <r>    4.3680    1.0000 </r>
       <r>    7.1095   -0.0000 </r>
       <r>    7.1095   -0.0000 </r>
       <r>    7.1095   -0.0000 </r>
       <r>   13.1859    0.0000 </r>
       <r>   13.1859    0.0000 </r>
       <r>   13.1859    0.0000 </r>
       <r>   15.4475    0.0000 </r>
       <r>   15.4475    0.0000 </r>
       <r>   15.4475    0.0000 </r>
      </set>
      <set comment="kpoint 17">
       <r>   -1.6359    1.0000 </r>
       <r>    1.8036    1.0000 </r>
       <r>    2.0185    1.0000 </r>
       <r>    2.0185    1.0000 </r>
       <r>    2.2976    1.0000 </r>
       <r>    2.3049    1.0000 </r>
       <r>    2.3049    1.0000 </r>
       <r>    3.0641    1.0000 </r>
       <r>    3.3234    1.0000 </r>
       <r>    3.3271    1.0000 </r>
       <r>    3.6809    1.0000 </r>
       <r>    3.6809    1.0000 </r>
       <r>    3.7672    1.0000 </r>
       <r>    3.8127    1.0000 </r>
       <r>    3.8905    1.0000 </r>
       <r>    4.0513    1.0000 </r>
       <r>    4.0758    1.0000 </r>
       <r>    4.0758    1.0000 </r>
       <r>    4.3290    1.0000 </r>
       <r>    4.3503    1.0000 </r>
       <r>    4.3503    1.0000 </r>
       <r>    5.7009    0.5806 </r>
       <r>    7.7525   -0.0000 </r>
       <r>    7.7525   -0.0000 </r>
       <r>   13.4492    0.0000 </r>
       <r>   13.4492    0.0000 </r>
       <r>   13.7552    0.0000 </r>
       <r>   13.7552    0.0000 </r>
       <r>   15.5385    0.0000 </r>
       <r>   15.9269    0.0000 </r>
      </set>
      <set comment="kpoint 18">
       <r>   -1.0011    1.0000 </r>
       <r>    1.4938    1.0000 </r>
       <r>    2.2293    1.0000 </r>
       <r>    2.2293    1.0000 </r>
       <r>    2.4305    1.0000 </r>
       <r>    2.4540    1.0000 </r>
       <r>    2.4540    1.0000 </r>
       <r>    2.9329    1.0000 </r>
       <r>    3.2945    1.0000 </r>
       <r>    3.2945    1.0000 </r>
       <r>    3.3897    1.0000 </r>
       <r>    3.4262    1.0000 </r>
       <r>    3.5013    1.0000 </r>
       <r>    3.7204    1.0000 </r>
       <r>    3.8939    1.0000 </r>
       <r>    3.9467    1.0000 </r>
       <r>    3.9467    1.0000 </r>
       <r>    3.9723    1.0000 </r>
       <r>    4.2605    1.0000 </r>
       <r>    4.3343    1.0000 </r>
       <r>    4.3343    1.0000 </r>
       <r>    4.6747    1.0000 </r>
       <r>    8.6173   -0.0000 </r>
       <r>    8.6173   -0.0000 </r>
       <r>   12.2116    0.0000 </r>
       <r>   12.2116    0.0000 </r>
       <r>   13.9284    0.0000 </r>
       <r>   13.9284    0.0000 </r>
       <r>   16.6733    0.0000 </r>
       <r>   16.7038    0.0000 </r>
      </set>
      <set comment="kpoint 19">
       <r>   -0.1663    1.0000 </r>
       <r>    0.7563    1.0000 </r>
       <r>    2.4177    1.0000 </r>
       <r>    2.4177    1.0000 </r>
       <r>    2.5942    1.0000 </r>
       <r>    2.6225    1.0000 </r>
       <r>    2.6225    1.0000 </r>
       <r>    2.7690    1.0000 </r>
       <r>    2.9715    1.0000 </r>
       <r>    2.9715    1.0000 </r>
       <r>    3.3366    1.0000 </r>
       <r>    3.3624    1.0000 </r>
       <r>    3.5612    1.0000 </r>
       <r>    3.7226    1.0000 </r>
       <r>    3.8313    1.0000 </r>
       <r>    3.8313    1.0000 </r>
       <r>    3.8377    1.0000 </r>
       <r>    4.0699    1.0000 </r>
       <r>    4.1324    1.0000 </r>
       <r>    4.1703    1.0000 </r>
       <r>    4.3274    1.0000 </r>
       <r>    4.3274    1.0000 </r>
       <r>    9.6225   -0.0000 </r>
       <r>    9.6225   -0.0000 </r>
       <r>   10.8801   -0.0000 </r>
       <r>   10.8801   -0.0000 </r>
       <r>   14.6222    0.0000 </r>
       <r>   14.6222    0.0000 </r>
       <r>   15.5826    0.0000 </r>
       <r>   15.5826    0.0000 </r>
      </set>
      <set comment="kpoint 20">
       <r>   -1.2540    1.0000 </r>
       <r>    1.9760    1.0000 </r>
       <r>    1.9760    1.0000 </r>
       <r>    2.1402    1.0000 </r>
       <r>    2.3839    1.0000 </r>
       <r>    2.3855    1.0000 </r>
       <r>    2.3855    1.0000 </r>
       <r>    3.0289    1.0000 </r>
       <r>    3.3385    1.0000 </r>
       <r>    3.3514    1.0000 </r>
       <r>    3.4726    1.0000 </r>
       <r>    3.4726    1.0000 </r>
       <r>    3.5019    1.0000 </r>
       <r>    3.7697    1.0000 </r>
       <r>    3.9216    1.0000 </r>
       <r>    3.9543    1.0000 </r>
       <r>    3.9733    1.0000 </r>
       <r>    3.9733    1.0000 </r>
       <r>    4.3138    1.0000 </r>
       <r>    4.3138    1.0000 </r>
       <r>    4.3140    1.0000 </r>
       <r>    6.2698   -0.0004 </r>
       <r>    6.2698   -0.0004 </r>
       <r>    8.2955   -0.0000 </r>
       <r>   11.9648    0.0000 </r>
       <r>   13.7430    0.0000 </r>
       <r>   14.2019    0.0000 </r>
       <r>   14.2019    0.0000 </r>
       <r>   15.8610    0.0000 </r>
       <r>   15.8610    0.0000 </r>
      </set>
      <set comment="kpoint 21">
       <r>   -0.6390    1.0000 </r>
       <r>    1.7023    1.0000 </r>
       <r>    2.2052    1.0000 </r>
       <r>    2.2997    1.0000 </r>
       <r>    2.5013    1.0000 </r>
       <r>    2.5105    1.0000 </r>
       <r>    2.5253    1.0000 </r>
       <r>    2.9390    1.0000 </r>
       <r>    3.1402    1.0000 </r>
       <r>    3.2457    1.0000 </r>
       <r>    3.2535    1.0000 </r>
       <r>    3.3435    1.0000 </r>
       <r>    3.4177    1.0000 </r>
       <r>    3.7622    1.0000 </r>
       <r>    3.8189    1.0000 </r>
       <r>    3.8432    1.0000 </r>
       <r>    3.8812    1.0000 </r>
       <r>    4.0357    1.0000 </r>
       <r>    4.2392    1.0000 </r>
       <r>    4.2713    1.0000 </r>
       <r>    4.2717    1.0000 </r>
       <r>    5.1255    1.0001 </r>
       <r>    7.0120   -0.0000 </r>
       <r>    9.0374   -0.0000 </r>
       <r>   10.4562   -0.0000 </r>
       <r>   12.6589    0.0000 </r>
       <r>   14.2430    0.0000 </r>
       <r>   14.9314    0.0000 </r>
       <r>   16.3865    0.0000 </r>
       <r>   17.1253    0.0000 </r>
      </set>
      <set comment="kpoint 22">
       <r>    0.1609    1.0000 </r>
       <r>    1.0272    1.0000 </r>
       <r>    2.4198    1.0000 </r>
       <r>    2.4662    1.0000 </r>
       <r>    2.5661    1.0000 </r>
       <r>    2.6230    1.0000 </r>
       <r>    2.6587    1.0000 </r>
       <r>    2.8082    1.0000 </r>
       <r>    2.9429    1.0000 </r>
       <r>    3.0248    1.0000 </r>
       <r>    3.2008    1.0000 </r>
       <r>    3.2784    1.0000 </r>
       <r>    3.5185    1.0000 </r>
       <r>    3.6566    1.0000 </r>
       <r>    3.7610    1.0000 </r>
       <r>    3.7806    1.0000 </r>
       <r>    3.8861    1.0000 </r>
       <r>    4.0956    1.0000 </r>
       <r>    4.1952    1.0000 </r>
       <r>    4.2459    1.0000 </r>
       <r>    4.2460    1.0000 </r>
       <r>    4.4783    1.0000 </r>
       <r>    7.9050   -0.0000 </r>
       <r>    8.9354   -0.0000 </r>
       <r>   10.2219   -0.0000 </r>
       <r>   11.3196    0.0000 </r>
       <r>   14.9765    0.0000 </r>
       <r>   15.9011    0.0000 </r>
       <r>   15.9448    0.0000 </r>
       <r>   17.0971    0.0000 </r>
      </set>
      <set comment="kpoint 23">
       <r>   -0.0640    1.0000 </r>
       <r>    1.9718    1.0000 </r>
       <r>    1.9718    1.0000 </r>
       <r>    2.3324    1.0000 </r>
       <r>    2.6177    1.0000 </r>
       <r>    2.6472    1.0000 </r>
       <r>    2.6472    1.0000 </r>
       <r>    2.9209    1.0000 </r>
       <r>    3.0350    1.0000 </r>
       <r>    3.0350    1.0000 </r>
       <r>    3.1572    1.0000 </r>
       <r>    3.3012    1.0000 </r>
       <r>    3.4325    1.0000 </r>
       <r>    3.7299    1.0000 </r>
       <r>    3.7517    1.0000 </r>
       <r>    3.7517    1.0000 </r>
       <r>    3.7594    1.0000 </r>
       <r>    4.1741    1.0000 </r>
       <r>    4.1741    1.0000 </r>
       <r>    4.1975    1.0000 </r>
       <r>    4.2065    1.0000 </r>
       <r>    5.7188    0.5051 </r>
       <r>    5.7188    0.5051 </r>
       <r>    8.6565   -0.0000 </r>
       <r>   10.0105   -0.0000 </r>
       <r>   13.3715    0.0000 </r>
       <r>   13.3715    0.0000 </r>
       <r>   14.7834    0.0000 </r>
       <r>   16.8847    0.0000 </r>
       <r>   17.8026    0.0000 </r>
      </set>
      <set comment="kpoint 24">
       <r>    0.6627    1.0000 </r>
       <r>    1.4112    1.0000 </r>
       <r>    2.1972    1.0000 </r>
       <r>    2.3108    1.0000 </r>
       <r>    2.7280    1.0000 </r>
       <r>    2.7705    1.0000 </r>
       <r>    2.7738    1.0000 </r>
       <r>    2.8634    1.0000 </r>
       <r>    2.9432    1.0000 </r>
       <r>    3.0498    1.0000 </r>
       <r>    3.0838    1.0000 </r>
       <r>    3.2114    1.0000 </r>
       <r>    3.4872    1.0000 </r>
       <r>    3.6028    1.0000 </r>
       <r>    3.6559    1.0000 </r>
       <r>    3.6753    1.0000 </r>
       <r>    3.8483    1.0000 </r>
       <r>    4.0215    1.0000 </r>
       <r>    4.1320    1.0000 </r>
       <r>    4.1414    1.0000 </r>
       <r>    4.4601    1.0000 </r>
       <r>    4.8947    1.0000 </r>
       <r>    6.4743   -0.0000 </r>
       <r>    7.4532   -0.0000 </r>
       <r>   10.8871   -0.0000 </r>
       <r>   12.0220    0.0000 </r>
       <r>   14.3230    0.0000 </r>
       <r>   15.4966    0.0000 </r>
       <r>   15.5628    0.0000 </r>
       <r>   16.5805    0.0000 </r>
      </set>
      <set comment="kpoint 25">
       <r>    1.2535    1.0000 </r>
       <r>    1.7998    1.0000 </r>
       <r>    1.7998    1.0000 </r>
       <r>    2.0993    1.0000 </r>
       <r>    2.8899    1.0000 </r>
       <r>    2.9111    1.0000 </r>
       <r>    2.9145    1.0000 </r>
       <r>    2.9145    1.0000 </r>
       <r>    2.9995    1.0000 </r>
       <r>    2.9995    1.0000 </r>
       <r>    3.0246    1.0000 </r>
       <r>    3.1359    1.0000 </r>
       <r>    3.4763    1.0000 </r>
       <r>    3.5500    1.0000 </r>
       <r>    3.5500    1.0000 </r>
       <r>    3.5617    1.0000 </r>
       <r>    3.8724    1.0000 </r>
       <r>    3.9906    1.0000 </r>
       <r>    3.9906    1.0000 </r>
       <r>    4.0396    1.0000 </r>
       <r>    4.8388    1.0000 </r>
       <r>    5.4568    1.0343 </r>
       <r>    5.4568    1.0343 </r>
       <r>    6.2814   -0.0003 </r>
       <r>   11.8133    0.0000 </r>
       <r>   12.9596    0.0000 </r>
       <r>   12.9596    0.0000 </r>
       <r>   14.1190    0.0000 </r>
       <r>   16.3910    0.0000 </r>
       <r>   17.4561    0.0000 </r>
      </set>
      <set comment="kpoint 26">
       <r>   -0.8866    1.0000 </r>
       <r>    2.0809    1.0000 </r>
       <r>    2.0809    1.0000 </r>
       <r>    2.0809    1.0000 </r>
       <r>    2.4753    1.0000 </r>
       <r>    2.4753    1.0000 </r>
       <r>    2.4753    1.0000 </r>
       <r>    3.0262    1.0000 </r>
       <r>    3.3375    1.0000 </r>
       <r>    3.3375    1.0000 </r>
       <r>    3.3435    1.0000 </r>
       <r>    3.3435    1.0000 </r>
       <r>    3.3435    1.0000 </r>
       <r>    3.8143    1.0000 </r>
       <r>    3.8143    1.0000 </r>
       <r>    3.8143    1.0000 </r>
       <r>    3.8803    1.0000 </r>
       <r>    3.8803    1.0000 </r>
       <r>    4.3374    1.0000 </r>
       <r>    4.3374    1.0000 </r>
       <r>    4.3374    1.0000 </r>
       <r>    6.7133   -0.0000 </r>
       <r>    6.7133   -0.0000 </r>
       <r>    6.7133   -0.0000 </r>
       <r>   12.4166    0.0000 </r>
       <r>   12.4166    0.0000 </r>
       <r>   12.4166    0.0000 </r>
       <r>   16.1819    0.0000 </r>
       <r>   16.1819    0.0000 </r>
       <r>   16.1819    0.0000 </r>
      </set>
      <set comment="kpoint 27">
       <r>   -0.3011    1.0000 </r>
       <r>    1.8153    1.0000 </r>
       <r>    2.1952    1.0000 </r>
       <r>    2.1952    1.0000 </r>
       <r>    2.6106    1.0000 </r>
       <r>    2.6106    1.0000 </r>
       <r>    2.6188    1.0000 </r>
       <r>    2.9853    1.0000 </r>
       <r>    3.1810    1.0000 </r>
       <r>    3.1810    1.0000 </r>
       <r>    3.1919    1.0000 </r>
       <r>    3.3253    1.0000 </r>
       <r>    3.3552    1.0000 </r>
       <r>    3.6601    1.0000 </r>
       <r>    3.7158    1.0000 </r>
       <r>    3.7158    1.0000 </r>
       <r>    3.8951    1.0000 </r>
       <r>    4.0141    1.0000 </r>
       <r>    4.3013    1.0000 </r>
       <r>    4.3013    1.0000 </r>
       <r>    4.3176    1.0000 </r>
       <r>    5.4234    1.0284 </r>
       <r>    7.3470   -0.0000 </r>
       <r>    7.3470   -0.0000 </r>
       <r>   10.8888   -0.0000 </r>
       <r>   10.8888   -0.0000 </r>
       <r>   13.1332    0.0000 </r>
       <r>   16.6596    0.0000 </r>
       <r>   16.7261    0.0000 </r>
       <r>   16.7261    0.0000 </r>
      </set>
      <set comment="kpoint 28">
       <r>    0.4449    1.0000 </r>
       <r>    1.2236    1.0000 </r>
       <r>    2.2761    1.0000 </r>
       <r>    2.2761    1.0000 </r>
       <r>    2.6915    1.0000 </r>
       <r>    2.6915    1.0000 </r>
       <r>    2.7724    1.0000 </r>
       <r>    2.8983    1.0000 </r>
       <r>    3.1111    1.0000 </r>
       <r>    3.1111    1.0000 </r>
       <r>    3.1707    1.0000 </r>
       <r>    3.2531    1.0000 </r>
       <r>    3.4166    1.0000 </r>
       <r>    3.5215    1.0000 </r>
       <r>    3.6466    1.0000 </r>
       <r>    3.6466    1.0000 </r>
       <r>    4.0955    1.0000 </r>
       <r>    4.1439    1.0000 </r>
       <r>    4.2502    1.0000 </r>
       <r>    4.2615    1.0000 </r>
       <r>    4.2615    1.0000 </r>
       <r>    4.5702    1.0000 </r>
       <r>    8.0458   -0.0000 </r>
       <r>    8.0458   -0.0000 </r>
       <r>    9.7387   -0.0000 </r>
       <r>    9.7387   -0.0000 </r>
       <r>   14.0890    0.0000 </r>
       <r>   15.2668    0.0000 </r>
       <r>   17.4949    0.0000 </r>
       <r>   17.4949    0.0000 </r>
      </set>
      <set comment="kpoint 29">
       <r>    0.2237    1.0000 </r>
       <r>    1.9325    1.0000 </r>
       <r>    1.9325    1.0000 </r>
       <r>    2.1508    1.0000 </r>
       <r>    2.7448    1.0000 </r>
       <r>    2.7845    1.0000 </r>
       <r>    2.7845    1.0000 </r>
       <r>    3.0401    1.0000 </r>
       <r>    3.1363    1.0000 </r>
       <r>    3.1363    1.0000 </r>
       <r>    3.2230    1.0000 </r>
       <r>    3.2963    1.0000 </r>
       <r>    3.3291    1.0000 </r>
       <r>    3.5714    1.0000 </r>
       <r>    3.5714    1.0000 </r>
       <r>    3.5836    1.0000 </r>
       <r>    3.9310    1.0000 </r>
       <r>    4.1410    1.0000 </r>
       <r>    4.2766    1.0000 </r>
       <r>    4.2892    1.0000 </r>
       <r>    4.2892    1.0000 </r>
       <r>    5.9206   -0.0254 </r>
       <r>    5.9206   -0.0254 </r>
       <r>    7.7117   -0.0000 </r>
       <r>    9.5718   -0.0000 </r>
       <r>   11.5818    0.0000 </r>
       <r>   11.5818    0.0000 </r>
       <r>   15.0534    0.0000 </r>
       <r>   17.2907    0.0000 </r>
       <r>   19.5124    0.0000 </r>
      </set>
      <set comment="kpoint 30">
       <r>    0.8588    1.0000 </r>
       <r>    1.4729    1.0000 </r>
       <r>    2.0225    1.0000 </r>
       <r>    2.0916    1.0000 </r>
       <r>    2.8424    1.0000 </r>
       <r>    2.8703    1.0000 </r>
       <r>    2.9684    1.0000 </r>
       <r>    3.0574    1.0000 </r>
       <r>    3.1406    1.0000 </r>
       <r>    3.1916    1.0000 </r>
       <r>    3.2196    1.0000 </r>
       <r>    3.2517    1.0000 </r>
       <r>    3.3577    1.0000 </r>
       <r>    3.4442    1.0000 </r>
       <r>    3.5109    1.0000 </r>
       <r>    3.5164    1.0000 </r>
       <r>    4.0461    1.0000 </r>
       <r>    4.2085    1.0000 </r>
       <r>    4.2333    1.0000 </r>
       <r>    4.2364    1.0000 </r>
       <r>    4.3809    1.0000 </r>
       <r>    4.9131    1.0000 </r>
       <r>    6.6014   -0.0000 </r>
       <r>    7.3992   -0.0000 </r>
       <r>    9.4390   -0.0000 </r>
       <r>   10.3148   -0.0000 </r>
       <r>   12.5131    0.0000 </r>
       <r>   13.6712    0.0000 </r>
       <r>   18.0862    0.0000 </r>
       <r>   19.0933    0.0000 </r>
      </set>
      <set comment="kpoint 31">
       <r>    1.3089    1.0000 </r>
       <r>    1.7052    1.0000 </r>
       <r>    1.7052    1.0000 </r>
       <r>    1.9049    1.0000 </r>
       <r>    2.9776    1.0000 </r>
       <r>    3.0488    1.0000 </r>
       <r>    3.0488    1.0000 </r>
       <r>    3.1659    1.0000 </r>
       <r>    3.2272    1.0000 </r>
       <r>    3.2479    1.0000 </r>
       <r>    3.2479    1.0000 </r>
       <r>    3.3320    1.0000 </r>
       <r>    3.3374    1.0000 </r>
       <r>    3.4047    1.0000 </r>
       <r>    3.4047    1.0000 </r>
       <r>    3.4161    1.0000 </r>
       <r>    4.0412    1.0000 </r>
       <r>    4.1471    1.0000 </r>
       <r>    4.1471    1.0000 </r>
       <r>    4.1688    1.0000 </r>
       <r>    4.7640    1.0000 </r>
       <r>    5.4666    1.0352 </r>
       <r>    5.4666    1.0352 </r>
       <r>    6.3089   -0.0001 </r>
       <r>   10.1394   -0.0000 </r>
       <r>   11.1914    0.0000 </r>
       <r>   11.1914    0.0000 </r>
       <r>   12.3121    0.0000 </r>
       <r>   18.9112    0.0000 </r>
       <r>   19.9563    0.0000 </r>
      </set>
      <set comment="kpoint 32">
       <r>    0.6471    1.0000 </r>
       <r>    1.8856    1.0000 </r>
       <r>    1.8856    1.0000 </r>
       <r>    1.8856    1.0000 </r>
       <r>    2.9231    1.0000 </r>
       <r>    2.9231    1.0000 </r>
       <r>    2.9231    1.0000 </r>
       <r>    3.2518    1.0000 </r>
       <r>    3.2743    1.0000 </r>
       <r>    3.2743    1.0000 </r>
       <r>    3.3032    1.0000 </r>
       <r>    3.3032    1.0000 </r>
       <r>    3.3032    1.0000 </r>
       <r>    3.4418    1.0000 </r>
       <r>    3.4418    1.0000 </r>
       <r>    3.4418    1.0000 </r>
       <r>    4.0903    1.0000 </r>
       <r>    4.0903    1.0000 </r>
       <r>    4.3149    1.0000 </r>
       <r>    4.3149    1.0000 </r>
       <r>    4.3149    1.0000 </r>
       <r>    6.2551   -0.0005 </r>
       <r>    6.2551   -0.0005 </r>
       <r>    6.2551   -0.0005 </r>
       <r>   10.1211   -0.0000 </r>
       <r>   10.1211   -0.0000 </r>
       <r>   10.1211   -0.0000 </r>
       <r>   13.4549    0.0000 </r>
       <r>   20.0628    0.0000 </r>
       <r>   20.0628    0.0000 </r>
      </set>
      <set comment="kpoint 33">
       <r>    1.1169    1.0000 </r>
       <r>    1.5421    1.0000 </r>
       <r>    1.8552    1.0000 </r>
       <r>    1.8552    1.0000 </r>
       <r>    2.9880    1.0000 </r>
       <r>    2.9880    1.0000 </r>
       <r>    3.0983    1.0000 </r>
       <r>    3.2166    1.0000 </r>
       <r>    3.2759    1.0000 </r>
       <r>    3.3341    1.0000 </r>
       <r>    3.3747    1.0000 </r>
       <r>    3.3747    1.0000 </r>
       <r>    3.3886    1.0000 </r>
       <r>    3.4222    1.0000 </r>
       <r>    3.4727    1.0000 </r>
       <r>    3.4727    1.0000 </r>
       <r>    4.2170    1.0000 </r>
       <r>    4.2833    1.0000 </r>
       <r>    4.2833    1.0000 </r>
       <r>    4.2952    1.0000 </r>
       <r>    4.3009    1.0000 </r>
       <r>    5.0607    1.0000 </r>
       <r>    6.6075   -0.0000 </r>
       <r>    6.6075   -0.0000 </r>
       <r>    9.1795   -0.0000 </r>
       <r>    9.1795   -0.0000 </r>
       <r>   10.9838   -0.0000 </r>
       <r>   12.0976    0.0000 </r>
       <r>   20.8304    0.0000 </r>
       <r>   20.8304    0.0000 </r>
      </set>
      <set comment="kpoint 34">
       <r>    1.3768    1.0000 </r>
       <r>    1.6192    1.0000 </r>
       <r>    1.6192    1.0000 </r>
       <r>    1.7200    1.0000 </r>
       <r>    3.0789    1.0000 </r>
       <r>    3.1156    1.0000 </r>
       <r>    3.1156    1.0000 </r>
       <r>    3.1966    1.0000 </r>
       <r>    3.2398    1.0000 </r>
       <r>    3.2795    1.0000 </r>
       <r>    3.2795    1.0000 </r>
       <r>    3.2929    1.0000 </r>
       <r>    3.6849    1.0000 </r>
       <r>    3.6849    1.0000 </r>
       <r>    3.6946    1.0000 </r>
       <r>    3.7678    1.0000 </r>
       <r>    4.1821    1.0000 </r>
       <r>    4.2632    1.0000 </r>
       <r>    4.2632    1.0000 </r>
       <r>    4.2642    1.0000 </r>
       <r>    4.6363    1.0000 </r>
       <r>    5.4791    1.0354 </r>
       <r>    5.4791    1.0354 </r>
       <r>    6.1347   -0.0063 </r>
       <r>    9.0698   -0.0000 </r>
       <r>    9.7937   -0.0000 </r>
       <r>    9.7937   -0.0000 </r>
       <r>   10.7970   -0.0000 </r>
       <r>   21.6165    0.0000 </r>
       <r>   22.5841    0.0000 </r>
      </set>
      <set comment="kpoint 35">
       <r>    1.4592    1.0000 </r>
       <r>    1.5704    1.0000 </r>
       <r>    1.5704    1.0000 </r>
       <r>    1.5704    1.0000 </r>
       <r>    3.1583    1.0000 </r>
       <r>    3.1583    1.0000 </r>
       <r>    3.1583    1.0000 </r>
       <r>    3.1978    1.0000 </r>
       <r>    3.1978    1.0000 </r>
       <r>    3.2164    1.0000 </r>
       <r>    3.2164    1.0000 </r>
       <r>    3.2164    1.0000 </r>
       <r>    4.0462    1.0000 </r>
       <r>    4.0462    1.0000 </r>
       <r>    4.0462    1.0000 </r>
       <r>    4.2731    1.0000 </r>
       <r>    4.2731    1.0000 </r>
       <r>    4.3016    1.0000 </r>
       <r>    4.3016    1.0000 </r>
       <r>    4.3016    1.0000 </r>
       <r>    4.6868    1.0000 </r>
       <r>    5.4891    1.0346 </r>
       <r>    5.4891    1.0346 </r>
       <r>    5.4891    1.0346 </r>
       <r>    8.9661   -0.0000 </r>
       <r>    8.9661   -0.0000 </r>
       <r>    8.9661   -0.0000 </r>
       <r>    9.6402   -0.0000 </r>
       <r>   24.3192    0.0000 </r>
       <r>   24.3193    0.0000 </r>
      </set>
     </set>
    </set>
   </array>
  </eigenvalues>
  <separator name="orbital magnetization" >
   <v name="MAGDIPOLOUT">      0.00000000      0.00000000      0.00000000</v>
  </separator>
  <dos>
   <i name="efermi">      5.72004330 </i>
   <total>
    <array>
     <dimension dim="1">gridpoints</dimension>
     <dimension dim="2">spin</dimension>
     <field>energy</field>
     <field>total</field>
     <field>integrated</field>
     <set>
      <set comment="spin 1">
       <r>    -4.4279     0.0000     0.0000 </r>
       <r>    -4.3254     0.0000     0.0000 </r>
       <r>    -4.2229     0.0000     0.0000 </r>
       <r>    -4.1204    -0.0000    -0.0000 </r>
       <r>    -4.0179    -0.0000    -0.0000 </r>
       <r>    -3.9154    -0.0000    -0.0000 </r>
       <r>    -3.8129    -0.0000    -0.0000 </r>
       <r>    -3.7104    -0.0000    -0.0000 </r>
       <r>    -3.6080    -0.0000    -0.0000 </r>
       <r>    -3.5055    -0.0000    -0.0000 </r>
       <r>    -3.4030    -0.0000    -0.0000 </r>
       <r>    -3.3005    -0.0000    -0.0000 </r>
       <r>    -3.1980    -0.0000    -0.0000 </r>
       <r>    -3.0955    -0.0000    -0.0000 </r>
       <r>    -2.9930    -0.0000    -0.0000 </r>
       <r>    -2.8905    -0.0001    -0.0000 </r>
       <r>    -2.7880    -0.0005    -0.0001 </r>
       <r>    -2.6855    -0.0020    -0.0003 </r>
       <r>    -2.5831    -0.0036    -0.0006 </r>
       <r>    -2.4806     0.0030    -0.0003 </r>
       <r>    -2.3781     0.0361     0.0034 </r>
       <r>    -2.2756     0.1052     0.0142 </r>
       <r>    -2.1731     0.1778     0.0324 </r>
       <r>    -2.0706     0.1959     0.0525 </r>
       <r>    -1.9681     0.1700     0.0699 </r>
       <r>    -1.8656     0.2097     0.0914 </r>
       <r>    -1.7631     0.3572     0.1280 </r>
       <r>    -1.6606     0.4487     0.1740 </r>
       <r>    -1.5581     0.3383     0.2086 </r>
       <r>    -1.4557     0.1848     0.2276 </r>
       <r>    -1.3532     0.2383     0.2520 </r>
       <r>    -1.2507     0.4431     0.2974 </r>
       <r>    -1.1482     0.5695     0.3558 </r>
       <r>    -1.0457     0.5455     0.4117 </r>
       <r>    -0.9432     0.4313     0.4559 </r>
       <r>    -0.8407     0.3715     0.4940 </r>
       <r>    -0.7382     0.5237     0.5477 </r>
       <r>    -0.6357     0.6849     0.6179 </r>
       <r>    -0.5332     0.5175     0.6709 </r>
       <r>    -0.4307     0.2915     0.7008 </r>
       <r>    -0.3283     0.4572     0.7476 </r>
       <r>    -0.2258     0.7851     0.8281 </r>
       <r>    -0.1233     0.8456     0.9148 </r>
       <r>    -0.0208     0.7302     0.9896 </r>
       <r>     0.0817     0.7834     1.0699 </r>
       <r>     0.1842     0.9194     1.1641 </r>
       <r>     0.2867     0.7294     1.2389 </r>
       <r>     0.3892     0.3875     1.2786 </r>
       <r>     0.4917     0.4450     1.3242 </r>
       <r>     0.5942     0.9504     1.4216 </r>
       <r>     0.6966     1.3778     1.5628 </r>
       <r>     0.7991     1.3353     1.6997 </r>
       <r>     0.9016     1.1432     1.8168 </r>
       <r>     1.0041     1.0795     1.9275 </r>
       <r>     1.1066     1.0241     2.0324 </r>
       <r>     1.2091     1.1068     2.1459 </r>
       <r>     1.3116     1.6323     2.3132 </r>
       <r>     1.4141     2.3496     2.5540 </r>
       <r>     1.5166     2.6528     2.8258 </r>
       <r>     1.6191     2.7950     3.1123 </r>
       <r>     1.7216     3.5592     3.4771 </r>
       <r>     1.8240     4.7587     3.9648 </r>
       <r>     1.9265     5.6237     4.5412 </r>
       <r>     2.0290     5.9399     5.1500 </r>
       <r>     2.1315     6.6555     5.8321 </r>
       <r>     2.2340     8.5357     6.7069 </r>
       <r>     2.3365    10.3807     7.7708 </r>
       <r>     2.4390    11.0575     8.9041 </r>
       <r>     2.5415    10.8262    10.0137 </r>
       <r>     2.6440    10.4708    11.0869 </r>
       <r>     2.7465    10.6592    12.1793 </r>
       <r>     2.8489    11.8258    13.3914 </r>
       <r>     2.9514    13.9814    14.8243 </r>
       <r>     3.0539    16.0459    16.4689 </r>
       <r>     3.1564    18.0200    18.3158 </r>
       <r>     3.2589    20.6127    20.4284 </r>
       <r>     3.3614    21.3039    22.6118 </r>
       <r>     3.4639    18.2124    24.4784 </r>
       <r>     3.5664    14.7147    25.9865 </r>
       <r>     3.6689    14.7318    27.4964 </r>
       <r>     3.7714    17.1747    29.2567 </r>
       <r>     3.8739    18.1990    31.1219 </r>
       <r>     3.9763    17.2813    32.8931 </r>
       <r>     4.0788    17.6055    34.6975 </r>
       <r>     4.1813    20.7933    36.8286 </r>
       <r>     4.2838    22.9220    39.1779 </r>
       <r>     4.3863    18.3872    41.0624 </r>
       <r>     4.4888     9.3668    42.0224 </r>
       <r>     4.5913     2.8703    42.3166 </r>
       <r>     4.6938     0.8091    42.3995 </r>
       <r>     4.7963     1.0739    42.5096 </r>
       <r>     4.8988     1.8168    42.6958 </r>
       <r>     5.0013     1.9785    42.8985 </r>
       <r>     5.1037     1.4718    43.0494 </r>
       <r>     5.2062     0.7612    43.1274 </r>
       <r>     5.3087     0.6080    43.1897 </r>
       <r>     5.4112     1.6632    43.3602 </r>
       <r>     5.5137     2.6534    43.6321 </r>
       <r>     5.6162     2.2175    43.8594 </r>
       <r>     5.7187     1.3575    43.9985 </r>
       <r>     5.8212     0.9044    44.0912 </r>
       <r>     5.9237     0.6621    44.1591 </r>
       <r>     6.0262     0.5871    44.2193 </r>
       <r>     6.1286     0.8387    44.3052 </r>
       <r>     6.2311     1.4171    44.4505 </r>
       <r>     6.3336     1.7534    44.6302 </r>
       <r>     6.4361     1.6138    44.7956 </r>
       <r>     6.5386     1.5551    44.9550 </r>
       <r>     6.6411     1.5504    45.1139 </r>
       <r>     6.7436     1.1779    45.2346 </r>
       <r>     6.8461     0.8162    45.3182 </r>
       <r>     6.9486     0.8310    45.4034 </r>
       <r>     7.0511     0.8522    45.4908 </r>
       <r>     7.1536     0.6038    45.5526 </r>
       <r>     7.2560     0.5954    45.6137 </r>
       <r>     7.3585     1.2902    45.7459 </r>
       <r>     7.4610     1.8225    45.9327 </r>
       <r>     7.5635     1.4205    46.0783 </r>
       <r>     7.6660     0.9881    46.1795 </r>
       <r>     7.7685     1.1808    46.3006 </r>
       <r>     7.8710     1.3755    46.4415 </r>
       <r>     7.9735     1.2428    46.5689 </r>
       <r>     8.0760     0.9281    46.6640 </r>
       <r>     8.1785     0.5212    46.7175 </r>
       <r>     8.2809     0.2910    46.7473 </r>
       <r>     8.3834     0.3543    46.7836 </r>
       <r>     8.4859     0.5982    46.8449 </r>
       <r>     8.5884     0.9604    46.9433 </r>
       <r>     8.6909     1.1399    47.0602 </r>
       <r>     8.7934     0.9827    47.1609 </r>
       <r>     8.8959     1.0948    47.2731 </r>
       <r>     8.9984     1.5757    47.4346 </r>
       <r>     9.1009     1.6255    47.6012 </r>
       <r>     9.2034     1.0914    47.7131 </r>
       <r>     9.3059     0.6145    47.7760 </r>
       <r>     9.4083     0.7176    47.8496 </r>
       <r>     9.5108     1.2295    47.9756 </r>
       <r>     9.6133     1.6638    48.1461 </r>
       <r>     9.7158     1.8402    48.3347 </r>
       <r>     9.8183     1.5545    48.4940 </r>
       <r>     9.9208     0.8542    48.5816 </r>
       <r>    10.0233     0.5083    48.6337 </r>
       <r>    10.1258     0.9276    48.7288 </r>
       <r>    10.2283     1.5981    48.8925 </r>
       <r>    10.3308     1.7957    49.0766 </r>
       <r>    10.4332     1.3452    49.2145 </r>
       <r>    10.5357     0.6727    49.2834 </r>
       <r>    10.6382     0.3263    49.3168 </r>
       <r>    10.7407     0.7474    49.3934 </r>
       <r>    10.8432     1.7754    49.5754 </r>
       <r>    10.9457     2.2678    49.8078 </r>
       <r>    11.0482     1.6062    49.9725 </r>
       <r>    11.1507     0.9067    50.0654 </r>
       <r>    11.2532     0.8769    50.1553 </r>
       <r>    11.3557     0.8978    50.2473 </r>
       <r>    11.4582     0.7640    50.3256 </r>
       <r>    11.5606     0.7321    50.4006 </r>
       <r>    11.6631     0.6394    50.4661 </r>
       <r>    11.7656     0.4880    50.5162 </r>
       <r>    11.8681     0.6604    50.5838 </r>
       <r>    11.9706     1.2260    50.7095 </r>
       <r>    12.0731     1.7824    50.8922 </r>
       <r>    12.1756     1.9503    51.0920 </r>
       <r>    12.2781     1.8504    51.2817 </r>
       <r>    12.3806     1.7262    51.4586 </r>
       <r>    12.4831     1.6105    51.6237 </r>
       <r>    12.5856     1.3966    51.7668 </r>
       <r>    12.6880     1.0828    51.8778 </r>
       <r>    12.7905     0.8682    51.9668 </r>
       <r>    12.8930     0.9242    52.0615 </r>
       <r>    12.9955     1.1908    52.1836 </r>
       <r>    13.0980     1.3547    52.3224 </r>
       <r>    13.2005     1.2875    52.4544 </r>
       <r>    13.3030     1.3739    52.5952 </r>
       <r>    13.4055     1.6644    52.7658 </r>
       <r>    13.5080     1.6074    52.9305 </r>
       <r>    13.6105     1.5601    53.0904 </r>
       <r>    13.7129     2.1059    53.3062 </r>
       <r>    13.8154     2.5153    53.5640 </r>
       <r>    13.9179     2.0438    53.7735 </r>
       <r>    14.0204     1.2920    53.9059 </r>
       <r>    14.1229     1.2999    54.0391 </r>
       <r>    14.2254     1.8559    54.2294 </r>
       <r>    14.3279     1.8518    54.4192 </r>
       <r>    14.4304     1.1867    54.5408 </r>
       <r>    14.5329     0.8864    54.6316 </r>
       <r>    14.6354     1.2304    54.7577 </r>
       <r>    14.7379     1.4495    54.9063 </r>
       <r>    14.8403     1.4035    55.0501 </r>
       <r>    14.9428     1.4839    55.2022 </r>
       <r>    15.0453     1.4586    55.3517 </r>
       <r>    15.1478     1.1157    55.4661 </r>
       <r>    15.2503     0.8889    55.5572 </r>
       <r>    15.3528     1.2384    55.6841 </r>
       <r>    15.4553     2.2343    55.9131 </r>
       <r>    15.5578     2.8733    56.2076 </r>
       <r>    15.6603     2.1495    56.4279 </r>
       <r>    15.7628     1.3449    56.5657 </r>
       <r>    15.8652     1.8581    56.7561 </r>
       <r>    15.9677     2.4811    57.0104 </r>
       <r>    16.0702     1.9318    57.2084 </r>
       <r>    16.1727     1.0403    57.3150 </r>
       <r>    16.2752     0.7683    57.3938 </r>
       <r>    16.3777     0.9364    57.4898 </r>
       <r>    16.4802     1.1230    57.6049 </r>
       <r>    16.5827     1.5427    57.7630 </r>
       <r>    16.6852     2.1585    57.9842 </r>
       <r>    16.7877     2.0682    58.1962 </r>
       <r>    16.8902     1.3034    58.3297 </r>
       <r>    16.9926     1.0772    58.4402 </r>
       <r>    17.0951     1.4990    58.5938 </r>
       <r>    17.1976     1.4430    58.7417 </r>
       <r>    17.3001     0.8380    58.8276 </r>
       <r>    17.4026     0.6114    58.8902 </r>
       <r>    17.5051     0.7700    58.9691 </r>
       <r>    17.6076     0.7240    59.0433 </r>
       <r>    17.7101     0.5583    59.1006 </r>
       <r>    17.8126     0.4688    59.1486 </r>
       <r>    17.9151     0.3462    59.1841 </r>
       <r>    18.0176     0.3696    59.2220 </r>
       <r>    18.1200     0.5114    59.2744 </r>
       <r>    18.2225     0.3855    59.3139 </r>
       <r>    18.3250     0.1015    59.3243 </r>
       <r>    18.4275    -0.0233    59.3219 </r>
       <r>    18.5300    -0.0249    59.3194 </r>
       <r>    18.6325    -0.0210    59.3172 </r>
       <r>    18.7350    -0.0006    59.3171 </r>
       <r>    18.8375     0.1141    59.3288 </r>
       <r>    18.9400     0.3327    59.3629 </r>
       <r>    19.0425     0.5577    59.4201 </r>
       <r>    19.1449     0.5892    59.4805 </r>
       <r>    19.2474     0.3254    59.5138 </r>
       <r>    19.3499     0.0843    59.5225 </r>
       <r>    19.4524     0.1324    59.5360 </r>
       <r>    19.5549     0.2475    59.5614 </r>
       <r>    19.6574     0.1695    59.5788 </r>
       <r>    19.7599     0.0375    59.5826 </r>
       <r>    19.8624     0.0978    59.5926 </r>
       <r>    19.9649     0.3104    59.6245 </r>
       <r>    20.0674     0.3955    59.6650 </r>
       <r>    20.1699     0.2428    59.6899 </r>
       <r>    20.2723     0.0555    59.6956 </r>
       <r>    20.3748    -0.0170    59.6938 </r>
       <r>    20.4773    -0.0278    59.6910 </r>
       <r>    20.5798    -0.0279    59.6881 </r>
       <r>    20.6823     0.0795    59.6963 </r>
       <r>    20.7848     0.3671    59.7339 </r>
       <r>    20.8873     0.5368    59.7889 </r>
       <r>    20.9898     0.3327    59.8230 </r>
       <r>    21.0923     0.0577    59.8289 </r>
       <r>    21.1948    -0.0299    59.8258 </r>
       <r>    21.2972    -0.0258    59.8232 </r>
       <r>    21.3997    -0.0082    59.8224 </r>
       <r>    21.5022     0.0801    59.8306 </r>
       <r>    21.6047     0.2293    59.8541 </r>
       <r>    21.7072     0.2526    59.8800 </r>
       <r>    21.8097     0.1141    59.8917 </r>
       <r>    21.9122     0.0047    59.8921 </r>
       <r>    22.0147    -0.0132    59.8908 </r>
       <r>    22.1172    -0.0059    59.8902 </r>
       <r>    22.2197    -0.0079    59.8894 </r>
       <r>    22.3222    -0.0135    59.8880 </r>
       <r>    22.4246     0.0290    59.8910 </r>
       <r>    22.5271     0.1663    59.9080 </r>
       <r>    22.6296     0.2684    59.9355 </r>
       <r>    22.7321     0.1836    59.9543 </r>
       <r>    22.8346     0.0400    59.9584 </r>
       <r>    22.9371    -0.0125    59.9571 </r>
       <r>    23.0396    -0.0083    59.9563 </r>
       <r>    23.1421    -0.0017    59.9561 </r>
       <r>    23.2446    -0.0002    59.9561 </r>
       <r>    23.3471    -0.0000    59.9561 </r>
       <r>    23.4495    -0.0000    59.9561 </r>
       <r>    23.5520    -0.0000    59.9561 </r>
       <r>    23.6545    -0.0000    59.9561 </r>
       <r>    23.7570    -0.0001    59.9561 </r>
       <r>    23.8595    -0.0011    59.9560 </r>
       <r>    23.9620    -0.0052    59.9554 </r>
       <r>    24.0645    -0.0086    59.9546 </r>
       <r>    24.1670     0.0238    59.9570 </r>
       <r>    24.2695     0.1182    59.9691 </r>
       <r>    24.3720     0.1791    59.9875 </r>
       <r>    24.4745     0.1152    59.9993 </r>
       <r>    24.5769     0.0219    60.0015 </r>
       <r>    24.6794    -0.0088    60.0006 </r>
       <r>    24.7819    -0.0051    60.0001 </r>
       <r>    24.8844    -0.0010    60.0000 </r>
       <r>    24.9869    -0.0001    60.0000 </r>
       <r>    25.0894    -0.0000    60.0000 </r>
       <r>    25.1919    -0.0000    60.0000 </r>
       <r>    25.2944    -0.0000    60.0000 </r>
       <r>    25.3969    -0.0000    60.0000 </r>
       <r>    25.4994    -0.0000    60.0000 </r>
       <r>    25.6019    -0.0000    60.0000 </r>
       <r>    25.7043     0.0000    60.0000 </r>
       <r>    25.8068     0.0000    60.0000 </r>
       <r>    25.9093     0.0000    60.0000 </r>
       <r>    26.0118     0.0000    60.0000 </r>
       <r>    26.1143     0.0000    60.0000 </r>
       <r>    26.2168     0.0000    60.0000 </r>
       <r>    26.3193     0.0000    60.0000 </r>
      </set>
     </set>
    </array>
   </total>
  </dos>
 </calculation>
 <structure name="finalpos" >
  <crystal>
   <varray name="basis" >
    <v>       3.80835153       0.00000000       0.00000000 </v>
    <v>       0.00000000       3.80835153       0.00000000 </v>
    <v>       0.00000000       0.00000000       3.80835153 </v>
   </varray>
   <i name="volume">     55.23458381 </i>
   <varray name="rec_basis" >
    <v>       0.26258080       0.00000000       0.00000000 </v>
    <v>       0.00000000       0.26258080       0.00000000 </v>
    <v>       0.00000000       0.00000000       0.26258080 </v>
   </varray>
  </crystal>
  <varray name="positions" >
   <v>       0.00000000       0.00000000       0.00000000 </v>
   <v>       0.50000000       0.50000000       0.00000000 </v>
   <v>       0.50000000       0.00000000       0.50000000 </v>
   <v>       0.00000000       0.50000000       0.50000000 </v>
  </varray>
 </structure>
</modeling>
