unknown system                          
   1.00000000000000     
     3.635000    0.000000    0.000000
     0.000000    3.635000    0.000000
     0.000000    0.000000    3.635000
   Cu
     4
Direct
  0.000000  0.000000  0.000000
  0.500000  0.500000  0.000000
  0.500000  0.000000  0.500000
  0.000000  0.500000  0.500000
 
   32   32   32
  845.14      796.51      666.05      491.97      317.60      175.90      82.673      36.196      20.761      15.237    
  11.641      9.4115      8.1243      7.4843      7.0887      6.7142      6.5328      6.7142      7.0887      7.4843    
  8.1243      9.4115      11.641      15.237      20.761      36.196      82.673      175.90      317.60      491.97    
  666.05      796.51      796.51      750.49      627.00      462.29      297.53      164.17      77.112      34.347    
  20.368      15.039      11.567      9.4274      8.2004      7.5952      7.2271      6.8816      6.7142      6.8816    
  7.2271      7.5952      8.2004      9.4274      11.567      15.039      20.368      34.347      77.112      164.17    
  297.53      462.29      627.00      750.49      666.05      627.00      522.26      382.81      244.10      133.29    
  62.822      29.798      19.349      14.494      11.367      9.4661      8.3816      7.8422      7.5183      7.2271    
  7.0887      7.2271      7.5183      7.8422      8.3816      9.4661      11.367      14.494      19.349      29.798    
  62.822      133.29      244.10      382.81      522.26      627.00      491.97      462.29      382.81      277.58    
  174.31      94.054      45.607      24.781      17.910      13.737      11.116      9.5387      8.6259      8.1424    
  7.8422      7.5952      7.4843      7.5952      7.8422      8.1424      8.6259      9.5387      11.116      13.737    
  17.910      24.781      45.607      94.054      174.31      277.58      382.81      462.29      317.60      297.53    
  244.10      174.31      107.68      58.514      31.429      21.013      16.247      12.945      10.923      9.7213    
  9.0176      8.6259      8.3816      8.2004      8.1243      8.2004      8.3816      8.6259      9.0176      9.7213    
  10.923      12.945      16.247      21.013      31.429      58.514      107.68      174.31      244.10      297.53    
  175.90      164.17      133.29      94.054      58.514      34.604      23.135      18.207      14.646      12.292    
  10.908      10.130      9.7213      9.5387      9.4661      9.4274      9.4115      9.4274      9.4661      9.5387    
  9.7213      10.130      10.908      12.292      14.646      18.207      23.135      34.604      58.514      94.054    
  133.29      164.17      82.673      77.112      62.822      45.607      31.429      23.135      18.938      15.697    
  13.355      11.924      11.187      10.908      10.923      11.116      11.367      11.567      11.641      11.567    
  11.367      11.116      10.923      10.908      11.187      11.924      13.355      15.697      18.938      23.135    
  31.429      45.607      62.822      77.112      36.196      34.347      29.798      24.781      21.013      18.207    
  15.697      13.764      12.535      11.963      11.924      12.292      12.945      13.737      14.494      15.039    
  15.237      15.039      14.494      13.737      12.945      12.292      11.924      11.963      12.535      13.764    
  15.697      18.207      21.013      24.781      29.798      34.347      20.761      20.368      19.349      17.910    
  16.247      14.646      13.355      12.535      12.256      12.535      13.355      14.646      16.247      17.910    
  19.349      20.368      20.761      20.368      19.349      17.910      16.247      14.646      13.355      12.535    
  12.256      12.535      13.355      14.646      16.247      17.910      19.349      20.368      15.237      15.039    
  14.494      13.737      12.945      12.292      11.924      11.963      12.535      13.764      15.697      18.207    
  21.013      24.781      29.798      34.347      36.196      34.347      29.798      24.781      21.013      18.207    
  15.697      13.764      12.535      11.963      11.924      12.292      12.945      13.737      14.494      15.039    
  11.641      11.567      11.367      11.116      10.923      10.908      11.187      11.924      13.355      15.697    
  18.938      23.135      31.429      45.607      62.822      77.112      82.673      77.112      62.822      45.607    
  31.429      23.135      18.938      15.697      13.355      11.924      11.187      10.908      10.923      11.116    
  11.367      11.567      9.4115      9.4274      9.4661      9.5387      9.7213      10.130      10.908      12.292    
  14.646      18.207      23.135      34.604      58.514      94.054      133.29      164.17      175.90      164.17    
  133.29      94.054      58.514      34.604      23.135      18.207      14.646      12.292      10.908      10.130    
  9.7213      9.5387      9.4661      9.4274      8.1243      8.2004      8.3816      8.6259      9.0176      9.7213    
  10.923      12.945      16.247      21.013      31.429      58.514      107.68      174.31      244.10      297.53    
  317.60      297.53      244.10      174.31      107.68      58.514      31.429      21.013      16.247      12.945    
  10.923      9.7213      9.0176      8.6259      8.3816      8.2004      7.4843      7.5952      7.8422      8.1424    
  8.6259      9.5387      11.116      13.737      17.910      24.781      45.607      94.054      174.31      277.58    
  382.81      462.29      491.97      462.29      382.81      277.58      174.31      94.054      45.607      24.781    
  17.910      13.737      11.116      9.5387      8.6259      8.1424      7.8422      7.5952      7.0887      7.2271    
  7.5183      7.8422      8.3816      9.4661      11.367      14.494      19.349      29.798      62.822      133.29    
  244.10      382.81      522.26      627.00      666.05      627.00      522.26      382.81      244.10      133.29    
  62.822      29.798      19.349      14.494      11.367      9.4661      8.3816      7.8422      7.5183      7.2271    
  6.7142      6.8816      7.2271      7.5952      8.2004      9.4274      11.567      15.039      20.368      34.347    
  77.112      164.17      297.53      462.29      627.00      750.49      796.51      750.49      627.00      462.29    
  297.53      164.17      77.112      34.347      20.368      15.039      11.567      9.4274      8.2004      7.5952    
  7.2271      6.8816      6.5328      6.7142      7.0887      7.4843      8.1243      9.4115      11.641      15.237    
  20.761      36.196      82.673      175.90      317.60      491.97      666.05      796.51      845.14      796.51    
  666.05      491.97      317.60      175.90      82.673      36.196      20.761      15.237      11.641      9.4115    
  8.1243      7.4843      7.0887      6.7142      6.7142      6.8816      7.2271      7.5952      8.2004      9.4274    
  11.567      15.039      20.368      34.347      77.112      164.17      297.53      462.29      627.00      750.49    
  796.51      750.49      627.00      462.29      297.53      164.17      77.112      34.347      20.368      15.039    
  11.567      9.4274      8.2004      7.5952      7.2271      6.8816      7.0887      7.2271      7.5183      7.8422    
  8.3816      9.4661      11.367      14.494      19.349      29.798      62.822      133.29      244.10      382.81    
  522.26      627.00      666.05      627.00      522.26      382.81      244.10      133.29      62.822      29.798    
  19.349      14.494      11.367      9.4661      8.3816      7.8422      7.5183      7.2271      7.4843      7.5952    
  7.8422      8.1424      8.6259      9.5387      11.116      13.737      17.910      24.781      45.607      94.054    
  174.31      277.58      382.81      462.29      491.97      462.29      382.81      277.58      174.31      94.054    
  45.607      24.781      17.910      13.737      11.116      9.5387      8.6259      8.1424      7.8422      7.5952    
  8.1243      8.2004      8.3816      8.6259      9.0176      9.7213      10.923      12.945      16.247      21.013    
  31.429      58.514      107.68      174.31      244.10      297.53      317.60      297.53      244.10      174.31    
  107.68      58.514      31.429      21.013      16.247      12.945      10.923      9.7213      9.0176      8.6259    
  8.3816      8.2004      9.4115      9.4274      9.4661      9.5387      9.7213      10.130      10.908      12.292    
  14.646      18.207      23.135      34.604      58.514      94.054      133.29      164.17      175.90      164.17    
  133.29      94.054      58.514      34.604      23.135      18.207      14.646      12.292      10.908      10.130    
  9.7213      9.5387      9.4661      9.4274      11.641      11.567      11.367      11.116      10.923      10.908    
  11.187      11.924      13.355      15.697      18.938      23.135      31.429      45.607      62.822      77.112    
  82.673      77.112      62.822      45.607      31.429      23.135      18.938      15.697      13.355      11.924    
  11.187      10.908      10.923      11.116      11.367      11.567      15.237      15.039      14.494      13.737    
  12.945      12.292      11.924      11.963      12.535      13.764      15.697      18.207      21.013      24.781    
  29.798      34.347      36.196      34.347      29.798      24.781      21.013      18.207      15.697      13.764    
  12.535      11.963      11.924      12.292      12.945      13.737      14.494      15.039      20.761      20.368    
  19.349      17.910      16.247      14.646      13.355      12.535      12.256      12.535      13.355      14.646    
  16.247      17.910      19.349      20.368      20.761      20.368      19.349      17.910      16.247      14.646    
  13.355      12.535      12.256      12.535      13.355      14.646      16.247      17.910      19.349      20.368    
  36.196      34.347      29.798      24.781      21.013      18.207      15.697      13.764      12.535      11.963    
  11.924      12.292      12.945      13.737      14.494      15.039      15.237      15.039      14.494      13.737    
  12.945      12.292      11.924      11.963      12.535      13.764      15.697      18.207      21.013      24.781    
  29.798      34.347      82.673      77.112      62.822      45.607      31.429      23.135      18.938      15.697    
  13.355      11.924      11.187      10.908      10.923      11.116      11.367      11.567      11.641      11.567    
  11.367      11.116      10.923      10.908      11.187      11.924      13.355      15.697      18.938      23.135    
  31.429      45.607      62.822      77.112      175.90      164.17      133.29      94.054      58.514      34.604    
  23.135      18.207      14.646      12.292      10.908      10.130      9.7213      9.5387      9.4661      9.4274    
  9.4115      9.4274      9.4661      9.5387      9.7213      10.130      10.908      12.292      14.646      18.207    
  23.135      34.604      58.514      94.054      133.29      164.17      317.60      297.53      244.10      174.31    
  107.68      58.514      31.429      21.013      16.247      12.945      10.923      9.7213      9.0176      8.6259    
  8.3816      8.2004      8.1243      8.2004      8.3816      8.6259      9.0176      9.7213      10.923      12.945    
  16.247      21.013      31.429      58.514      107.68      174.31      244.10      297.53      491.97      462.29    
  382.81      277.58      174.31      94.054      45.607      24.781      17.910      13.737      11.116      9.5387    
  8.6259      8.1424      7.8422      7.5952      7.4843      7.5952      7.8422      8.1424      8.6259      9.5387    
  11.116      13.737      17.910      24.781      45.607      94.054      174.31      277.58      382.81      462.29    
  666.05      627.00      522.26      382.81      244.10      133.29      62.822      29.798      19.349      14.494    
  11.367      9.4661      8.3816      7.8422      7.5183      7.2271      7.0887      7.2271      7.5183      7.8422    
  8.3816      9.4661      11.367      14.494      19.349      29.798      62.822      133.29      244.10      382.81    
  522.26      627.00      796.51      750.49      627.00      462.29      297.53      164.17      77.112      34.347    
  20.368      15.039      11.567      9.4274      8.2004      7.5952      7.2271      6.8816      6.7142      6.8816    
  7.2271      7.5952      8.2004      9.4274      11.567      15.039      20.368      34.347      77.112      164.17    
  297.53      462.29      627.00      750.49      796.51      750.49      627.00      462.29      297.53      164.17    
  77.112      34.347      20.368      15.039      11.567      9.4274      8.2004      7.5952      7.2271      6.8816    
  6.7142      6.8816      7.2271      7.5952      8.2004      9.4274      11.567      15.039      20.368      34.347    
  77.112      164.17      297.53      462.29      627.00      750.49      750.49      706.93      590.05      434.22    
  278.62      153.17      71.963      32.671      20.002      14.846      11.493      9.4403      8.2699      7.6971    
  7.3545      7.0358      6.8816      7.0358      7.3545      7.6971      8.2699      9.4403      11.493      14.846    
  20.002      32.671      71.963      153.17      278.62      434.22      590.05      706.93      627.00      590.05    
  490.96      359.13      228.30      124.28      58.763      28.557      19.030      14.314      11.297      9.4724    
  8.4368      7.9252      7.6230      7.3545      7.2271      7.3545      7.6230      7.9252      8.4368      9.4724    
  11.297      14.314      19.030      28.557      58.763      124.28      228.30      359.13      490.96      590.05    
  462.29      434.22      359.13      259.86      162.73      87.718      42.952      24.040      17.622      13.578    
  11.052      9.5379      8.6655      8.2062      7.9252      7.6971      7.5952      7.6971      7.9252      8.2062    
  8.6655      9.5379      11.052      13.578      17.622      24.040      42.952      87.718      162.73      259.86    
  359.13      434.22      297.53      278.62      228.30      162.73      100.41      54.816      30.052      20.612    
  16.003      12.811      10.865      9.7109      9.0380      8.6655      8.4368      8.2699      8.2004      8.2699    
  8.4368      8.6655      9.0380      9.7109      10.865      12.811      16.003      20.612      30.052      54.816    
  100.41      162.73      228.30      278.62      164.17      153.17      124.28      87.718      54.816      32.934    
  22.571      17.899      14.450      12.182      10.849      10.103      9.7109      9.5379      9.4724      9.4403    
  9.4274      9.4403      9.4724      9.5379      9.7109      10.103      10.849      12.182      14.450      17.899    
  22.571      32.934      54.816      87.718      124.28      153.17      77.112      71.963      58.763      42.952    
  30.052      22.571      18.607      15.463      13.204      11.827      11.118      10.849      10.865      11.052    
  11.297      11.493      11.567      11.493      11.297      11.052      10.865      10.849      11.118      11.827    
  13.204      15.463      18.607      22.571      30.052      42.952      58.763      71.963      34.347      32.671    
  28.557      24.040      20.612      17.899      15.463      13.597      12.415      11.865      11.827      12.182    
  12.811      13.578      14.314      14.846      15.039      14.846      14.314      13.578      12.811      12.182    
  11.827      11.865      12.415      13.597      15.463      17.899      20.612      24.040      28.557      32.671    
  20.368      20.002      19.030      17.622      16.003      14.450      13.204      12.415      12.147      12.415    
  13.204      14.450      16.003      17.622      19.030      20.002      20.368      20.002      19.030      17.622    
  16.003      14.450      13.204      12.415      12.147      12.415      13.204      14.450      16.003      17.622    
  19.030      20.002      15.039      14.846      14.314      13.578      12.811      12.182      11.827      11.865    
  12.415      13.597      15.463      17.899      20.612      24.040      28.557      32.671      34.347      32.671    
  28.557      24.040      20.612      17.899      15.463      13.597      12.415      11.865      11.827      12.182    
  12.811      13.578      14.314      14.846      11.567      11.493      11.297      11.052      10.865      10.849    
  11.118      11.827      13.204      15.463      18.607      22.571      30.052      42.952      58.763      71.963    
  77.112      71.963      58.763      42.952      30.052      22.571      18.607      15.463      13.204      11.827    
  11.118      10.849      10.865      11.052      11.297      11.493      9.4274      9.4403      9.4724      9.5379    
  9.7109      10.103      10.849      12.182      14.450      17.899      22.571      32.934      54.816      87.718    
  124.28      153.17      164.17      153.17      124.28      87.718      54.816      32.934      22.571      17.899    
  14.450      12.182      10.849      10.103      9.7109      9.5379      9.4724      9.4403      8.2004      8.2699    
  8.4368      8.6655      9.0380      9.7109      10.865      12.811      16.003      20.612      30.052      54.816    
  100.41      162.73      228.30      278.62      297.53      278.62      228.30      162.73      100.41      54.816    
  30.052      20.612      16.003      12.811      10.865      9.7109      9.0380      8.6655      8.4368      8.2699    
  7.5952      7.6971      7.9252      8.2062      8.6655      9.5379      11.052      13.578      17.622      24.040    
  42.952      87.718      162.73      259.86      359.13      434.22      462.29      434.22      359.13      259.86    
  162.73      87.718      42.952      24.040      17.622      13.578      11.052      9.5379      8.6655      8.2062    
  7.9252      7.6971      7.2271      7.3545      7.6230      7.9252      8.4368      9.4724      11.297      14.314    
  19.030      28.557      58.763      124.28      228.30      359.13      490.96      590.05      627.00      590.05    
  490.96      359.13      228.30      124.28      58.763      28.557      19.030      14.314      11.297      9.4724    
  8.4368      7.9252      7.6230      7.3545      6.8816      7.0358      7.3545      7.6971      8.2699      9.4403    
  11.493      14.846      20.002      32.671      71.963      153.17      278.62      434.22      590.05      706.93    
  750.49      706.93      590.05      434.22      278.62      153.17      71.963      32.671      20.002      14.846    
  11.493      9.4403      8.2699      7.6971      7.3545      7.0358      6.7142      6.8816      7.2271      7.5952    
  8.2004      9.4274      11.567      15.039      20.368      34.347      77.112      164.17      297.53      462.29    
  627.00      750.49      796.51      750.49      627.00      462.29      297.53      164.17      77.112      34.347    
  20.368      15.039      11.567      9.4274      8.2004      7.5952      7.2271      6.8816      6.8816      7.0358    
  7.3545      7.6971      8.2699      9.4403      11.493      14.846      20.002      32.671      71.963      153.17    
  278.62      434.22      590.05      706.93      750.49      706.93      590.05      434.22      278.62      153.17    
  71.963      32.671      20.002      14.846      11.493      9.4403      8.2699      7.6971      7.3545      7.0358    
  7.2271      7.3545      7.6230      7.9252      8.4368      9.4724      11.297      14.314      19.030      28.557    
  58.763      124.28      228.30      359.13      490.96      590.05      627.00      590.05      490.96      359.13    
  228.30      124.28      58.763      28.557      19.030      14.314      11.297      9.4724      8.4368      7.9252    
  7.6230      7.3545      7.5952      7.6971      7.9252      8.2062      8.6655      9.5379      11.052      13.578    
  17.622      24.040      42.952      87.718      162.73      259.86      359.13      434.22      462.29      434.22    
  359.13      259.86      162.73      87.718      42.952      24.040      17.622      13.578      11.052      9.5379    
  8.6655      8.2062      7.9252      7.6971      8.2004      8.2699      8.4368      8.6655      9.0380      9.7109    
  10.865      12.811      16.003      20.612      30.052      54.816      100.41      162.73      228.30      278.62    
  297.53      278.62      228.30      162.73      100.41      54.816      30.052      20.612      16.003      12.811    
  10.865      9.7109      9.0380      8.6655      8.4368      8.2699      9.4274      9.4403      9.4724      9.5379    
  9.7109      10.103      10.849      12.182      14.450      17.899      22.571      32.934      54.816      87.718    
  124.28      153.17      164.17      153.17      124.28      87.718      54.816      32.934      22.571      17.899    
  14.450      12.182      10.849      10.103      9.7109      9.5379      9.4724      9.4403      11.567      11.493    
  11.297      11.052      10.865      10.849      11.118      11.827      13.204      15.463      18.607      22.571    
  30.052      42.952      58.763      71.963      77.112      71.963      58.763      42.952      30.052      22.571    
  18.607      15.463      13.204      11.827      11.118      10.849      10.865      11.052      11.297      11.493    
  15.039      14.846      14.314      13.578      12.811      12.182      11.827      11.865      12.415      13.597    
  15.463      17.899      20.612      24.040      28.557      32.671      34.347      32.671      28.557      24.040    
  20.612      17.899      15.463      13.597      12.415      11.865      11.827      12.182      12.811      13.578    
  14.314      14.846      20.368      20.002      19.030      17.622      16.003      14.450      13.204      12.415    
  12.147      12.415      13.204      14.450      16.003      17.622      19.030      20.002      20.368      20.002    
  19.030      17.622      16.003      14.450      13.204      12.415      12.147      12.415      13.204      14.450    
  16.003      17.622      19.030      20.002      34.347      32.671      28.557      24.040      20.612      17.899    
  15.463      13.597      12.415      11.865      11.827      12.182      12.811      13.578      14.314      14.846    
  15.039      14.846      14.314      13.578      12.811      12.182      11.827      11.865      12.415      13.597    
  15.463      17.899      20.612      24.040      28.557      32.671      77.112      71.963      58.763      42.952    
  30.052      22.571      18.607      15.463      13.204      11.827      11.118      10.849      10.865      11.052    
  11.297      11.493      11.567      11.493      11.297      11.052      10.865      10.849      11.118      11.827    
  13.204      15.463      18.607      22.571      30.052      42.952      58.763      71.963      164.17      153.17    
  124.28      87.718      54.816      32.934      22.571      17.899      14.450      12.182      10.849      10.103    
  9.7109      9.5379      9.4724      9.4403      9.4274      9.4403      9.4724      9.5379      9.7109      10.103    
  10.849      12.182      14.450      17.899      22.571      32.934      54.816      87.718      124.28      153.17    
  297.53      278.62      228.30      162.73      100.41      54.816      30.052      20.612      16.003      12.811    
  10.865      9.7109      9.0380      8.6655      8.4368      8.2699      8.2004      8.2699      8.4368      8.6655    
  9.0380      9.7109      10.865      12.811      16.003      20.612      30.052      54.816      100.41      162.73    
  228.30      278.62      462.29      434.22      359.13      259.86      162.73      87.718      42.952      24.040    
  17.622      13.578      11.052      9.5379      8.6655      8.2062      7.9252      7.6971      7.5952      7.6971    
  7.9252      8.2062      8.6655      9.5379      11.052      13.578      17.622      24.040      42.952      87.718    
  162.73      259.86      359.13      434.22      627.00      590.05      490.96      359.13      228.30      124.28    
  58.763      28.557      19.030      14.314      11.297      9.4724      8.4368      7.9252      7.6230      7.3545    
  7.2271      7.3545      7.6230      7.9252      8.4368      9.4724      11.297      14.314      19.030      28.557    
  58.763      124.28      228.30      359.13      490.96      590.05      750.49      706.93      590.05      434.22    
  278.62      153.17      71.963      32.671      20.002      14.846      11.493      9.4403      8.2699      7.6971    
  7.3545      7.0358      6.8816      7.0358      7.3545      7.6971      8.2699      9.4403      11.493      14.846    
  20.002      32.671      71.963      153.17      278.62      434.22      590.05      706.93      666.05      627.00    
  522.26      382.81      244.10      133.29      62.822      29.798      19.349      14.494      11.367      9.4661    
  8.3816      7.8422      7.5183      7.2271      7.0887      7.2271      7.5183      7.8422      8.3816      9.4661    
  11.367      14.494      19.349      29.798      62.822      133.29      244.10      382.81      522.26      627.00    
  627.00      590.05      490.96      359.13      228.30      124.28      58.763      28.557      19.030      14.314    
  11.297      9.4724      8.4368      7.9252      7.6230      7.3545      7.2271      7.3545      7.6230      7.9252    
  8.4368      9.4724      11.297      14.314      19.030      28.557      58.763      124.28      228.30      359.13    
  490.96      590.05      522.26      490.96      407.10      295.91      186.41      100.76      48.444      25.537    
  18.131      13.823      11.112      9.4904      8.5729      8.1151      7.8486      7.6230      7.5183      7.6230    
  7.8486      8.1151      8.5729      9.4904      11.112      13.823      18.131      25.537      48.444      100.76    
  186.41      295.91      407.10      490.96      382.81      359.13      295.91      212.74      132.24      71.330    
  36.302      22.232      16.815      13.147      10.885      9.5408      8.7688      8.3603      8.1151      7.9252    
  7.8422      7.9252      8.1151      8.3603      8.7688      9.5408      10.885      13.147      16.815      22.232    
  36.302      71.330      132.24      212.74      295.91      359.13      244.10      228.30      186.41      132.24    
  81.529      45.426      26.676      19.534      15.322      12.449      10.713      9.6905      9.0967      8.7688    
  8.5729      8.4368      8.3816      8.4368      8.5729      8.7688      9.0967      9.6905      10.713      12.449    
  15.322      19.534      26.676      45.426      81.529      132.24      186.41      228.30      133.29      124.28    
  100.76      71.330      45.426      28.812      21.149      17.031      13.909      11.881      10.696      10.035    
  9.6905      9.5408      9.4904      9.4724      9.4661      9.4724      9.4904      9.5408      9.6905      10.035    
  10.696      11.881      13.909      17.031      21.149      28.812      45.426      71.330      100.76      124.28    
  62.822      58.763      48.444      36.302      26.676      21.149      17.673      14.811      12.788      11.563    
  10.934      10.696      10.713      10.885      11.112      11.297      11.367      11.297      11.112      10.885    
  10.713      10.696      10.934      11.563      12.788      14.811      17.673      21.149      26.676      36.302    
  48.444      58.763      29.798      28.557      25.537      22.232      19.534      17.031      14.811      13.135    
  12.083      11.596      11.563      11.881      12.449      13.147      13.823      14.314      14.494      14.314    
  13.823      13.147      12.449      11.881      11.563      11.596      12.083      13.135      14.811      17.031    
  19.534      22.232      25.537      28.557      19.349      19.030      18.131      16.815      15.322      13.909    
  12.788      12.083      11.845      12.083      12.788      13.909      15.322      16.815      18.131      19.030    
  19.349      19.030      18.131      16.815      15.322      13.909      12.788      12.083      11.845      12.083    
  12.788      13.909      15.322      16.815      18.131      19.030      14.494      14.314      13.823      13.147    
  12.449      11.881      11.563      11.596      12.083      13.135      14.811      17.031      19.534      22.232    
  25.537      28.557      29.798      28.557      25.537      22.232      19.534      17.031      14.811      13.135    
  12.083      11.596      11.563      11.881      12.449      13.147      13.823      14.314      11.367      11.297    
  11.112      10.885      10.713      10.696      10.934      11.563      12.788      14.811      17.673      21.149    
  26.676      36.302      48.444      58.763      62.822      58.763      48.444      36.302      26.676      21.149    
  17.673      14.811      12.788      11.563      10.934      10.696      10.713      10.885      11.112      11.297    
  9.4661      9.4724      9.4904      9.5408      9.6905      10.035      10.696      11.881      13.909      17.031    
  21.149      28.812      45.426      71.330      100.76      124.28      133.29      124.28      100.76      71.330    
  45.426      28.812      21.149      17.031      13.909      11.881      10.696      10.035      9.6905      9.5408    
  9.4904      9.4724      8.3816      8.4368      8.5729      8.7688      9.0967      9.6905      10.713      12.449    
  15.322      19.534      26.676      45.426      81.529      132.24      186.41      228.30      244.10      228.30    