unknown system                          
   1.00000000000000     
     3.635000    0.000000    0.000000
     0.000000    3.635000    0.000000
     0.000000    0.000000    3.635000
   Cu
     4
Direct
  0.000000  0.000000  0.000000
  0.500000  0.500000  0.000000
  0.500000  0.000000  0.500000
  0.000000  0.500000  0.500000
 
   32   32   32
 0.84514012752E+03 0.79651443912E+03 0.66605012018E+03 0.49197379384E+03 0.31759535749E+03
 0.17590382822E+03 0.82672774741E+02 0.36195864285E+02 0.20761357490E+02 0.15237217476E+02
 0.11641406254E+02 0.94115078798E+01 0.81243146188E+01 0.74843072068E+01 0.70887252873E+01
 0.67142043755E+01 0.65327583407E+01 0.67142043755E+01 0.70887252873E+01 0.74843072068E+01
 0.81243146188E+01 0.94115078798E+01 0.11641406254E+02 0.15237217476E+02 0.20761357490E+02
 0.36195864285E+02 0.82672774741E+02 0.17590382822E+03 0.31759535749E+03 0.49197379384E+03
 0.66605012018E+03 0.79651443912E+03 0.79651443912E+03 0.75048934877E+03 0.62700038586E+03
 0.46228658393E+03 0.29752936014E+03 0.16416710367E+03 0.77112368399E+02 0.34347380856E+02
 0.20368222241E+02 0.15039027860E+02 0.11566590013E+02 0.94274275420E+01 0.82003647507E+01
 0.75951762771E+01 0.72271453429E+01 0.68815632442E+01 0.67142043755E+01 0.68815632442E+01
 0.72271453429E+01 0.75951762771E+01 0.82003647507E+01 0.94274275420E+01 0.11566590013E+02
 0.15039027860E+02 0.20368222241E+02 0.34347380856E+02 0.77112368399E+02 0.16416710367E+03
 0.29752936014E+03 0.46228658393E+03 0.62700038586E+03 0.75048934877E+03 0.66605012018E+03
 0.62700038586E+03 0.52226188263E+03 0.38280846104E+03 0.24409816461E+03 0.13328522027E+03
 0.62821926441E+02 0.29797918011E+02 0.19348859742E+02 0.14494219634E+02 0.11366754992E+02
 0.94660838633E+01 0.83816055152E+01 0.78421681657E+01 0.75183248278E+01 0.72271453429E+01
 0.70887252873E+01 0.72271453429E+01 0.75183248278E+01 0.78421681657E+01 0.83816055152E+01
 0.94660838633E+01 0.11366754992E+02 0.14494219634E+02 0.19348859742E+02 0.29797918011E+02
 0.62821926441E+02 0.13328522027E+03 0.24409816461E+03 0.38280846104E+03 0.52226188263E+03
 0.62700038586E+03 0.49197379384E+03 0.46228658393E+03 0.38280846104E+03 0.27758233259E+03
 0.17430893639E+03 0.94054162502E+02 0.45607300212E+02 0.24780637735E+02 0.17909824952E+02
 0.13736791192E+02 0.11115661302E+02 0.95387074399E+01 0.86258574891E+01 0.81423520917E+01
 0.78421681657E+01 0.75951762771E+01 0.74843072068E+01 0.75951762771E+01 0.78421681657E+01
 0.81423520917E+01 0.86258574891E+01 0.95387074399E+01 0.11115661302E+02 0.13736791192E+02
 0.17909824952E+02 0.24780637735E+02 0.45607300212E+02 0.94054162502E+02 0.17430893639E+03
 0.27758233259E+03 0.38280846104E+03 0.46228658393E+03 0.31759535749E+03 0.29752936014E+03
 0.24409816461E+03 0.17430893639E+03 0.10767911555E+03 0.58514013645E+02 0.31428709981E+02
 0.21012923064E+02 0.16247417059E+02 0.12944662578E+02 0.10923404097E+02 0.97212932382E+01
 0.90176290486E+01 0.86258574891E+01 0.83816055152E+01 0.82003647507E+01 0.81243146188E+01
 0.82003647507E+01 0.83816055152E+01 0.86258574891E+01 0.90176290486E+01 0.97212932382E+01
 0.10923404097E+02 0.12944662578E+02 0.16247417059E+02 0.21012923064E+02 0.31428709981E+02
 0.58514013645E+02 0.10767911555E+03 0.17430893639E+03 0.24409816461E+03 0.29752936014E+03
 0.17590382822E+03 0.16416710367E+03 0.13328522027E+03 0.94054162502E+02 0.58514013645E+02
 0.34603784101E+02 0.23135429188E+02 0.18207455125E+02 0.14646155813E+02 0.12292460401E+02
 0.10907544530E+02 0.10130417838E+02 0.97212932382E+01 0.95387074399E+01 0.94660838633E+01
 0.94274275420E+01 0.94115078798E+01 0.94274275420E+01 0.94660838633E+01 0.95387074399E+01
 0.97212932382E+01 0.10130417838E+02 0.10907544530E+02 0.12292460401E+02 0.14646155813E+02
 0.18207455125E+02 0.23135429188E+02 0.34603784101E+02 0.58514013645E+02 0.94054162502E+02
 0.13328522027E+03 0.16416710367E+03 0.82672774741E+02 0.77112368399E+02 0.62821926441E+02
 0.45607300212E+02 0.31428709981E+02 0.23135429188E+02 0.18938402105E+02 0.15697077845E+02
 0.13355372140E+02 0.11924377819E+02 0.11186947767E+02 0.10907544530E+02 0.10923404097E+02
 0.11115661302E+02 0.11366754992E+02 0.11566590013E+02 0.11641406254E+02 0.11566590013E+02
 0.11366754992E+02 0.11115661302E+02 0.10923404097E+02 0.10907544530E+02 0.11186947767E+02
 0.11924377819E+02 0.13355372140E+02 0.15697077845E+02 0.18938402105E+02 0.23135429188E+02
 0.31428709981E+02 0.45607300212E+02 0.62821926441E+02 0.77112368399E+02 0.36195864285E+02
 0.34347380856E+02 0.29797918011E+02 0.24780637735E+02 0.21012923064E+02 0.18207455125E+02
 0.15697077845E+02 0.13763962598E+02 0.12535162868E+02 0.11963053263E+02 0.11924377819E+02
 0.12292460401E+02 0.12944662578E+02 0.13736791192E+02 0.14494219634E+02 0.15039027860E+02
 0.15237217476E+02 0.15039027860E+02 0.14494219634E+02 0.13736791192E+02 0.12944662578E+02
 0.12292460401E+02 0.11924377819E+02 0.11963053263E+02 0.12535162868E+02 0.13763962598E+02
 0.15697077845E+02 0.18207455125E+02 0.21012923064E+02 0.24780637735E+02 0.29797918011E+02
 0.34347380856E+02 0.20761357490E+02 0.20368222241E+02 0.19348859742E+02 0.17909824952E+02
 0.16247417059E+02 0.14646155813E+02 0.13355372140E+02 0.12535162868E+02 0.12256211246E+02
 0.12535162868E+02 0.13355372140E+02 0.14646155813E+02 0.16247417059E+02 0.17909824952E+02
 0.19348859742E+02 0.20368222241E+02 0.20761357490E+02 0.20368222241E+02 0.19348859742E+02
 0.17909824952E+02 0.16247417059E+02 0.14646155813E+02 0.13355372140E+02 0.12535162868E+02
 0.12256211246E+02 0.12535162868E+02 0.13355372140E+02 0.14646155813E+02 0.16247417059E+02
 0.17909824952E+02 0.19348859742E+02 0.20368222241E+02 0.15237217476E+02 0.15039027860E+02
 0.14494219634E+02 0.13736791192E+02 0.12944662578E+02 0.12292460401E+02 0.11924377819E+02
 0.11963053263E+02 0.12535162868E+02 0.13763962598E+02 0.15697077845E+02 0.18207455125E+02
 0.21012923064E+02 0.24780637735E+02 0.29797918011E+02 0.34347380856E+02 0.36195864285E+02
 0.34347380856E+02 0.29797918011E+02 0.24780637735E+02 0.21012923064E+02 0.18207455125E+02
 0.15697077845E+02 0.13763962598E+02 0.12535162868E+02 0.11963053263E+02 0.11924377819E+02
 0.12292460401E+02 0.12944662578E+02 0.13736791192E+02 0.14494219634E+02 0.15039027860E+02
 0.11641406254E+02 0.11566590013E+02 0.11366754992E+02 0.11115661302E+02 0.10923404097E+02
 0.10907544530E+02 0.11186947767E+02 0.11924377819E+02 0.13355372140E+02 0.15697077845E+02
 0.18938402105E+02 0.23135429188E+02 0.31428709981E+02 0.45607300212E+02 0.62821926441E+02
 0.77112368399E+02 0.82672774741E+02 0.77112368399E+02 0.62821926441E+02 0.45607300212E+02
 0.31428709981E+02 0.23135429188E+02 0.18938402105E+02 0.15697077845E+02 0.13355372140E+02
 0.11924377819E+02 0.11186947767E+02 0.10907544530E+02 0.10923404097E+02 0.11115661302E+02
 0.11366754992E+02 0.11566590013E+02 0.94115078798E+01 0.94274275420E+01 0.94660838633E+01
 0.95387074399E+01 0.97212932382E+01 0.10130417838E+02 0.10907544530E+02 0.12292460401E+02
 0.14646155813E+02 0.18207455125E+02 0.23135429188E+02 0.34603784101E+02 0.58514013645E+02
 0.94054162502E+02 0.13328522027E+03 0.16416710367E+03 0.17590382822E+03 0.16416710367E+03
 0.13328522027E+03 0.94054162502E+02 0.58514013645E+02 0.34603784101E+02 0.23135429188E+02
 0.18207455125E+02 0.14646155813E+02 0.12292460401E+02 0.10907544530E+02 0.10130417838E+02
 0.97212932382E+01 0.95387074399E+01 0.94660838633E+01 0.94274275420E+01 0.81243146188E+01
 0.82003647507E+01 0.83816055152E+01 0.86258574891E+01 0.90176290486E+01 0.97212932382E+01
 0.10923404097E+02 0.12944662578E+02 0.16247417059E+02 0.21012923064E+02 0.31428709981E+02
 0.58514013645E+02 0.10767911555E+03 0.17430893639E+03 0.24409816461E+03 0.29752936014E+03
 0.31759535749E+03 0.29752936014E+03 0.24409816461E+03 0.17430893639E+03 0.10767911555E+03
 0.58514013645E+02 0.31428709981E+02 0.21012923064E+02 0.16247417059E+02 0.12944662578E+02
 0.10923404097E+02 0.97212932382E+01 0.90176290486E+01 0.86258574891E+01 0.83816055152E+01
 0.82003647507E+01 0.74843072068E+01 0.75951762771E+01 0.78421681657E+01 0.81423520917E+01
 0.86258574891E+01 0.95387074399E+01 0.11115661302E+02 0.13736791192E+02 0.17909824952E+02
 0.24780637735E+02 0.45607300212E+02 0.94054162502E+02 0.17430893639E+03 0.27758233259E+03
 0.38280846104E+03 0.46228658393E+03 0.49197379384E+03 0.46228658393E+03 0.38280846104E+03
 0.27758233259E+03 0.17430893639E+03 0.94054162502E+02 0.45607300212E+02 0.24780637735E+02
 0.17909824952E+02 0.13736791192E+02 0.11115661302E+02 0.95387074399E+01 0.86258574891E+01
 0.81423520917E+01 0.78421681657E+01 0.75951762771E+01 0.70887252873E+01 0.72271453429E+01
 0.75183248278E+01 0.78421681657E+01 0.83816055152E+01 0.94660838633E+01 0.11366754992E+02
 0.14494219634E+02 0.19348859742E+02 0.29797918011E+02 0.62821926441E+02 0.13328522027E+03
 0.24409816461E+03 0.38280846104E+03 0.52226188263E+03 0.62700038586E+03 0.66605012018E+03
 0.62700038586E+03 0.52226188263E+03 0.38280846104E+03 0.24409816461E+03 0.13328522027E+03
 0.62821926441E+02 0.29797918011E+02 0.19348859742E+02 0.14494219634E+02 0.11366754992E+02
 0.94660838633E+01 0.83816055152E+01 0.78421681657E+01 0.75183248278E+01 0.72271453429E+01
 0.67142043755E+01 0.68815632442E+01 0.72271453429E+01 0.75951762771E+01 0.82003647507E+01
 0.94274275420E+01 0.11566590013E+02 0.15039027860E+02 0.20368222241E+02 0.34347380856E+02
 0.77112368399E+02 0.16416710367E+03 0.29752936014E+03 0.46228658393E+03 0.62700038586E+03
 0.75048934877E+03 0.79651443912E+03 0.75048934877E+03 0.62700038586E+03 0.46228658393E+03
 0.29752936014E+03 0.16416710367E+03 0.77112368399E+02 0.34347380856E+02 0.20368222241E+02
 0.15039027860E+02 0.11566590013E+02 0.94274275420E+01 0.82003647507E+01 0.75951762771E+01
 0.72271453429E+01 0.68815632442E+01 0.65327583407E+01 0.67142043755E+01 0.70887252873E+01
 0.74843072068E+01 0.81243146188E+01 0.94115078798E+01 0.11641406254E+02 0.15237217476E+02
 0.20761357490E+02 0.36195864285E+02 0.82672774741E+02 0.17590382822E+03 0.31759535749E+03
 0.49197379384E+03 0.66605012018E+03 0.79651443912E+03 0.84514012752E+03 0.79651443912E+03
 0.66605012018E+03 0.49197379384E+03 0.31759535749E+03 0.17590382822E+03 0.82672774741E+02
 0.36195864285E+02 0.20761357490E+02 0.15237217476E+02 0.11641406254E+02 0.94115078798E+01
 0.81243146188E+01 0.74843072068E+01 0.70887252873E+01 0.67142043755E+01 0.67142043755E+01
 0.68815632442E+01 0.72271453429E+01 0.75951762771E+01 0.82003647507E+01 0.94274275420E+01
 0.11566590013E+02 0.15039027860E+02 0.20368222241E+02 0.34347380856E+02 0.77112368399E+02
 0.16416710367E+03 0.29752936014E+03 0.46228658393E+03 0.62700038586E+03 0.75048934877E+03
 0.79651443912E+03 0.75048934877E+03 0.62700038586E+03 0.46228658393E+03 0.29752936014E+03
 0.16416710367E+03 0.77112368399E+02 0.34347380856E+02 0.20368222241E+02 0.15039027860E+02
 0.11566590013E+02 0.94274275420E+01 0.82003647507E+01 0.75951762771E+01 0.72271453429E+01
 0.68815632442E+01 0.70887252873E+01 0.72271453429E+01 0.75183248278E+01 0.78421681657E+01
 0.83816055152E+01 0.94660838633E+01 0.11366754992E+02 0.14494219634E+02 0.19348859742E+02
 0.29797918011E+02 0.62821926441E+02 0.13328522027E+03 0.24409816461E+03 0.38280846104E+03
 0.52226188263E+03 0.62700038586E+03 0.66605012018E+03 0.62700038586E+03 0.52226188263E+03
 0.38280846104E+03 0.24409816461E+03 0.13328522027E+03 0.62821926441E+02 0.29797918011E+02
 0.19348859742E+02 0.14494219634E+02 0.11366754992E+02 0.94660838633E+01 0.83816055152E+01
 0.78421681657E+01 0.75183248278E+01 0.72271453429E+01 0.74843072068E+01 0.75951762771E+01
 0.78421681657E+01 0.81423520917E+01 0.86258574891E+01 0.95387074399E+01 0.11115661302E+02
 0.13736791192E+02 0.17909824952E+02 0.24780637735E+02 0.45607300212E+02 0.94054162502E+02
 0.17430893639E+03 0.27758233259E+03 0.38280846104E+03 0.46228658393E+03 0.49197379384E+03
 0.46228658393E+03 0.38280846104E+03 0.27758233259E+03 0.17430893639E+03 0.94054162502E+02
 0.45607300212E+02 0.24780637735E+02 0.17909824952E+02 0.13736791192E+02 0.11115661302E+02
 0.95387074399E+01 0.86258574891E+01 0.81423520917E+01 0.78421681657E+01 0.75951762771E+01
 0.81243146188E+01 0.82003647507E+01 0.83816055152E+01 0.86258574891E+01 0.90176290486E+01
 0.97212932382E+01 0.10923404097E+02 0.12944662578E+02 0.16247417059E+02 0.21012923064E+02
 0.31428709981E+02 0.58514013645E+02 0.10767911555E+03 0.17430893639E+03 0.24409816461E+03
 0.29752936014E+03 0.31759535749E+03 0.29752936014E+03 0.24409816461E+03 0.17430893639E+03
 0.10767911555E+03 0.58514013645E+02 0.31428709981E+02 0.21012923064E+02 0.16247417059E+02
 0.12944662578E+02 0.10923404097E+02 0.97212932382E+01 0.90176290486E+01 0.86258574891E+01
 0.83816055152E+01 0.82003647507E+01 0.94115078798E+01 0.94274275420E+01 0.94660838633E+01
 0.95387074399E+01 0.97212932382E+01 0.10130417838E+02 0.10907544530E+02 0.12292460401E+02
 0.14646155813E+02 0.18207455125E+02 0.23135429188E+02 0.34603784101E+02 0.58514013645E+02
 0.94054162502E+02 0.13328522027E+03 0.16416710367E+03 0.17590382822E+03 0.16416710367E+03
 0.13328522027E+03 0.94054162502E+02 0.58514013645E+02 0.34603784101E+02 0.23135429188E+02
 0.18207455125E+02 0.14646155813E+02 0.12292460401E+02 0.10907544530E+02 0.10130417838E+02
 0.97212932382E+01 0.95387074399E+01 0.94660838633E+01 0.94274275420E+01 0.11641406254E+02
 0.11566590013E+02 0.11366754992E+02 0.11115661302E+02 0.10923404097E+02 0.10907544530E+02
 0.11186947767E+02 0.11924377819E+02 0.13355372140E+02 0.15697077845E+02 0.18938402105E+02
 0.23135429188E+02 0.31428709981E+02 0.45607300212E+02 0.62821926441E+02 0.77112368399E+02
 0.82672774741E+02 0.77112368399E+02 0.62821926441E+02 0.45607300212E+02 0.31428709981E+02
 0.23135429188E+02 0.18938402105E+02 0.15697077845E+02 0.13355372140E+02 0.11924377819E+02
 0.11186947767E+02 0.10907544530E+02 0.10923404097E+02 0.11115661302E+02 0.11366754992E+02
 0.11566590013E+02 0.15237217476E+02 0.15039027860E+02 0.14494219634E+02 0.13736791192E+02
 0.12944662578E+02 0.12292460401E+02 0.11924377819E+02 0.11963053263E+02 0.12535162868E+02
 0.13763962598E+02 0.15697077845E+02 0.18207455125E+02 0.21012923064E+02 0.24780637735E+02
 0.29797918011E+02 0.34347380856E+02 0.36195864285E+02 0.34347380856E+02 0.29797918011E+02
 0.24780637735E+02 0.21012923064E+02 0.18207455125E+02 0.15697077845E+02 0.13763962598E+02
 0.12535162868E+02 0.11963053263E+02 0.11924377819E+02 0.12292460401E+02 0.12944662578E+02
 0.13736791192E+02 0.14494219634E+02 0.15039027860E+02 0.20761357490E+02 0.20368222241E+02
 0.19348859742E+02 0.17909824952E+02 0.16247417059E+02 0.14646155813E+02 0.13355372140E+02
 0.12535162868E+02 0.12256211246E+02 0.12535162868E+02 0.13355372140E+02 0.14646155813E+02
 0.16247417059E+02 0.17909824952E+02 0.19348859742E+02 0.20368222241E+02 0.20761357490E+02
 0.20368222241E+02 0.19348859742E+02 0.17909824952E+02 0.16247417059E+02 0.14646155813E+02
 0.13355372140E+02 0.12535162868E+02 0.12256211246E+02 0.12535162868E+02 0.13355372140E+02
 0.14646155813E+02 0.16247417059E+02 0.17909824952E+02 0.19348859742E+02 0.20368222241E+02
 0.36195864285E+02 0.34347380856E+02 0.29797918011E+02 0.24780637735E+02 0.21012923064E+02
 0.18207455125E+02 0.15697077845E+02 0.13763962598E+02 0.12535162868E+02 0.11963053263E+02
 0.11924377819E+02 0.12292460401E+02 0.12944662578E+02 0.13736791192E+02 0.14494219634E+02
 0.15039027860E+02 0.15237217476E+02 0.15039027860E+02 0.14494219634E+02 0.13736791192E+02
 0.12944662578E+02 0.12292460401E+02 0.11924377819E+02 0.11963053263E+02 0.12535162868E+02
 0.13763962598E+02 0.15697077845E+02 0.18207455125E+02 0.21012923064E+02 0.24780637735E+02
 0.29797918011E+02 0.34347380856E+02 0.82672774741E+02 0.77112368399E+02 0.62821926441E+02
 0.45607300212E+02 0.31428709981E+02 0.23135429188E+02 0.18938402105E+02 0.15697077845E+02
 0.13355372140E+02 0.11924377819E+02 0.11186947767E+02 0.10907544530E+02 0.10923404097E+02
 0.11115661302E+02 0.11366754992E+02 0.11566590013E+02 0.11641406254E+02 0.11566590013E+02
 0.11366754992E+02 0.11115661302E+02 0.10923404097E+02 0.10907544530E+02 0.11186947767E+02
 0.11924377819E+02 0.13355372140E+02 0.15697077845E+02 0.18938402105E+02 0.23135429188E+02
 0.31428709981E+02 0.45607300212E+02 0.62821926441E+02 0.77112368399E+02 0.17590382822E+03
 0.16416710367E+03 0.13328522027E+03 0.94054162502E+02 0.58514013645E+02 0.34603784101E+02
 0.23135429188E+02 0.18207455125E+02 0.14646155813E+02 0.12292460401E+02 0.10907544530E+02
 0.10130417838E+02 0.97212932382E+01 0.95387074399E+01 0.94660838633E+01 0.94274275420E+01
 0.94115078798E+01 0.94274275420E+01 0.94660838633E+01 0.95387074399E+01 0.97212932382E+01
 0.10130417838E+02 0.10907544530E+02 0.12292460401E+02 0.14646155813E+02 0.18207455125E+02
 0.23135429188E+02 0.34603784101E+02 0.58514013645E+02 0.94054162502E+02 0.13328522027E+03
 0.16416710367E+03 0.31759535749E+03 0.29752936014E+03 0.24409816461E+03 0.17430893639E+03
 0.10767911555E+03 0.58514013645E+02 0.31428709981E+02 0.21012923064E+02 0.16247417059E+02
 0.12944662578E+02 0.10923404097E+02 0.97212932382E+01 0.90176290486E+01 0.86258574891E+01
 0.83816055152E+01 0.82003647507E+01 0.81243146188E+01 0.82003647507E+01 0.83816055152E+01
 0.86258574891E+01 0.90176290486E+01 0.97212932382E+01 0.10923404097E+02 0.12944662578E+02
 0.16247417059E+02 0.21012923064E+02 0.31428709981E+02 0.58514013645E+02 0.10767911555E+03
 0.17430893639E+03 0.24409816461E+03 0.29752936014E+03 0.49197379384E+03 0.46228658393E+03
 0.38280846104E+03 0.27758233259E+03 0.17430893639E+03 0.94054162502E+02 0.45607300212E+02
 0.24780637735E+02 0.17909824952E+02 0.13736791192E+02 0.11115661302E+02 0.95387074399E+01
 0.86258574891E+01 0.81423520917E+01 0.78421681657E+01 0.75951762771E+01 0.74843072068E+01
 0.75951762771E+01 0.78421681657E+01 0.81423520917E+01 0.86258574891E+01 0.95387074399E+01
 0.11115661302E+02 0.13736791192E+02 0.17909824952E+02 0.24780637735E+02 0.45607300212E+02
 0.94054162502E+02 0.17430893639E+03 0.27758233259E+03 0.38280846104E+03 0.46228658393E+03
 0.66605012018E+03 0.62700038586E+03 0.52226188263E+03 0.38280846104E+03 0.24409816461E+03
 0.13328522027E+03 0.62821926441E+02 0.29797918011E+02 0.19348859742E+02 0.14494219634E+02
 0.11366754992E+02 0.94660838633E+01 0.83816055152E+01 0.78421681657E+01 0.75183248278E+01
 0.72271453429E+01 0.70887252873E+01 0.72271453429E+01 0.75183248278E+01 0.78421681657E+01
 0.83816055152E+01 0.94660838633E+01 0.11366754992E+02 0.14494219634E+02 0.19348859742E+02
 0.29797918011E+02 0.62821926441E+02 0.13328522027E+03 0.24409816461E+03 0.38280846104E+03
 0.52226188263E+03 0.62700038586E+03 0.79651443912E+03 0.75048934877E+03 0.62700038586E+03
 0.46228658393E+03 0.29752936014E+03 0.16416710367E+03 0.77112368399E+02 0.34347380856E+02
 0.20368222241E+02 0.15039027860E+02 0.11566590013E+02 0.94274275420E+01 0.82003647507E+01
 0.75951762771E+01 0.72271453429E+01 0.68815632442E+01 0.67142043755E+01 0.68815632442E+01
 0.72271453429E+01 0.75951762771E+01 0.82003647507E+01 0.94274275420E+01 0.11566590013E+02
 0.15039027860E+02 0.20368222241E+02 0.34347380856E+02 0.77112368399E+02 0.16416710367E+03
 0.29752936014E+03 0.46228658393E+03 0.62700038586E+03 0.75048934877E+03 0.79651443912E+03
 0.75048934877E+03 0.62700038586E+03 0.46228658393E+03 0.29752936014E+03 0.16416710367E+03
 0.77112368399E+02 0.34347380856E+02 0.20368222241E+02 0.15039027860E+02 0.11566590013E+02
 0.94274275420E+01 0.82003647507E+01 0.75951762771E+01 0.72271453429E+01 0.68815632442E+01
 0.67142043755E+01 0.68815632442E+01 0.72271453429E+01 0.75951762771E+01 0.82003647507E+01
 0.94274275420E+01 0.11566590013E+02 0.15039027860E+02 0.20368222241E+02 0.34347380856E+02
 0.77112368399E+02 0.16416710367E+03 0.29752936014E+03 0.46228658393E+03 0.62700038586E+03
 0.75048934877E+03 0.75048934877E+03 0.70692644701E+03 0.59004857771E+03 0.43422388755E+03
 0.27861533828E+03 0.15317116705E+03 0.71963323607E+02 0.32670831648E+02 0.20002083865E+02
 0.14845507565E+02 0.11492816977E+02 0.94403095826E+01 0.82699416934E+01 0.76971361559E+01
 0.73545427468E+01 0.70358109030E+01 0.68815632442E+01 0.70358109030E+01 0.73545427468E+01
 0.76971361559E+01 0.82699416934E+01 0.94403095826E+01 0.11492816977E+02 0.14845507565E+02
 0.20002083865E+02 0.32670831648E+02 0.71963323607E+02 0.15317116705E+03 0.27861533828E+03
 0.43422388755E+03 0.59004857771E+03 0.70692644701E+03 0.62700038586E+03 0.59004857771E+03
 0.49095880238E+03 0.35913379513E+03 0.22829926062E+03 0.12428358595E+03 0.58763444038E+02
 0.28557493204E+02 0.19029645814E+02 0.14314450719E+02 0.11296613110E+02 0.94723604053E+01
 0.84368412026E+01 0.79251818255E+01 0.76230408845E+01 0.73545427468E+01 0.72271453429E+01
 0.73545427468E+01 0.76230408845E+01 0.79251818255E+01 0.84368412026E+01 0.94723604053E+01
 0.11296613110E+02 0.14314450719E+02 0.19029645814E+02 0.28557493204E+02 0.58763444038E+02
 0.12428358595E+03 0.22829926062E+03 0.35913379513E+03 0.49095880238E+03 0.59004857771E+03
 0.46228658393E+03 0.43422388755E+03 0.35913379513E+03 0.25985827621E+03 0.16272999125E+03
 0.87718211636E+02 0.42951847403E+02 0.24040462949E+02 0.17621696064E+02 0.13578311584E+02
 0.11051564813E+02 0.95379102053E+01 0.86655421332E+01 0.82061634787E+01 0.79251818255E+01
 0.76971361559E+01 0.75951762771E+01 0.76971361559E+01 0.79251818255E+01 0.82061634787E+01
 0.86655421332E+01 0.95379102053E+01 0.11051564813E+02 0.13578311584E+02 0.17621696064E+02
 0.24040462949E+02 0.42951847403E+02 0.87718211636E+02 0.16272999125E+03 0.25985827621E+03
 0.35913379513E+03 0.43422388755E+03 0.29752936014E+03 0.27861533828E+03 0.22829926062E+03
 0.16272999125E+03 0.10041368403E+03 0.54815862687E+02 0.30052310773E+02 0.20611581443E+02
 0.16002503322E+02 0.12811097683E+02 0.10864805978E+02 0.97109337529E+01 0.90380157793E+01
 0.86655421332E+01 0.84368412026E+01 0.82699416934E+01 0.82003647507E+01 0.82699416934E+01
 0.84368412026E+01 0.86655421332E+01 0.90380157793E+01 0.97109337529E+01 0.10864805978E+02
 0.12811097683E+02 0.16002503322E+02 0.20611581443E+02 0.30052310773E+02 0.54815862687E+02
 0.10041368403E+03 0.16272999125E+03 0.22829926062E+03 0.27861533828E+03 0.16416710367E+03
 0.15317116705E+03 0.12428358595E+03 0.87718211636E+02 0.54815862687E+02 0.32934221914E+02
 0.22571032529E+02 0.17898977362E+02 0.14450391193E+02 0.12181543394E+02 0.10849041229E+02
 0.10102632167E+02 0.97109337529E+01 0.95379102053E+01 0.94723604053E+01 0.94403095826E+01
 0.94274275420E+01 0.94403095826E+01 0.94723604053E+01 0.95379102053E+01 0.97109337529E+01
 0.10102632167E+02 0.10849041229E+02 0.12181543394E+02 0.14450391193E+02 0.17898977362E+02
 0.22571032529E+02 0.32934221914E+02 0.54815862687E+02 0.87718211636E+02 0.12428358595E+03
 0.15317116705E+03 0.77112368399E+02 0.71963323607E+02 0.58763444038E+02 0.42951847403E+02
 0.30052310773E+02 0.22571032529E+02 0.18607466119E+02 0.15463203260E+02 0.13204388369E+02
 0.11827389371E+02 0.11117917508E+02 0.10849041229E+02 0.10864805978E+02 0.11051564813E+02
 0.11296613110E+02 0.11492816977E+02 0.11566590013E+02 0.11492816977E+02 0.11296613110E+02
 0.11051564813E+02 0.10864805978E+02 0.10849041229E+02 0.11117917508E+02 0.11827389371E+02
 0.13204388369E+02 0.15463203260E+02 0.18607466119E+02 0.22571032529E+02 0.30052310773E+02
 0.42951847403E+02 0.58763444038E+02 0.71963323607E+02 0.34347380856E+02 0.32670831648E+02
 0.28557493204E+02 0.24040462949E+02 0.20611581443E+02 0.17898977362E+02 0.15463203260E+02
 0.13597371371E+02 0.12415028531E+02 0.11864970660E+02 0.11827389371E+02 0.12181543394E+02
 0.12811097683E+02 0.13578311584E+02 0.14314450719E+02 0.14845507565E+02 0.15039027860E+02
 0.14845507565E+02 0.14314450719E+02 0.13578311584E+02 0.12811097683E+02 0.12181543394E+02
 0.11827389371E+02 0.11864970660E+02 0.12415028531E+02 0.13597371371E+02 0.15463203260E+02
 0.17898977362E+02 0.20611581443E+02 0.24040462949E+02 0.28557493204E+02 0.32670831648E+02
 0.20368222241E+02 0.20002083865E+02 0.19029645814E+02 0.17621696064E+02 0.16002503322E+02
 0.14450391193E+02 0.13204388369E+02 0.12415028531E+02 0.12147001699E+02 0.12415028531E+02
 0.13204388369E+02 0.14450391193E+02 0.16002503322E+02 0.17621696064E+02 0.19029645814E+02
 0.20002083865E+02 0.20368222241E+02 0.20002083865E+02 0.19029645814E+02 0.17621696064E+02
 0.16002503322E+02 0.14450391193E+02 0.13204388369E+02 0.12415028531E+02 0.12147001699E+02
 0.12415028531E+02 0.13204388369E+02 0.14450391193E+02 0.16002503322E+02 0.17621696064E+02
 0.19029645814E+02 0.20002083865E+02 0.15039027860E+02 0.14845507565E+02 0.14314450719E+02
 0.13578311584E+02 0.12811097683E+02 0.12181543394E+02 0.11827389371E+02 0.11864970660E+02
 0.12415028531E+02 0.13597371371E+02 0.15463203260E+02 0.17898977362E+02 0.20611581443E+02
 0.24040462949E+02 0.28557493204E+02 0.32670831648E+02 0.34347380856E+02 0.32670831648E+02
 0.28557493204E+02 0.24040462949E+02 0.20611581443E+02 0.17898977362E+02 0.15463203260E+02
 0.13597371371E+02 0.12415028531E+02 0.11864970660E+02 0.11827389371E+02 0.12181543394E+02
 0.12811097683E+02 0.13578311584E+02 0.14314450719E+02 0.14845507565E+02 0.11566590013E+02
 0.11492816977E+02 0.11296613110E+02 0.11051564813E+02 0.10864805978E+02 0.10849041229E+02
 0.11117917508E+02 0.11827389371E+02 0.13204388369E+02 0.15463203260E+02 0.18607466119E+02
 0.22571032529E+02 0.30052310773E+02 0.42951847403E+02 0.58763444038E+02 0.71963323607E+02
 0.77112368399E+02 0.71963323607E+02 0.58763444038E+02 0.42951847403E+02 0.30052310773E+02
 0.22571032529E+02 0.18607466119E+02 0.15463203260E+02 0.13204388369E+02 0.11827389371E+02
 0.11117917508E+02 0.10849041229E+02 0.10864805978E+02 0.11051564813E+02 0.11296613110E+02
 0.11492816977E+02 0.94274275420E+01 0.94403095826E+01 0.94723604053E+01 0.95379102053E+01
 0.97109337529E+01 0.10102632167E+02 0.10849041229E+02 0.12181543394E+02 0.14450391193E+02
 0.17898977362E+02 0.22571032529E+02 0.32934221914E+02 0.54815862687E+02 0.87718211636E+02
 0.12428358595E+03 0.15317116705E+03 0.16416710367E+03 0.15317116705E+03 0.12428358595E+03
 0.87718211636E+02 0.54815862687E+02 0.32934221914E+02 0.22571032529E+02 0.17898977362E+02
 0.14450391193E+02 0.12181543394E+02 0.10849041229E+02 0.10102632167E+02 0.97109337529E+01
 0.95379102053E+01 0.94723604053E+01 0.94403095826E+01 0.82003647507E+01 0.82699416934E+01
 0.84368412026E+01 0.86655421332E+01 0.90380157793E+01 0.97109337529E+01 0.10864805978E+02
 0.12811097683E+02 0.16002503322E+02 0.20611581443E+02 0.30052310773E+02 0.54815862687E+02
 0.10041368403E+03 0.16272999125E+03 0.22829926062E+03 0.27861533828E+03 0.29752936014E+03
 0.27861533828E+03 0.22829926062E+03 0.16272999125E+03 0.10041368403E+03 0.54815862687E+02
 0.30052310773E+02 0.20611581443E+02 0.16002503322E+02 0.12811097683E+02 0.10864805978E+02
 0.97109337529E+01 0.90380157793E+01 0.86655421332E+01 0.84368412026E+01 0.82699416934E+01
 0.75951762771E+01 0.76971361559E+01 0.79251818255E+01 0.82061634787E+01 0.86655421332E+01
 0.95379102053E+01 0.11051564813E+02 0.13578311584E+02 0.17621696064E+02 0.24040462949E+02
 0.42951847403E+02 0.87718211636E+02 0.16272999125E+03 0.25985827621E+03 0.35913379513E+03
 0.43422388755E+03 0.46228658393E+03 0.43422388755E+03 0.35913379513E+03 0.25985827621E+03
 0.16272999125E+03 0.87718211636E+02 0.42951847403E+02 0.24040462949E+02 0.17621696064E+02
 0.13578311584E+02 0.11051564813E+02 0.95379102053E+01 0.86655421332E+01 0.82061634787E+01
 0.79251818255E+01 0.76971361559E+01 0.72271453429E+01 0.73545427468E+01 0.76230408845E+01
 0.79251818255E+01 0.84368412026E+01 0.94723604053E+01 0.11296613110E+02 0.14314450719E+02
 0.19029645814E+02 0.28557493204E+02 0.58763444038E+02 0.12428358595E+03 0.22829926062E+03
 0.35913379513E+03 0.49095880238E+03 0.59004857771E+03 0.62700038586E+03 0.59004857771E+03
 0.49095880238E+03 0.35913379513E+03 0.22829926062E+03 0.12428358595E+03 0.58763444038E+02
 0.28557493204E+02 0.19029645814E+02 0.14314450719E+02 0.11296613110E+02 0.94723604053E+01
 0.84368412026E+01 0.79251818255E+01 0.76230408845E+01 0.73545427468E+01 0.68815632442E+01
 0.70358109030E+01 0.73545427468E+01 0.76971361559E+01 0.82699416934E+01 0.94403095826E+01
 0.11492816977E+02 0.14845507565E+02 0.20002083865E+02 0.32670831648E+02 0.71963323607E+02
 0.15317116705E+03 0.27861533828E+03 0.43422388755E+03 0.59004857771E+03 0.70692644701E+03
 0.75048934877E+03 0.70692644701E+03 0.59004857771E+03 0.43422388755E+03 0.27861533828E+03
 0.15317116705E+03 0.71963323607E+02 0.32670831648E+02 0.20002083865E+02 0.14845507565E+02
 0.11492816977E+02 0.94403095826E+01 0.82699416934E+01 0.76971361559E+01 0.73545427468E+01
 0.70358109030E+01 0.67142043755E+01 0.68815632442E+01 0.72271453429E+01 0.75951762771E+01
 0.82003647507E+01 0.94274275420E+01 0.11566590013E+02 0.15039027860E+02 0.20368222241E+02
 0.34347380856E+02 0.77112368399E+02 0.16416710367E+03 0.29752936014E+03 0.46228658393E+03
 0.62700038586E+03 0.75048934877E+03 0.79651443912E+03 0.75048934877E+03 0.62700038586E+03
 0.46228658393E+03 0.29752936014E+03 0.16416710367E+03 0.77112368399E+02 0.34347380856E+02
 0.20368222241E+02 0.15039027860E+02 0.11566590013E+02 0.94274275420E+01 0.82003647507E+01
 0.75951762771E+01 0.72271453429E+01 0.68815632442E+01 0.68815632442E+01 0.70358109030E+01
 0.73545427468E+01 0.76971361559E+01 0.82699416934E+01 0.94403095826E+01 0.11492816977E+02
 0.14845507565E+02 0.20002083865E+02 0.32670831648E+02 0.71963323607E+02 0.15317116705E+03
 0.27861533828E+03 0.43422388755E+03 0.59004857771E+03 0.70692644701E+03 0.75048934877E+03
 0.70692644701E+03 0.59004857771E+03 0.43422388755E+03 0.27861533828E+03 0.15317116705E+03
 0.71963323607E+02 0.32670831648E+02 0.20002083865E+02 0.14845507565E+02 0.11492816977E+02
 0.94403095826E+01 0.82699416934E+01 0.76971361559E+01 0.73545427468E+01 0.70358109030E+01
 0.72271453429E+01 0.73545427468E+01 0.76230408845E+01 0.79251818255E+01 0.84368412026E+01
 0.94723604053E+01 0.11296613110E+02 0.14314450719E+02 0.19029645814E+02 0.28557493204E+02
 0.58763444038E+02 0.12428358595E+03 0.22829926062E+03 0.35913379513E+03 0.49095880238E+03
 0.59004857771E+03 0.62700038586E+03 0.59004857771E+03 0.49095880238E+03 0.35913379513E+03
 0.22829926062E+03 0.12428358595E+03 0.58763444038E+02 0.28557493204E+02 0.19029645814E+02