   4   4   0   0
  0.1200752E+02  0.3635000E-09  0.3635000E-09  0.3635000E-09  0.5000000E-15
  1.000000000000000E-004
  CAR 
 unknown system                          
     28.80794972     -3.84703095  301      7.22597867      1.00000000
     -3.847  0.0000E+00  0.0000E+00
     -3.738  0.0000E+00  0.0000E+00
     -3.629  0.0000E+00  0.0000E+00
     -3.520 -0.4972E-31 -0.5412E-32
     -3.412 -0.3119E-27 -0.3396E-28
     -3.303 -0.1077E-23 -0.1173E-24
     -3.194 -0.2045E-20 -0.2227E-21
     -3.085 -0.2132E-17 -0.2323E-18
     -2.976 -0.1181E-14 -0.1288E-15
     -2.867 -0.3674E-12 -0.4012E-13
     -2.759 -0.6221E-10 -0.6812E-11
     -2.650 -0.5705E-08 -0.6278E-09
     -2.541 -0.2808E-06 -0.3119E-07
     -2.432 -0.7298E-05 -0.8256E-06
     -2.323 -0.9715E-04 -0.1140E-04
     -2.214 -0.6173E-03 -0.7860E-04
     -2.105 -0.1493E-02 -0.2411E-03
     -1.997  0.6831E-03 -0.1667E-03
     -1.888  0.9003E-02  0.8132E-03
     -1.779  0.2738E-01  0.3794E-02
     -1.670  0.7699E-01  0.1217E-01
     -1.561  0.1410E+00  0.2752E-01
     -1.452  0.2054E+00  0.4988E-01
     -1.343  0.2820E+00  0.8058E-01
     -1.235  0.2767E+00  0.1107E+00
     -1.126  0.2197E+00  0.1346E+00
     -1.017  0.1727E+00  0.1534E+00
     -0.908  0.1351E+00  0.1681E+00
     -0.799  0.2027E+00  0.1902E+00
     -0.690  0.4343E+00  0.2375E+00
     -0.582  0.6307E+00  0.3061E+00
     -0.473  0.6690E+00  0.3789E+00
     -0.364  0.5802E+00  0.4421E+00
     -0.255  0.2713E+00  0.4716E+00
     -0.146  0.2965E-01  0.4749E+00
     -0.037  0.1048E+00  0.4863E+00
      0.072  0.3455E+00  0.5239E+00
      0.180  0.6227E+00  0.5917E+00
      0.289  0.7783E+00  0.6764E+00
      0.398  0.7256E+00  0.7554E+00
      0.507  0.6931E+00  0.8308E+00
      0.616  0.7223E+00  0.9094E+00
      0.725  0.6537E+00  0.9806E+00
      0.834  0.3907E+00  0.1023E+01
      0.942  0.2611E+00  0.1052E+01
      1.051  0.6293E+00  0.1120E+01
      1.160  0.1228E+01  0.1254E+01
      1.269  0.1279E+01  0.1393E+01
      1.378  0.6150E+00  0.1460E+01
      1.487  0.2399E+00  0.1486E+01
      1.595  0.6425E+00  0.1556E+01
      1.704  0.1097E+01  0.1675E+01
      1.813  0.1181E+01  0.1804E+01
      1.922  0.1246E+01  0.1939E+01
      2.031  0.1339E+01  0.2085E+01
      2.140  0.1569E+01  0.2256E+01
      2.249  0.2028E+01  0.2477E+01
      2.357  0.2166E+01  0.2712E+01
      2.466  0.2308E+01  0.2964E+01
      2.575  0.3141E+01  0.3306E+01
      2.684  0.4165E+01  0.3759E+01
      2.793  0.4680E+01  0.4268E+01
      2.902  0.5036E+01  0.4816E+01
      3.011  0.5857E+01  0.5454E+01
      3.119  0.6377E+01  0.6148E+01
      3.228  0.7234E+01  0.6935E+01
      3.337  0.9257E+01  0.7943E+01
      3.446  0.9887E+01  0.9019E+01
      3.555  0.8862E+01  0.9984E+01
      3.664  0.8659E+01  0.1093E+02
      3.772  0.8750E+01  0.1188E+02
      3.881  0.8569E+01  0.1281E+02
      3.990  0.9527E+01  0.1385E+02
      4.099  0.1215E+02  0.1517E+02
      4.208  0.1416E+02  0.1671E+02
      4.317  0.1419E+02  0.1826E+02
      4.426  0.1457E+02  0.1984E+02
      4.534  0.1643E+02  0.2163E+02
      4.643  0.1736E+02  0.2352E+02
      4.752  0.1498E+02  0.2515E+02
      4.861  0.1157E+02  0.2641E+02
      4.970  0.1071E+02  0.2758E+02
      5.079  0.1227E+02  0.2891E+02
      5.188  0.1473E+02  0.3051E+02
      5.296  0.1528E+02  0.3218E+02
      5.405  0.1334E+02  0.3363E+02
      5.514  0.1323E+02  0.3507E+02
      5.623  0.1676E+02  0.3689E+02
      5.732  0.2061E+02  0.3914E+02
      5.841  0.1797E+02  0.4109E+02
      5.949  0.8542E+01  0.4202E+02
      6.058  0.1506E+01  0.4219E+02
      6.167  0.3851E+00  0.4223E+02
      6.276  0.1788E+01  0.4242E+02
      6.385  0.2585E+01  0.4270E+02
      6.494  0.2019E+01  0.4292E+02
      6.603  0.9790E+00  0.4303E+02
      6.711  0.2623E+00  0.4306E+02
      6.820  0.3109E+00  0.4309E+02
      6.929  0.1168E+01  0.4322E+02
      7.038  0.2656E+01  0.4351E+02
      7.147  0.3134E+01  0.4385E+02
      7.256  0.1629E+01  0.4403E+02
      7.365  0.3506E+00  0.4407E+02
      7.473  0.5364E+00  0.4412E+02
      7.582  0.1223E+01  0.4426E+02
      7.691  0.1360E+01  0.4441E+02
      7.800  0.6594E+00  0.4448E+02
      7.909  0.1139E+00  0.4449E+02
      8.018  0.4950E+00  0.4454E+02
      8.126  0.1375E+01  0.4469E+02
      8.235  0.1856E+01  0.4490E+02
      8.344  0.1382E+01  0.4505E+02
      8.453  0.5848E+00  0.4511E+02
      8.562  0.9286E+00  0.4521E+02
      8.671  0.2353E+01  0.4547E+02
      8.780  0.2842E+01  0.4578E+02
      8.888  0.1631E+01  0.4595E+02
      8.997  0.3040E+00  0.4599E+02
      9.106 -0.1253E+00  0.4597E+02
      9.215  0.1986E-01  0.4598E+02
      9.324  0.4037E+00  0.4602E+02
      9.433  0.6923E+00  0.4609E+02
      9.542  0.8540E+00  0.4619E+02
      9.650  0.1109E+01  0.4631E+02
      9.759  0.9528E+00  0.4641E+02
      9.868  0.6982E+00  0.4649E+02
      9.977  0.1385E+01  0.4664E+02
     10.086  0.1846E+01  0.4684E+02
     10.195  0.1048E+01  0.4695E+02
     10.303  0.4246E+00  0.4700E+02
     10.412  0.4501E+00  0.4705E+02
     10.521  0.2848E+00  0.4708E+02
     10.630  0.1433E+00  0.4710E+02
     10.739  0.6084E+00  0.4716E+02
     10.848  0.1369E+01  0.4731E+02
     10.957  0.1520E+01  0.4748E+02
     11.065  0.8832E+00  0.4757E+02
     11.174  0.6320E+00  0.4764E+02
     11.283  0.1049E+01  0.4776E+02
     11.392  0.1106E+01  0.4788E+02
     11.501  0.9074E+00  0.4797E+02
     11.610  0.1072E+01  0.4809E+02
     11.719  0.1130E+01  0.4821E+02
     11.827  0.6091E+00  0.4828E+02
     11.936  0.2672E+00  0.4831E+02
     12.045  0.6137E+00  0.4838E+02
     12.154  0.1156E+01  0.4850E+02
     12.263  0.1336E+01  0.4865E+02
     12.372  0.1468E+01  0.4881E+02
     12.480  0.1798E+01  0.4900E+02
     12.589  0.1888E+01  0.4921E+02
     12.698  0.1628E+01  0.4939E+02
     12.807  0.1548E+01  0.4955E+02
     12.916  0.1401E+01  0.4971E+02
     13.025  0.7756E+00  0.4979E+02
     13.134  0.6202E+00  0.4986E+02
     13.242  0.9922E+00  0.4997E+02
     13.351  0.8014E+00  0.5005E+02
     13.460  0.5426E+00  0.5011E+02
     13.569  0.9245E+00  0.5021E+02
     13.678  0.9957E+00  0.5032E+02
     13.787  0.6194E+00  0.5039E+02
     13.896  0.5647E+00  0.5045E+02
     14.004  0.6600E+00  0.5052E+02
     14.113  0.6457E+00  0.5059E+02
     14.222  0.6690E+00  0.5067E+02
     14.331  0.9377E+00  0.5077E+02
     14.440  0.1248E+01  0.5090E+02
     14.549  0.1479E+01  0.5106E+02
     14.657  0.1999E+01  0.5128E+02
     14.766  0.2605E+01  0.5157E+02
     14.875  0.2402E+01  0.5183E+02
     14.984  0.1420E+01  0.5198E+02
     15.093  0.5381E+00  0.5204E+02
     15.202  0.2635E+00  0.5207E+02
     15.311  0.6937E+00  0.5214E+02
     15.419  0.1432E+01  0.5230E+02
     15.528  0.1855E+01  0.5250E+02
     15.637  0.1527E+01  0.5267E+02
     15.746  0.8584E+00  0.5276E+02
     15.855  0.4994E+00  0.5282E+02
     15.964  0.6974E+00  0.5289E+02
     16.073  0.1077E+01  0.5301E+02
     16.181  0.9924E+00  0.5312E+02
     16.290  0.1072E+01  0.5323E+02
     16.399  0.1640E+01  0.5341E+02
     16.508  0.1752E+01  0.5360E+02
     16.617  0.1606E+01  0.5378E+02
     16.726  0.2033E+01  0.5400E+02
     16.834  0.2448E+01  0.5427E+02
     16.943  0.2744E+01  0.5456E+02
     17.052  0.2965E+01  0.5489E+02
     17.161  0.2187E+01  0.5513E+02
     17.270  0.9109E+00  0.5522E+02
     17.379  0.2225E+00  0.5525E+02
     17.488  0.3140E+00  0.5528E+02
     17.596  0.7246E+00  0.5536E+02
     17.705  0.1364E+01  0.5551E+02
     17.814  0.2339E+01  0.5576E+02
     17.923  0.2644E+01  0.5605E+02
     18.032  0.1781E+01  0.5625E+02
     18.141  0.8908E+00  0.5634E+02
     18.250  0.8350E+00  0.5643E+02
     18.358  0.1576E+01  0.5661E+02
     18.467  0.2139E+01  0.5684E+02
     18.576  0.1520E+01  0.5700E+02
     18.685  0.6429E+00  0.5707E+02
     18.794  0.5692E+00  0.5714E+02
     18.903  0.8776E+00  0.5723E+02
     19.011  0.1226E+01  0.5736E+02
     19.120  0.1694E+01  0.5755E+02
     19.229  0.1921E+01  0.5776E+02
     19.338  0.1446E+01  0.5792E+02
     19.447  0.8313E+00  0.5801E+02
     19.556  0.5560E+00  0.5807E+02
     19.665  0.5956E+00  0.5813E+02
     19.773  0.1288E+01  0.5827E+02
     19.882  0.2102E+01  0.5850E+02
     19.991  0.1930E+01  0.5871E+02
     20.100  0.9101E+00  0.5881E+02
     20.209  0.1432E+00  0.5883E+02
     20.318  0.2554E+00  0.5885E+02
     20.427  0.8006E+00  0.5894E+02
     20.535  0.9648E+00  0.5905E+02
     20.644  0.5450E+00  0.5910E+02
     20.753  0.9820E-01  0.5912E+02
     20.862  0.1516E+00  0.5913E+02
     20.971  0.5618E+00  0.5919E+02
     21.080  0.7547E+00  0.5928E+02
     21.188  0.5245E+00  0.5933E+02
     21.297  0.1723E+00  0.5935E+02
     21.406 -0.6959E-02  0.5935E+02
     21.515 -0.2333E-01  0.5935E+02
     21.624 -0.1358E-01  0.5935E+02
     21.733 -0.3792E-01  0.5934E+02
     21.842 -0.4537E-01  0.5934E+02
     21.950  0.2564E+00  0.5937E+02
     22.059  0.9214E+00  0.5947E+02
     22.168  0.1080E+01  0.5958E+02
     22.277  0.4674E+00  0.5963E+02
     22.386  0.2486E-02  0.5963E+02
     22.495 -0.5093E-01  0.5963E+02
     22.604 -0.1518E-01  0.5963E+02
     22.712 -0.1176E-01  0.5963E+02
     22.821 -0.2850E-01  0.5962E+02
     22.930  0.3222E-01  0.5963E+02
     23.039  0.3150E+00  0.5966E+02
     23.148  0.5658E+00  0.5972E+02
     23.257  0.3863E+00  0.5976E+02
     23.365  0.7079E-01  0.5977E+02
     23.474 -0.2824E-01  0.5977E+02
     23.583 -0.1383E-01  0.5977E+02
     23.692 -0.2190E-02  0.5977E+02
     23.801 -0.1755E-03  0.5977E+02
     23.910 -0.3051E-03  0.5977E+02
     24.019 -0.3465E-02  0.5977E+02
     24.127 -0.1817E-01  0.5976E+02
     24.236 -0.2339E-01  0.5976E+02
     24.345  0.1230E+00  0.5978E+02
     24.454  0.4551E+00  0.5982E+02
     24.563  0.5432E+00  0.5988E+02
     24.672  0.2401E+00  0.5991E+02
     24.781  0.3267E-02  0.5991E+02
     24.889 -0.2575E-01  0.5991E+02
     24.998 -0.7139E-02  0.5991E+02
     25.107 -0.8116E-03  0.5991E+02
     25.216 -0.4532E-04  0.5991E+02
     25.325 -0.1315E-05  0.5991E+02
     25.434 -0.2030E-07  0.5991E+02
     25.542 -0.1689E-09  0.5991E+02
     25.651 -0.7674E-12  0.5991E+02
     25.760 -0.1466E-11  0.5991E+02
     25.869 -0.2891E-09  0.5991E+02
     25.978 -0.3096E-07  0.5991E+02
     26.087 -0.1784E-05  0.5991E+02
     26.196 -0.5455E-04  0.5991E+02
     26.304 -0.8601E-03  0.5991E+02
     26.413 -0.6541E-02  0.5991E+02
     26.522 -0.1882E-01  0.5990E+02
     26.631  0.1881E-01  0.5991E+02
     26.740  0.2040E+00  0.5993E+02
     26.849  0.3762E+00  0.5997E+02
     26.958  0.2632E+00  0.6000E+02
     27.066  0.5089E-01  0.6000E+02
     27.175 -0.1864E-01  0.6000E+02
     27.284 -0.9544E-02  0.6000E+02
     27.393 -0.1543E-02  0.6000E+02
     27.502 -0.1166E-03  0.6000E+02
     27.611 -0.4490E-05  0.6000E+02
     27.719 -0.9127E-07  0.6000E+02
     27.828 -0.9954E-09  0.6000E+02
     27.937 -0.5879E-11  0.6000E+02
     28.046 -0.1903E-13  0.6000E+02
     28.155  0.0000E+00  0.6000E+02
     28.264  0.0000E+00  0.6000E+02
     28.373  0.0000E+00  0.6000E+02
     28.481  0.0000E+00  0.6000E+02
     28.590  0.0000E+00  0.6000E+02
     28.699  0.0000E+00  0.6000E+02
     28.808  0.0000E+00  0.6000E+02
