    4    4    1    1
  0.1200752E+02  0.3635000E-09  0.3635000E-09  0.3635000E-09  0.5000000E-15
  1.000000000000000E-004
  CAR 
 unknown system                          
     44     20     30
 
  0.0000000E+00  0.0000000E+00  0.0000000E+00  0.2915452E-02
    1       -1.847031   1.000000
    2        2.601281   1.000000
    3        2.601281   1.000000
    4        2.601281   1.000000
    5        3.046852   1.000000
    6        3.046852   1.000000
    7        3.046852   1.000000
    8        4.404663   1.000000
    9        4.404663   1.000000
   10        4.404663   1.000000
   11        5.210313   1.000000
   12        5.210313   1.000000
   13        5.745532   1.000000
   14        5.745532   1.000000
   15        5.745532   1.000000
   16        5.897504   1.000000
   17        5.897504   1.000000
   18        5.897504   1.000000
   19        5.897504   1.000000
   20        5.897504   1.000000
   21        5.897504   1.000000
   22        8.889634  -0.000000
   23        8.889634  -0.000000
   24        8.889634  -0.000000
   25       14.379510   0.000000
   26       14.379510   0.000000
   27       14.379510   0.000000
   28       20.331645   0.000000
   29       20.331645   0.000000
   30       20.331645   0.000000
 
  0.1428571E+00  0.0000000E+00  0.0000000E+00  0.1749271E-01
    1       -1.602530   1.000000
    2        2.589112   1.000000
    3        2.712328   1.000000
    4        2.712328   1.000000
    5        3.110748   1.000000
    6        3.114894   1.000000
    7        3.114894   1.000000
    8        4.333770   1.000000
    9        4.461698   1.000000
   10        4.461698   1.000000
   11        5.146600   1.000000
   12        5.236227   1.000000
   13        5.521030   1.000000
   14        5.521030   1.000000
   15        5.662842   1.000000
   16        5.662842   1.000000
   17        5.718515   1.000000
   18        5.800527   1.000000
   19        5.800527   1.000000
   20        5.897700   1.000000
   21        5.897700   1.000000
   22        7.617153  -0.009196
   23        9.486263  -0.000000
   24        9.486263  -0.000000
   25       14.471656   0.000000
   26       14.471656   0.000000
   27       16.143198   0.000000
   28       18.966788   0.000000
   29       18.966788   0.000000
   30       19.398036   0.000000
 
  0.2857143E+00  0.0000000E+00  0.0000000E+00  0.1749271E-01
    1       -0.885575   1.000000
    2        2.387092   1.000000
    3        2.995461   1.000000
    4        2.995461   1.000000
    5        3.290919   1.000000
    6        3.322385   1.000000
    7        3.322385   1.000000
    8        4.137287   1.000000
    9        4.628627   1.000000
   10        4.628627   1.000000
   11        4.828571   1.000000
   12        4.828571   1.000000
   13        4.978202   1.000000
   14        5.309157   1.000000
   15        5.442221   1.000000
   16        5.442221   1.000000
   17        5.545622   1.000000
   18        5.545622   1.000000
   19        5.642933   1.000000
   20        5.772306   1.000000
   21        5.897941   1.000000
   22        5.897941   1.000000
   23       10.834389  -0.000000
   24       10.834389  -0.000000
   25       14.772882   0.000000
   26       14.772882   0.000000
   27       16.725745   0.000000
   28       16.725745   0.000000
   29       17.768594   0.000000
   30       17.768594   0.000000
 
  0.4285714E+00  0.0000000E+00  0.0000000E+00  0.1749271E-01
    1        0.234980   1.000000
    2        1.530085   1.000000
    3        3.277272   1.000000
    4        3.277272   1.000000
    5        3.556677   1.000000
    6        3.677238   1.000000
    7        3.677238   1.000000
    8        3.858589   1.000000
    9        4.184309   1.000000
   10        4.184309   1.000000
   11        4.795259   1.000000
   12        4.854744   1.000000
   13        4.890449   1.000000
   14        4.890449   1.000000
   15        5.210213   1.000000
   16        5.210213   1.000000
   17        5.215143   1.000000
   18        5.215143   1.000000
   19        5.415402   1.000000
   20        5.534707   1.000000
   21        5.898218   1.000000
   22        5.898218   1.000000
   23       12.557094  -0.000000
   24       12.557094  -0.000000
   25       14.541015   0.000000
   26       14.541015   0.000000
   27       15.337760   0.000000
   28       15.337760   0.000000
   29       16.399890   0.000000
   30       16.399890   0.000000
 
  0.1428571E+00  0.1428571E+00  0.0000000E+00  0.3498542E-01
    1       -1.361053   1.000000
    2        2.708494   1.000000
    3        2.708494   1.000000
    4        2.815603   1.000000
    5        3.174908   1.000000
    6        3.174908   1.000000
    7        3.176052   1.000000
    8        4.298056   1.000000
    9        4.487963   1.000000
   10        4.501004   1.000000
   11        5.132155   1.000000
   12        5.230834   1.000000
   13        5.295921   1.000000
   14        5.346374   1.000000
   15        5.346374   1.000000
   16        5.590050   1.000000
   17        5.669985   1.000000
   18        5.669985   1.000000
   19        5.799864   1.000000
   20        5.799864   1.000000
   21        5.834416   1.000000
   22        8.196846  -0.000000
   23        8.196846  -0.000000
   24        9.995987  -0.000000
   25       14.562987   0.000000
   26       16.295852   0.000000
   27       16.295852   0.000000
   28       16.675156   0.000000
   29       19.280603   0.000000
   30       19.280603   0.000000
 
  0.2857143E+00  0.1428571E+00  0.0000000E+00  0.6997085E-01
    1       -0.654115   1.000000
    2        2.532002   1.000000
    3        3.016762   1.000000
    4        3.081682   1.000000
    5        3.344580   1.000000
    6        3.356484   1.000000
    7        3.370688   1.000000
    8        4.131031   1.000000
    9        4.599497   1.000000
   10        4.636930   1.000000
   11        4.662430   1.000000
   12        4.743373   1.000000
   13        4.926278   1.000000
   14        5.013727   1.000000
   15        5.322361   1.000000
   16        5.393385   1.000000
   17        5.454571   1.000000
   18        5.544122   1.000000
   19        5.580674   1.000000
   20        5.798394   1.000000
   21        5.801485   1.000000
   22        6.498063   1.000002
   23        9.352083  -0.000000
   24       11.240206  -0.000000
   25       14.278876   0.000000
   26       14.992370   0.000000
   27       16.773095   0.000000
   28       17.025518   0.000000
   29       18.031233   0.000000
   30       19.757046   0.000000
 
  0.4285714E+00  0.1428571E+00  0.0000000E+00  0.6997085E-01
    1        0.447002   1.000000
    2        1.710379   1.000000
    3        3.340295   1.000000
    4        3.368265   1.000000
    5        3.593618   1.000000
    6        3.630695   1.000000
    7        3.703097   1.000000
    8        3.875085   1.000000
    9        4.062731   1.000000
   10        4.170745   1.000000
   11        4.578983   1.000000
   12        4.607026   1.000000
   13        4.892706   1.000000
   14        5.033992   1.000000
   15        5.190661   1.000000
   16        5.214396   1.000000
   17        5.218058   1.000000
   18        5.321784   1.000000
   19        5.482155   1.000000
   20        5.733766   1.000000
   21        5.795803   1.000000
   22        5.796574   1.000000
   23       10.750645  -0.000000
   24       12.385761  -0.000000
   25       12.902046   0.000000
   26       14.853161   0.000000
   27       15.558408   0.000000
   28       16.559328   0.000000
   29       17.670243   0.000000
   30       18.924953   0.000000
 
  0.2857143E+00  0.2857143E+00  0.0000000E+00  0.3498542E-01
    1        0.019467   1.000000
    2        2.914605   1.000000
    3        2.914605   1.000000
    4        3.287950   1.000000
    5        3.469383   1.000000
    6        3.505839   1.000000
    7        3.505839   1.000000
    8        4.065858   1.000000
    9        4.338925   1.000000
   10        4.338925   1.000000
   11        4.482953   1.000000
   12        4.562424   1.000000
   13        4.716710   1.000000
   14        4.968587   1.000000
   15        5.252322   1.000000
   16        5.389220   1.000000
   17        5.389220   1.000000
   18        5.479635   1.000000
   19        5.541795   1.000000
   20        5.541795   1.000000
   21        5.650534   1.000000
   22        7.449577  -0.033436
   23        7.449577  -0.033436
   24       11.953232  -0.000000
   25       12.319227  -0.000000
   26       15.333679   0.000000
   27       17.879834   0.000000
   28       17.879834   0.000000
   29       18.749830   0.000000
   30       18.749830   0.000000
 
  0.4285714E+00  0.2857143E+00  0.0000000E+00  0.6997085E-01
    1        1.051803   1.000000
    2        2.200410   1.000000
    3        3.353051   1.000000
    4        3.500173   1.000000
    5        3.610547   1.000000
    6        3.699208   1.000000
    7        3.770835   1.000000
    8        3.889434   1.000000
    9        3.905924   1.000000
   10        4.118749   1.000000
   11        4.273800   1.000000
   12        4.452634   1.000000
   13        4.922492   1.000000
   14        4.974267   1.000000
   15        5.104208   1.000000
   16        5.163071   1.000000
   17        5.179887   1.000000
   18        5.220005   1.000000
   19        5.545386   1.000000
   20        5.571158   1.000000
   21        5.785988   1.000000
   22        6.312368   1.000000
   23        8.589982  -0.000000
   24       10.050153  -0.000000
   25       13.859940   0.000000
   26       15.737185   0.000000
   27       16.055353   0.000000
   28       17.188306   0.000000
   29       19.190702   0.000000
   30       19.948645   0.000000
 
  0.4285714E+00  0.4285714E+00  0.0000000E+00  0.3498542E-01
    1        1.930481   1.000000
    2        2.817021   1.000000
    3        2.817021   1.000000
    4        3.271330   1.000000
    5        3.852424   1.000000
    6        3.852424   1.000000
    7        3.885706   1.000000
    8        3.906155   1.000000
    9        4.008595   1.000000
   10        4.076654   1.000000
   11        4.076654   1.000000
   12        4.321961   1.000000
   13        4.874125   1.000000
   14        4.967081   1.000000
   15        4.988370   1.000000
   16        4.988370   1.000000
   17        5.034806   1.000000
   18        5.258054   1.000000
   19        5.258054   1.000000
   20        5.368664   1.000000
   21        6.279271   1.000000
   22        7.103338   0.925852
   23        7.103338   0.925852
   24        8.282913  -0.000000
   25       15.289520   0.000000
   26       16.926065   0.000000
   27       17.086893   0.000000
   28       17.086893   0.000000
   29       18.221007   0.000000
   30       18.221007   0.000000
 
  0.1428571E+00  0.1428571E+00  0.1428571E+00  0.2332362E-01
    1       -1.123356   1.000000
    2        2.816029   1.000000
    3        2.816029   1.000000
    4        2.816029   1.000000
    5        3.233756   1.000000
    6        3.233756   1.000000
    7        3.233756   1.000000
    8        4.271016   1.000000
    9        4.515942   1.000000
   10        4.515942   1.000000
   11        5.141753   1.000000
   12        5.141753   1.000000
   13        5.141753   1.000000
   14        5.180579   1.000000
   15        5.180579   1.000000
   16        5.486157   1.000000
   17        5.486157   1.000000
   18        5.486157   1.000000
   19        5.832397   1.000000
   20        5.832397   1.000000
   21        5.832397   1.000000
   22        8.640423  -0.000000
   23        8.640423  -0.000000
   24        8.640423  -0.000000
   25       16.438351   0.000000
   26       16.438351   0.000000
   27       16.438351   0.000000
   28       16.981575   0.000000
   29       16.981575   0.000000
   30       16.981575   0.000000
 
  0.2857143E+00  0.1428571E+00  0.1428571E+00  0.6997085E-01
    1       -0.428835   1.000000
    2        2.652666   1.000000
    3        3.091095   1.000000
    4        3.091095   1.000000
    5        3.399577   1.000000
    6        3.406346   1.000000
    7        3.406346   1.000000
    8        4.134100   1.000000
    9        4.589684   1.000000
   10        4.607527   1.000000
   11        4.610779   1.000000
   12        4.610779   1.000000
   13        4.740455   1.000000
   14        5.091090   1.000000
   15        5.258285   1.000000
   16        5.309293   1.000000
   17        5.323191   1.000000
   18        5.323191   1.000000
   19        5.775189   1.000000
   20        5.789852   1.000000
   21        5.789852   1.000000
   22        6.835195   1.009252
   23        9.657848  -0.000000
   24        9.657848  -0.000000
   25       14.667225   0.000000
   26       14.667225   0.000000
   27       16.967789   0.000000
   28       16.967789   0.000000
   29       17.796690   0.000000
   30       19.976160   0.000000
 
  0.4285714E+00  0.1428571E+00  0.1428571E+00  0.6997085E-01
    1        0.646842   1.000000
    2        1.867430   1.000000
    3        3.413645   1.000000
    4        3.413645   1.000000
    5        3.600251   1.000000
    6        3.600251   1.000000
    7        3.640934   1.000000
    8        3.904073   1.000000
    9        4.144584   1.000000
   10        4.144584   1.000000
   11        4.480267   1.000000
   12        4.553114   1.000000
   13        4.771689   1.000000
   14        5.000130   1.000000
   15        5.146976   1.000000
   16        5.146976   1.000000
   17        5.232656   1.000000
   18        5.479392   1.000000
   19        5.648083   1.000000
   20        5.755940   1.000000
   21        5.755940   1.000000
   22        5.758283   1.000000
   23       10.917232  -0.000000
   24       10.917232  -0.000000
   25       12.802291   0.000000
   26       12.802291   0.000000
   27       17.853548   0.000000
   28       17.853548   0.000000
   29       19.090167   0.000000
   30       19.161332   0.000000
 
  0.2857143E+00  0.2857143E+00  0.1428571E+00  0.6997085E-01
    1        0.223105   1.000000
    2        2.946184   1.000000
    3        2.946184   1.000000
    4        3.236017   1.000000
    5        3.540219   1.000000
    6        3.570206   1.000000
    7        3.570206   1.000000
    8        4.102704   1.000000
    9        4.350541   1.000000
   10        4.350541   1.000000
   11        4.440958   1.000000
   12        4.556923   1.000000
   13        4.618244   1.000000
   14        5.114173   1.000000
   15        5.123001   1.000000
   16        5.123001   1.000000
   17        5.124839   1.000000
   18        5.437443   1.000000
   19        5.726045   1.000000
   20        5.730147   1.000000
   21        5.730147   1.000000
   22        7.631637  -0.007288
   23        7.631637  -0.007288
   24       10.363679  -0.000000
   25       12.442832  -0.000000
   26       15.487999   0.000000
   27       15.487999   0.000000
   28       17.515376   0.000000
   29       20.394038   0.000000
   30       20.523404   0.000000
 
  0.4285714E+00  0.2857143E+00  0.1428571E+00  0.1399417E+00
    1        1.207763   1.000000
    2        2.272523   1.000000
    3        3.230877   1.000000
    4        3.325706   1.000000
    5        3.702581   1.000000
    6        3.757236   1.000000
    7        3.795641   1.000000
    8        3.985407   1.000000
    9        4.128596   1.000000
   10        4.243805   1.000000
   11        4.293448   1.000000
   12        4.453353   1.000000
   13        4.700224   1.000000
   14        4.882617   1.000000
   15        4.974578   1.000000
   16        4.998354   1.000000
   17        5.256005   1.000000
   18        5.552556   1.000000
   19        5.649679   1.000000
   20        5.650256   1.000000
   21        5.731463   1.000000
   22        6.315153   1.000000
   23        8.694279  -0.000000
   24        9.999004  -0.000000
   25       12.137205  -0.000000
   26       13.570715   0.000000
   27       16.742978   0.000000
   28       18.384780   0.000000
   29       18.470224   0.000000
   30       19.830920   0.000000
 
  0.4285714E+00  0.4285714E+00  0.1428571E+00  0.6997085E-01
    1        1.988945   1.000000
    2        2.730140   1.000000
    3        2.730140   1.000000
    4        3.073830   1.000000
    5        3.959397   1.000000
    6        4.037290   1.000000
    7        4.037290   1.000000
    8        4.075781   1.000000
    9        4.166320   1.000000
   10        4.166320   1.000000
   11        4.254959   1.000000
   12        4.348433   1.000000
   13        4.672805   1.000000
   14        4.794696   1.000000
   15        4.794696   1.000000
   16        4.810366   1.000000
   17        5.262966   1.000000
   18        5.457762   1.000000
   19        5.457762   1.000000
   20        5.510466   1.000000
   21        6.218957   1.000000
   22        7.096223   0.940703
   23        7.096223   0.940703
   24        8.288873  -0.000000
   25       13.227113   0.000000
   26       14.783327   0.000000
   27       14.783327   0.000000
   28       16.390703   0.000000
   29       19.508057   0.000000
   30       20.961271   0.000000
 
  0.2857143E+00  0.2857143E+00  0.2857143E+00  0.2332362E-01
    1        0.798657   1.000000
    2        2.978722   1.000000
    3        2.978722   1.000000
    4        2.978722   1.000000
    5        3.771545   1.000000
    6        3.771545   1.000000
    7        3.771545   1.000000
    8        4.198918   1.000000
    9        4.373831   1.000000
   10        4.373831   1.000000
   11        4.373831   1.000000
   12        4.532764   1.000000
   13        4.532764   1.000000
   14        4.875036   1.000000
   15        4.875036   1.000000
   16        4.875036   1.000000
   17        5.373376   1.000000
   18        5.373376   1.000000
   19        5.790322   1.000000
   20        5.790322   1.000000
   21        5.790322   1.000000
   22        8.140167  -0.000000
   23        8.140167  -0.000000
   24        8.140167  -0.000000
   25       13.200720   0.000000
   26       13.200720   0.000000
   27       13.200720   0.000000
   28       18.001680   0.000000
   29       21.114392   0.000000
   30       21.114392   0.000000
 
  0.4285714E+00  0.2857143E+00  0.2857143E+00  0.6997085E-01
    1        1.616786   1.000000
    2        2.424514   1.000000
    3        2.981293   1.000000
    4        2.981293   1.000000
    5        3.943937   1.000000
    6        3.943937   1.000000
    7        4.080644   1.000000
    8        4.257869   1.000000
    9        4.359754   1.000000
   10        4.441127   1.000000
   11        4.450220   1.000000
   12        4.450220   1.000000
   13        4.547120   1.000000
   14        4.668374   1.000000
   15        4.752135   1.000000
   16        4.752135   1.000000
   17        5.583528   1.000000
   18        5.598394   1.000000
   19        5.730114   1.000000
   20        5.730114   1.000000
   21        5.748234   1.000000
   22        6.479213   1.000001
   23        8.769144  -0.000000
   24        8.769144  -0.000000
   25       11.653138  -0.000000
   26       11.653138  -0.000000
   27       14.401563   0.000000
   28       16.003794   0.000000
   29       22.077554   0.000000
   30       22.077554   0.000000
 
  0.4285714E+00  0.4285714E+00  0.2857143E+00  0.6997085E-01
    1        2.120084   1.000000
    2        2.580180   1.000000
    3        2.580180   1.000000
    4        2.755923   1.000000
    5        4.142946   1.000000
    6        4.219418   1.000000
    7        4.219418   1.000000
    8        4.394822   1.000000
    9        4.482715   1.000000
   10        4.552319   1.000000
   11        4.552319   1.000000
   12        4.586351   1.000000
   13        4.644866   1.000000
   14        4.658411   1.000000
   15        4.658411   1.000000
   16        4.714131   1.000000
   17        5.524951   1.000000
   18        5.683836   1.000000
   19        5.683836   1.000000
   20        5.688896   1.000000
   21        6.028259   1.000000
   22        7.061852   0.995140
   23        7.061852   0.995140
   24        8.043043  -0.000000
   25       11.449483  -0.000000
   26       12.584315  -0.000000
   27       12.584315  -0.000000
   28       14.063392   0.000000
   29       23.104329   0.000000
   30       24.474286   0.000000
 
  0.4285714E+00  0.4285714E+00  0.4285714E+00  0.2332362E-01
    1        2.278706   1.000000
    2        2.483307   1.000000
    3        2.483307   1.000000
    4        2.483307   1.000000
    5        4.313641   1.000000
    6        4.313641   1.000000
    7        4.313641   1.000000
    8        4.398163   1.000000
    9        4.398163   1.000000
   10        4.435646   1.000000
   11        4.435646   1.000000
   12        4.435646   1.000000
   13        5.225604   1.000000
   14        5.225604   1.000000
   15        5.225604   1.000000
   16        5.648020   1.000000
   17        5.705888   1.000000
   18        5.705888   1.000000
   19        5.764309   1.000000
   20        5.764309   1.000000
   21        5.764309   1.000000
   22        6.989193   1.035187
   23        6.989193   1.035187
   24        6.989193   1.035187
   25       11.266593  -0.000000
   26       11.266593  -0.000000
   27       11.266593  -0.000000
   28       12.300291  -0.000000
   29       26.807950   0.000000
   30       26.807950   0.000000
