unknown system                          
   1.00000000000000     
     3.635000    0.000000    0.000000
     0.000000    3.635000    0.000000
     0.000000    0.000000    3.635000
   Cu
     4
Direct
  0.000000  0.000000  0.000000
  0.500000  0.500000  0.000000
  0.500000  0.000000  0.500000
  0.000000  0.500000  0.500000
 
   24   24   24
  817.71      736.90      535.88      308.73      139.01      54.488      27.789      15.092      7.8779      6.9602    
  7.1659      5.5589      4.3395      5.5589      7.1659      6.9602      7.8779      15.092      27.789      54.488    
  139.01      308.73      535.88      736.90      736.90      663.57      481.38      276.27      124.26      49.814    
  26.486      14.400      7.8245      7.2114      7.7002      6.5361      5.5589      6.5361      7.7002      7.2114    
  7.8245      14.400      26.486      49.814      124.26      276.27      481.38      663.57      535.88      481.38    
  346.68      197.01      89.190      39.187      23.057      12.648      7.6143      7.4274      8.1623      7.7002    
  7.1659      7.7002      8.1623      7.4274      7.6143      12.648      23.057      39.187      89.190      197.01    
  346.68      481.38      308.73      276.27      197.01      111.56      53.643      29.011      18.297      10.534    
  7.2478      7.0608      7.4274      7.2114      6.9602      7.2114      7.4274      7.0608      7.2478      10.534    
  18.297      29.011      53.643      111.56      197.01      276.27      139.01      124.26      89.190      53.643    
  31.779      21.298      13.408      8.7585      7.2039      7.2478      7.6143      7.8245      7.8779      7.8245    
  7.6143      7.2478      7.2039      8.7585      13.408      21.298      31.779      53.643      89.190      124.26    
  54.488      49.814      39.187      29.011      21.298      14.349      9.7471      8.1339      8.7585      10.534    
  12.648      14.400      15.092      14.400      12.648      10.534      8.7585      8.1339      9.7471      14.349    
  21.298      29.011      39.187      49.814      27.789      26.486      23.057      18.297      13.408      9.7471    
  8.3898      9.7471      13.408      18.297      23.057      26.486      27.789      26.486      23.057      18.297    
  13.408      9.7471      8.3898      9.7471      13.408      18.297      23.057      26.486      15.092      14.400    
  12.648      10.534      8.7585      8.1339      9.7471      14.349      21.298      29.011      39.187      49.814    
  54.488      49.814      39.187      29.011      21.298      14.349      9.7471      8.1339      8.7585      10.534    
  12.648      14.400      7.8779      7.8245      7.6143      7.2478      7.2039      8.7585      13.408      21.298    
  31.779      53.643      89.190      124.26      139.01      124.26      89.190      53.643      31.779      21.298    
  13.408      8.7585      7.2039      7.2478      7.6143      7.8245      6.9602      7.2114      7.4274      7.0608    
  7.2478      10.534      18.297      29.011      53.643      111.56      197.01      276.27      308.73      276.27    
  197.01      111.56      53.643      29.011      18.297      10.534      7.2478      7.0608      7.4274      7.2114    
  7.1659      7.7002      8.1623      7.4274      7.6143      12.648      23.057      39.187      89.190      197.01    
  346.68      481.38      535.88      481.38      346.68      197.01      89.190      39.187      23.057      12.648    
  7.6143      7.4274      8.1623      7.7002      5.5589      6.5361      7.7002      7.2114      7.8245      14.400    
  26.486      49.814      124.26      276.27      481.38      663.57      736.90      663.57      481.38      276.27    
  124.26      49.814      26.486      14.400      7.8245      7.2114      7.7002      6.5361      4.3395      5.5589    
  7.1659      6.9602      7.8779      15.092      27.789      54.488      139.01      308.73      535.88      736.90    
  817.71      736.90      535.88      308.73      139.01      54.488      27.789      15.092      7.8779      6.9602    
  7.1659      5.5589      5.5589      6.5361      7.7002      7.2114      7.8245      14.400      26.486      49.814    
  124.26      276.27      481.38      663.57      736.90      663.57      481.38      276.27      124.26      49.814    
  26.486      14.400      7.8245      7.2114      7.7002      6.5361      7.1659      7.7002      8.1623      7.4274    
  7.6143      12.648      23.057      39.187      89.190      197.01      346.68      481.38      535.88      481.38    
  346.68      197.01      89.190      39.187      23.057      12.648      7.6143      7.4274      8.1623      7.7002    
  6.9602      7.2114      7.4274      7.0608      7.2478      10.534      18.297      29.011      53.643      111.56    
  197.01      276.27      308.73      276.27      197.01      111.56      53.643      29.011      18.297      10.534    
  7.2478      7.0608      7.4274      7.2114      7.8779      7.8245      7.6143      7.2478      7.2039      8.7585    
  13.408      21.298      31.779      53.643      89.190      124.26      139.01      124.26      89.190      53.643    
  31.779      21.298      13.408      8.7585      7.2039      7.2478      7.6143      7.8245      15.092      14.400    
  12.648      10.534      8.7585      8.1339      9.7471      14.349      21.298      29.011      39.187      49.814    
  54.488      49.814      39.187      29.011      21.298      14.349      9.7471      8.1339      8.7585      10.534    
  12.648      14.400      27.789      26.486      23.057      18.297      13.408      9.7471      8.3898      9.7471    
  13.408      18.297      23.057      26.486      27.789      26.486      23.057      18.297      13.408      9.7471    
  8.3898      9.7471      13.408      18.297      23.057      26.486      54.488      49.814      39.187      29.011    
  21.298      14.349      9.7471      8.1339      8.7585      10.534      12.648      14.400      15.092      14.400    
  12.648      10.534      8.7585      8.1339      9.7471      14.349      21.298      29.011      39.187      49.814    
  139.01      124.26      89.190      53.643      31.779      21.298      13.408      8.7585      7.2039      7.2478    
  7.6143      7.8245      7.8779      7.8245      7.6143      7.2478      7.2039      8.7585      13.408      21.298    
  31.779      53.643      89.190      124.26      308.73      276.27      197.01      111.56      53.643      29.011    
  18.297      10.534      7.2478      7.0608      7.4274      7.2114      6.9602      7.2114      7.4274      7.0608    
  7.2478      10.534      18.297      29.011      53.643      111.56      197.01      276.27      535.88      481.38    
  346.68      197.01      89.190      39.187      23.057      12.648      7.6143      7.4274      8.1623      7.7002    
  7.1659      7.7002      8.1623      7.4274      7.6143      12.648      23.057      39.187      89.190      197.01    
  346.68      481.38      736.90      663.57      481.38      276.27      124.26      49.814      26.486      14.400    
  7.8245      7.2114      7.7002      6.5361      5.5589      6.5361      7.7002      7.2114      7.8245      14.400    
  26.486      49.814      124.26      276.27      481.38      663.57      736.90      663.57      481.38      276.27    
  124.26      49.814      26.486      14.400      7.8245      7.2114      7.7002      6.5361      5.5589      6.5361    
  7.7002      7.2114      7.8245      14.400      26.486      49.814      124.26      276.27      481.38      663.57    
  663.57      597.06      432.07      247.07      111.16      45.767      25.285      13.760      7.7528      7.3745    
  8.0829      7.2996      6.5361      7.2996      8.0829      7.3745      7.7528      13.760      25.285      45.767    
  111.16      247.07      432.07      597.06      481.38      432.07      310.45      176.00      80.195      36.599    
  22.043      12.154      7.5290      7.4477      8.2893      8.0829      7.7002      8.0829      8.2893      7.4477    
  7.5290      12.154      22.043      36.599      80.195      176.00      310.45      432.07      276.27      247.07    
  176.00      99.955      49.135      27.754      17.557      10.244      7.2055      7.0431      7.4477      7.3745    
  7.2114      7.3745      7.4477      7.0431      7.2055      10.244      17.557      27.754      49.135      99.955    
  176.00      247.07      124.26      111.16      80.195      49.135      30.225      20.528      13.003      8.6616    
  7.2060      7.2055      7.5290      7.7528      7.8245      7.7528      7.5290      7.2055      7.2060      8.6616    
  13.003      20.528      30.225      49.135      80.195      111.16      49.814      45.767      36.599      27.754    
  20.528      13.929      9.6262      8.1226      8.6616      10.244      12.154      13.760      14.400      13.760    
  12.154      10.244      8.6616      8.1226      9.6262      13.929      20.528      27.754      36.599      45.767    
  26.486      25.285      22.043      17.557      13.003      9.6262      8.3810      9.6262      13.003      17.557    
  22.043      25.285      26.486      25.285      22.043      17.557      13.003      9.6262      8.3810      9.6262    
  13.003      17.557      22.043      25.285      14.400      13.760      12.154      10.244      8.6616      8.1226    
  9.6262      13.929      20.528      27.754      36.599      45.767      49.814      45.767      36.599      27.754    
  20.528      13.929      9.6262      8.1226      8.6616      10.244      12.154      13.760      7.8245      7.7528    
  7.5290      7.2055      7.2060      8.6616      13.003      20.528      30.225      49.135      80.195      111.16    
  124.26      111.16      80.195      49.135      30.225      20.528      13.003      8.6616      7.2060      7.2055    
  7.5290      7.7528      7.2114      7.3745      7.4477      7.0431      7.2055      10.244      17.557      27.754    
  49.135      99.955      176.00      247.07      276.27      247.07      176.00      99.955      49.135      27.754    
  17.557      10.244      7.2055      7.0431      7.4477      7.3745      7.7002      8.0829      8.2893      7.4477    
  7.5290      12.154      22.043      36.599      80.195      176.00      310.45      432.07      481.38      432.07    
  310.45      176.00      80.195      36.599      22.043      12.154      7.5290      7.4477      8.2893      8.0829    
  6.5361      7.2996      8.0829      7.3745      7.7528      13.760      25.285      45.767      111.16      247.07    
  432.07      597.06      663.57      597.06      432.07      247.07      111.16      45.767      25.285      13.760    
  7.7528      7.3745      8.0829      7.2996      5.5589      6.5361      7.7002      7.2114      7.8245      14.400    
  26.486      49.814      124.26      276.27      481.38      663.57      736.90      663.57      481.38      276.27    
  124.26      49.814      26.486      14.400      7.8245      7.2114      7.7002      6.5361      6.5361      7.2996    
  8.0829      7.3745      7.7528      13.760      25.285      45.767      111.16      247.07      432.07      597.06    
  663.57      597.06      432.07      247.07      111.16      45.767      25.285      13.760      7.7528      7.3745    
  8.0829      7.2996      7.7002      8.0829      8.2893      7.4477      7.5290      12.154      22.043      36.599    
  80.195      176.00      310.45      432.07      481.38      432.07      310.45      176.00      80.195      36.599    
  22.043      12.154      7.5290      7.4477      8.2893      8.0829      7.2114      7.3745      7.4477      7.0431    
  7.2055      10.244      17.557      27.754      49.135      99.955      176.00      247.07      276.27      247.07    
  176.00      99.955      49.135      27.754      17.557      10.244      7.2055      7.0431      7.4477      7.3745    
  7.8245      7.7528      7.5290      7.2055      7.2060      8.6616      13.003      20.528      30.225      49.135    
  80.195      111.16      124.26      111.16      80.195      49.135      30.225      20.528      13.003      8.6616    
  7.2060      7.2055      7.5290      7.7528      14.400      13.760      12.154      10.244      8.6616      8.1226    
  9.6262      13.929      20.528      27.754      36.599      45.767      49.814      45.767      36.599      27.754    
  20.528      13.929      9.6262      8.1226      8.6616      10.244      12.154      13.760      26.486      25.285    
  22.043      17.557      13.003      9.6262      8.3810      9.6262      13.003      17.557      22.043      25.285    
  26.486      25.285      22.043      17.557      13.003      9.6262      8.3810      9.6262      13.003      17.557    
  22.043      25.285      49.814      45.767      36.599      27.754      20.528      13.929      9.6262      8.1226    
  8.6616      10.244      12.154      13.760      14.400      13.760      12.154      10.244      8.6616      8.1226    
  9.6262      13.929      20.528      27.754      36.599      45.767      124.26      111.16      80.195      49.135    
  30.225      20.528      13.003      8.6616      7.2060      7.2055      7.5290      7.7528      7.8245      7.7528    
  7.5290      7.2055      7.2060      8.6616      13.003      20.528      30.225      49.135      80.195      111.16    
  276.27      247.07      176.00      99.955      49.135      27.754      17.557      10.244      7.2055      7.0431    
  7.4477      7.3745      7.2114      7.3745      7.4477      7.0431      7.2055      10.244      17.557      27.754    
  49.135      99.955      176.00      247.07      481.38      432.07      310.45      176.00      80.195      36.599    
  22.043      12.154      7.5290      7.4477      8.2893      8.0829      7.7002      8.0829      8.2893      7.4477    
  7.5290      12.154      22.043      36.599      80.195      176.00      310.45      432.07      663.57      597.06    
  432.07      247.07      111.16      45.767      25.285      13.760      7.7528      7.3745      8.0829      7.2996    
  6.5361      7.2996      8.0829      7.3745      7.7528      13.760      25.285      45.767      111.16      247.07    
  432.07      597.06      535.88      481.38      346.68      197.01      89.190      39.187      23.057      12.648    
  7.6143      7.4274      8.1623      7.7002      7.1659      7.7002      8.1623      7.4274      7.6143      12.648    
  23.057      39.187      89.190      197.01      346.68      481.38      481.38      432.07      310.45      176.00    
  80.195      36.599      22.043      12.154      7.5290      7.4477      8.2893      8.0829      7.7002      8.0829    
  8.2893      7.4477      7.5290      12.154      22.043      36.599      80.195      176.00      310.45      432.07    
  346.68      310.45      221.73      125.42      59.270      30.735      19.292      10.933      7.3269      7.3295    
  8.1452      8.2893      8.1623      8.2893      8.1452      7.3295      7.3269      10.933      19.292      30.735    
  59.270      125.42      221.73      310.45      197.01      176.00      125.42      72.667      38.957      24.643    
  15.583      9.5230      7.1250      6.9667      7.3295      7.4477      7.4274      7.4477      7.3295      6.9667    
  7.1250      9.5230      15.583      24.643      38.957      72.667      125.42      176.00      89.190      80.195    
  59.270      38.957      26.629      18.409      11.931      8.3949      7.2101      7.1250      7.3269      7.5290    
  7.6143      7.5290      7.3269      7.1250      7.2101      8.3949      11.931      18.409      26.629      38.957    
  59.270      80.195      39.187      36.599      30.735      24.643      18.409      12.817      9.2945      8.0570    
  8.3949      9.5230      10.933      12.154      12.648      12.154      10.933      9.5230      8.3949      8.0570    
  9.2945      12.817      18.409      24.643      30.735      36.599      23.057      22.043      19.292      15.583    
  11.931      9.2945      8.3370      9.2945      11.931      15.583      19.292      22.043      23.057      22.043    
  19.292      15.583      11.931      9.2945      8.3370      9.2945      11.931      15.583      19.292      22.043    
  12.648      12.154      10.933      9.5230      8.3949      8.0570      9.2945      12.817      18.409      24.643    
  30.735      36.599      39.187      36.599      30.735      24.643      18.409      12.817      9.2945      8.0570    
  8.3949      9.5230      10.933      12.154      7.6143      7.5290      7.3269      7.1250      7.2101      8.3949    
  11.931      18.409      26.629      38.957      59.270      80.195      89.190      80.195      59.270      38.957    
  26.629      18.409      11.931      8.3949      7.2101      7.1250      7.3269      7.5290      7.4274      7.4477    
  7.3295      6.9667      7.1250      9.5230      15.583      24.643      38.957      72.667      125.42      176.00    
  197.01      176.00      125.42      72.667      38.957      24.643      15.583      9.5230      7.1250      6.9667    
  7.3295      7.4477      8.1623      8.2893      8.1452      7.3295      7.3269      10.933      19.292      30.735    
  59.270      125.42      221.73      310.45      346.68      310.45      221.73      125.42      59.270      30.735    
  19.292      10.933      7.3269      7.3295      8.1452      8.2893      7.7002      8.0829      8.2893      7.4477    
  7.5290      12.154      22.043      36.599      80.195      176.00      310.45      432.07      481.38      432.07    
  310.45      176.00      80.195      36.599      22.043      12.154      7.5290      7.4477      8.2893      8.0829    
  7.1659      7.7002      8.1623      7.4274      7.6143      12.648      23.057      39.187      89.190      197.01    
  346.68      481.38      535.88      481.38      346.68      197.01      89.190      39.187      23.057      12.648    
  7.6143      7.4274      8.1623      7.7002      7.7002      8.0829      8.2893      7.4477      7.5290      12.154    
  22.043      36.599      80.195      176.00      310.45      432.07      481.38      432.07      310.45      176.00    
  80.195      36.599      22.043      12.154      7.5290      7.4477      8.2893      8.0829      8.1623      8.2893    
  8.1452      7.3295      7.3269      10.933      19.292      30.735      59.270      125.42      221.73      310.45    
  346.68      310.45      221.73      125.42      59.270      30.735      19.292      10.933      7.3269      7.3295    
  8.1452      8.2893      7.4274      7.4477      7.3295      6.9667      7.1250      9.5230      15.583      24.643    
  38.957      72.667      125.42      176.00      197.01      176.00      125.42      72.667      38.957      24.643    
  15.583      9.5230      7.1250      6.9667      7.3295      7.4477      7.6143      7.5290      7.3269      7.1250    
  7.2101      8.3949      11.931      18.409      26.629      38.957      59.270      80.195      89.190      80.195    
  59.270      38.957      26.629      18.409      11.931      8.3949      7.2101      7.1250      7.3269      7.5290    
  12.648      12.154      10.933      9.5230      8.3949      8.0570      9.2945      12.817      18.409      24.643    
  30.735      36.599      39.187      36.599      30.735      24.643      18.409      12.817      9.2945      8.0570    
  8.3949      9.5230      10.933      12.154      23.057      22.043      19.292      15.583      11.931      9.2945    
  8.3370      9.2945      11.931      15.583      19.292      22.043      23.057      22.043      19.292      15.583    
  11.931      9.2945      8.3370      9.2945      11.931      15.583      19.292      22.043      39.187      36.599    
  30.735      24.643      18.409      12.817      9.2945      8.0570      8.3949      9.5230      10.933      12.154    
  12.648      12.154      10.933      9.5230      8.3949      8.0570      9.2945      12.817      18.409      24.643    
  30.735      36.599      89.190      80.195      59.270      38.957      26.629      18.409      11.931      8.3949    
  7.2101      7.1250      7.3269      7.5290      7.6143      7.5290      7.3269      7.1250      7.2101      8.3949    
  11.931      18.409      26.629      38.957      59.270      80.195      197.01      176.00      125.42      72.667    
  38.957      24.643      15.583      9.5230      7.1250      6.9667      7.3295      7.4477      7.4274      7.4477    
  7.3295      6.9667      7.1250      9.5230      15.583      24.643      38.957      72.667      125.42      176.00    
  346.68      310.45      221.73      125.42      59.270      30.735      19.292      10.933      7.3269      7.3295    
  8.1452      8.2893      8.1623      8.2893      8.1452      7.3295      7.3269      10.933      19.292      30.735    
  59.270      125.42      221.73      310.45      481.38      432.07      310.45      176.00      80.195      36.599    
  22.043      12.154      7.5290      7.4477      8.2893      8.0829      7.7002      8.0829      8.2893      7.4477    
  7.5290      12.154      22.043      36.599      80.195      176.00      310.45      432.07      308.73      276.27    
  197.01      111.56      53.643      29.011      18.297      10.534      7.2478      7.0608      7.4274      7.2114    
  6.9602      7.2114      7.4274      7.0608      7.2478      10.534      18.297      29.011      53.643      111.56    
  197.01      276.27      276.27      247.07      176.00      99.955      49.135      27.754      17.557      10.244    
  7.2055      7.0431      7.4477      7.3745      7.2114      7.3745      7.4477      7.0431      7.2055      10.244    
  17.557      27.754      49.135      99.955      176.00      247.07      197.01      176.00      125.42      72.667    
  38.957      24.643      15.583      9.5230      7.1250      6.9667      7.3295      7.4477      7.4274      7.4477    
  7.3295      6.9667      7.1250      9.5230      15.583      24.643      38.957      72.667      125.42      176.00    
  111.56      99.955      72.667      45.655      29.379      20.310      13.000      8.6882      7.0790      6.8526    
  6.9667      7.0431      7.0608      7.0431      6.9667      6.8526      7.0790      8.6882      13.000      20.310    
  29.379      45.655      72.667      99.955      53.643      49.135      38.957      29.379      22.203      15.468    
  10.549      8.0343      7.2071      7.0790      7.1250      7.2055      7.2478      7.2055      7.1250      7.0790    
  7.2071      8.0343      10.549      15.468      22.203      29.379      38.957      49.135      29.011      27.754    
  24.643      20.310      15.468      11.365      8.8380      7.9042      8.0343      8.6882      9.5230      10.244    
  10.534      10.244      9.5230      8.6882      8.0343      7.9042      8.8380      11.365      15.468      20.310    
  24.643      27.754      18.297      17.557      15.583      13.000      10.549      8.8380      8.2294      8.8380    
  10.549      13.000      15.583      17.557      18.297      17.557      15.583      13.000      10.549      8.8380    
  8.2294      8.8380      10.549      13.000      15.583      17.557      10.534      10.244      9.5230      8.6882    
  8.0343      7.9042      8.8380      11.365      15.468      20.310      24.643      27.754      29.011      27.754    
  24.643      20.310      15.468      11.365      8.8380      7.9042      8.0343      8.6882      9.5230      10.244    
  7.2478      7.2055      7.1250      7.0790      7.2071      8.0343      10.549      15.468      22.203      29.379    
  38.957      49.135      53.643      49.135      38.957      29.379      22.203      15.468      10.549      8.0343    
  7.2071      7.0790      7.1250      7.2055      7.0608      7.0431      6.9667      6.8526      7.0790      8.6882    
  13.000      20.310      29.379      45.655      72.667      99.955      111.56      99.955      72.667      45.655    
  29.379      20.310      13.000      8.6882      7.0790      6.8526      6.9667      7.0431      7.4274      7.4477    
  7.3295      6.9667      7.1250      9.5230      15.583      24.643      38.957      72.667      125.42      176.00    
  197.01      176.00      125.42      72.667      38.957      24.643      15.583      9.5230      7.1250      6.9667    
  7.3295      7.4477      7.2114      7.3745      7.4477      7.0431      7.2055      10.244      17.557      27.754    
  49.135      99.955      176.00      247.07      276.27      247.07      176.00      99.955      49.135      27.754    
  17.557      10.244      7.2055      7.0431      7.4477      7.3745      6.9602      7.2114      7.4274      7.0608    
  7.2478      10.534      18.297      29.011      53.643      111.56      197.01      276.27      308.73      276.27    
  197.01      111.56      53.643      29.011      18.297      10.534      7.2478      7.0608      7.4274      7.2114    
  7.2114      7.3745      7.4477      7.0431      7.2055      10.244      17.557      27.754      49.135      99.955    
  176.00      247.07      276.27      247.07      176.00      99.955      49.135      27.754      17.557      10.244    
  7.2055      7.0431      7.4477      7.3745      7.4274      7.4477      7.3295      6.9667      7.1250      9.5230    
  15.583      24.643      38.957      72.667      125.42      176.00      197.01      176.00      125.42      72.667    
  38.957      24.643      15.583      9.5230      7.1250      6.9667      7.3295      7.4477      7.0608      7.0431    
  6.9667      6.8526      7.0790      8.6882      13.000      20.310      29.379      45.655      72.667      99.955    
  111.56      99.955      72.667      45.655      29.379      20.310      13.000      8.6882      7.0790      6.8526    
  6.9667      7.0431      7.2478      7.2055      7.1250      7.0790      7.2071      8.0343      10.549      15.468    
  22.203      29.379      38.957      49.135      53.643      49.135      38.957      29.379      22.203      15.468    
  10.549      8.0343      7.2071      7.0790      7.1250      7.2055      10.534      10.244      9.5230      8.6882    
  8.0343      7.9042      8.8380      11.365      15.468      20.310      24.643      27.754      29.011      27.754    
  24.643      20.310      15.468      11.365      8.8380      7.9042      8.0343      8.6882      9.5230      10.244    
  18.297      17.557      15.583      13.000      10.549      8.8380      8.2294      8.8380      10.549      13.000    
  15.583      17.557      18.297      17.557      15.583      13.000      10.549      8.8380      8.2294      8.8380    
  10.549      13.000      15.583      17.557      29.011      27.754      24.643      20.310      15.468      11.365    
  8.8380      7.9042      8.0343      8.6882      9.5230      10.244      10.534      10.244      9.5230      8.6882    
  8.0343      7.9042      8.8380      11.365      15.468      20.310      24.643      27.754      53.643      49.135    
  38.957      29.379      22.203      15.468      10.549      8.0343      7.2071      7.0790      7.1250      7.2055    
  7.2478      7.2055      7.1250      7.0790      7.2071      8.0343      10.549      15.468      22.203      29.379    
  38.957      49.135      111.56      99.955      72.667      45.655      29.379      20.310      13.000      8.6882    
  7.0790      6.8526      6.9667      7.0431      7.0608      7.0431      6.9667      6.8526      7.0790      8.6882    
  13.000      20.310      29.379      45.655      72.667      99.955      197.01      176.00      125.42      72.667    
  38.957      24.643      15.583      9.5230      7.1250      6.9667      7.3295      7.4477      7.4274      7.4477    
  7.3295      6.9667      7.1250      9.5230      15.583      24.643      38.957      72.667      125.42      176.00    
  276.27      247.07      176.00      99.955      49.135      27.754      17.557      10.244      7.2055      7.0431    
  7.4477      7.3745      7.2114      7.3745      7.4477      7.0431      7.2055      10.244      17.557      27.754    
  49.135      99.955      176.00      247.07      139.01      124.26      89.190      53.643      31.779      21.298    
  13.408      8.7585      7.2039      7.2478      7.6143      7.8245      7.8779      7.8245      7.6143      7.2478    
  7.2039      8.7585      13.408      21.298      31.779      53.643      89.190      124.26      124.26      111.16    
  80.195      49.135      30.225      20.528      13.003      8.6616      7.2060      7.2055      7.5290      7.7528    
  7.8245      7.7528      7.5290      7.2055      7.2060      8.6616      13.003      20.528      30.225      49.135    
  80.195      111.16      89.190      80.195      59.270      38.957      26.629      18.409      11.931      8.3949    
  7.2101      7.1250      7.3269      7.5290      7.6143      7.5290      7.3269      7.1250      7.2101      8.3949    
  11.931      18.409      26.629      38.957      59.270      80.195      53.643      49.135      38.957      29.379    
  22.203      15.468      10.549      8.0343      7.2071      7.0790      7.1250      7.2055      7.2478      7.2055    
  7.1250      7.0790      7.2071      8.0343      10.549      15.468      22.203      29.379      38.957      49.135    
  31.779      30.225      26.629      22.203      17.073      12.424      9.2607      7.7289      7.2647      7.2071    
  7.2101      7.2060      7.2039      7.2060      7.2101      7.2071      7.2647      7.7289      9.2607      12.424    
  17.073      22.203      26.629      30.225      21.298      20.528      18.409      15.468      12.424      9.9379    
  8.3775      7.7323      7.7289      8.0343      8.3949      8.6616      8.7585      8.6616      8.3949      8.0343    
  7.7289      7.7323      8.3775      9.9379      12.424      15.468      18.409      20.528      13.408      13.003    