unknown system                          
   1.00000000000000     
     3.635000    0.000000    0.000000
     0.000000    3.635000    0.000000
     0.000000    0.000000    3.635000
   Cu
     4
Direct
  0.000000  0.000000  0.000000
  0.500000  0.500000  0.000000
  0.500000  0.000000  0.500000
  0.000000  0.500000  0.500000
 
   24   24   24
 0.81770589685E+03 0.73690462110E+03 0.53587573369E+03 0.30873007207E+03 0.13900765484E+03
 0.54487521464E+02 0.27789357575E+02 0.15091990233E+02 0.78779198578E+01 0.69602432564E+01
 0.71659276629E+01 0.55589112767E+01 0.43394589885E+01 0.55589112767E+01 0.71659276629E+01
 0.69602432564E+01 0.78779198578E+01 0.15091990233E+02 0.27789357575E+02 0.54487521464E+02
 0.13900765484E+03 0.30873007207E+03 0.53587573369E+03 0.73690462110E+03 0.73690462110E+03
 0.66357206702E+03 0.48138021253E+03 0.27626938462E+03 0.12425509638E+03 0.49813984499E+02
 0.26485579710E+02 0.14399755894E+02 0.78245422408E+01 0.72113629269E+01 0.77002023343E+01
 0.65360506050E+01 0.55589112767E+01 0.65360506050E+01 0.77002023343E+01 0.72113629269E+01
 0.78245422408E+01 0.14399755894E+02 0.26485579710E+02 0.49813984499E+02 0.12425509638E+03
 0.27626938462E+03 0.48138021253E+03 0.66357206702E+03 0.53587573369E+03 0.48138021253E+03
 0.34668237111E+03 0.19701421183E+03 0.89189607005E+02 0.39187411912E+02 0.23057422893E+02
 0.12648202778E+02 0.76142610052E+01 0.74273795917E+01 0.81622622620E+01 0.77002023343E+01
 0.71659276629E+01 0.77002023343E+01 0.81622622620E+01 0.74273795917E+01 0.76142610052E+01
 0.12648202778E+02 0.23057422893E+02 0.39187411912E+02 0.89189607005E+02 0.19701421183E+03
 0.34668237111E+03 0.48138021253E+03 0.30873007207E+03 0.27626938462E+03 0.19701421183E+03
 0.11156467057E+03 0.53643249259E+02 0.29011280449E+02 0.18297368333E+02 0.10534294422E+02
 0.72477622755E+01 0.70608000097E+01 0.74273795917E+01 0.72113629269E+01 0.69602432564E+01
 0.72113629269E+01 0.74273795917E+01 0.70608000097E+01 0.72477622755E+01 0.10534294422E+02
 0.18297368333E+02 0.29011280449E+02 0.53643249259E+02 0.11156467057E+03 0.19701421183E+03
 0.27626938462E+03 0.13900765484E+03 0.12425509638E+03 0.89189607005E+02 0.53643249259E+02
 0.31779021467E+02 0.21298247820E+02 0.13408150563E+02 0.87584792703E+01 0.72039003363E+01
 0.72477622755E+01 0.76142610052E+01 0.78245422408E+01 0.78779198578E+01 0.78245422408E+01
 0.76142610052E+01 0.72477622755E+01 0.72039003363E+01 0.87584792703E+01 0.13408150563E+02
 0.21298247820E+02 0.31779021467E+02 0.53643249259E+02 0.89189607005E+02 0.12425509638E+03
 0.54487521464E+02 0.49813984499E+02 0.39187411912E+02 0.29011280449E+02 0.21298247820E+02
 0.14349313158E+02 0.97471085512E+01 0.81339262687E+01 0.87584792703E+01 0.10534294422E+02
 0.12648202778E+02 0.14399755894E+02 0.15091990233E+02 0.14399755894E+02 0.12648202778E+02
 0.10534294422E+02 0.87584792703E+01 0.81339262687E+01 0.97471085512E+01 0.14349313158E+02
 0.21298247820E+02 0.29011280449E+02 0.39187411912E+02 0.49813984499E+02 0.27789357575E+02
 0.26485579710E+02 0.23057422893E+02 0.18297368333E+02 0.13408150563E+02 0.97471085512E+01
 0.83897695817E+01 0.97471085512E+01 0.13408150563E+02 0.18297368333E+02 0.23057422893E+02
 0.26485579710E+02 0.27789357575E+02 0.26485579710E+02 0.23057422893E+02 0.18297368333E+02
 0.13408150563E+02 0.97471085512E+01 0.83897695817E+01 0.97471085512E+01 0.13408150563E+02
 0.18297368333E+02 0.23057422893E+02 0.26485579710E+02 0.15091990233E+02 0.14399755894E+02
 0.12648202778E+02 0.10534294422E+02 0.87584792703E+01 0.81339262687E+01 0.97471085512E+01
 0.14349313158E+02 0.21298247820E+02 0.29011280449E+02 0.39187411912E+02 0.49813984499E+02
 0.54487521464E+02 0.49813984499E+02 0.39187411912E+02 0.29011280449E+02 0.21298247820E+02
 0.14349313158E+02 0.97471085512E+01 0.81339262687E+01 0.87584792703E+01 0.10534294422E+02
 0.12648202778E+02 0.14399755894E+02 0.78779198578E+01 0.78245422408E+01 0.76142610052E+01
 0.72477622755E+01 0.72039003363E+01 0.87584792703E+01 0.13408150563E+02 0.21298247820E+02
 0.31779021467E+02 0.53643249259E+02 0.89189607005E+02 0.12425509638E+03 0.13900765484E+03
 0.12425509638E+03 0.89189607005E+02 0.53643249259E+02 0.31779021467E+02 0.21298247820E+02
 0.13408150563E+02 0.87584792703E+01 0.72039003363E+01 0.72477622755E+01 0.76142610052E+01
 0.78245422408E+01 0.69602432564E+01 0.72113629269E+01 0.74273795917E+01 0.70608000097E+01
 0.72477622755E+01 0.10534294422E+02 0.18297368333E+02 0.29011280449E+02 0.53643249259E+02
 0.11156467057E+03 0.19701421183E+03 0.27626938462E+03 0.30873007207E+03 0.27626938462E+03
 0.19701421183E+03 0.11156467057E+03 0.53643249259E+02 0.29011280449E+02 0.18297368333E+02
 0.10534294422E+02 0.72477622755E+01 0.70608000097E+01 0.74273795917E+01 0.72113629269E+01
 0.71659276629E+01 0.77002023343E+01 0.81622622620E+01 0.74273795917E+01 0.76142610052E+01
 0.12648202778E+02 0.23057422893E+02 0.39187411912E+02 0.89189607005E+02 0.19701421183E+03
 0.34668237111E+03 0.48138021253E+03 0.53587573369E+03 0.48138021253E+03 0.34668237111E+03
 0.19701421183E+03 0.89189607005E+02 0.39187411912E+02 0.23057422893E+02 0.12648202778E+02
 0.76142610052E+01 0.74273795917E+01 0.81622622620E+01 0.77002023343E+01 0.55589112767E+01
 0.65360506050E+01 0.77002023343E+01 0.72113629269E+01 0.78245422408E+01 0.14399755894E+02
 0.26485579710E+02 0.49813984499E+02 0.12425509638E+03 0.27626938462E+03 0.48138021253E+03
 0.66357206702E+03 0.73690462110E+03 0.66357206702E+03 0.48138021253E+03 0.27626938462E+03
 0.12425509638E+03 0.49813984499E+02 0.26485579710E+02 0.14399755894E+02 0.78245422408E+01
 0.72113629269E+01 0.77002023343E+01 0.65360506050E+01 0.43394589885E+01 0.55589112767E+01
 0.71659276629E+01 0.69602432564E+01 0.78779198578E+01 0.15091990233E+02 0.27789357575E+02
 0.54487521464E+02 0.13900765484E+03 0.30873007207E+03 0.53587573369E+03 0.73690462110E+03
 0.81770589685E+03 0.73690462110E+03 0.53587573369E+03 0.30873007207E+03 0.13900765484E+03
 0.54487521464E+02 0.27789357575E+02 0.15091990233E+02 0.78779198578E+01 0.69602432564E+01
 0.71659276629E+01 0.55589112767E+01 0.55589112767E+01 0.65360506050E+01 0.77002023343E+01
 0.72113629269E+01 0.78245422408E+01 0.14399755894E+02 0.26485579710E+02 0.49813984499E+02
 0.12425509638E+03 0.27626938462E+03 0.48138021253E+03 0.66357206702E+03 0.73690462110E+03
 0.66357206702E+03 0.48138021253E+03 0.27626938462E+03 0.12425509638E+03 0.49813984499E+02
 0.26485579710E+02 0.14399755894E+02 0.78245422408E+01 0.72113629269E+01 0.77002023343E+01
 0.65360506050E+01 0.71659276629E+01 0.77002023343E+01 0.81622622620E+01 0.74273795917E+01
 0.76142610052E+01 0.12648202778E+02 0.23057422893E+02 0.39187411912E+02 0.89189607005E+02
 0.19701421183E+03 0.34668237111E+03 0.48138021253E+03 0.53587573369E+03 0.48138021253E+03
 0.34668237111E+03 0.19701421183E+03 0.89189607005E+02 0.39187411912E+02 0.23057422893E+02
 0.12648202778E+02 0.76142610052E+01 0.74273795917E+01 0.81622622620E+01 0.77002023343E+01
 0.69602432564E+01 0.72113629269E+01 0.74273795917E+01 0.70608000097E+01 0.72477622755E+01
 0.10534294422E+02 0.18297368333E+02 0.29011280449E+02 0.53643249259E+02 0.11156467057E+03
 0.19701421183E+03 0.27626938462E+03 0.30873007207E+03 0.27626938462E+03 0.19701421183E+03
 0.11156467057E+03 0.53643249259E+02 0.29011280449E+02 0.18297368333E+02 0.10534294422E+02
 0.72477622755E+01 0.70608000097E+01 0.74273795917E+01 0.72113629269E+01 0.78779198578E+01
 0.78245422408E+01 0.76142610052E+01 0.72477622755E+01 0.72039003363E+01 0.87584792703E+01
 0.13408150563E+02 0.21298247820E+02 0.31779021467E+02 0.53643249259E+02 0.89189607005E+02
 0.12425509638E+03 0.13900765484E+03 0.12425509638E+03 0.89189607005E+02 0.53643249259E+02
 0.31779021467E+02 0.21298247820E+02 0.13408150563E+02 0.87584792703E+01 0.72039003363E+01
 0.72477622755E+01 0.76142610052E+01 0.78245422408E+01 0.15091990233E+02 0.14399755894E+02
 0.12648202778E+02 0.10534294422E+02 0.87584792703E+01 0.81339262687E+01 0.97471085512E+01
 0.14349313158E+02 0.21298247820E+02 0.29011280449E+02 0.39187411912E+02 0.49813984499E+02
 0.54487521464E+02 0.49813984499E+02 0.39187411912E+02 0.29011280449E+02 0.21298247820E+02
 0.14349313158E+02 0.97471085512E+01 0.81339262687E+01 0.87584792703E+01 0.10534294422E+02
 0.12648202778E+02 0.14399755894E+02 0.27789357575E+02 0.26485579710E+02 0.23057422893E+02
 0.18297368333E+02 0.13408150563E+02 0.97471085512E+01 0.83897695817E+01 0.97471085512E+01
 0.13408150563E+02 0.18297368333E+02 0.23057422893E+02 0.26485579710E+02 0.27789357575E+02
 0.26485579710E+02 0.23057422893E+02 0.18297368333E+02 0.13408150563E+02 0.97471085512E+01
 0.83897695817E+01 0.97471085512E+01 0.13408150563E+02 0.18297368333E+02 0.23057422893E+02
 0.26485579710E+02 0.54487521464E+02 0.49813984499E+02 0.39187411912E+02 0.29011280449E+02
 0.21298247820E+02 0.14349313158E+02 0.97471085512E+01 0.81339262687E+01 0.87584792703E+01
 0.10534294422E+02 0.12648202778E+02 0.14399755894E+02 0.15091990233E+02 0.14399755894E+02
 0.12648202778E+02 0.10534294422E+02 0.87584792703E+01 0.81339262687E+01 0.97471085512E+01
 0.14349313158E+02 0.21298247820E+02 0.29011280449E+02 0.39187411912E+02 0.49813984499E+02
 0.13900765484E+03 0.12425509638E+03 0.89189607005E+02 0.53643249259E+02 0.31779021467E+02
 0.21298247820E+02 0.13408150563E+02 0.87584792703E+01 0.72039003363E+01 0.72477622755E+01
 0.76142610052E+01 0.78245422408E+01 0.78779198578E+01 0.78245422408E+01 0.76142610052E+01
 0.72477622755E+01 0.72039003363E+01 0.87584792703E+01 0.13408150563E+02 0.21298247820E+02
 0.31779021467E+02 0.53643249259E+02 0.89189607005E+02 0.12425509638E+03 0.30873007207E+03
 0.27626938462E+03 0.19701421183E+03 0.11156467057E+03 0.53643249259E+02 0.29011280449E+02
 0.18297368333E+02 0.10534294422E+02 0.72477622755E+01 0.70608000097E+01 0.74273795917E+01
 0.72113629269E+01 0.69602432564E+01 0.72113629269E+01 0.74273795917E+01 0.70608000097E+01
 0.72477622755E+01 0.10534294422E+02 0.18297368333E+02 0.29011280449E+02 0.53643249259E+02
 0.11156467057E+03 0.19701421183E+03 0.27626938462E+03 0.53587573369E+03 0.48138021253E+03
 0.34668237111E+03 0.19701421183E+03 0.89189607005E+02 0.39187411912E+02 0.23057422893E+02
 0.12648202778E+02 0.76142610052E+01 0.74273795917E+01 0.81622622620E+01 0.77002023343E+01
 0.71659276629E+01 0.77002023343E+01 0.81622622620E+01 0.74273795917E+01 0.76142610052E+01
 0.12648202778E+02 0.23057422893E+02 0.39187411912E+02 0.89189607005E+02 0.19701421183E+03
 0.34668237111E+03 0.48138021253E+03 0.73690462110E+03 0.66357206702E+03 0.48138021253E+03
 0.27626938462E+03 0.12425509638E+03 0.49813984499E+02 0.26485579710E+02 0.14399755894E+02
 0.78245422408E+01 0.72113629269E+01 0.77002023343E+01 0.65360506050E+01 0.55589112767E+01
 0.65360506050E+01 0.77002023343E+01 0.72113629269E+01 0.78245422408E+01 0.14399755894E+02
 0.26485579710E+02 0.49813984499E+02 0.12425509638E+03 0.27626938462E+03 0.48138021253E+03
 0.66357206702E+03 0.73690462110E+03 0.66357206702E+03 0.48138021253E+03 0.27626938462E+03
 0.12425509638E+03 0.49813984499E+02 0.26485579710E+02 0.14399755894E+02 0.78245422408E+01
 0.72113629269E+01 0.77002023343E+01 0.65360506050E+01 0.55589112767E+01 0.65360506050E+01
 0.77002023343E+01 0.72113629269E+01 0.78245422408E+01 0.14399755894E+02 0.26485579710E+02
 0.49813984499E+02 0.12425509638E+03 0.27626938462E+03 0.48138021253E+03 0.66357206702E+03
 0.66357206702E+03 0.59706096508E+03 0.43207273146E+03 0.24707153220E+03 0.11116217953E+03
 0.45767309605E+02 0.25285212060E+02 0.13759737973E+02 0.77527597805E+01 0.73745259992E+01
 0.80829455098E+01 0.72996088318E+01 0.65360506050E+01 0.72996088318E+01 0.80829455098E+01
 0.73745259992E+01 0.77527597805E+01 0.13759737973E+02 0.25285212060E+02 0.45767309605E+02
 0.11116217953E+03 0.24707153220E+03 0.43207273146E+03 0.59706096508E+03 0.48138021253E+03
 0.43207273146E+03 0.31044906601E+03 0.17600470607E+03 0.80194789190E+02 0.36598574581E+02
 0.22042764956E+02 0.12153855148E+02 0.75289666322E+01 0.74477016487E+01 0.82893309865E+01
 0.80829455098E+01 0.77002023343E+01 0.80829455098E+01 0.82893309865E+01 0.74477016487E+01
 0.75289666322E+01 0.12153855148E+02 0.22042764956E+02 0.36598574581E+02 0.80194789190E+02
 0.17600470607E+03 0.31044906601E+03 0.43207273146E+03 0.27626938462E+03 0.24707153220E+03
 0.17600470607E+03 0.99955453729E+02 0.49134815502E+02 0.27753688739E+02 0.17557117718E+02
 0.10243585033E+02 0.72054819811E+01 0.70430837341E+01 0.74477016487E+01 0.73745259992E+01
 0.72113629269E+01 0.73745259992E+01 0.74477016487E+01 0.70430837341E+01 0.72054819811E+01
 0.10243585033E+02 0.17557117718E+02 0.27753688739E+02 0.49134815502E+02 0.99955453729E+02
 0.17600470607E+03 0.24707153220E+03 0.12425509638E+03 0.11116217953E+03 0.80194789190E+02
 0.49134815502E+02 0.30224607585E+02 0.20528201153E+02 0.13003196769E+02 0.86616116590E+01
 0.72060147652E+01 0.72054819811E+01 0.75289666322E+01 0.77527597805E+01 0.78245422408E+01
 0.77527597805E+01 0.75289666322E+01 0.72054819811E+01 0.72060147652E+01 0.86616116590E+01
 0.13003196769E+02 0.20528201153E+02 0.30224607585E+02 0.49134815502E+02 0.80194789190E+02
 0.11116217953E+03 0.49813984499E+02 0.45767309605E+02 0.36598574581E+02 0.27753688739E+02
 0.20528201153E+02 0.13928900575E+02 0.96262114634E+01 0.81226098793E+01 0.86616116590E+01
 0.10243585033E+02 0.12153855148E+02 0.13759737973E+02 0.14399755894E+02 0.13759737973E+02
 0.12153855148E+02 0.10243585033E+02 0.86616116590E+01 0.81226098793E+01 0.96262114634E+01
 0.13928900575E+02 0.20528201153E+02 0.27753688739E+02 0.36598574581E+02 0.45767309605E+02
 0.26485579710E+02 0.25285212060E+02 0.22042764956E+02 0.17557117718E+02 0.13003196769E+02
 0.96262114634E+01 0.83810021103E+01 0.96262114634E+01 0.13003196769E+02 0.17557117718E+02
 0.22042764956E+02 0.25285212060E+02 0.26485579710E+02 0.25285212060E+02 0.22042764956E+02
 0.17557117718E+02 0.13003196769E+02 0.96262114634E+01 0.83810021103E+01 0.96262114634E+01
 0.13003196769E+02 0.17557117718E+02 0.22042764956E+02 0.25285212060E+02 0.14399755894E+02
 0.13759737973E+02 0.12153855148E+02 0.10243585033E+02 0.86616116590E+01 0.81226098793E+01
 0.96262114634E+01 0.13928900575E+02 0.20528201153E+02 0.27753688739E+02 0.36598574581E+02
 0.45767309605E+02 0.49813984499E+02 0.45767309605E+02 0.36598574581E+02 0.27753688739E+02
 0.20528201153E+02 0.13928900575E+02 0.96262114634E+01 0.81226098793E+01 0.86616116590E+01
 0.10243585033E+02 0.12153855148E+02 0.13759737973E+02 0.78245422408E+01 0.77527597805E+01
 0.75289666322E+01 0.72054819811E+01 0.72060147652E+01 0.86616116590E+01 0.13003196769E+02
 0.20528201153E+02 0.30224607585E+02 0.49134815502E+02 0.80194789190E+02 0.11116217953E+03
 0.12425509638E+03 0.11116217953E+03 0.80194789190E+02 0.49134815502E+02 0.30224607585E+02
 0.20528201153E+02 0.13003196769E+02 0.86616116590E+01 0.72060147652E+01 0.72054819811E+01
 0.75289666322E+01 0.77527597805E+01 0.72113629269E+01 0.73745259992E+01 0.74477016487E+01
 0.70430837341E+01 0.72054819811E+01 0.10243585033E+02 0.17557117718E+02 0.27753688739E+02
 0.49134815502E+02 0.99955453729E+02 0.17600470607E+03 0.24707153220E+03 0.27626938462E+03
 0.24707153220E+03 0.17600470607E+03 0.99955453729E+02 0.49134815502E+02 0.27753688739E+02
 0.17557117718E+02 0.10243585033E+02 0.72054819811E+01 0.70430837341E+01 0.74477016487E+01
 0.73745259992E+01 0.77002023343E+01 0.80829455098E+01 0.82893309865E+01 0.74477016487E+01
 0.75289666322E+01 0.12153855148E+02 0.22042764956E+02 0.36598574581E+02 0.80194789190E+02
 0.17600470607E+03 0.31044906601E+03 0.43207273146E+03 0.48138021253E+03 0.43207273146E+03
 0.31044906601E+03 0.17600470607E+03 0.80194789190E+02 0.36598574581E+02 0.22042764956E+02
 0.12153855148E+02 0.75289666322E+01 0.74477016487E+01 0.82893309865E+01 0.80829455098E+01
 0.65360506050E+01 0.72996088318E+01 0.80829455098E+01 0.73745259992E+01 0.77527597805E+01
 0.13759737973E+02 0.25285212060E+02 0.45767309605E+02 0.11116217953E+03 0.24707153220E+03
 0.43207273146E+03 0.59706096508E+03 0.66357206702E+03 0.59706096508E+03 0.43207273146E+03
 0.24707153220E+03 0.11116217953E+03 0.45767309605E+02 0.25285212060E+02 0.13759737973E+02
 0.77527597805E+01 0.73745259992E+01 0.80829455098E+01 0.72996088318E+01 0.55589112767E+01
 0.65360506050E+01 0.77002023343E+01 0.72113629269E+01 0.78245422408E+01 0.14399755894E+02
 0.26485579710E+02 0.49813984499E+02 0.12425509638E+03 0.27626938462E+03 0.48138021253E+03
 0.66357206702E+03 0.73690462110E+03 0.66357206702E+03 0.48138021253E+03 0.27626938462E+03
 0.12425509638E+03 0.49813984499E+02 0.26485579710E+02 0.14399755894E+02 0.78245422408E+01
 0.72113629269E+01 0.77002023343E+01 0.65360506050E+01 0.65360506050E+01 0.72996088318E+01
 0.80829455098E+01 0.73745259992E+01 0.77527597805E+01 0.13759737973E+02 0.25285212060E+02
 0.45767309605E+02 0.11116217953E+03 0.24707153220E+03 0.43207273146E+03 0.59706096508E+03
 0.66357206702E+03 0.59706096508E+03 0.43207273146E+03 0.24707153220E+03 0.11116217953E+03
 0.45767309605E+02 0.25285212060E+02 0.13759737973E+02 0.77527597805E+01 0.73745259992E+01
 0.80829455098E+01 0.72996088318E+01 0.77002023343E+01 0.80829455098E+01 0.82893309865E+01
 0.74477016487E+01 0.75289666322E+01 0.12153855148E+02 0.22042764956E+02 0.36598574581E+02
 0.80194789190E+02 0.17600470607E+03 0.31044906601E+03 0.43207273146E+03 0.48138021253E+03
 0.43207273146E+03 0.31044906601E+03 0.17600470607E+03 0.80194789190E+02 0.36598574581E+02
 0.22042764956E+02 0.12153855148E+02 0.75289666322E+01 0.74477016487E+01 0.82893309865E+01
 0.80829455098E+01 0.72113629269E+01 0.73745259992E+01 0.74477016487E+01 0.70430837341E+01
 0.72054819811E+01 0.10243585033E+02 0.17557117718E+02 0.27753688739E+02 0.49134815502E+02
 0.99955453729E+02 0.17600470607E+03 0.24707153220E+03 0.27626938462E+03 0.24707153220E+03
 0.17600470607E+03 0.99955453729E+02 0.49134815502E+02 0.27753688739E+02 0.17557117718E+02
 0.10243585033E+02 0.72054819811E+01 0.70430837341E+01 0.74477016487E+01 0.73745259992E+01
 0.78245422408E+01 0.77527597805E+01 0.75289666322E+01 0.72054819811E+01 0.72060147652E+01
 0.86616116590E+01 0.13003196769E+02 0.20528201153E+02 0.30224607585E+02 0.49134815502E+02
 0.80194789190E+02 0.11116217953E+03 0.12425509638E+03 0.11116217953E+03 0.80194789190E+02
 0.49134815502E+02 0.30224607585E+02 0.20528201153E+02 0.13003196769E+02 0.86616116590E+01
 0.72060147652E+01 0.72054819811E+01 0.75289666322E+01 0.77527597805E+01 0.14399755894E+02
 0.13759737973E+02 0.12153855148E+02 0.10243585033E+02 0.86616116590E+01 0.81226098793E+01
 0.96262114634E+01 0.13928900575E+02 0.20528201153E+02 0.27753688739E+02 0.36598574581E+02
 0.45767309605E+02 0.49813984499E+02 0.45767309605E+02 0.36598574581E+02 0.27753688739E+02
 0.20528201153E+02 0.13928900575E+02 0.96262114634E+01 0.81226098793E+01 0.86616116590E+01
 0.10243585033E+02 0.12153855148E+02 0.13759737973E+02 0.26485579710E+02 0.25285212060E+02
 0.22042764956E+02 0.17557117718E+02 0.13003196769E+02 0.96262114634E+01 0.83810021103E+01
 0.96262114634E+01 0.13003196769E+02 0.17557117718E+02 0.22042764956E+02 0.25285212060E+02
 0.26485579710E+02 0.25285212060E+02 0.22042764956E+02 0.17557117718E+02 0.13003196769E+02
 0.96262114634E+01 0.83810021103E+01 0.96262114634E+01 0.13003196769E+02 0.17557117718E+02
 0.22042764956E+02 0.25285212060E+02 0.49813984499E+02 0.45767309605E+02 0.36598574581E+02
 0.27753688739E+02 0.20528201153E+02 0.13928900575E+02 0.96262114634E+01 0.81226098793E+01
 0.86616116590E+01 0.10243585033E+02 0.12153855148E+02 0.13759737973E+02 0.14399755894E+02
 0.13759737973E+02 0.12153855148E+02 0.10243585033E+02 0.86616116590E+01 0.81226098793E+01
 0.96262114634E+01 0.13928900575E+02 0.20528201153E+02 0.27753688739E+02 0.36598574581E+02
 0.45767309605E+02 0.12425509638E+03 0.11116217953E+03 0.80194789190E+02 0.49134815502E+02
 0.30224607585E+02 0.20528201153E+02 0.13003196769E+02 0.86616116590E+01 0.72060147652E+01
 0.72054819811E+01 0.75289666322E+01 0.77527597805E+01 0.78245422408E+01 0.77527597805E+01
 0.75289666322E+01 0.72054819811E+01 0.72060147652E+01 0.86616116590E+01 0.13003196769E+02
 0.20528201153E+02 0.30224607585E+02 0.49134815502E+02 0.80194789190E+02 0.11116217953E+03
 0.27626938462E+03 0.24707153220E+03 0.17600470607E+03 0.99955453729E+02 0.49134815502E+02
 0.27753688739E+02 0.17557117718E+02 0.10243585033E+02 0.72054819811E+01 0.70430837341E+01
 0.74477016487E+01 0.73745259992E+01 0.72113629269E+01 0.73745259992E+01 0.74477016487E+01
 0.70430837341E+01 0.72054819811E+01 0.10243585033E+02 0.17557117718E+02 0.27753688739E+02
 0.49134815502E+02 0.99955453729E+02 0.17600470607E+03 0.24707153220E+03 0.48138021253E+03
 0.43207273146E+03 0.31044906601E+03 0.17600470607E+03 0.80194789190E+02 0.36598574581E+02
 0.22042764956E+02 0.12153855148E+02 0.75289666322E+01 0.74477016487E+01 0.82893309865E+01
 0.80829455098E+01 0.77002023343E+01 0.80829455098E+01 0.82893309865E+01 0.74477016487E+01
 0.75289666322E+01 0.12153855148E+02 0.22042764956E+02 0.36598574581E+02 0.80194789190E+02
 0.17600470607E+03 0.31044906601E+03 0.43207273146E+03 0.66357206702E+03 0.59706096508E+03
 0.43207273146E+03 0.24707153220E+03 0.11116217953E+03 0.45767309605E+02 0.25285212060E+02
 0.13759737973E+02 0.77527597805E+01 0.73745259992E+01 0.80829455098E+01 0.72996088318E+01
 0.65360506050E+01 0.72996088318E+01 0.80829455098E+01 0.73745259992E+01 0.77527597805E+01
 0.13759737973E+02 0.25285212060E+02 0.45767309605E+02 0.11116217953E+03 0.24707153220E+03
 0.43207273146E+03 0.59706096508E+03 0.53587573369E+03 0.48138021253E+03 0.34668237111E+03
 0.19701421183E+03 0.89189607005E+02 0.39187411912E+02 0.23057422893E+02 0.12648202778E+02
 0.76142610052E+01 0.74273795917E+01 0.81622622620E+01 0.77002023343E+01 0.71659276629E+01
 0.77002023343E+01 0.81622622620E+01 0.74273795917E+01 0.76142610052E+01 0.12648202778E+02
 0.23057422893E+02 0.39187411912E+02 0.89189607005E+02 0.19701421183E+03 0.34668237111E+03
 0.48138021253E+03 0.48138021253E+03 0.43207273146E+03 0.31044906601E+03 0.17600470607E+03
 0.80194789190E+02 0.36598574581E+02 0.22042764956E+02 0.12153855148E+02 0.75289666322E+01
 0.74477016487E+01 0.82893309865E+01 0.80829455098E+01 0.77002023343E+01 0.80829455098E+01
 0.82893309865E+01 0.74477016487E+01 0.75289666322E+01 0.12153855148E+02 0.22042764956E+02
 0.36598574581E+02 0.80194789190E+02 0.17600470607E+03 0.31044906601E+03 0.43207273146E+03
 0.34668237111E+03 0.31044906601E+03 0.22173116201E+03 0.12542392104E+03 0.59270095621E+02
 0.30735049411E+02 0.19291586349E+02 0.10933130299E+02 0.73269447679E+01 0.73294611493E+01
 0.81451572387E+01 0.82893309865E+01 0.81622622620E+01 0.82893309865E+01 0.81451572387E+01
 0.73294611493E+01 0.73269447679E+01 0.10933130299E+02 0.19291586349E+02 0.30735049411E+02
 0.59270095621E+02 0.12542392104E+03 0.22173116201E+03 0.31044906601E+03 0.19701421183E+03
 0.17600470607E+03 0.12542392104E+03 0.72667297531E+02 0.38956691860E+02 0.24643471291E+02
 0.15582900017E+02 0.95229777599E+01 0.71249842099E+01 0.69667366959E+01 0.73294611493E+01
 0.74477016487E+01 0.74273795917E+01 0.74477016487E+01 0.73294611493E+01 0.69667366959E+01
 0.71249842099E+01 0.95229777599E+01 0.15582900017E+02 0.24643471291E+02 0.38956691860E+02
 0.72667297531E+02 0.12542392104E+03 0.17600470607E+03 0.89189607005E+02 0.80194789190E+02
 0.59270095621E+02 0.38956691860E+02 0.26628796864E+02 0.18408758219E+02 0.11931363897E+02
 0.83949374501E+01 0.72100879483E+01 0.71249842099E+01 0.73269447679E+01 0.75289666322E+01
 0.76142610052E+01 0.75289666322E+01 0.73269447679E+01 0.71249842099E+01 0.72100879483E+01
 0.83949374501E+01 0.11931363897E+02 0.18408758219E+02 0.26628796864E+02 0.38956691860E+02
 0.59270095621E+02 0.80194789190E+02 0.39187411912E+02 0.36598574581E+02 0.30735049411E+02
 0.24643471291E+02 0.18408758219E+02 0.12816837528E+02 0.92944857148E+01 0.80570158078E+01
 0.83949374501E+01 0.95229777599E+01 0.10933130299E+02 0.12153855148E+02 0.12648202778E+02
 0.12153855148E+02 0.10933130299E+02 0.95229777599E+01 0.83949374501E+01 0.80570158078E+01
 0.92944857148E+01 0.12816837528E+02 0.18408758219E+02 0.24643471291E+02 0.30735049411E+02
 0.36598574581E+02 0.23057422893E+02 0.22042764956E+02 0.19291586349E+02 0.15582900017E+02
 0.11931363897E+02 0.92944857148E+01 0.83369779899E+01 0.92944857148E+01 0.11931363897E+02
 0.15582900017E+02 0.19291586349E+02 0.22042764956E+02 0.23057422893E+02 0.22042764956E+02
 0.19291586349E+02 0.15582900017E+02 0.11931363897E+02 0.92944857148E+01 0.83369779899E+01
 0.92944857148E+01 0.11931363897E+02 0.15582900017E+02 0.19291586349E+02 0.22042764956E+02
 0.12648202778E+02 0.12153855148E+02 0.10933130299E+02 0.95229777599E+01 0.83949374501E+01
 0.80570158078E+01 0.92944857148E+01 0.12816837528E+02 0.18408758219E+02 0.24643471291E+02
 0.30735049411E+02 0.36598574581E+02 0.39187411912E+02 0.36598574581E+02 0.30735049411E+02
 0.24643471291E+02 0.18408758219E+02 0.12816837528E+02 0.92944857148E+01 0.80570158078E+01
 0.83949374501E+01 0.95229777599E+01 0.10933130299E+02 0.12153855148E+02 0.76142610052E+01
 0.75289666322E+01 0.73269447679E+01 0.71249842099E+01 0.72100879483E+01 0.83949374501E+01
 0.11931363897E+02 0.18408758219E+02 0.26628796864E+02 0.38956691860E+02 0.59270095621E+02
 0.80194789190E+02 0.89189607005E+02 0.80194789190E+02 0.59270095621E+02 0.38956691860E+02
 0.26628796864E+02 0.18408758219E+02 0.11931363897E+02 0.83949374501E+01 0.72100879483E+01
 0.71249842099E+01 0.73269447679E+01 0.75289666322E+01 0.74273795917E+01 0.74477016487E+01
 0.73294611493E+01 0.69667366959E+01 0.71249842099E+01 0.95229777599E+01 0.15582900017E+02
 0.24643471291E+02 0.38956691860E+02 0.72667297531E+02 0.12542392104E+03 0.17600470607E+03
 0.19701421183E+03 0.17600470607E+03 0.12542392104E+03 0.72667297531E+02 0.38956691860E+02
 0.24643471291E+02 0.15582900017E+02 0.95229777599E+01 0.71249842099E+01 0.69667366959E+01
 0.73294611493E+01 0.74477016487E+01 0.81622622620E+01 0.82893309865E+01 0.81451572387E+01
 0.73294611493E+01 0.73269447679E+01 0.10933130299E+02 0.19291586349E+02 0.30735049411E+02
 0.59270095621E+02 0.12542392104E+03 0.22173116201E+03 0.31044906601E+03 0.34668237111E+03
 0.31044906601E+03 0.22173116201E+03 0.12542392104E+03 0.59270095621E+02 0.30735049411E+02
 0.19291586349E+02 0.10933130299E+02 0.73269447679E+01 0.73294611493E+01 0.81451572387E+01
 0.82893309865E+01 0.77002023343E+01 0.80829455098E+01 0.82893309865E+01 0.74477016487E+01
 0.75289666322E+01 0.12153855148E+02 0.22042764956E+02 0.36598574581E+02 0.80194789190E+02
 0.17600470607E+03 0.31044906601E+03 0.43207273146E+03 0.48138021253E+03 0.43207273146E+03
 0.31044906601E+03 0.17600470607E+03 0.80194789190E+02 0.36598574581E+02 0.22042764956E+02
 0.12153855148E+02 0.75289666322E+01 0.74477016487E+01 0.82893309865E+01 0.80829455098E+01
 0.71659276629E+01 0.77002023343E+01 0.81622622620E+01 0.74273795917E+01 0.76142610052E+01
 0.12648202778E+02 0.23057422893E+02 0.39187411912E+02 0.89189607005E+02 0.19701421183E+03
 0.34668237111E+03 0.48138021253E+03 0.53587573369E+03 0.48138021253E+03 0.34668237111E+03
 0.19701421183E+03 0.89189607005E+02 0.39187411912E+02 0.23057422893E+02 0.12648202778E+02
 0.76142610052E+01 0.74273795917E+01 0.81622622620E+01 0.77002023343E+01 0.77002023343E+01
 0.80829455098E+01 0.82893309865E+01 0.74477016487E+01 0.75289666322E+01 0.12153855148E+02
 0.22042764956E+02 0.36598574581E+02 0.80194789190E+02 0.17600470607E+03 0.31044906601E+03
 0.43207273146E+03 0.48138021253E+03 0.43207273146E+03 0.31044906601E+03 0.17600470607E+03
 0.80194789190E+02 0.36598574581E+02 0.22042764956E+02 0.12153855148E+02 0.75289666322E+01
 0.74477016487E+01 0.82893309865E+01 0.80829455098E+01 0.81622622620E+01 0.82893309865E+01
 0.81451572387E+01 0.73294611493E+01 0.73269447679E+01 0.10933130299E+02 0.19291586349E+02
 0.30735049411E+02 0.59270095621E+02 0.12542392104E+03 0.22173116201E+03 0.31044906601E+03
 0.34668237111E+03 0.31044906601E+03 0.22173116201E+03 0.12542392104E+03 0.59270095621E+02
 0.30735049411E+02 0.19291586349E+02 0.10933130299E+02 0.73269447679E+01 0.73294611493E+01
 0.81451572387E+01 0.82893309865E+01 0.74273795917E+01 0.74477016487E+01 0.73294611493E+01
 0.69667366959E+01 0.71249842099E+01 0.95229777599E+01 0.15582900017E+02 0.24643471291E+02
 0.38956691860E+02 0.72667297531E+02 0.12542392104E+03 0.17600470607E+03 0.19701421183E+03
 0.17600470607E+03 0.12542392104E+03 0.72667297531E+02 0.38956691860E+02 0.24643471291E+02
 0.15582900017E+02 0.95229777599E+01 0.71249842099E+01 0.69667366959E+01 0.73294611493E+01
 0.74477016487E+01 0.76142610052E+01 0.75289666322E+01 0.73269447679E+01 0.71249842099E+01
 0.72100879483E+01 0.83949374501E+01 0.11931363897E+02 0.18408758219E+02 0.26628796864E+02
 0.38956691860E+02 0.59270095621E+02 0.80194789190E+02 0.89189607005E+02 0.80194789190E+02
 0.59270095621E+02 0.38956691860E+02 0.26628796864E+02 0.18408758219E+02 0.11931363897E+02
 0.83949374501E+01 0.72100879483E+01 0.71249842099E+01 0.73269447679E+01 0.75289666322E+01
 0.12648202778E+02 0.12153855148E+02 0.10933130299E+02 0.95229777599E+01 0.83949374501E+01
 0.80570158078E+01 0.92944857148E+01 0.12816837528E+02 0.18408758219E+02 0.24643471291E+02
 0.30735049411E+02 0.36598574581E+02 0.39187411912E+02 0.36598574581E+02 0.30735049411E+02
 0.24643471291E+02 0.18408758219E+02 0.12816837528E+02 0.92944857148E+01 0.80570158078E+01
 0.83949374501E+01 0.95229777599E+01 0.10933130299E+02 0.12153855148E+02 0.23057422893E+02
 0.22042764956E+02 0.19291586349E+02 0.15582900017E+02 0.11931363897E+02 0.92944857148E+01
 0.83369779899E+01 0.92944857148E+01 0.11931363897E+02 0.15582900017E+02 0.19291586349E+02
 0.22042764956E+02 0.23057422893E+02 0.22042764956E+02 0.19291586349E+02 0.15582900017E+02
 0.11931363897E+02 0.92944857148E+01 0.83369779899E+01 0.92944857148E+01 0.11931363897E+02
 0.15582900017E+02 0.19291586349E+02 0.22042764956E+02 0.39187411912E+02 0.36598574581E+02
 0.30735049411E+02 0.24643471291E+02 0.18408758219E+02 0.12816837528E+02 0.92944857148E+01
 0.80570158078E+01 0.83949374501E+01 0.95229777599E+01 0.10933130299E+02 0.12153855148E+02
 0.12648202778E+02 0.12153855148E+02 0.10933130299E+02 0.95229777599E+01 0.83949374501E+01