   4   4   0   0
  0.1200752E+02  0.3635000E-09  0.3635000E-09  0.3635000E-09  0.5000000E-15
  1.000000000000000E-004
  CAR 
 unknown system                          
     27.68859218     -3.65804145  301      6.96702231      1.00000000
     -3.658  0.0000E+00  0.0000E+00
     -3.554  0.0000E+00  0.0000E+00
     -3.449  0.0000E+00  0.0000E+00
     -3.345 -0.4773E-31 -0.4987E-32
     -3.240 -0.2286E-27 -0.2389E-28
     -3.136 -0.6314E-24 -0.6600E-25
     -3.031 -0.1005E-20 -0.1051E-21
     -2.927 -0.9217E-18 -0.9641E-19
     -2.822 -0.4691E-15 -0.4911E-16
     -2.718 -0.1421E-12 -0.1489E-13
     -2.613 -0.2446E-10 -0.2570E-11
     -2.509 -0.2397E-08 -0.2531E-09
     -2.404 -0.1329E-06 -0.1414E-07
     -2.300 -0.4123E-05 -0.4449E-06
     -2.195 -0.7004E-04 -0.7764E-05
     -2.091 -0.6230E-03 -0.7286E-04
     -1.986 -0.2547E-02 -0.3390E-03
     -1.882 -0.1883E-02 -0.5357E-03
     -1.777  0.1755E-01  0.1298E-02
     -1.673  0.5330E-01  0.6867E-02
     -1.568  0.5373E-01  0.1248E-01
     -1.464  0.7920E-02  0.1331E-01
     -1.359  0.2282E-01  0.1569E-01
     -1.255  0.2032E+00  0.3693E-01
     -1.150  0.3768E+00  0.7630E-01
     -1.046  0.2609E+00  0.1036E+00
     -0.941  0.5270E-01  0.1091E+00
     -0.837  0.2027E+00  0.1302E+00
     -0.732  0.6458E+00  0.1977E+00
     -0.628  0.7167E+00  0.2726E+00
     -0.523  0.2996E+00  0.3039E+00
     -0.419  0.9360E-01  0.3137E+00
     -0.314  0.3348E+00  0.3487E+00
     -0.210  0.4969E+00  0.4006E+00
     -0.105  0.2723E+00  0.4290E+00
     -0.001  0.7166E-01  0.4365E+00
      0.104  0.2002E+00  0.4575E+00
      0.208  0.3426E+00  0.4933E+00
      0.313  0.1867E+00  0.5128E+00
      0.417  0.1852E+00  0.5321E+00
      0.522  0.8890E+00  0.6250E+00
      0.626  0.1507E+01  0.7825E+00
      0.730  0.1008E+01  0.8878E+00
      0.835  0.4121E+00  0.9309E+00
      0.939  0.9262E+00  0.1028E+01
      1.044  0.1519E+01  0.1186E+01
      1.148  0.9952E+00  0.1290E+01
      1.253  0.1706E+00  0.1308E+01
      1.357 -0.1119E+00  0.1296E+01
      1.462 -0.5076E-01  0.1291E+01
      1.566  0.2565E+00  0.1318E+01
      1.671  0.6775E+00  0.1389E+01
      1.775  0.6278E+00  0.1454E+01
      1.880  0.2323E+00  0.1479E+01
      1.984  0.4585E+00  0.1527E+01
      2.089  0.1386E+01  0.1671E+01
      2.193  0.2313E+01  0.1913E+01
      2.298  0.3128E+01  0.2240E+01
      2.402  0.3213E+01  0.2576E+01
      2.507  0.1892E+01  0.2773E+01
      2.611  0.8625E+00  0.2863E+01
      2.716  0.2464E+01  0.3121E+01
      2.820  0.5153E+01  0.3659E+01
      2.925  0.5206E+01  0.4203E+01
      3.029  0.3828E+01  0.4603E+01
      3.134  0.5601E+01  0.5188E+01
      3.238  0.9613E+01  0.6193E+01
      3.343  0.1122E+02  0.7365E+01
      3.447  0.1222E+02  0.8641E+01
      3.552  0.1584E+02  0.1030E+02
      3.656  0.2056E+02  0.1244E+02
      3.761  0.2384E+02  0.1494E+02
      3.865  0.2476E+02  0.1752E+02
      3.970  0.2287E+02  0.1991E+02
      4.074  0.1844E+02  0.2184E+02
      4.179  0.1486E+02  0.2339E+02
      4.283  0.1371E+02  0.2483E+02
      4.388  0.1437E+02  0.2633E+02
      4.492  0.1525E+02  0.2792E+02
      4.597  0.1453E+02  0.2944E+02
      4.701  0.1490E+02  0.3100E+02
      4.806  0.1656E+02  0.3273E+02
      4.910  0.1582E+02  0.3438E+02
      5.015  0.1381E+02  0.3582E+02
      5.119  0.1298E+02  0.3718E+02
      5.224  0.1344E+02  0.3858E+02
      5.328  0.1283E+02  0.3992E+02
      5.432  0.8988E+01  0.4086E+02
      5.537  0.5010E+01  0.4139E+02
      5.641  0.3599E+01  0.4176E+02
      5.746  0.3612E+01  0.4214E+02
      5.850  0.3461E+01  0.4250E+02
      5.955  0.2319E+01  0.4274E+02
      6.059  0.9257E+00  0.4284E+02
      6.164  0.2416E+00  0.4287E+02
      6.268  0.1776E-01  0.4287E+02
      6.373 -0.9964E-01  0.4286E+02
      6.477 -0.1312E+00  0.4284E+02
      6.582  0.2410E+00  0.4287E+02
      6.686  0.1441E+01  0.4302E+02
      6.791  0.3176E+01  0.4335E+02
      6.895  0.4017E+01  0.4377E+02
      7.000  0.2923E+01  0.4408E+02
      7.104  0.1646E+01  0.4425E+02
      7.209  0.1397E+01  0.4439E+02
      7.313  0.8800E+00  0.4449E+02
      7.418  0.9829E-01  0.4450E+02
      7.522  0.6410E-01  0.4450E+02
      7.627  0.8959E+00  0.4460E+02
      7.731  0.1552E+01  0.4476E+02
      7.836  0.1050E+01  0.4487E+02
      7.940  0.1597E+00  0.4489E+02
      8.045 -0.1296E+00  0.4487E+02
      8.149  0.3242E+00  0.4491E+02
      8.254  0.1189E+01  0.4503E+02
      8.358  0.1445E+01  0.4518E+02
      8.463  0.1248E+01  0.4531E+02
      8.567  0.1783E+01  0.4550E+02
      8.672  0.2109E+01  0.4572E+02
      8.776  0.1160E+01  0.4584E+02
      8.881  0.1349E+00  0.4585E+02
      8.985 -0.1119E+00  0.4584E+02
      9.090  0.7149E-01  0.4585E+02
      9.194  0.5825E+00  0.4591E+02
      9.299  0.1293E+01  0.4605E+02
      9.403  0.1340E+01  0.4619E+02
      9.508  0.1193E+01  0.4631E+02
      9.612  0.2288E+01  0.4655E+02
      9.717  0.2995E+01  0.4686E+02
      9.821  0.1673E+01  0.4704E+02
      9.925  0.4004E+00  0.4708E+02
     10.030  0.4812E+00  0.4713E+02
     10.134  0.6814E+00  0.4720E+02
     10.239  0.3388E+00  0.4724E+02
     10.343  0.1360E-01  0.4724E+02
     10.448 -0.5500E-01  0.4723E+02
     10.552 -0.5386E-01  0.4723E+02
     10.657  0.3976E-01  0.4723E+02
     10.761  0.3805E+00  0.4727E+02
     10.866  0.7119E+00  0.4734E+02
     10.970  0.8845E+00  0.4744E+02
     11.075  0.1322E+01  0.4757E+02
     11.179  0.1444E+01  0.4773E+02
     11.284  0.6574E+00  0.4779E+02
     11.388  0.2296E+00  0.4782E+02
     11.493  0.1187E+01  0.4794E+02
     11.597  0.2514E+01  0.4820E+02
     11.702  0.2458E+01  0.4846E+02
     11.806  0.1101E+01  0.4858E+02
     11.911  0.3434E-01  0.4858E+02
     12.015 -0.1917E-01  0.4858E+02
     12.120  0.7961E+00  0.4866E+02
     12.224  0.2315E+01  0.4890E+02
     12.329  0.3328E+01  0.4925E+02
     12.433  0.2294E+01  0.4949E+02
     12.538  0.6778E+00  0.4956E+02
     12.642  0.6887E+00  0.4963E+02
     12.747  0.1423E+01  0.4978E+02
     12.851  0.1255E+01  0.4991E+02
     12.956  0.7000E+00  0.4999E+02
     13.060  0.4313E+00  0.5003E+02
     13.165  0.1750E+00  0.5005E+02
     13.269 -0.7661E-01  0.5004E+02
     13.374 -0.1834E+00  0.5002E+02
     13.478  0.3282E+00  0.5006E+02
     13.583  0.1965E+01  0.5026E+02
     13.687  0.3118E+01  0.5059E+02
     13.792  0.2040E+01  0.5080E+02
     13.896  0.4389E+00  0.5085E+02
     14.001  0.8636E-03  0.5085E+02
     14.105  0.3545E+00  0.5088E+02
     14.210  0.1042E+01  0.5099E+02
     14.314  0.1536E+01  0.5115E+02
     14.419  0.1433E+01  0.5130E+02
     14.523  0.9071E+00  0.5140E+02
     14.627  0.4005E+00  0.5144E+02
     14.732  0.5393E+00  0.5150E+02
     14.836  0.1304E+01  0.5163E+02
     14.941  0.1793E+01  0.5182E+02
     15.045  0.1680E+01  0.5200E+02
     15.150  0.2001E+01  0.5220E+02
     15.254  0.2877E+01  0.5251E+02
     15.359  0.3045E+01  0.5282E+02
     15.463  0.2256E+01  0.5306E+02
     15.568  0.1026E+01  0.5317E+02
     15.672  0.6827E-01  0.5317E+02
     15.777 -0.4270E-01  0.5317E+02
     15.881  0.7007E+00  0.5324E+02
     15.986  0.1473E+01  0.5340E+02
     16.090  0.1238E+01  0.5353E+02
     16.195  0.6692E+00  0.5360E+02
     16.299  0.6519E+00  0.5366E+02
     16.404  0.7975E+00  0.5375E+02
     16.508  0.1122E+01  0.5386E+02
     16.613  0.1688E+01  0.5404E+02
     16.717  0.1842E+01  0.5423E+02
     16.822  0.1660E+01  0.5441E+02
     16.926  0.1746E+01  0.5459E+02
     17.031  0.1967E+01  0.5479E+02
     17.135  0.1988E+01  0.5500E+02
     17.240  0.1341E+01  0.5514E+02
     17.344  0.3848E+00  0.5518E+02
     17.449  0.2673E+00  0.5521E+02
     17.553  0.1083E+01  0.5532E+02
     17.658  0.1428E+01  0.5547E+02
     17.762  0.7318E+00  0.5555E+02
     17.867  0.6138E+00  0.5561E+02
     17.971  0.1924E+01  0.5581E+02
     18.076  0.3107E+01  0.5614E+02
     18.180  0.2633E+01  0.5641E+02
     18.285  0.1052E+01  0.5652E+02
     18.389  0.2772E-01  0.5653E+02
     18.494  0.4806E+00  0.5658E+02
     18.598  0.1975E+01  0.5678E+02
     18.703  0.2863E+01  0.5708E+02
     18.807  0.2121E+01  0.5730E+02
     18.912  0.1463E+01  0.5746E+02
     19.016  0.2785E+01  0.5775E+02
     19.121  0.4164E+01  0.5818E+02
     19.225  0.2992E+01  0.5850E+02
     19.329  0.7848E+00  0.5858E+02
     19.434 -0.1534E+00  0.5856E+02
     19.538 -0.1362E+00  0.5855E+02
     19.643 -0.3184E-01  0.5854E+02
     19.747 -0.1149E-01  0.5854E+02
     19.852 -0.4863E-01  0.5854E+02
     19.956 -0.1181E+00  0.5853E+02
     20.061  0.9990E-01  0.5854E+02
     20.165  0.1164E+01  0.5866E+02
     20.270  0.2560E+01  0.5893E+02
     20.374  0.2674E+01  0.5920E+02
     20.479  0.1396E+01  0.5935E+02
     20.583  0.2530E+00  0.5938E+02
     20.688 -0.8719E-01  0.5937E+02
     20.792 -0.5873E-01  0.5936E+02
     20.897 -0.1428E-01  0.5936E+02
     21.001 -0.1883E-02  0.5936E+02
     21.106 -0.1439E-03  0.5936E+02
     21.210 -0.6435E-05  0.5936E+02
     21.315 -0.1674E-06  0.5936E+02
     21.419 -0.4466E-08  0.5936E+02
     21.524 -0.1656E-06  0.5936E+02
     21.628 -0.7952E-05  0.5936E+02
     21.733 -0.2127E-03  0.5936E+02
     21.837 -0.3092E-02  0.5936E+02
     21.942 -0.2308E-01  0.5936E+02
     22.046 -0.7353E-01  0.5935E+02
     22.151  0.1235E-01  0.5935E+02
     22.255  0.6368E+00  0.5942E+02
     22.360  0.1465E+01  0.5957E+02
     22.464  0.1332E+01  0.5971E+02
     22.569  0.4489E+00  0.5976E+02
     22.673 -0.3962E-01  0.5975E+02
     22.778 -0.6288E-01  0.5975E+02
     22.882 -0.1584E-01  0.5974E+02
     22.987 -0.1820E-02  0.5974E+02
     23.091 -0.1093E-03  0.5974E+02
     23.196 -0.3590E-05  0.5974E+02
     23.300 -0.6593E-07  0.5974E+02
     23.405 -0.6848E-09  0.5974E+02
     23.509 -0.4049E-11  0.5974E+02
     23.614 -0.1387E-13  0.5974E+02
     23.718  0.0000E+00  0.5974E+02
     23.823  0.0000E+00  0.5974E+02
     23.927  0.0000E+00  0.5974E+02
     24.031 -0.8781E-29  0.5974E+02
     24.136 -0.3601E-25  0.5974E+02
     24.240 -0.8519E-22  0.5974E+02
     24.345 -0.1161E-18  0.5974E+02
     24.449 -0.9113E-16  0.5974E+02
     24.554 -0.3989E-13  0.5974E+02
     24.658 -0.1025E-10  0.5974E+02
     24.763 -0.1507E-08  0.5974E+02
     24.867 -0.1259E-06  0.5974E+02
     24.972 -0.5938E-05  0.5974E+02
     25.076 -0.1559E-03  0.5974E+02
     25.181 -0.2221E-02  0.5974E+02
     25.285 -0.1620E-01  0.5974E+02
     25.390 -0.4984E-01  0.5974E+02
     25.494  0.1480E-01  0.5974E+02
     25.599  0.4438E+00  0.5978E+02
     25.703  0.9869E+00  0.5989E+02
     25.808  0.8726E+00  0.5998E+02
     25.912  0.2823E+00  0.6001E+02
     26.017 -0.3006E-01  0.6001E+02
     26.121 -0.4075E-01  0.6000E+02
     26.226 -0.9968E-02  0.6000E+02
     26.330 -0.1121E-02  0.6000E+02
     26.435 -0.6597E-04  0.6000E+02
     26.539 -0.2127E-05  0.6000E+02
     26.644 -0.3836E-07  0.6000E+02
     26.748 -0.3913E-09  0.6000E+02
     26.853 -0.2273E-11  0.6000E+02
     26.957 -0.7616E-14  0.6000E+02
     27.062  0.0000E+00  0.6000E+02
     27.166  0.0000E+00  0.6000E+02
     27.271  0.0000E+00  0.6000E+02
     27.375  0.0000E+00  0.6000E+02
     27.480  0.0000E+00  0.6000E+02
     27.584  0.0000E+00  0.6000E+02
     27.689  0.0000E+00  0.6000E+02
