    4    4    1    1
  0.1200752E+02  0.3635000E-09  0.3635000E-09  0.3635000E-09  0.5000000E-15
  1.000000000000000E-004
  CAR 
 unknown system                          
     44     10     30
 
  0.0000000E+00  0.0000000E+00  0.0000000E+00  0.8000000E-02
    1       -1.658041   1.000000
    2        2.797449   1.000000
    3        2.797449   1.000000
    4        2.797449   1.000000
    5        2.996936   1.000000
    6        2.996936   1.000000
    7        2.996936   1.000000
    8        3.659131   1.000000
    9        3.659131   1.000000
   10        3.659131   1.000000
   11        4.609468   1.000000
   12        4.609468   1.000000
   13        4.609468   1.000000
   14        4.609468   1.000000
   15        4.609468   1.000000
   16        4.609468   1.000000
   17        4.823361   1.000000
   18        4.823361   1.000000
   19        4.823361   1.000000
   20        5.038422   1.000000
   21        5.038422   1.000000
   22        9.101627  -0.000000
   23        9.101627  -0.000000
   24        9.101627  -0.000000
   25       13.963840   0.000000
   26       13.963840   0.000000
   27       13.963840   0.000000
   28       20.438011   0.000000
   29       20.438011   0.000000
   30       20.438011   0.000000
 
  0.2000000E+00  0.0000000E+00  0.0000000E+00  0.4800000E-01
    1       -1.183278   1.000000
    2        2.923942   1.000000
    3        2.937178   1.000000
    4        3.204062   1.000000
    5        3.204062   1.000000
    6        3.262957   1.000000
    7        3.262957   1.000000
    8        3.579635   1.000000
    9        3.794360   1.000000
   10        3.794360   1.000000
   11        4.296623   1.000000
   12        4.512740   1.000000
   13        4.512740   1.000000
   14        4.712697   1.000000
   15        4.712697   1.000000
   16        4.790931   1.000000
   17        5.114839   1.000000
   18        5.145252   1.000000
   19        5.145252   1.000000
   20        5.392291   1.000000
   21        5.392291   1.000000
   22        6.878129   0.838092
   23       10.048540  -0.000000
   24       10.048540  -0.000000
   25       14.199689   0.000000
   26       14.199689   0.000000
   27       17.196114   0.000000
   28       18.041205   0.000000
   29       18.041205   0.000000
   30       18.743730   0.000000
 
  0.4000000E+00  0.0000000E+00  0.0000000E+00  0.4800000E-01
    1        0.163750   1.000000
    2        2.266617   1.000000
    3        3.213211   1.000000
    4        3.383483   1.000000
    5        3.639395   1.000000
    6        3.639395   1.000000
    7        4.098909   1.000000
    8        4.166179   1.000000
    9        4.166179   1.000000
   10        4.183521   1.000000
   11        4.183521   1.000000
   12        4.362251   1.000000
   13        4.362251   1.000000
   14        4.585555   1.000000
   15        4.585555   1.000000
   16        5.256750   1.000000
   17        5.256750   1.000000
   18        5.334030   1.000000
   19        5.669722   1.000000
   20        5.860175   1.000000
   21        5.860175   1.000000
   22        6.062717   1.000000
   23       12.124245  -0.000000
   24       12.124245  -0.000000
   25       14.915208   0.000000
   26       14.915208   0.000000
   27       14.943208   0.000000
   28       14.943208   0.000000
   29       16.499082   0.000000
   30       16.499082   0.000000
 
  0.2000000E+00  0.2000000E+00  0.0000000E+00  0.9600000E-01
    1       -0.719741   1.000000
    2        3.252486   1.000000
    3        3.252486   1.000000
    4        3.264853   1.000000
    5        3.264853   1.000000
    6        3.274685   1.000000
    7        3.586019   1.000000
    8        3.624262   1.000000
    9        3.854971   1.000000
   10        3.857319   1.000000
   11        4.057699   1.000000
   12        4.676598   1.000000
   13        4.800485   1.000000
   14        4.802211   1.000000
   15        4.906910   1.000000
   16        4.906910   1.000000
   17        5.192395   1.000000
   18        5.329780   1.000000
   19        5.329780   1.000000
   20        5.360185   1.000000
   21        5.360185   1.000000
   22        7.686030  -0.000002
   23        7.686030  -0.000002
   24       10.828644  -0.000000
   25       14.300196   0.000000
   26       14.778612   0.000000
   27       17.585796   0.000000
   28       17.585796   0.000000
   29       18.585834   0.000000
   30       18.585834   0.000000
 
  0.4000000E+00  0.2000000E+00  0.0000000E+00  0.1920000E+00
    1        0.583516   1.000000
    2        2.274759   1.000000
    3        3.242172   1.000000
    4        3.455258   1.000000
    5        3.464512   1.000000
    6        3.502718   1.000000
    7        3.551914   1.000000
    8        3.611884   1.000000
    9        3.703452   1.000000
   10        3.880407   1.000000
   11        3.912592   1.000000
   12        3.997058   1.000000
   13        4.158675   1.000000
   14        4.207906   1.000000
   15        4.442870   1.000000
   16        4.455675   1.000000
   17        4.713282   1.000000
   18        4.720123   1.000000
   19        4.833076   1.000000
   20        5.095576   1.000000
   21        5.283590   1.000000
   22        5.510124   1.000000
   23        9.312783  -0.000000
   24       11.534422  -0.000000
   25       12.711607   0.000000
   26       15.270061   0.000000
   27       15.423292   0.000000
   28       16.885085   0.000000
   29       18.704235   0.000000
   30       20.216990   0.000000
 
  0.4000000E+00  0.4000000E+00  0.0000000E+00  0.9600000E-01
    1        1.671724   1.000000
    2        2.939401   1.000000
    3        2.939401   1.000000
    4        3.156387   1.000000
    5        3.447048   1.000000
    6        3.496182   1.000000
    7        3.790541   1.000000
    8        3.790541   1.000000
    9        3.978436   1.000000
   10        4.005838   1.000000
   11        4.017501   1.000000
   12        4.120826   1.000000
   13        4.120826   1.000000
   14        4.150057   1.000000
   15        4.393583   1.000000
   16        4.539242   1.000000
   17        4.539242   1.000000
   18        4.698197   1.000000
   19        5.115594   1.000000
   20        5.115594   1.000000
   21        5.294597   1.000000
   22        6.701181   1.034005
   23        6.701181   1.034005
   24        8.543809  -0.000000
   25       14.453454   0.000000
   26       16.275329   0.000000
   27       17.091862   0.000000
   28       17.091862   0.000000
   29       18.130621   0.000000
   30       18.130621   0.000000
 
  0.2000000E+00  0.2000000E+00  0.2000000E+00  0.6400000E-01
    1       -0.275658   1.000000
    2        3.175084   1.000000
    3        3.175084   1.000000
    4        3.175084   1.000000
    5        3.613295   1.000000
    6        3.682582   1.000000
    7        3.682582   1.000000
    8        3.682582   1.000000
    9        3.777863   1.000000
   10        3.777863   1.000000
   11        4.321851   1.000000
   12        4.321851   1.000000
   13        4.472327   1.000000
   14        4.472327   1.000000
   15        4.472327   1.000000
   16        4.834269   1.000000
   17        4.834269   1.000000
   18        4.834269   1.000000
   19        5.832324   1.000000
   20        5.832324   1.000000
   21        5.832324   1.000000
   22        8.272904  -0.000000
   23        8.272904  -0.000000
   24        8.272904  -0.000000
   25       15.172238   0.000000
   26       15.172238   0.000000
   27       15.172238   0.000000
   28       17.968838   0.000000
   29       17.968838   0.000000
   30       17.968838   0.000000
 
  0.4000000E+00  0.2000000E+00  0.2000000E+00  0.1920000E+00
    1        0.992012   1.000000
    2        2.381767   1.000000
    3        3.420284   1.000000
    4        3.420284   1.000000
    5        3.556168   1.000000
    6        3.709852   1.000000
    7        3.755874   1.000000
    8        3.755874   1.000000
    9        3.851786   1.000000
   10        3.924423   1.000000
   11        3.941853   1.000000
   12        4.208278   1.000000
   13        4.387496   1.000000
   14        4.387496   1.000000
   15        4.708576   1.000000
   16        4.708576   1.000000
   17        4.781290   1.000000
   18        4.809179   1.000000
   19        4.911329   1.000000
   20        5.246466   1.000000
   21        5.246466   1.000000
   22        5.715243   1.000000
   23        9.648601  -0.000000
   24        9.648601  -0.000000
   25       12.298218  -0.000000
   26       12.298218  -0.000000
   27       16.650231   0.000000
   28       19.000250   0.000000
   29       19.105043   0.000000
   30       19.105043   0.000000
 
  0.4000000E+00  0.4000000E+00  0.2000000E+00  0.1920000E+00
    1        2.082706   1.000000
    2        2.775036   1.000000
    3        2.775036   1.000000
    4        3.157714   1.000000
    5        3.652737   1.000000
    6        3.652737   1.000000
    7        3.669422   1.000000
    8        3.896955   1.000000
    9        3.899847   1.000000
   10        3.899847   1.000000
   11        4.017562   1.000000
   12        4.127438   1.000000
   13        4.261471   1.000000
   14        4.301149   1.000000
   15        4.488338   1.000000
   16        4.488338   1.000000
   17        4.987283   1.000000
   18        4.987283   1.000000
   19        5.004049   1.000000
   20        5.013942   1.000000
   21        5.569846   1.000000
   22        6.867664   0.868330
   23        6.867664   0.868330
   24        8.620867  -0.000000
   25       11.651290  -0.000000
   26       13.636819   0.000000
   27       13.636819   0.000000
   28       15.959872   0.000000
   29       20.324699   0.000000
   30       22.348268   0.000000
 
  0.4000000E+00  0.4000000E+00  0.4000000E+00  0.6400000E-01
    1        2.465855   1.000000
    2        2.808158   1.000000
    3        2.808158   1.000000
    4        2.808158   1.000000
    5        3.758086   1.000000
    6        3.758086   1.000000
    7        3.766743   1.000000
    8        3.766743   1.000000
    9        3.766743   1.000000
   10        3.962051   1.000000
   11        3.962051   1.000000
   12        3.962051   1.000000
   13        4.586719   1.000000
   14        4.586719   1.000000
   15        4.586719   1.000000
   16        5.049587   1.000000
   17        5.049587   1.000000
   18        5.207005   1.000000
   19        5.207005   1.000000
   20        5.207005   1.000000
   21        5.249920   1.000000
   22        7.161226  -0.021853
   23        7.161226  -0.021853
   24        7.161226  -0.021853
   25       11.104133  -0.000000
   26       11.104133  -0.000000
   27       11.104133  -0.000000
   28       12.976296   0.000000
   29       25.688592   0.000000
   30       25.688592   0.000000
