unknown system                          
   1.00000000000000     
     3.445083    0.000000    0.000000
     0.000000    3.445083    0.000000
     0.000000    0.000000    3.445083
   Fe
     4
Direct
  0.000000  0.000000  0.000000
  0.500000  0.500000  0.000000
  0.500000  0.000000  0.500000
  0.000000  0.500000  0.500000
 
   32   32   32
  343.44      327.95      285.78      227.64      165.76      109.97      66.357      37.418      22.136      16.191    
  13.606      11.808      10.672      9.9901      9.5746      9.3262      9.2386      9.3262      9.5746      9.9901    
  10.672      11.808      13.606      16.191      22.136      37.418      66.357      109.97      165.76      227.64    
  285.78      327.95      327.95      313.13      272.81      217.20      158.02      104.75      63.255      35.904    
  21.614      16.098      13.592      11.841      10.733      10.066      9.6572      9.4125      9.3262      9.4125    
  9.6572      10.066      10.733      11.841      13.592      16.098      21.614      35.904      63.255      104.75    
  158.02      217.20      272.81      313.13      285.78      272.81      237.50      188.77      136.99      90.630    
  54.949      31.928      20.293      15.864      13.554      11.935      10.908      10.281      9.8919      9.6572    
  9.5746      9.6572      9.8919      10.281      10.908      11.935      13.554      15.864      20.293      31.928    
  54.949      90.630      136.99      188.77      237.50      272.81      227.64      217.20      188.77      149.59    
  108.16      71.503      43.959      26.892      18.747      15.556      13.511      12.096      11.195      10.636    
  10.281      10.066      9.9901      10.066      10.281      10.636      11.195      12.096      13.511      15.556    
  18.747      26.892      43.959      71.503      108.16      149.59      188.77      217.20      165.76      158.02    
  136.99      108.16      78.019      51.982      33.213      22.330      17.499      15.208      13.515      12.370    
  11.645      11.195      10.908      10.733      10.672      10.733      10.908      11.195      11.645      12.370    
  13.515      15.208      17.499      22.330      33.213      51.982      78.019      108.16      136.99      158.02    
  109.97      104.75      90.630      71.503      51.982      35.808      24.924      19.199      16.650      14.908    
  13.651      12.847      12.370      12.096      11.935      11.841      11.808      11.841      11.935      12.096    
  12.370      12.847      13.651      14.908      16.650      19.199      24.924      35.808      51.982      71.503    
  90.630      104.75      66.357      63.255      54.949      43.959      33.213      24.924      19.915      17.482    
  15.942      14.772      14.032      13.651      13.515      13.511      13.554      13.592      13.606      13.592    
  13.554      13.511      13.515      13.651      14.032      14.772      15.942      17.482      19.915      24.924    
  33.213      43.959      54.949      63.255      37.418      35.904      31.928      26.892      22.330      19.199    
  17.482      16.326      15.436      14.919      14.772      14.908      15.208      15.556      15.864      16.098    
  16.191      16.098      15.864      15.556      15.208      14.908      14.772      14.919      15.436      16.326    
  17.482      19.199      22.330      26.892      31.928      35.904      22.136      21.614      20.293      18.747    
  17.499      16.650      15.942      15.436      15.252      15.436      15.942      16.650      17.499      18.747    
  20.293      21.614      22.136      21.614      20.293      18.747      17.499      16.650      15.942      15.436    
  15.252      15.436      15.942      16.650      17.499      18.747      20.293      21.614      16.191      16.098    
  15.864      15.556      15.208      14.908      14.772      14.919      15.436      16.326      17.482      19.199    
  22.330      26.892      31.928      35.904      37.418      35.904      31.928      26.892      22.330      19.199    
  17.482      16.326      15.436      14.919      14.772      14.908      15.208      15.556      15.864      16.098    
  13.606      13.592      13.554      13.511      13.515      13.651      14.032      14.772      15.942      17.482    
  19.915      24.924      33.213      43.959      54.949      63.255      66.357      63.255      54.949      43.959    
  33.213      24.924      19.915      17.482      15.942      14.772      14.032      13.651      13.515      13.511    
  13.554      13.592      11.808      11.841      11.935      12.096      12.370      12.847      13.651      14.908    
  16.650      19.199      24.924      35.808      51.982      71.503      90.630      104.75      109.97      104.75    
  90.630      71.503      51.982      35.808      24.924      19.199      16.650      14.908      13.651      12.847    
  12.370      12.096      11.935      11.841      10.672      10.733      10.908      11.195      11.645      12.370    
  13.515      15.208      17.499      22.330      33.213      51.982      78.019      108.16      136.99      158.02    
  165.76      158.02      136.99      108.16      78.019      51.982      33.213      22.330      17.499      15.208    
  13.515      12.370      11.645      11.195      10.908      10.733      9.9901      10.066      10.281      10.636    
  11.195      12.096      13.511      15.556      18.747      26.892      43.959      71.503      108.16      149.59    
  188.77      217.20      227.64      217.20      188.77      149.59      108.16      71.503      43.959      26.892    
  18.747      15.556      13.511      12.096      11.195      10.636      10.281      10.066      9.5746      9.6572    
  9.8919      10.281      10.908      11.935      13.554      15.864      20.293      31.928      54.949      90.630    
  136.99      188.77      237.50      272.81      285.78      272.81      237.50      188.77      136.99      90.630    
  54.949      31.928      20.293      15.864      13.554      11.935      10.908      10.281      9.8919      9.6572    
  9.3262      9.4125      9.6572      10.066      10.733      11.841      13.592      16.098      21.614      35.904    
  63.255      104.75      158.02      217.20      272.81      313.13      327.95      313.13      272.81      217.20    
  158.02      104.75      63.255      35.904      21.614      16.098      13.592      11.841      10.733      10.066    
  9.6572      9.4125      9.2386      9.3262      9.5746      9.9901      10.672      11.808      13.606      16.191    
  22.136      37.418      66.357      109.97      165.76      227.64      285.78      327.95      343.44      327.95    
  285.78      227.64      165.76      109.97      66.357      37.418      22.136      16.191      13.606      11.808    
  10.672      9.9901      9.5746      9.3262      9.3262      9.4125      9.6572      10.066      10.733      11.841    
  13.592      16.098      21.614      35.904      63.255      104.75      158.02      217.20      272.81      313.13    
  327.95      313.13      272.81      217.20      158.02      104.75      63.255      35.904      21.614      16.098    
  13.592      11.841      10.733      10.066      9.6572      9.4125      9.5746      9.6572      9.8919      10.281    
  10.908      11.935      13.554      15.864      20.293      31.928      54.949      90.630      136.99      188.77    
  237.50      272.81      285.78      272.81      237.50      188.77      136.99      90.630      54.949      31.928    
  20.293      15.864      13.554      11.935      10.908      10.281      9.8919      9.6572      9.9901      10.066    
  10.281      10.636      11.195      12.096      13.511      15.556      18.747      26.892      43.959      71.503    
  108.16      149.59      188.77      217.20      227.64      217.20      188.77      149.59      108.16      71.503    
  43.959      26.892      18.747      15.556      13.511      12.096      11.195      10.636      10.281      10.066    
  10.672      10.733      10.908      11.195      11.645      12.370      13.515      15.208      17.499      22.330    
  33.213      51.982      78.019      108.16      136.99      158.02      165.76      158.02      136.99      108.16    
  78.019      51.982      33.213      22.330      17.499      15.208      13.515      12.370      11.645      11.195    
  10.908      10.733      11.808      11.841      11.935      12.096      12.370      12.847      13.651      14.908    
  16.650      19.199      24.924      35.808      51.982      71.503      90.630      104.75      109.97      104.75    
  90.630      71.503      51.982      35.808      24.924      19.199      16.650      14.908      13.651      12.847    
  12.370      12.096      11.935      11.841      13.606      13.592      13.554      13.511      13.515      13.651    
  14.032      14.772      15.942      17.482      19.915      24.924      33.213      43.959      54.949      63.255    
  66.357      63.255      54.949      43.959      33.213      24.924      19.915      17.482      15.942      14.772    
  14.032      13.651      13.515      13.511      13.554      13.592      16.191      16.098      15.864      15.556    
  15.208      14.908      14.772      14.919      15.436      16.326      17.482      19.199      22.330      26.892    
  31.928      35.904      37.418      35.904      31.928      26.892      22.330      19.199      17.482      16.326    
  15.436      14.919      14.772      14.908      15.208      15.556      15.864      16.098      22.136      21.614    
  20.293      18.747      17.499      16.650      15.942      15.436      15.252      15.436      15.942      16.650    
  17.499      18.747      20.293      21.614      22.136      21.614      20.293      18.747      17.499      16.650    
  15.942      15.436      15.252      15.436      15.942      16.650      17.499      18.747      20.293      21.614    
  37.418      35.904      31.928      26.892      22.330      19.199      17.482      16.326      15.436      14.919    
  14.772      14.908      15.208      15.556      15.864      16.098      16.191      16.098      15.864      15.556    
  15.208      14.908      14.772      14.919      15.436      16.326      17.482      19.199      22.330      26.892    
  31.928      35.904      66.357      63.255      54.949      43.959      33.213      24.924      19.915      17.482    
  15.942      14.772      14.032      13.651      13.515      13.511      13.554      13.592      13.606      13.592    
  13.554      13.511      13.515      13.651      14.032      14.772      15.942      17.482      19.915      24.924    
  33.213      43.959      54.949      63.255      109.97      104.75      90.630      71.503      51.982      35.808    
  24.924      19.199      16.650      14.908      13.651      12.847      12.370      12.096      11.935      11.841    
  11.808      11.841      11.935      12.096      12.370      12.847      13.651      14.908      16.650      19.199    
  24.924      35.808      51.982      71.503      90.630      104.75      165.76      158.02      136.99      108.16    
  78.019      51.982      33.213      22.330      17.499      15.208      13.515      12.370      11.645      11.195    
  10.908      10.733      10.672      10.733      10.908      11.195      11.645      12.370      13.515      15.208    
  17.499      22.330      33.213      51.982      78.019      108.16      136.99      158.02      227.64      217.20    
  188.77      149.59      108.16      71.503      43.959      26.892      18.747      15.556      13.511      12.096    
  11.195      10.636      10.281      10.066      9.9901      10.066      10.281      10.636      11.195      12.096    
  13.511      15.556      18.747      26.892      43.959      71.503      108.16      149.59      188.77      217.20    
  285.78      272.81      237.50      188.77      136.99      90.630      54.949      31.928      20.293      15.864    
  13.554      11.935      10.908      10.281      9.8919      9.6572      9.5746      9.6572      9.8919      10.281    
  10.908      11.935      13.554      15.864      20.293      31.928      54.949      90.630      136.99      188.77    
  237.50      272.81      327.95      313.13      272.81      217.20      158.02      104.75      63.255      35.904    
  21.614      16.098      13.592      11.841      10.733      10.066      9.6572      9.4125      9.3262      9.4125    
  9.6572      10.066      10.733      11.841      13.592      16.098      21.614      35.904      63.255      104.75    
  158.02      217.20      272.81      313.13      327.95      313.13      272.81      217.20      158.02      104.75    
  63.255      35.904      21.614      16.098      13.592      11.841      10.733      10.066      9.6572      9.4125    
  9.3262      9.4125      9.6572      10.066      10.733      11.841      13.592      16.098      21.614      35.904    
  63.255      104.75      158.02      217.20      272.81      313.13      313.13      298.97      260.41      207.22    
  150.64      99.780      60.317      34.482      21.131      16.012      13.578      11.873      10.793      10.140    
  9.7385      9.4974      9.4125      9.4974      9.7385      10.140      10.793      11.873      13.578      16.012    
  21.131      34.482      60.317      99.780      150.64      207.22      260.41      298.97      272.81      260.41    
  226.64      180.05      130.56      86.343      52.455      30.756      19.912      15.788      13.538      11.963    
  10.963      10.351      9.9692      9.7385      9.6572      9.7385      9.9692      10.351      10.963      11.963    
  13.538      15.788      19.912      30.756      52.455      86.343      130.56      180.05      226.64      260.41    
  217.20      207.22      180.05      142.61      103.06      68.165      42.077      26.051      18.490      15.481    
  13.492      12.119      11.243      10.698      10.351      10.140      10.066      10.140      10.351      10.698    
  11.243      12.119      13.492      15.481      18.490      26.051      42.077      68.165      103.06      142.61    
  180.05      207.22      158.02      150.64      130.56      103.06      74.364      49.662      31.969      21.812    
  17.339      15.132      13.490      12.382      11.680      11.243      10.963      10.793      10.733      10.793    
  10.963      11.243      11.680      12.382      13.490      15.132      17.339      21.812      31.969      49.662    
  74.364      103.06      130.56      150.64      104.75      99.780      86.343      68.165      49.662      34.407    
  24.225      18.923      16.523      14.831      13.617      12.841      12.382      12.119      11.963      11.873    
  11.841      11.873      11.963      12.119      12.382      12.841      13.617      14.831      16.523      18.923    
  24.225      34.407      49.662      68.165      86.343      99.780      63.255      60.317      52.455      42.077    
  31.969      24.225      19.587      17.321      15.824      14.692      13.980      13.617      13.490      13.492    
  13.538      13.578      13.592      13.578      13.538      13.492      13.490      13.617      13.980      14.692    
  15.824      17.321      19.587      24.225      31.969      42.077      52.455      60.317      35.904      34.482    
  30.756      26.051      21.812      18.923      17.321      16.191      15.326      14.828      14.692      14.831    
  15.132      15.481      15.788      16.012      16.098      16.012      15.788      15.481      15.132      14.831    
  14.692      14.828      15.326      16.191      17.321      18.923      21.812      26.051      30.756      34.482    
  21.614      21.131      19.912      18.490      17.339      16.523      15.824      15.326      15.145      15.326    
  15.824      16.523      17.339      18.490      19.912      21.131      21.614      21.131      19.912      18.490    
  17.339      16.523      15.824      15.326      15.145      15.326      15.824      16.523      17.339      18.490    
  19.912      21.131      16.098      16.012      15.788      15.481      15.132      14.831      14.692      14.828    
  15.326      16.191      17.321      18.923      21.812      26.051      30.756      34.482      35.904      34.482    
  30.756      26.051      21.812      18.923      17.321      16.191      15.326      14.828      14.692      14.831    
  15.132      15.481      15.788      16.012      13.592      13.578      13.538      13.492      13.490      13.617    
  13.980      14.692      15.824      17.321      19.587      24.225      31.969      42.077      52.455      60.317    
  63.255      60.317      52.455      42.077      31.969      24.225      19.587      17.321      15.824      14.692    
  13.980      13.617      13.490      13.492      13.538      13.578      11.841      11.873      11.963      12.119    
  12.382      12.841      13.617      14.831      16.523      18.923      24.225      34.407      49.662      68.165    
  86.343      99.780      104.75      99.780      86.343      68.165      49.662      34.407      24.225      18.923    
  16.523      14.831      13.617      12.841      12.382      12.119      11.963      11.873      10.733      10.793    
  10.963      11.243      11.680      12.382      13.490      15.132      17.339      21.812      31.969      49.662    
  74.364      103.06      130.56      150.64      158.02      150.64      130.56      103.06      74.364      49.662    
  31.969      21.812      17.339      15.132      13.490      12.382      11.680      11.243      10.963      10.793    
  10.066      10.140      10.351      10.698      11.243      12.119      13.492      15.481      18.490      26.051    
  42.077      68.165      103.06      142.61      180.05      207.22      217.20      207.22      180.05      142.61    
  103.06      68.165      42.077      26.051      18.490      15.481      13.492      12.119      11.243      10.698    
  10.351      10.140      9.6572      9.7385      9.9692      10.351      10.963      11.963      13.538      15.788    
  19.912      30.756      52.455      86.343      130.56      180.05      226.64      260.41      272.81      260.41    
  226.64      180.05      130.56      86.343      52.455      30.756      19.912      15.788      13.538      11.963    
  10.963      10.351      9.9692      9.7385      9.4125      9.4974      9.7385      10.140      10.793      11.873    
  13.578      16.012      21.131      34.482      60.317      99.780      150.64      207.22      260.41      298.97    
  313.13      298.97      260.41      207.22      150.64      99.780      60.317      34.482      21.131      16.012    
  13.578      11.873      10.793      10.140      9.7385      9.4974      9.3262      9.4125      9.6572      10.066    
  10.733      11.841      13.592      16.098      21.614      35.904      63.255      104.75      158.02      217.20    
  272.81      313.13      327.95      313.13      272.81      217.20      158.02      104.75      63.255      35.904    
  21.614      16.098      13.592      11.841      10.733      10.066      9.6572      9.4125      9.4125      9.4974    
  9.7385      10.140      10.793      11.873      13.578      16.012      21.131      34.482      60.317      99.780    
  150.64      207.22      260.41      298.97      313.13      298.97      260.41      207.22      150.64      99.780    
  60.317      34.482      21.131      16.012      13.578      11.873      10.793      10.140      9.7385      9.4974    
  9.6572      9.7385      9.9692      10.351      10.963      11.963      13.538      15.788      19.912      30.756    
  52.455      86.343      130.56      180.05      226.64      260.41      272.81      260.41      226.64      180.05    
  130.56      86.343      52.455      30.756      19.912      15.788      13.538      11.963      10.963      10.351    
  9.9692      9.7385      10.066      10.140      10.351      10.698      11.243      12.119      13.492      15.481    
  18.490      26.051      42.077      68.165      103.06      142.61      180.05      207.22      217.20      207.22    
  180.05      142.61      103.06      68.165      42.077      26.051      18.490      15.481      13.492      12.119    
  11.243      10.698      10.351      10.140      10.733      10.793      10.963      11.243      11.680      12.382    
  13.490      15.132      17.339      21.812      31.969      49.662      74.364      103.06      130.56      150.64    
  158.02      150.64      130.56      103.06      74.364      49.662      31.969      21.812      17.339      15.132    
  13.490      12.382      11.680      11.243      10.963      10.793      11.841      11.873      11.963      12.119    
  12.382      12.841      13.617      14.831      16.523      18.923      24.225      34.407      49.662      68.165    
  86.343      99.780      104.75      99.780      86.343      68.165      49.662      34.407      24.225      18.923    
  16.523      14.831      13.617      12.841      12.382      12.119      11.963      11.873      13.592      13.578    
  13.538      13.492      13.490      13.617      13.980      14.692      15.824      17.321      19.587      24.225    
  31.969      42.077      52.455      60.317      63.255      60.317      52.455      42.077      31.969      24.225    
  19.587      17.321      15.824      14.692      13.980      13.617      13.490      13.492      13.538      13.578    
  16.098      16.012      15.788      15.481      15.132      14.831      14.692      14.828      15.326      16.191    
  17.321      18.923      21.812      26.051      30.756      34.482      35.904      34.482      30.756      26.051    
  21.812      18.923      17.321      16.191      15.326      14.828      14.692      14.831      15.132      15.481    
  15.788      16.012      21.614      21.131      19.912      18.490      17.339      16.523      15.824      15.326    
  15.145      15.326      15.824      16.523      17.339      18.490      19.912      21.131      21.614      21.131    
  19.912      18.490      17.339      16.523      15.824      15.326      15.145      15.326      15.824      16.523    
  17.339      18.490      19.912      21.131      35.904      34.482      30.756      26.051      21.812      18.923    
  17.321      16.191      15.326      14.828      14.692      14.831      15.132      15.481      15.788      16.012    
  16.098      16.012      15.788      15.481      15.132      14.831      14.692      14.828      15.326      16.191    
  17.321      18.923      21.812      26.051      30.756      34.482      63.255      60.317      52.455      42.077    
  31.969      24.225      19.587      17.321      15.824      14.692      13.980      13.617      13.490      13.492    
  13.538      13.578      13.592      13.578      13.538      13.492      13.490      13.617      13.980      14.692    
  15.824      17.321      19.587      24.225      31.969      42.077      52.455      60.317      104.75      99.780    
  86.343      68.165      49.662      34.407      24.225      18.923      16.523      14.831      13.617      12.841    
  12.382      12.119      11.963      11.873      11.841      11.873      11.963      12.119      12.382      12.841    
  13.617      14.831      16.523      18.923      24.225      34.407      49.662      68.165      86.343      99.780    
  158.02      150.64      130.56      103.06      74.364      49.662      31.969      21.812      17.339      15.132    
  13.490      12.382      11.680      11.243      10.963      10.793      10.733      10.793      10.963      11.243    
  11.680      12.382      13.490      15.132      17.339      21.812      31.969      49.662      74.364      103.06    
  130.56      150.64      217.20      207.22      180.05      142.61      103.06      68.165      42.077      26.051    
  18.490      15.481      13.492      12.119      11.243      10.698      10.351      10.140      10.066      10.140    
  10.351      10.698      11.243      12.119      13.492      15.481      18.490      26.051      42.077      68.165    
  103.06      142.61      180.05      207.22      272.81      260.41      226.64      180.05      130.56      86.343    
  52.455      30.756      19.912      15.788      13.538      11.963      10.963      10.351      9.9692      9.7385    
  9.6572      9.7385      9.9692      10.351      10.963      11.963      13.538      15.788      19.912      30.756    
  52.455      86.343      130.56      180.05      226.64      260.41      313.13      298.97      260.41      207.22    
  150.64      99.780      60.317      34.482      21.131      16.012      13.578      11.873      10.793      10.140    
  9.7385      9.4974      9.4125      9.4974      9.7385      10.140      10.793      11.873      13.578      16.012    
  21.131      34.482      60.317      99.780      150.64      207.22      260.41      298.97      285.78      272.81    
  237.50      188.77      136.99      90.630      54.949      31.928      20.293      15.864      13.554      11.935    
  10.908      10.281      9.8919      9.6572      9.5746      9.6572      9.8919      10.281      10.908      11.935    
  13.554      15.864      20.293      31.928      54.949      90.630      136.99      188.77      237.50      272.81    
  272.81      260.41      226.64      180.05      130.56      86.343      52.455      30.756      19.912      15.788    
  13.538      11.963      10.963      10.351      9.9692      9.7385      9.6572      9.7385      9.9692      10.351    
  10.963      11.963      13.538      15.788      19.912      30.756      52.455      86.343      130.56      180.05    
  226.64      260.41      237.50      226.64      197.07      156.30      113.10      74.772      45.804      27.696    
  18.956      15.579      13.493      12.044      11.122      10.550      10.189      9.9692      9.8919      9.9692    
  10.189      10.550      11.122      12.044      13.493      15.579      18.956      27.696      45.804      74.772    
  113.10      156.30      197.07      226.64      188.77      180.05      156.30      123.62      89.248      59.190    
  37.086      23.874      17.845      15.269      13.439      12.184      11.381      10.876      10.550      10.351    
  10.281      10.351      10.550      10.876      11.381      12.184      13.439      15.269      17.845      23.874    
  37.086      59.190      89.248      123.62      156.30      180.05      136.99      130.56      113.10      89.248    
  64.516      43.473      28.706      20.489      16.922      14.921      13.424      12.419      11.782      11.381    
  11.122      10.963      10.908      10.963      11.122      11.381      11.782      12.419      13.424      14.921    
  16.922      20.489      28.706      43.473      64.516      89.248      113.10      130.56      90.630      86.343    
  74.772      59.190      43.473      30.717      22.418      18.217      16.169      14.620      13.525      12.830    
  12.419      12.184      12.044      11.963      11.935      11.963      12.044      12.184      12.419      12.830    
  13.525      14.620      16.169      18.217      22.418      30.717      43.473      59.190      74.772      86.343    
  54.949      52.455      45.804      37.086      28.706      22.418      18.747      16.880      15.497      14.473    
  13.839      13.525      13.424      13.439      13.493      13.538      13.554      13.538      13.493      13.439    
  13.424      13.525      13.839      14.473      15.497      16.880      18.747      22.418      28.706      37.086    
  45.804      52.455      31.928      30.756      27.696      23.874      20.489      18.217      16.880      15.820    
  15.026      14.582      14.473      14.620      14.921      15.269      15.579      15.788      15.864      15.788    
  15.579      15.269      14.921      14.620      14.473      14.582      15.026      15.820      16.880      18.217    
  20.489      23.874      27.696      30.756      20.293      19.912      18.956      17.845      16.922      16.169    
  15.497      15.026      14.857      15.026      15.497      16.169      16.922      17.845      18.956      19.912    
  20.293      19.912      18.956      17.845      16.922      16.169      15.497      15.026      14.857      15.026    
  15.497      16.169      16.922      17.845      18.956      19.912      15.864      15.788      15.579      15.269    
  14.921      14.620      14.473      14.582      15.026      15.820      16.880      18.217      20.489      23.874    
  27.696      30.756      31.928      30.756      27.696      23.874      20.489      18.217      16.880      15.820    
  15.026      14.582      14.473      14.620      14.921      15.269      15.579      15.788      13.554      13.538    
  13.493      13.439      13.424      13.525      13.839      14.473      15.497      16.880      18.747      22.418    
  28.706      37.086      45.804      52.455      54.949      52.455      45.804      37.086      28.706      22.418    
  18.747      16.880      15.497      14.473      13.839      13.525      13.424      13.439      13.493      13.538    
  11.935      11.963      12.044      12.184      12.419      12.830      13.525      14.620      16.169      18.217    
  22.418      30.717      43.473      59.190      74.772      86.343      90.630      86.343      74.772      59.190    
  43.473      30.717      22.418      18.217      16.169      14.620      13.525      12.830      12.419      12.184    
  12.044      11.963      10.908      10.963      11.122      11.381      11.782      12.419      13.424      14.921    
  16.922      20.489      28.706      43.473      64.516      89.248      113.10      130.56      136.99      130.56    