unknown system                          
   1.00000000000000     
     3.445083    0.000000    0.000000
     0.000000    3.445083    0.000000
     0.000000    0.000000    3.445083
   Fe
     4
Direct
  0.000000  0.000000  0.000000
  0.500000  0.500000  0.000000
  0.500000  0.000000  0.500000
  0.000000  0.500000  0.500000
 
   32   32   32
 0.34343948431E+03 0.32794617895E+03 0.28577895925E+03 0.22763821641E+03 0.16575617959E+03
 0.10996594467E+03 0.66356989786E+02 0.37417893044E+02 0.22135681229E+02 0.16191312768E+02
 0.13605639208E+02 0.11808460646E+02 0.10671826253E+02 0.99900862116E+01 0.95745592958E+01
 0.93261741998E+01 0.92385902508E+01 0.93261741998E+01 0.95745592958E+01 0.99900862116E+01
 0.10671826253E+02 0.11808460646E+02 0.13605639208E+02 0.16191312768E+02 0.22135681229E+02
 0.37417893044E+02 0.66356989786E+02 0.10996594467E+03 0.16575617959E+03 0.22763821641E+03
 0.28577895925E+03 0.32794617895E+03 0.32794617895E+03 0.31313465723E+03 0.27281270276E+03
 0.21720087977E+03 0.15802290642E+03 0.10474828924E+03 0.63255248793E+02 0.35903883112E+02
 0.21613610702E+02 0.16098417592E+02 0.13592113551E+02 0.11841173657E+02 0.10733100485E+02
 0.10065868832E+02 0.96572308102E+01 0.94124630062E+01 0.93261741998E+01 0.94124630062E+01
 0.96572308102E+01 0.10065868832E+02 0.10733100485E+02 0.11841173657E+02 0.13592113551E+02
 0.16098417592E+02 0.21613610702E+02 0.35903883112E+02 0.63255248793E+02 0.10474828924E+03
 0.15802290642E+03 0.21720087977E+03 0.27281270276E+03 0.31313465723E+03 0.28577895925E+03
 0.27281270276E+03 0.23749564424E+03 0.18877049974E+03 0.13699285284E+03 0.90629522122E+02
 0.54948796382E+02 0.31928088449E+02 0.20292775273E+02 0.15863895732E+02 0.13554389346E+02
 0.11935141753E+02 0.10907617066E+02 0.10281171379E+02 0.98918721612E+01 0.96572308102E+01
 0.95745592958E+01 0.96572308102E+01 0.98918721612E+01 0.10281171379E+02 0.10907617066E+02
 0.11935141753E+02 0.13554389346E+02 0.15863895732E+02 0.20292775273E+02 0.31928088449E+02
 0.54948796382E+02 0.90629522122E+02 0.13699285284E+03 0.18877049974E+03 0.23749564424E+03
 0.27281270276E+03 0.22763821641E+03 0.21720087977E+03 0.18877049974E+03 0.14959061387E+03
 0.10815636820E+03 0.71502976662E+02 0.43959075129E+02 0.26892176981E+02 0.18747248975E+02
 0.15555565165E+02 0.13511480541E+02 0.12096199689E+02 0.11194698487E+02 0.10635543222E+02
 0.10281171379E+02 0.10065868832E+02 0.99900862116E+01 0.10065868832E+02 0.10281171379E+02
 0.10635543222E+02 0.11194698487E+02 0.12096199689E+02 0.13511480541E+02 0.15555565165E+02
 0.18747248975E+02 0.26892176981E+02 0.43959075129E+02 0.71502976662E+02 0.10815636820E+03
 0.14959061387E+03 0.18877049974E+03 0.21720087977E+03 0.16575617959E+03 0.15802290642E+03
 0.13699285284E+03 0.10815636820E+03 0.78019215171E+02 0.51981619464E+02 0.33213440412E+02
 0.22329889513E+02 0.17498947054E+02 0.15207693521E+02 0.13514993143E+02 0.12369599315E+02
 0.11645223514E+02 0.11194698487E+02 0.10907617066E+02 0.10733100485E+02 0.10671826253E+02
 0.10733100485E+02 0.10907617066E+02 0.11194698487E+02 0.11645223514E+02 0.12369599315E+02
 0.13514993143E+02 0.15207693521E+02 0.17498947054E+02 0.22329889513E+02 0.33213440412E+02
 0.51981619464E+02 0.78019215171E+02 0.10815636820E+03 0.13699285284E+03 0.15802290642E+03
 0.10996594467E+03 0.10474828924E+03 0.90629522122E+02 0.71502976662E+02 0.51981619464E+02
 0.35807952791E+02 0.24924274855E+02 0.19198812697E+02 0.16649955396E+02 0.14908042048E+02
 0.13651365376E+02 0.12846594741E+02 0.12369599315E+02 0.12096199689E+02 0.11935141753E+02
 0.11841173657E+02 0.11808460646E+02 0.11841173657E+02 0.11935141753E+02 0.12096199689E+02
 0.12369599315E+02 0.12846594741E+02 0.13651365376E+02 0.14908042048E+02 0.16649955396E+02
 0.19198812697E+02 0.24924274855E+02 0.35807952791E+02 0.51981619464E+02 0.71502976662E+02
 0.90629522122E+02 0.10474828924E+03 0.66356989786E+02 0.63255248793E+02 0.54948796382E+02
 0.43959075129E+02 0.33213440412E+02 0.24924274855E+02 0.19915420406E+02 0.17481736736E+02
 0.15942241103E+02 0.14772380820E+02 0.14031838807E+02 0.13651365376E+02 0.13514993143E+02
 0.13511480541E+02 0.13554389346E+02 0.13592113551E+02 0.13605639208E+02 0.13592113551E+02
 0.13554389346E+02 0.13511480541E+02 0.13514993143E+02 0.13651365376E+02 0.14031838807E+02
 0.14772380820E+02 0.15942241103E+02 0.17481736736E+02 0.19915420406E+02 0.24924274855E+02
 0.33213440412E+02 0.43959075129E+02 0.54948796382E+02 0.63255248793E+02 0.37417893044E+02
 0.35903883112E+02 0.31928088449E+02 0.26892176981E+02 0.22329889513E+02 0.19198812697E+02
 0.17481736736E+02 0.16326137044E+02 0.15435839797E+02 0.14919457763E+02 0.14772380820E+02
 0.14908042048E+02 0.15207693521E+02 0.15555565165E+02 0.15863895732E+02 0.16098417592E+02
 0.16191312768E+02 0.16098417592E+02 0.15863895732E+02 0.15555565165E+02 0.15207693521E+02
 0.14908042048E+02 0.14772380820E+02 0.14919457763E+02 0.15435839797E+02 0.16326137044E+02
 0.17481736736E+02 0.19198812697E+02 0.22329889513E+02 0.26892176981E+02 0.31928088449E+02
 0.35903883112E+02 0.22135681229E+02 0.21613610702E+02 0.20292775273E+02 0.18747248975E+02
 0.17498947054E+02 0.16649955396E+02 0.15942241103E+02 0.15435839797E+02 0.15251658290E+02
 0.15435839797E+02 0.15942241103E+02 0.16649955396E+02 0.17498947054E+02 0.18747248975E+02
 0.20292775273E+02 0.21613610702E+02 0.22135681229E+02 0.21613610702E+02 0.20292775273E+02
 0.18747248975E+02 0.17498947054E+02 0.16649955396E+02 0.15942241103E+02 0.15435839797E+02
 0.15251658290E+02 0.15435839797E+02 0.15942241103E+02 0.16649955396E+02 0.17498947054E+02
 0.18747248975E+02 0.20292775273E+02 0.21613610702E+02 0.16191312768E+02 0.16098417592E+02
 0.15863895732E+02 0.15555565165E+02 0.15207693521E+02 0.14908042048E+02 0.14772380820E+02
 0.14919457763E+02 0.15435839797E+02 0.16326137044E+02 0.17481736736E+02 0.19198812697E+02
 0.22329889513E+02 0.26892176981E+02 0.31928088449E+02 0.35903883112E+02 0.37417893044E+02
 0.35903883112E+02 0.31928088449E+02 0.26892176981E+02 0.22329889513E+02 0.19198812697E+02
 0.17481736736E+02 0.16326137044E+02 0.15435839797E+02 0.14919457763E+02 0.14772380820E+02
 0.14908042048E+02 0.15207693521E+02 0.15555565165E+02 0.15863895732E+02 0.16098417592E+02
 0.13605639208E+02 0.13592113551E+02 0.13554389346E+02 0.13511480541E+02 0.13514993143E+02
 0.13651365376E+02 0.14031838807E+02 0.14772380820E+02 0.15942241103E+02 0.17481736736E+02
 0.19915420406E+02 0.24924274855E+02 0.33213440412E+02 0.43959075129E+02 0.54948796382E+02
 0.63255248793E+02 0.66356989786E+02 0.63255248793E+02 0.54948796382E+02 0.43959075129E+02
 0.33213440412E+02 0.24924274855E+02 0.19915420406E+02 0.17481736736E+02 0.15942241103E+02
 0.14772380820E+02 0.14031838807E+02 0.13651365376E+02 0.13514993143E+02 0.13511480541E+02
 0.13554389346E+02 0.13592113551E+02 0.11808460646E+02 0.11841173657E+02 0.11935141753E+02
 0.12096199689E+02 0.12369599315E+02 0.12846594741E+02 0.13651365376E+02 0.14908042048E+02
 0.16649955396E+02 0.19198812697E+02 0.24924274855E+02 0.35807952791E+02 0.51981619464E+02
 0.71502976662E+02 0.90629522122E+02 0.10474828924E+03 0.10996594467E+03 0.10474828924E+03
 0.90629522122E+02 0.71502976662E+02 0.51981619464E+02 0.35807952791E+02 0.24924274855E+02
 0.19198812697E+02 0.16649955396E+02 0.14908042048E+02 0.13651365376E+02 0.12846594741E+02
 0.12369599315E+02 0.12096199689E+02 0.11935141753E+02 0.11841173657E+02 0.10671826253E+02
 0.10733100485E+02 0.10907617066E+02 0.11194698487E+02 0.11645223514E+02 0.12369599315E+02
 0.13514993143E+02 0.15207693521E+02 0.17498947054E+02 0.22329889513E+02 0.33213440412E+02
 0.51981619464E+02 0.78019215171E+02 0.10815636820E+03 0.13699285284E+03 0.15802290642E+03
 0.16575617959E+03 0.15802290642E+03 0.13699285284E+03 0.10815636820E+03 0.78019215171E+02
 0.51981619464E+02 0.33213440412E+02 0.22329889513E+02 0.17498947054E+02 0.15207693521E+02
 0.13514993143E+02 0.12369599315E+02 0.11645223514E+02 0.11194698487E+02 0.10907617066E+02
 0.10733100485E+02 0.99900862116E+01 0.10065868832E+02 0.10281171379E+02 0.10635543222E+02
 0.11194698487E+02 0.12096199689E+02 0.13511480541E+02 0.15555565165E+02 0.18747248975E+02
 0.26892176981E+02 0.43959075129E+02 0.71502976662E+02 0.10815636820E+03 0.14959061387E+03
 0.18877049974E+03 0.21720087977E+03 0.22763821641E+03 0.21720087977E+03 0.18877049974E+03
 0.14959061387E+03 0.10815636820E+03 0.71502976662E+02 0.43959075129E+02 0.26892176981E+02
 0.18747248975E+02 0.15555565165E+02 0.13511480541E+02 0.12096199689E+02 0.11194698487E+02
 0.10635543222E+02 0.10281171379E+02 0.10065868832E+02 0.95745592958E+01 0.96572308102E+01
 0.98918721612E+01 0.10281171379E+02 0.10907617066E+02 0.11935141753E+02 0.13554389346E+02
 0.15863895732E+02 0.20292775273E+02 0.31928088449E+02 0.54948796382E+02 0.90629522122E+02
 0.13699285284E+03 0.18877049974E+03 0.23749564424E+03 0.27281270276E+03 0.28577895925E+03
 0.27281270276E+03 0.23749564424E+03 0.18877049974E+03 0.13699285284E+03 0.90629522122E+02
 0.54948796382E+02 0.31928088449E+02 0.20292775273E+02 0.15863895732E+02 0.13554389346E+02
 0.11935141753E+02 0.10907617066E+02 0.10281171379E+02 0.98918721612E+01 0.96572308102E+01
 0.93261741998E+01 0.94124630062E+01 0.96572308102E+01 0.10065868832E+02 0.10733100485E+02
 0.11841173657E+02 0.13592113551E+02 0.16098417592E+02 0.21613610702E+02 0.35903883112E+02
 0.63255248793E+02 0.10474828924E+03 0.15802290642E+03 0.21720087977E+03 0.27281270276E+03
 0.31313465723E+03 0.32794617895E+03 0.31313465723E+03 0.27281270276E+03 0.21720087977E+03
 0.15802290642E+03 0.10474828924E+03 0.63255248793E+02 0.35903883112E+02 0.21613610702E+02
 0.16098417592E+02 0.13592113551E+02 0.11841173657E+02 0.10733100485E+02 0.10065868832E+02
 0.96572308102E+01 0.94124630062E+01 0.92385902508E+01 0.93261741998E+01 0.95745592958E+01
 0.99900862116E+01 0.10671826253E+02 0.11808460646E+02 0.13605639208E+02 0.16191312768E+02
 0.22135681229E+02 0.37417893044E+02 0.66356989786E+02 0.10996594467E+03 0.16575617959E+03
 0.22763821641E+03 0.28577895925E+03 0.32794617895E+03 0.34343948431E+03 0.32794617895E+03
 0.28577895925E+03 0.22763821641E+03 0.16575617959E+03 0.10996594467E+03 0.66356989786E+02
 0.37417893044E+02 0.22135681229E+02 0.16191312768E+02 0.13605639208E+02 0.11808460646E+02
 0.10671826253E+02 0.99900862116E+01 0.95745592958E+01 0.93261741998E+01 0.93261741998E+01
 0.94124630062E+01 0.96572308102E+01 0.10065868832E+02 0.10733100485E+02 0.11841173657E+02
 0.13592113551E+02 0.16098417592E+02 0.21613610702E+02 0.35903883112E+02 0.63255248793E+02
 0.10474828924E+03 0.15802290642E+03 0.21720087977E+03 0.27281270276E+03 0.31313465723E+03
 0.32794617895E+03 0.31313465723E+03 0.27281270276E+03 0.21720087977E+03 0.15802290642E+03
 0.10474828924E+03 0.63255248793E+02 0.35903883112E+02 0.21613610702E+02 0.16098417592E+02
 0.13592113551E+02 0.11841173657E+02 0.10733100485E+02 0.10065868832E+02 0.96572308102E+01
 0.94124630062E+01 0.95745592958E+01 0.96572308102E+01 0.98918721612E+01 0.10281171379E+02
 0.10907617066E+02 0.11935141753E+02 0.13554389346E+02 0.15863895732E+02 0.20292775273E+02
 0.31928088449E+02 0.54948796382E+02 0.90629522122E+02 0.13699285284E+03 0.18877049974E+03
 0.23749564424E+03 0.27281270276E+03 0.28577895925E+03 0.27281270276E+03 0.23749564424E+03
 0.18877049974E+03 0.13699285284E+03 0.90629522122E+02 0.54948796382E+02 0.31928088449E+02
 0.20292775273E+02 0.15863895732E+02 0.13554389346E+02 0.11935141753E+02 0.10907617066E+02
 0.10281171379E+02 0.98918721612E+01 0.96572308102E+01 0.99900862116E+01 0.10065868832E+02
 0.10281171379E+02 0.10635543222E+02 0.11194698487E+02 0.12096199689E+02 0.13511480541E+02
 0.15555565165E+02 0.18747248975E+02 0.26892176981E+02 0.43959075129E+02 0.71502976662E+02
 0.10815636820E+03 0.14959061387E+03 0.18877049974E+03 0.21720087977E+03 0.22763821641E+03
 0.21720087977E+03 0.18877049974E+03 0.14959061387E+03 0.10815636820E+03 0.71502976662E+02
 0.43959075129E+02 0.26892176981E+02 0.18747248975E+02 0.15555565165E+02 0.13511480541E+02
 0.12096199689E+02 0.11194698487E+02 0.10635543222E+02 0.10281171379E+02 0.10065868832E+02
 0.10671826253E+02 0.10733100485E+02 0.10907617066E+02 0.11194698487E+02 0.11645223514E+02
 0.12369599315E+02 0.13514993143E+02 0.15207693521E+02 0.17498947054E+02 0.22329889513E+02
 0.33213440412E+02 0.51981619464E+02 0.78019215171E+02 0.10815636820E+03 0.13699285284E+03
 0.15802290642E+03 0.16575617959E+03 0.15802290642E+03 0.13699285284E+03 0.10815636820E+03
 0.78019215171E+02 0.51981619464E+02 0.33213440412E+02 0.22329889513E+02 0.17498947054E+02
 0.15207693521E+02 0.13514993143E+02 0.12369599315E+02 0.11645223514E+02 0.11194698487E+02
 0.10907617066E+02 0.10733100485E+02 0.11808460646E+02 0.11841173657E+02 0.11935141753E+02
 0.12096199689E+02 0.12369599315E+02 0.12846594741E+02 0.13651365376E+02 0.14908042048E+02
 0.16649955396E+02 0.19198812697E+02 0.24924274855E+02 0.35807952791E+02 0.51981619464E+02
 0.71502976662E+02 0.90629522122E+02 0.10474828924E+03 0.10996594467E+03 0.10474828924E+03
 0.90629522122E+02 0.71502976662E+02 0.51981619464E+02 0.35807952791E+02 0.24924274855E+02
 0.19198812697E+02 0.16649955396E+02 0.14908042048E+02 0.13651365376E+02 0.12846594741E+02
 0.12369599315E+02 0.12096199689E+02 0.11935141753E+02 0.11841173657E+02 0.13605639208E+02
 0.13592113551E+02 0.13554389346E+02 0.13511480541E+02 0.13514993143E+02 0.13651365376E+02
 0.14031838807E+02 0.14772380820E+02 0.15942241103E+02 0.17481736736E+02 0.19915420406E+02
 0.24924274855E+02 0.33213440412E+02 0.43959075129E+02 0.54948796382E+02 0.63255248793E+02
 0.66356989786E+02 0.63255248793E+02 0.54948796382E+02 0.43959075129E+02 0.33213440412E+02
 0.24924274855E+02 0.19915420406E+02 0.17481736736E+02 0.15942241103E+02 0.14772380820E+02
 0.14031838807E+02 0.13651365376E+02 0.13514993143E+02 0.13511480541E+02 0.13554389346E+02
 0.13592113551E+02 0.16191312768E+02 0.16098417592E+02 0.15863895732E+02 0.15555565165E+02
 0.15207693521E+02 0.14908042048E+02 0.14772380820E+02 0.14919457763E+02 0.15435839797E+02
 0.16326137044E+02 0.17481736736E+02 0.19198812697E+02 0.22329889513E+02 0.26892176981E+02
 0.31928088449E+02 0.35903883112E+02 0.37417893044E+02 0.35903883112E+02 0.31928088449E+02
 0.26892176981E+02 0.22329889513E+02 0.19198812697E+02 0.17481736736E+02 0.16326137044E+02
 0.15435839797E+02 0.14919457763E+02 0.14772380820E+02 0.14908042048E+02 0.15207693521E+02
 0.15555565165E+02 0.15863895732E+02 0.16098417592E+02 0.22135681229E+02 0.21613610702E+02
 0.20292775273E+02 0.18747248975E+02 0.17498947054E+02 0.16649955396E+02 0.15942241103E+02
 0.15435839797E+02 0.15251658290E+02 0.15435839797E+02 0.15942241103E+02 0.16649955396E+02
 0.17498947054E+02 0.18747248975E+02 0.20292775273E+02 0.21613610702E+02 0.22135681229E+02
 0.21613610702E+02 0.20292775273E+02 0.18747248975E+02 0.17498947054E+02 0.16649955396E+02
 0.15942241103E+02 0.15435839797E+02 0.15251658290E+02 0.15435839797E+02 0.15942241103E+02
 0.16649955396E+02 0.17498947054E+02 0.18747248975E+02 0.20292775273E+02 0.21613610702E+02
 0.37417893044E+02 0.35903883112E+02 0.31928088449E+02 0.26892176981E+02 0.22329889513E+02
 0.19198812697E+02 0.17481736736E+02 0.16326137044E+02 0.15435839797E+02 0.14919457763E+02
 0.14772380820E+02 0.14908042048E+02 0.15207693521E+02 0.15555565165E+02 0.15863895732E+02
 0.16098417592E+02 0.16191312768E+02 0.16098417592E+02 0.15863895732E+02 0.15555565165E+02
 0.15207693521E+02 0.14908042048E+02 0.14772380820E+02 0.14919457763E+02 0.15435839797E+02
 0.16326137044E+02 0.17481736736E+02 0.19198812697E+02 0.22329889513E+02 0.26892176981E+02
 0.31928088449E+02 0.35903883112E+02 0.66356989786E+02 0.63255248793E+02 0.54948796382E+02
 0.43959075129E+02 0.33213440412E+02 0.24924274855E+02 0.19915420406E+02 0.17481736736E+02
 0.15942241103E+02 0.14772380820E+02 0.14031838807E+02 0.13651365376E+02 0.13514993143E+02
 0.13511480541E+02 0.13554389346E+02 0.13592113551E+02 0.13605639208E+02 0.13592113551E+02
 0.13554389346E+02 0.13511480541E+02 0.13514993143E+02 0.13651365376E+02 0.14031838807E+02
 0.14772380820E+02 0.15942241103E+02 0.17481736736E+02 0.19915420406E+02 0.24924274855E+02
 0.33213440412E+02 0.43959075129E+02 0.54948796382E+02 0.63255248793E+02 0.10996594467E+03
 0.10474828924E+03 0.90629522122E+02 0.71502976662E+02 0.51981619464E+02 0.35807952791E+02
 0.24924274855E+02 0.19198812697E+02 0.16649955396E+02 0.14908042048E+02 0.13651365376E+02
 0.12846594741E+02 0.12369599315E+02 0.12096199689E+02 0.11935141753E+02 0.11841173657E+02
 0.11808460646E+02 0.11841173657E+02 0.11935141753E+02 0.12096199689E+02 0.12369599315E+02
 0.12846594741E+02 0.13651365376E+02 0.14908042048E+02 0.16649955396E+02 0.19198812697E+02
 0.24924274855E+02 0.35807952791E+02 0.51981619464E+02 0.71502976662E+02 0.90629522122E+02
 0.10474828924E+03 0.16575617959E+03 0.15802290642E+03 0.13699285284E+03 0.10815636820E+03
 0.78019215171E+02 0.51981619464E+02 0.33213440412E+02 0.22329889513E+02 0.17498947054E+02
 0.15207693521E+02 0.13514993143E+02 0.12369599315E+02 0.11645223514E+02 0.11194698487E+02
 0.10907617066E+02 0.10733100485E+02 0.10671826253E+02 0.10733100485E+02 0.10907617066E+02
 0.11194698487E+02 0.11645223514E+02 0.12369599315E+02 0.13514993143E+02 0.15207693521E+02
 0.17498947054E+02 0.22329889513E+02 0.33213440412E+02 0.51981619464E+02 0.78019215171E+02
 0.10815636820E+03 0.13699285284E+03 0.15802290642E+03 0.22763821641E+03 0.21720087977E+03
 0.18877049974E+03 0.14959061387E+03 0.10815636820E+03 0.71502976662E+02 0.43959075129E+02
 0.26892176981E+02 0.18747248975E+02 0.15555565165E+02 0.13511480541E+02 0.12096199689E+02
 0.11194698487E+02 0.10635543222E+02 0.10281171379E+02 0.10065868832E+02 0.99900862116E+01
 0.10065868832E+02 0.10281171379E+02 0.10635543222E+02 0.11194698487E+02 0.12096199689E+02
 0.13511480541E+02 0.15555565165E+02 0.18747248975E+02 0.26892176981E+02 0.43959075129E+02
 0.71502976662E+02 0.10815636820E+03 0.14959061387E+03 0.18877049974E+03 0.21720087977E+03
 0.28577895925E+03 0.27281270276E+03 0.23749564424E+03 0.18877049974E+03 0.13699285284E+03
 0.90629522122E+02 0.54948796382E+02 0.31928088449E+02 0.20292775273E+02 0.15863895732E+02
 0.13554389346E+02 0.11935141753E+02 0.10907617066E+02 0.10281171379E+02 0.98918721612E+01
 0.96572308102E+01 0.95745592958E+01 0.96572308102E+01 0.98918721612E+01 0.10281171379E+02
 0.10907617066E+02 0.11935141753E+02 0.13554389346E+02 0.15863895732E+02 0.20292775273E+02
 0.31928088449E+02 0.54948796382E+02 0.90629522122E+02 0.13699285284E+03 0.18877049974E+03
 0.23749564424E+03 0.27281270276E+03 0.32794617895E+03 0.31313465723E+03 0.27281270276E+03
 0.21720087977E+03 0.15802290642E+03 0.10474828924E+03 0.63255248793E+02 0.35903883112E+02
 0.21613610702E+02 0.16098417592E+02 0.13592113551E+02 0.11841173657E+02 0.10733100485E+02
 0.10065868832E+02 0.96572308102E+01 0.94124630062E+01 0.93261741998E+01 0.94124630062E+01
 0.96572308102E+01 0.10065868832E+02 0.10733100485E+02 0.11841173657E+02 0.13592113551E+02
 0.16098417592E+02 0.21613610702E+02 0.35903883112E+02 0.63255248793E+02 0.10474828924E+03
 0.15802290642E+03 0.21720087977E+03 0.27281270276E+03 0.31313465723E+03 0.32794617895E+03
 0.31313465723E+03 0.27281270276E+03 0.21720087977E+03 0.15802290642E+03 0.10474828924E+03
 0.63255248793E+02 0.35903883112E+02 0.21613610702E+02 0.16098417592E+02 0.13592113551E+02
 0.11841173657E+02 0.10733100485E+02 0.10065868832E+02 0.96572308102E+01 0.94124630062E+01
 0.93261741998E+01 0.94124630062E+01 0.96572308102E+01 0.10065868832E+02 0.10733100485E+02
 0.11841173657E+02 0.13592113551E+02 0.16098417592E+02 0.21613610702E+02 0.35903883112E+02
 0.63255248793E+02 0.10474828924E+03 0.15802290642E+03 0.21720087977E+03 0.27281270276E+03
 0.31313465723E+03 0.31313465723E+03 0.29897389471E+03 0.26041493186E+03 0.20722349406E+03
 0.15063878169E+03 0.99779755453E+02 0.60316805111E+02 0.34482465225E+02 0.21130963432E+02
 0.16011504474E+02 0.13577772248E+02 0.11872669612E+02 0.10792890982E+02 0.10140154119E+02
 0.97385032330E+01 0.94974320105E+01 0.94124630062E+01 0.94974320105E+01 0.97385032330E+01
 0.10140154119E+02 0.10792890982E+02 0.11872669612E+02 0.13577772248E+02 0.16011504474E+02
 0.21130963432E+02 0.34482465225E+02 0.60316805111E+02 0.99779755453E+02 0.15063878169E+03
 0.20722349406E+03 0.26041493186E+03 0.29897389471E+03 0.27281270276E+03 0.26041493186E+03
 0.22664209519E+03 0.18004712322E+03 0.13056366689E+03 0.86342671168E+02 0.52455133971E+02
 0.30755508988E+02 0.19912196842E+02 0.15787920525E+02 0.13537943064E+02 0.11963227269E+02
 0.10963198912E+02 0.10351213240E+02 0.99692009468E+01 0.97385032330E+01 0.96572308102E+01
 0.97385032330E+01 0.99692009468E+01 0.10351213240E+02 0.10963198912E+02 0.11963227269E+02
 0.13537943064E+02 0.15787920525E+02 0.19912196842E+02 0.30755508988E+02 0.52455133971E+02
 0.86342671168E+02 0.13056366689E+03 0.18004712322E+03 0.22664209519E+03 0.26041493186E+03
 0.21720087977E+03 0.20722349406E+03 0.18004712322E+03 0.14260769778E+03 0.10305828761E+03
 0.68164683543E+02 0.42076578703E+02 0.26050632671E+02 0.18490230775E+02 0.15480771223E+02
 0.13491909539E+02 0.12118509452E+02 0.11242954597E+02 0.10697986477E+02 0.10351213240E+02
 0.10140154119E+02 0.10065868832E+02 0.10140154119E+02 0.10351213240E+02 0.10697986477E+02
 0.11242954597E+02 0.12118509452E+02 0.13491909539E+02 0.15480771223E+02 0.18490230775E+02
 0.26050632671E+02 0.42076578703E+02 0.68164683543E+02 0.10305828761E+03 0.14260769778E+03
 0.18004712322E+03 0.20722349406E+03 0.15802290642E+03 0.15063878169E+03 0.13056366689E+03
 0.10305828761E+03 0.74364152806E+02 0.49661922658E+02 0.31969275209E+02 0.21812206675E+02
 0.17338613074E+02 0.15131856159E+02 0.13490250949E+02 0.12381900495E+02 0.11680491781E+02
 0.11242954597E+02 0.10963198912E+02 0.10792890982E+02 0.10733100485E+02 0.10792890982E+02
 0.10963198912E+02 0.11242954597E+02 0.11680491781E+02 0.12381900495E+02 0.13490250949E+02
 0.15131856159E+02 0.17338613074E+02 0.21812206675E+02 0.31969275209E+02 0.49661922658E+02
 0.74364152806E+02 0.10305828761E+03 0.13056366689E+03 0.15063878169E+03 0.10474828924E+03
 0.99779755453E+02 0.86342671168E+02 0.68164683543E+02 0.49661922658E+02 0.34407114142E+02
 0.24224679153E+02 0.18922541499E+02 0.16523095024E+02 0.14831247226E+02 0.13616850577E+02
 0.12841208766E+02 0.12381900495E+02 0.12118509452E+02 0.11963227269E+02 0.11872669612E+02
 0.11841173657E+02 0.11872669612E+02 0.11963227269E+02 0.12118509452E+02 0.12381900495E+02
 0.12841208766E+02 0.13616850577E+02 0.14831247226E+02 0.16523095024E+02 0.18922541499E+02
 0.24224679153E+02 0.34407114142E+02 0.49661922658E+02 0.68164683543E+02 0.86342671168E+02
 0.99779755453E+02 0.63255248793E+02 0.60316805111E+02 0.52455133971E+02 0.42076578703E+02
 0.31969275209E+02 0.24224679153E+02 0.19587021429E+02 0.17321171808E+02 0.15823621794E+02
 0.14691760743E+02 0.13979597252E+02 0.13616850577E+02 0.13490250949E+02 0.13491909539E+02
 0.13537943064E+02 0.13577772248E+02 0.13592113551E+02 0.13577772248E+02 0.13537943064E+02
 0.13491909539E+02 0.13490250949E+02 0.13616850577E+02 0.13979597252E+02 0.14691760743E+02
 0.15823621794E+02 0.17321171808E+02 0.19587021429E+02 0.24224679153E+02 0.31969275209E+02
 0.42076578703E+02 0.52455133971E+02 0.60316805111E+02 0.35903883112E+02 0.34482465225E+02
 0.30755508988E+02 0.26050632671E+02 0.21812206675E+02 0.18922541499E+02 0.17321171808E+02
 0.16191351285E+02 0.15325957749E+02 0.14828483425E+02 0.14691760743E+02 0.14831247226E+02
 0.15131856159E+02 0.15480771223E+02 0.15787920525E+02 0.16011504474E+02 0.16098417592E+02
 0.16011504474E+02 0.15787920525E+02 0.15480771223E+02 0.15131856159E+02 0.14831247226E+02
 0.14691760743E+02 0.14828483425E+02 0.15325957749E+02 0.16191351285E+02 0.17321171808E+02
 0.18922541499E+02 0.21812206675E+02 0.26050632671E+02 0.30755508988E+02 0.34482465225E+02
 0.21613610702E+02 0.21130963432E+02 0.19912196842E+02 0.18490230775E+02 0.17338613074E+02
 0.16523095024E+02 0.15823621794E+02 0.15325957749E+02 0.15145467221E+02 0.15325957749E+02
 0.15823621794E+02 0.16523095024E+02 0.17338613074E+02 0.18490230775E+02 0.19912196842E+02
 0.21130963432E+02 0.21613610702E+02 0.21130963432E+02 0.19912196842E+02 0.18490230775E+02
 0.17338613074E+02 0.16523095024E+02 0.15823621794E+02 0.15325957749E+02 0.15145467221E+02
 0.15325957749E+02 0.15823621794E+02 0.16523095024E+02 0.17338613074E+02 0.18490230775E+02
 0.19912196842E+02 0.21130963432E+02 0.16098417592E+02 0.16011504474E+02 0.15787920525E+02
 0.15480771223E+02 0.15131856159E+02 0.14831247226E+02 0.14691760743E+02 0.14828483425E+02
 0.15325957749E+02 0.16191351285E+02 0.17321171808E+02 0.18922541499E+02 0.21812206675E+02
 0.26050632671E+02 0.30755508988E+02 0.34482465225E+02 0.35903883112E+02 0.34482465225E+02
 0.30755508988E+02 0.26050632671E+02 0.21812206675E+02 0.18922541499E+02 0.17321171808E+02
 0.16191351285E+02 0.15325957749E+02 0.14828483425E+02 0.14691760743E+02 0.14831247226E+02
 0.15131856159E+02 0.15480771223E+02 0.15787920525E+02 0.16011504474E+02 0.13592113551E+02
 0.13577772248E+02 0.13537943064E+02 0.13491909539E+02 0.13490250949E+02 0.13616850577E+02
 0.13979597252E+02 0.14691760743E+02 0.15823621794E+02 0.17321171808E+02 0.19587021429E+02
 0.24224679153E+02 0.31969275209E+02 0.42076578703E+02 0.52455133971E+02 0.60316805111E+02
 0.63255248793E+02 0.60316805111E+02 0.52455133971E+02 0.42076578703E+02 0.31969275209E+02
 0.24224679153E+02 0.19587021429E+02 0.17321171808E+02 0.15823621794E+02 0.14691760743E+02
 0.13979597252E+02 0.13616850577E+02 0.13490250949E+02 0.13491909539E+02 0.13537943064E+02
 0.13577772248E+02 0.11841173657E+02 0.11872669612E+02 0.11963227269E+02 0.12118509452E+02
 0.12381900495E+02 0.12841208766E+02 0.13616850577E+02 0.14831247226E+02 0.16523095024E+02
 0.18922541499E+02 0.24224679153E+02 0.34407114142E+02 0.49661922658E+02 0.68164683543E+02
 0.86342671168E+02 0.99779755453E+02 0.10474828924E+03 0.99779755453E+02 0.86342671168E+02
 0.68164683543E+02 0.49661922658E+02 0.34407114142E+02 0.24224679153E+02 0.18922541499E+02
 0.16523095024E+02 0.14831247226E+02 0.13616850577E+02 0.12841208766E+02 0.12381900495E+02
 0.12118509452E+02 0.11963227269E+02 0.11872669612E+02 0.10733100485E+02 0.10792890982E+02
 0.10963198912E+02 0.11242954597E+02 0.11680491781E+02 0.12381900495E+02 0.13490250949E+02
 0.15131856159E+02 0.17338613074E+02 0.21812206675E+02 0.31969275209E+02 0.49661922658E+02
 0.74364152806E+02 0.10305828761E+03 0.13056366689E+03 0.15063878169E+03 0.15802290642E+03
 0.15063878169E+03 0.13056366689E+03 0.10305828761E+03 0.74364152806E+02 0.49661922658E+02
 0.31969275209E+02 0.21812206675E+02 0.17338613074E+02 0.15131856159E+02 0.13490250949E+02
 0.12381900495E+02 0.11680491781E+02 0.11242954597E+02 0.10963198912E+02 0.10792890982E+02
 0.10065868832E+02 0.10140154119E+02 0.10351213240E+02 0.10697986477E+02 0.11242954597E+02
 0.12118509452E+02 0.13491909539E+02 0.15480771223E+02 0.18490230775E+02 0.26050632671E+02
 0.42076578703E+02 0.68164683543E+02 0.10305828761E+03 0.14260769778E+03 0.18004712322E+03
 0.20722349406E+03 0.21720087977E+03 0.20722349406E+03 0.18004712322E+03 0.14260769778E+03
 0.10305828761E+03 0.68164683543E+02 0.42076578703E+02 0.26050632671E+02 0.18490230775E+02
 0.15480771223E+02 0.13491909539E+02 0.12118509452E+02 0.11242954597E+02 0.10697986477E+02
 0.10351213240E+02 0.10140154119E+02 0.96572308102E+01 0.97385032330E+01 0.99692009468E+01
 0.10351213240E+02 0.10963198912E+02 0.11963227269E+02 0.13537943064E+02 0.15787920525E+02
 0.19912196842E+02 0.30755508988E+02 0.52455133971E+02 0.86342671168E+02 0.13056366689E+03
 0.18004712322E+03 0.22664209519E+03 0.26041493186E+03 0.27281270276E+03 0.26041493186E+03
 0.22664209519E+03 0.18004712322E+03 0.13056366689E+03 0.86342671168E+02 0.52455133971E+02
 0.30755508988E+02 0.19912196842E+02 0.15787920525E+02 0.13537943064E+02 0.11963227269E+02
 0.10963198912E+02 0.10351213240E+02 0.99692009468E+01 0.97385032330E+01 0.94124630062E+01
 0.94974320105E+01 0.97385032330E+01 0.10140154119E+02 0.10792890982E+02 0.11872669612E+02
 0.13577772248E+02 0.16011504474E+02 0.21130963432E+02 0.34482465225E+02 0.60316805111E+02
 0.99779755453E+02 0.15063878169E+03 0.20722349406E+03 0.26041493186E+03 0.29897389471E+03
 0.31313465723E+03 0.29897389471E+03 0.26041493186E+03 0.20722349406E+03 0.15063878169E+03
 0.99779755453E+02 0.60316805111E+02 0.34482465225E+02 0.21130963432E+02 0.16011504474E+02
 0.13577772248E+02 0.11872669612E+02 0.10792890982E+02 0.10140154119E+02 0.97385032330E+01
 0.94974320105E+01 0.93261741998E+01 0.94124630062E+01 0.96572308102E+01 0.10065868832E+02
 0.10733100485E+02 0.11841173657E+02 0.13592113551E+02 0.16098417592E+02 0.21613610702E+02
 0.35903883112E+02 0.63255248793E+02 0.10474828924E+03 0.15802290642E+03 0.21720087977E+03
 0.27281270276E+03 0.31313465723E+03 0.32794617895E+03 0.31313465723E+03 0.27281270276E+03
 0.21720087977E+03 0.15802290642E+03 0.10474828924E+03 0.63255248793E+02 0.35903883112E+02
 0.21613610702E+02 0.16098417592E+02 0.13592113551E+02 0.11841173657E+02 0.10733100485E+02
 0.10065868832E+02 0.96572308102E+01 0.94124630062E+01 0.94124630062E+01 0.94974320105E+01
 0.97385032330E+01 0.10140154119E+02 0.10792890982E+02 0.11872669612E+02 0.13577772248E+02
 0.16011504474E+02 0.21130963432E+02 0.34482465225E+02 0.60316805111E+02 0.99779755453E+02
 0.15063878169E+03 0.20722349406E+03 0.26041493186E+03 0.29897389471E+03 0.31313465723E+03
 0.29897389471E+03 0.26041493186E+03 0.20722349406E+03 0.15063878169E+03 0.99779755453E+02
 0.60316805111E+02 0.34482465225E+02 0.21130963432E+02 0.16011504474E+02 0.13577772248E+02
 0.11872669612E+02 0.10792890982E+02 0.10140154119E+02 0.97385032330E+01 0.94974320105E+01
 0.96572308102E+01 0.97385032330E+01 0.99692009468E+01 0.10351213240E+02 0.10963198912E+02
 0.11963227269E+02 0.13537943064E+02 0.15787920525E+02 0.19912196842E+02 0.30755508988E+02
 0.52455133971E+02 0.86342671168E+02 0.13056366689E+03 0.18004712322E+03 0.22664209519E+03
 0.26041493186E+03 0.27281270276E+03 0.26041493186E+03 0.22664209519E+03 0.18004712322E+03
 0.13056366689E+03 0.86342671168E+02 0.52455133971E+02 0.30755508988E+02 0.19912196842E+02