   4   4   0   0
  0.1022208E+02  0.3445083E-09  0.3445083E-09  0.3445083E-09  0.5000000E-15
  1.000000000000000E-004
  CAR 
 unknown system                          
     38.09034819     -4.02729297  301      6.81383868      1.00000000
     -4.027  0.0000E+00  0.0000E+00
     -3.887  0.0000E+00  0.0000E+00
     -3.747 -0.2240E-32 -0.3145E-33
     -3.606 -0.2190E-27 -0.3075E-28
     -3.466 -0.7929E-23 -0.1113E-23
     -3.325 -0.1061E-18 -0.1490E-19
     -3.185 -0.5112E-15 -0.7178E-16
     -3.045 -0.9146E-12 -0.1285E-12
     -2.904 -0.5994E-09 -0.8427E-10
     -2.764 -0.1414E-06 -0.1993E-07
     -2.623 -0.1173E-04 -0.1667E-05
     -2.483 -0.3233E-03 -0.4705E-04
     -2.343 -0.2418E-02 -0.3865E-03
     -2.202  0.1985E-02 -0.1078E-03
     -2.062  0.4131E-01  0.5692E-02
     -1.921  0.5839E-01  0.1389E-01
     -1.781  0.2511E-02  0.1424E-01
     -1.641  0.9237E-02  0.1554E-01
     -1.500  0.2476E+00  0.5029E-01
     -1.360  0.3554E+00  0.1002E+00
     -1.219  0.6734E-01  0.1096E+00
     -1.079  0.5910E-01  0.1179E+00
     -0.939  0.5935E+00  0.2013E+00
     -0.798  0.6442E+00  0.2917E+00
     -0.658  0.1030E+00  0.3062E+00
     -0.517  0.1671E+00  0.3296E+00
     -0.377  0.4928E+00  0.3988E+00
     -0.237  0.2385E+00  0.4323E+00
     -0.096  0.3848E-01  0.4377E+00
      0.044  0.2893E+00  0.4783E+00
      0.184  0.2638E+00  0.5153E+00
      0.325  0.7043E-01  0.5252E+00
      0.465  0.8769E+00  0.6483E+00
      0.606  0.1403E+01  0.8453E+00
      0.746  0.8001E+00  0.9576E+00
      0.886  0.1326E+01  0.1144E+01
      1.027  0.1067E+01  0.1294E+01
      1.167  0.8796E-01  0.1306E+01
      1.308 -0.1063E+00  0.1291E+01
      1.448 -0.1321E+00  0.1272E+01
      1.588  0.6126E+00  0.1358E+01
      1.729  0.2520E+01  0.1712E+01
      1.869  0.2524E+01  0.2067E+01
      2.010  0.1803E+01  0.2320E+01
      2.150  0.3165E+01  0.2764E+01
      2.290  0.4875E+01  0.3448E+01
      2.431  0.3834E+01  0.3987E+01
      2.571  0.4258E+01  0.4585E+01
      2.712  0.4593E+01  0.5229E+01
      2.852  0.3418E+01  0.5709E+01
      2.992  0.5595E+01  0.6495E+01
      3.133  0.8213E+01  0.7648E+01
      3.273  0.7752E+01  0.8736E+01
      3.413  0.3339E+01  0.9205E+01
      3.554  0.4038E+01  0.9772E+01
      3.694  0.7957E+01  0.1089E+02
      3.835  0.6421E+01  0.1179E+02
      3.975  0.3066E+01  0.1222E+02
      4.115  0.2603E+01  0.1259E+02
      4.256  0.5100E+01  0.1330E+02
      4.396  0.7703E+01  0.1438E+02
      4.537  0.6244E+01  0.1526E+02
      4.677  0.4404E+01  0.1588E+02
      4.817  0.9057E+01  0.1715E+02
      4.958  0.1074E+02  0.1866E+02
      5.098  0.7548E+01  0.1972E+02
      5.239  0.7196E+01  0.2073E+02
      5.379  0.8089E+01  0.2186E+02
      5.519  0.8248E+01  0.2302E+02
      5.660  0.6046E+01  0.2387E+02
      5.800  0.6334E+01  0.2476E+02
      5.941  0.7971E+01  0.2588E+02
      6.081  0.7983E+01  0.2700E+02
      6.221  0.6684E+01  0.2794E+02
      6.362  0.7466E+01  0.2899E+02
      6.502  0.5565E+01  0.2977E+02
      6.643  0.4086E+01  0.3034E+02
      6.783  0.9119E+01  0.3162E+02
      6.923  0.1188E+02  0.3329E+02
      7.064  0.6408E+01  0.3419E+02
      7.204  0.2802E+01  0.3458E+02
      7.344  0.4816E+01  0.3526E+02
      7.485  0.7447E+01  0.3630E+02
      7.625  0.9823E+01  0.3768E+02
      7.766  0.1279E+02  0.3948E+02
      7.906  0.9459E+01  0.4081E+02
      8.046  0.5040E+01  0.4152E+02
      8.187  0.4830E+01  0.4219E+02
      8.327  0.4108E+01  0.4277E+02
      8.468  0.1529E+01  0.4298E+02
      8.608 -0.6059E-01  0.4298E+02
      8.748 -0.1444E+00  0.4296E+02
      8.889 -0.5435E-01  0.4295E+02
      9.029  0.6576E+00  0.4304E+02
      9.170  0.1448E+01  0.4324E+02
      9.310  0.5860E+00  0.4333E+02
      9.450  0.1072E+01  0.4348E+02
      9.591  0.3339E+01  0.4395E+02
      9.731  0.2965E+01  0.4436E+02
      9.872  0.9580E+00  0.4450E+02
     10.012  0.6326E+00  0.4458E+02
     10.152  0.1625E+01  0.4481E+02
     10.293  0.8914E+00  0.4494E+02
     10.433 -0.1812E-01  0.4494E+02
     10.573 -0.9480E-01  0.4492E+02
     10.714 -0.4740E-01  0.4492E+02
     10.854  0.6489E+00  0.4501E+02
     10.995  0.1584E+01  0.4523E+02
     11.135  0.1704E+01  0.4547E+02
     11.275  0.1374E+01  0.4566E+02
     11.416  0.2982E+00  0.4570E+02
     11.556  0.1129E+00  0.4572E+02
     11.697  0.6707E+00  0.4581E+02
     11.837  0.7564E+00  0.4592E+02
     11.977  0.6757E+00  0.4601E+02
     12.118  0.3462E+00  0.4606E+02
     12.258  0.1608E+01  0.4629E+02
     12.399  0.4006E+01  0.4685E+02
     12.539  0.2682E+01  0.4723E+02
     12.679  0.2126E+00  0.4726E+02
     12.820 -0.1816E+00  0.4723E+02
     12.960 -0.2554E-01  0.4723E+02
     13.101  0.4242E+00  0.4729E+02
     13.241  0.7495E+00  0.4739E+02
     13.381  0.2676E+00  0.4743E+02
     13.522 -0.2986E-01  0.4743E+02
     13.662 -0.1598E-01  0.4742E+02
     13.803 -0.1226E-02  0.4742E+02
     13.943 -0.7002E-04  0.4742E+02
     14.083 -0.1926E-02  0.4742E+02
     14.224 -0.2793E-01  0.4742E+02
     14.364 -0.7357E-01  0.4741E+02
     14.504  0.4199E+00  0.4747E+02
     14.645  0.1550E+01  0.4769E+02
     14.785  0.1546E+01  0.4790E+02
     14.926  0.6792E+00  0.4800E+02
     15.066  0.2989E-01  0.4800E+02
     15.206 -0.1200E+00  0.4799E+02
     15.347  0.3961E+00  0.4804E+02
     15.487  0.1567E+01  0.4826E+02
     15.628  0.2680E+01  0.4864E+02
     15.768  0.3053E+01  0.4907E+02
     15.908  0.2949E+01  0.4948E+02
     16.049  0.2684E+01  0.4986E+02
     16.189  0.6446E+00  0.4995E+02
     16.330 -0.1487E+00  0.4993E+02
     16.470 -0.4467E-01  0.4992E+02
     16.610 -0.7439E-02  0.4992E+02
     16.751 -0.2375E-01  0.4992E+02
     16.891  0.5928E-01  0.4992E+02
     17.032  0.3790E+00  0.4998E+02
     17.172  0.3080E+00  0.5002E+02
     17.312  0.5292E+00  0.5010E+02
     17.453  0.2592E+01  0.5046E+02
     17.593  0.3169E+01  0.5090E+02
     17.733  0.1166E+01  0.5107E+02
     17.874  0.1014E+01  0.5121E+02
     18.014  0.1086E+01  0.5136E+02
     18.155  0.1884E+00  0.5139E+02
     18.295 -0.4589E-01  0.5138E+02
     18.435  0.1232E+01  0.5156E+02
     18.576  0.3125E+01  0.5199E+02
     18.716  0.3163E+01  0.5244E+02
     18.857  0.1191E+01  0.5261E+02
     18.997 -0.5239E-01  0.5260E+02
     19.137  0.2317E+00  0.5263E+02
     19.278  0.7685E+00  0.5274E+02
     19.418  0.1205E+01  0.5291E+02
     19.559  0.1439E+01  0.5311E+02
     19.699  0.1242E+01  0.5328E+02
     19.839  0.1428E+01  0.5348E+02
     19.980  0.4408E+00  0.5355E+02
     20.120 -0.4215E-01  0.5354E+02
     20.261  0.1894E+01  0.5381E+02
     20.401  0.3603E+01  0.5431E+02
     20.541  0.2391E+01  0.5465E+02
     20.682  0.1846E+01  0.5491E+02
     20.822  0.1067E+01  0.5506E+02
     20.963  0.3359E+00  0.5510E+02
     21.103  0.1795E+01  0.5536E+02
     21.243  0.2417E+01  0.5570E+02
     21.384  0.5911E+00  0.5578E+02
     21.524 -0.3011E+00  0.5574E+02
     21.664  0.2106E+00  0.5577E+02
     21.805  0.3093E+01  0.5620E+02
     21.945  0.4518E+01  0.5683E+02
     22.086  0.1895E+01  0.5710E+02
     22.226  0.7891E-01  0.5711E+02
     22.366 -0.2944E+00  0.5707E+02
     22.507  0.8274E+00  0.5719E+02
     22.647  0.3920E+01  0.5774E+02
     22.788  0.4491E+01  0.5837E+02
     22.928  0.2944E+01  0.5878E+02
     23.068  0.2303E+01  0.5910E+02
     23.209  0.1356E+01  0.5929E+02
     23.349  0.1933E+00  0.5932E+02
     23.490 -0.2367E+00  0.5929E+02
     23.630  0.3015E+00  0.5933E+02
     23.770  0.2714E+01  0.5971E+02
     23.911  0.3866E+01  0.6025E+02
     24.051  0.2918E+01  0.6066E+02
     24.192  0.2159E+01  0.6097E+02
     24.332  0.1527E+01  0.6118E+02
     24.472  0.4265E+00  0.6124E+02
     24.613 -0.2462E+00  0.6121E+02
     24.753  0.5000E+00  0.6128E+02
     24.893  0.3180E+01  0.6172E+02
     25.034  0.3085E+01  0.6216E+02
     25.174  0.3787E+00  0.6221E+02
     25.315 -0.3646E+00  0.6216E+02
     25.455  0.1206E+01  0.6233E+02
     25.595  0.4421E+01  0.6295E+02
     25.736  0.3798E+01  0.6348E+02
     25.876  0.8096E+00  0.6360E+02
     26.017  0.7292E+00  0.6370E+02
     26.157  0.1319E+01  0.6388E+02
     26.297  0.4738E+00  0.6395E+02
     26.438  0.1643E+01  0.6418E+02
     26.578  0.3426E+01  0.6466E+02
     26.719  0.1762E+01  0.6491E+02
     26.859  0.3907E+00  0.6496E+02
     26.999  0.1292E+01  0.6514E+02
     27.140  0.1057E+01  0.6529E+02
     27.280  0.1666E-01  0.6530E+02
     27.421 -0.2737E-01  0.6529E+02
     27.561  0.9933E+00  0.6543E+02
     27.701  0.2301E+01  0.6575E+02
     27.842  0.3041E+01  0.6618E+02
     27.982  0.2439E+01  0.6652E+02
     28.123  0.1574E+01  0.6674E+02
     28.263  0.7498E+00  0.6685E+02
     28.403  0.1442E+01  0.6705E+02
     28.544  0.3570E+01  0.6755E+02
     28.684  0.2715E+01  0.6793E+02
     28.824  0.5691E+00  0.6801E+02
     28.965  0.1567E+00  0.6804E+02
     29.105  0.6277E+00  0.6812E+02
     29.246  0.1250E+01  0.6830E+02
     29.386  0.1043E+01  0.6845E+02
     29.526  0.1482E+01  0.6865E+02
     29.667  0.2751E+01  0.6904E+02
     29.807  0.3418E+01  0.6952E+02
     29.948  0.2045E+01  0.6981E+02
     30.088  0.1174E+01  0.6997E+02
     30.228  0.1851E+01  0.7023E+02
     30.369  0.1076E+01  0.7038E+02
     30.509 -0.6231E-01  0.7037E+02
     30.650  0.3588E+00  0.7042E+02
     30.790  0.1894E+01  0.7069E+02
     30.930  0.2578E+01  0.7105E+02
     31.071  0.3874E+01  0.7160E+02
     31.211  0.4061E+01  0.7217E+02
     31.352  0.3015E+01  0.7259E+02
     31.492  0.1549E+01  0.7281E+02
     31.632  0.8123E-01  0.7282E+02
     31.773  0.4208E+00  0.7288E+02
     31.913  0.1534E+01  0.7309E+02
     32.053  0.1836E+01  0.7335E+02
     32.194  0.2120E+01  0.7365E+02
     32.334  0.2334E+01  0.7398E+02
     32.475  0.2006E+01  0.7426E+02
     32.615  0.7656E+00  0.7437E+02
     32.755 -0.4646E-01  0.7436E+02
     32.896 -0.1338E+00  0.7434E+02
     33.036 -0.1942E+00  0.7431E+02
     33.177  0.1102E+01  0.7447E+02
     33.317  0.5008E+01  0.7517E+02
     33.457  0.6052E+01  0.7602E+02
     33.598  0.3742E+01  0.7655E+02
     33.738  0.3166E+01  0.7699E+02
     33.879  0.1915E+01  0.7726E+02
     34.019  0.9299E+00  0.7739E+02
     34.159  0.4238E+00  0.7745E+02
     34.300  0.4440E+00  0.7751E+02
     34.440  0.5908E+00  0.7759E+02
     34.581  0.1360E+01  0.7779E+02
     34.721  0.2901E+01  0.7819E+02
     34.861  0.1867E+01  0.7845E+02
     35.002  0.6521E+00  0.7855E+02
     35.142  0.1275E+01  0.7873E+02
     35.283  0.1362E+01  0.7892E+02
     35.423  0.2524E+00  0.7895E+02
     35.563 -0.9248E-01  0.7894E+02
     35.704  0.4924E+00  0.7901E+02
     35.844  0.1562E+01  0.7923E+02
     35.984  0.2229E+01  0.7954E+02
     36.125  0.2370E+01  0.7987E+02
     36.265  0.1018E+01  0.8002E+02
     36.406 -0.4139E-01  0.8001E+02
     36.546 -0.6475E-01  0.8000E+02
     36.686 -0.6779E-02  0.8000E+02
     36.827 -0.2124E-03  0.8000E+02
     36.967 -0.2302E-05  0.8000E+02
     37.108 -0.9006E-08  0.8000E+02
     37.248 -0.1294E-10  0.8000E+02
     37.388 -0.6681E-14  0.8000E+02
     37.529  0.0000E+00  0.8000E+02
     37.669  0.0000E+00  0.8000E+02
     37.810  0.0000E+00  0.8000E+02
     37.950  0.0000E+00  0.8000E+02
     38.090  0.0000E+00  0.8000E+02
