    4    4    1    1
  0.1022208E+02  0.3445083E-09  0.3445083E-09  0.3445083E-09  0.5000000E-15
  1.000000000000000E-004
  CAR 
 unknown system                          
     32     10     40
 
  0.0000000E+00  0.0000000E+00  0.0000000E+00  0.8000000E-02
    1       -2.027293   1.000000
    2        1.868435   1.000000
    3        1.868435   1.000000
    4        1.868435   1.000000
    5        2.608973   1.000000
    6        2.608973   1.000000
    7        2.608973   1.000000
    8        5.179056   1.000000
    9        5.179056   1.000000
   10        5.179056   1.000000
   11        6.742148   0.782824
   12        6.742148   0.782824
   13        7.779891  -0.000000
   14        7.779891  -0.000000
   15        7.779891  -0.000000
   16        8.077772  -0.000000
   17        8.077772  -0.000000
   18        8.077772  -0.000000
   19        8.077772  -0.000000
   20        8.077772  -0.000000
   21        8.077772  -0.000000
   22       10.078129  -0.000000
   23       10.078129  -0.000000
   24       10.078129  -0.000000
   25       18.579014   0.000000
   26       18.579014   0.000000
   27       18.579014   0.000000
   28       23.085973   0.000000
   29       23.085973   0.000000
   30       23.085973   0.000000
   31       23.085973   0.000000
   32       23.085973   0.000000
   33       23.085973   0.000000
   34       28.512909   0.000000
   35       28.512909   0.000000
   36       28.512909   0.000000
   37       30.149505   0.000000
   38       33.433147   0.000000
   39       33.433147   0.000000
   40       33.433147   0.000000
 
  0.2000000E+00  0.0000000E+00  0.0000000E+00  0.4800000E-01
    1       -1.466021   1.000000
    2        1.968386   1.000000
    3        2.203081   1.000000
    4        2.203081   1.000000
    5        2.825993   1.000000
    6        2.866758   1.000000
    7        2.866758   1.000000
    8        4.899466   1.000000
    9        5.385845   1.000000
   10        5.385845   1.000000
   11        6.484819   1.020995
   12        6.622225   1.020211
   13        6.622225   1.020211
   14        6.836852   0.403335
   15        7.442642  -0.000041
   16        7.442642  -0.000041
   17        7.676822  -0.000000
   18        7.698192  -0.000000
   19        7.698192  -0.000000
   20        8.078430  -0.000000
   21        8.078430  -0.000000
   22        8.247256  -0.000000
   23       11.924739  -0.000000
   24       11.924739  -0.000000
   25       18.574862   0.000000
   26       18.574862   0.000000
   27       21.098508   0.000000
   28       21.098508   0.000000
   29       21.129520   0.000000
   30       22.012972   0.000000
   31       22.012972   0.000000
   32       24.014549   0.000000
   33       24.014549   0.000000
   34       28.576767   0.000000
   35       29.797074   0.000000
   36       30.988920   0.000000
   37       30.988920   0.000000
   38       33.165958   0.000000
   39       33.363730   0.000000
   40       33.363872   0.000000
 
  0.4000000E+00  0.0000000E+00  0.0000000E+00  0.4800000E-01
    1        0.046460   1.000000
    2        1.642074   1.000000
    3        2.883965   1.000000
    4        2.883965   1.000000
    5        3.418836   1.000000
    6        3.638735   1.000000
    7        3.638735   1.000000
    8        4.207429   1.000000
    9        4.912158   1.000000
   10        4.912158   1.000000
   11        5.935745   1.000000
   12        5.978914   1.000000
   13        5.978914   1.000000
   14        6.089797   1.000002
   15        6.743487   0.778250
   16        6.743487   0.778250
   17        6.843172   0.377348
   18        6.843172   0.377348
   19        7.089574  -0.032523
   20        7.410125  -0.000104
   21        8.079642  -0.000000
   22        8.079642  -0.000000
   23       14.792332   0.000000
   24       14.792332   0.000000
   25       17.928457   0.000000
   26       17.928457   0.000000
   27       18.584057   0.000000
   28       18.584057   0.000000
   29       20.727658   0.000000
   30       20.727658   0.000000
   31       25.681199   0.000000
   32       26.459440   0.000000
   33       26.459440   0.000000
   34       28.796842   0.000000
   35       29.208117   0.000000
   36       29.719211   0.000000
   37       29.789303   0.000000
   38       29.789303   0.000000
   39       34.968174   0.000000
   40       35.694601   0.000000
 
  0.2000000E+00  0.2000000E+00  0.0000000E+00  0.9600000E-01
    1       -0.930471   1.000000
    2        2.329879   1.000000
    3        2.329879   1.000000
    4        2.500106   1.000000
    5        3.057906   1.000000
    6        3.057906   1.000000
    7        3.076366   1.000000
    8        4.776535   1.000000
    9        5.453129   1.000000
   10        5.476178   1.000000
   11        6.045030   1.000000
   12        6.048904   1.000000
   13        6.048904   1.000000
   14        6.439918   1.011903
   15        6.866458   0.285666
   16        7.186396  -0.012137
   17        7.402030  -0.000129
   18        7.402030  -0.000129
   19        7.695294  -0.000000
   20        7.695294  -0.000000
   21        7.829709  -0.000000
   22       10.097305  -0.000000
   23       10.097305  -0.000000
   24       13.151829   0.000000
   25       17.368018   0.000000
   26       19.202631   0.000000
   27       21.142609   0.000000
   28       21.142609   0.000000
   29       21.863086   0.000000
   30       21.863086   0.000000
   31       22.959403   0.000000
   32       22.959403   0.000000
   33       24.866901   0.000000
   34       28.345225   0.000000
   35       29.624262   0.000000
   36       30.055146   0.000000
   37       31.248955   0.000000
   38       31.248955   0.000000
   39       34.321592   0.000000
   40       36.090348   0.000000
 
  0.4000000E+00  0.2000000E+00  0.0000000E+00  0.1920000E+00
    1        0.508917   1.000000
    2        2.046421   1.000000
    3        3.110775   1.000000
    4        3.174843   1.000000
    5        3.574969   1.000000
    6        3.599105   1.000000
    7        3.743316   1.000000
    8        4.245638   1.000000
    9        4.545065   1.000000
   10        4.823503   1.000000
   11        5.239165   1.000000
   12        5.424931   1.000000
   13        5.999277   1.000000
   14        6.300881   1.000863
   15        6.636083   1.009405
   16        6.738323   0.795680
   17        6.842096   0.381745
   18        6.906700   0.150132
   19        7.330787  -0.000786
   20        7.690387  -0.000000
   21        7.705340  -0.000000
   22        8.177566  -0.000000
   23       12.277998   0.000000
   24       14.604139   0.000000
   25       15.680855   0.000000
   26       18.687995   0.000000
   27       19.460391   0.000000
   28       20.359091   0.000000
   29       22.807877   0.000000
   30       23.752643   0.000000
   31       24.018579   0.000000
   32       24.245425   0.000000
   33       26.060736   0.000000
   34       26.571106   0.000000
   35       26.975685   0.000000
   36       32.076012   0.000000
   37       32.251096   0.000000
   38       33.275096   0.000000
   39       33.494503   0.000000
   40       36.043067   0.000000
 
  0.4000000E+00  0.4000000E+00  0.0000000E+00  0.9600000E-01
    1        1.703211   1.000000
    2        2.961652   1.000000
    3        2.961652   1.000000
    4        3.473171   1.000000
    5        3.861330   1.000000
    6        3.996351   1.000000
    7        3.996351   1.000000
    8        4.219012   1.000000
    9        4.430795   1.000000
   10        4.430795   1.000000
   11        4.501060   1.000000
   12        5.064800   1.000000
   13        6.042216   1.000000
   14        6.240532   1.000193
   15        6.283360   1.000571
   16        6.370005   1.003699
   17        6.370005   1.003699
   18        6.890051   0.202009
   19        6.890051   0.202009
   20        7.144687  -0.020581
   21        8.249497  -0.000000
   22        9.703222  -0.000000
   23        9.703222  -0.000000
   24       11.662189  -0.000000
   25       17.816996   0.000000
   26       20.283467   0.000000
   27       20.590945   0.000000
   28       20.590945   0.000000
   29       21.798709   0.000000
   30       21.798709   0.000000
   31       23.113555   0.000000
   32       23.822471   0.000000
   33       28.057547   0.000000
   34       28.057547   0.000000
   35       29.249573   0.000000
   36       30.786433   0.000000
   37       33.268025   0.000000
   38       34.769299   0.000000
   39       35.835526   0.000000
   40       35.835526   0.000000
 
  0.2000000E+00  0.2000000E+00  0.2000000E+00  0.6400000E-01
    1       -0.437813   1.000000
    2        2.602001   1.000000
    3        2.602001   1.000000
    4        2.602001   1.000000
    5        3.258395   1.000000
    6        3.258395   1.000000
    7        3.258395   1.000000
    8        4.724857   1.000000
    9        5.466469   1.000000
   10        5.466469   1.000000
   11        5.625794   1.000000
   12        5.625794   1.000000
   13        5.625794   1.000000
   14        6.714128   0.869303
   15        6.714128   0.869303
   16        6.769499   0.682602
   17        6.769499   0.682602
   18        6.769499   0.682602
   19        7.913015  -0.000000
   20        7.913015  -0.000000
   21        7.913015  -0.000000
   22       10.922092  -0.000000
   23       10.922092  -0.000000
   24       10.922092  -0.000000
   25       18.453750   0.000000
   26       18.453750   0.000000
   27       18.453750   0.000000
   28       21.836105   0.000000
   29       21.836105   0.000000
   30       21.836105   0.000000
   31       25.562604   0.000000
   32       25.653276   0.000000
   33       25.653276   0.000000
   34       25.653276   0.000000
   35       30.203529   0.000000
   36       30.203529   0.000000
   37       30.203529   0.000000
   38       31.052624   0.000000
   39       34.653572   0.000000
   40       34.653572   0.000000
 
  0.4000000E+00  0.2000000E+00  0.2000000E+00  0.1920000E+00
    1        0.864458   1.000000
    2        2.248350   1.000000
    3        3.193568   1.000000
    4        3.193568   1.000000
    5        3.650446   1.000000
    6        3.650446   1.000000
    7        3.806704   1.000000
    8        4.386337   1.000000
    9        4.825460   1.000000
   10        4.825460   1.000000
   11        5.077344   1.000000
   12        5.349531   1.000000
   13        5.639012   1.000000
   14        6.114271   1.000004
   15        6.339431   1.002012
   16        6.339431   1.002012
   17        6.873590   0.259246
   18        7.261102  -0.003464
   19        7.736653  -0.000000
   20        7.736653  -0.000000
   21        7.738116  -0.000000
   22        8.303834  -0.000000
   23       12.388493   0.000000
   24       12.388493   0.000000
   25       15.934218   0.000000
   26       15.934218   0.000000
   27       20.297102   0.000000
   28       22.607661   0.000000
   29       22.607661   0.000000
   30       22.686311   0.000000
   31       24.896628   0.000000
   32       24.896628   0.000000
   33       26.480098   0.000000
   34       27.842997   0.000000
   35       29.523619   0.000000
   36       31.033938   0.000000
   37       31.093641   0.000000
   38       33.348757   0.000000
   39       33.348757   0.000000
   40       34.642341   0.000000
 
  0.4000000E+00  0.4000000E+00  0.2000000E+00  0.1920000E+00
    1        1.714032   1.000000
    2        2.596548   1.000000
    3        2.596548   1.000000
    4        2.906552   1.000000
    5        4.159228   1.000000
    6        4.360114   1.000000
    7        4.360114   1.000000
    8        4.708258   1.000000
    9        4.891664   1.000000
   10        4.891664   1.000000
   11        5.077745   1.000000
   12        5.151108   1.000000
   13        5.477855   1.000000
   14        5.788356   1.000000
   15        5.788356   1.000000
   16        5.819566   1.000000
   17        6.947541   0.051603
   18        7.488831  -0.000010
   19        7.488831  -0.000010
   20        7.538610  -0.000002
   21        8.013926  -0.000000
   22        9.532821  -0.000000
   23        9.532821  -0.000000
   24       11.164519  -0.000000
   25       15.648913   0.000000
   26       17.493376   0.000000
   27       17.493376   0.000000
   28       19.756627   0.000000
   29       23.799817   0.000000
   30       25.539929   0.000000
   31       25.539929   0.000000
   32       27.582504   0.000000
   33       28.519423   0.000000
   34       28.519423   0.000000
   35       29.771460   0.000000
   36       30.758763   0.000000
   37       32.422286   0.000000
   38       33.682871   0.000000
   39       33.682871   0.000000
   40       35.160948   0.000000
 
  0.4000000E+00  0.4000000E+00  0.4000000E+00  0.6400000E-01
    1        1.831563   1.000000
    2        2.221486   1.000000
    3        2.221486   1.000000
    4        2.221486   1.000000
    5        4.802849   1.000000
    6        4.802849   1.000000
    7        4.802849   1.000000
    8        5.176079   1.000000
    9        5.176079   1.000000
   10        5.311101   1.000000
   11        5.311101   1.000000
   12        5.311101   1.000000
   13        5.861847   1.000000
   14        5.861847   1.000000
   15        5.861847   1.000000
   16        5.943155   1.000000
   17        7.594111  -0.000000
   18        7.594111  -0.000000
   19        7.820050  -0.000000
   20        7.820050  -0.000000
   21        7.820050  -0.000000
   22        9.102447  -0.000000
   23        9.102447  -0.000000
   24        9.102447  -0.000000
   25       15.438129   0.000000
   26       15.438129   0.000000
   27       15.438129   0.000000
   28       17.032972   0.000000
   29       27.762883   0.000000
   30       27.762883   0.000000
   31       27.762883   0.000000
   32       29.086919   0.000000
   33       31.360914   0.000000
   34       31.360914   0.000000
   35       31.360914   0.000000
   36       31.854909   0.000000
   37       31.854909   0.000000
   38       31.854909   0.000000
   39       33.952648   0.000000
   40       33.952648   0.000000
