       N       E                     dE             d eps       ncg     rms          rms(c)
DAV:   1     0.163268285631E+03    0.16327E+03   -0.84838E+03   880   0.693E+02
DAV:   2    -0.257258117824E+02   -0.18899E+03   -0.16545E+03   832   0.186E+02
DAV:   3    -0.383311305581E+02   -0.12605E+02   -0.11421E+02   904   0.581E+01
DAV:   4    -0.384982442938E+02   -0.16711E+00   -0.16677E+00   888   0.797E+00
DAV:   5    -0.384997372869E+02   -0.14930E-02   -0.14930E-02   896   0.576E-01    0.240E+01
DAV:   6    -0.327043396688E+02    0.57954E+01   -0.12739E+01   904   0.524E+01    0.371E+00
DAV:   7    -0.323558428433E+02    0.34850E+00   -0.11219E+00   960   0.131E+01    0.142E+00
DAV:   8    -0.323011414147E+02    0.54701E-01   -0.12232E-02  1072   0.850E-01    0.627E-01
DAV:   9    -0.322811803333E+02    0.19961E-01   -0.42232E-03   992   0.386E-01    0.914E-02
DAV:  10    -0.322812206595E+02   -0.40326E-04   -0.47765E-04   888   0.122E-01    0.435E-02
DAV:  11    -0.322812251669E+02   -0.45074E-05   -0.41058E-06   904   0.134E-02    0.251E-02
DAV:  12    -0.322812168283E+02    0.83386E-05   -0.51297E-06   904   0.158E-02    0.166E-03
DAV:  13    -0.322812176718E+02   -0.84351E-06   -0.91128E-08   480   0.159E-03
   1 F= -.32281218E+02 E0= -.32263562E+02  d E =-.529657E-01
