unknown system                          
   1.00000000000000     
     2.399900    0.000000    0.000000
    -1.199950    2.078374    0.000000
     0.000000    0.000000    4.349690
   Fe
     2
Direct
  0.000000  0.000000  0.000000
  0.333333  0.666667  0.500000
 
   20   20   36
 0.18251183315E+03 0.17238079553E+03 0.14528324478E+03 0.10928443618E+03 0.73284494588E+02
 0.43835681642E+02 0.24018640139E+02 0.13653926201E+02 0.99513312824E+01 0.88292584093E+01
 0.84569079289E+01 0.88299178672E+01 0.99518368005E+01 0.13653673839E+02 0.24017960951E+02
 0.43835373014E+02 0.73284829565E+02 0.10928493655E+03 0.14528340512E+03 0.17238069270E+03
 0.17239070832E+03 0.17238021409E+03 0.15380595538E+03 0.12248670692E+03 0.87007078089E+02
 0.55053497983E+02 0.31323718950E+02 0.17167409569E+02 0.11004390602E+02 0.91816581007E+01
 0.84571603441E+01 0.84561265074E+01 0.91805301462E+01 0.11005531952E+02 0.17168883652E+02
 0.31322097765E+02 0.55051309412E+02 0.87013114427E+02 0.12250558300E+03 0.15382896058E+03
 0.14529830040E+03 0.15379429818E+03 0.14528331900E+03 0.12248727147E+03 0.92112121052E+02
 0.61696484793E+02 0.36941468579E+02 0.20573804095E+02 0.12327601049E+02 0.95062837508E+01
 0.84947360988E+01 0.81496454679E+01 0.84922859375E+01 0.95055663158E+01 0.12329683664E+02
 0.20573852037E+02 0.36936153480E+02 0.61691465930E+02 0.92117254613E+02 0.12250350972E+03
 0.10927853253E+03 0.12243009589E+03 0.12243246719E+03 0.10928552669E+03 0.87007024133E+02
 0.61696026847E+02 0.39049912599E+02 0.22672274157E+02 0.13465862243E+02 0.98165214699E+01
 0.85552242714E+01 0.79379013157E+01 0.79371891804E+01 0.85543398804E+01 0.98172761999E+01
 0.13467441086E+02 0.22671229960E+02 0.39043677226E+02 0.61685781046E+02 0.86996694794E+02
 0.73264312205E+02 0.86911139570E+02 0.91991933674E+02 0.86927583965E+02 0.73284648711E+02
 0.55052577305E+02 0.36941513362E+02 0.22672578650E+02 0.13916136931E+02 0.10029959036E+02
 0.86117190640E+01 0.78180319880E+01 0.75600133242E+01 0.78187637009E+01 0.86120714764E+01
 0.10030585167E+02 0.13919370002E+02 0.22677633973E+02 0.36941775555E+02 0.55041293792E+02
 0.43833683879E+02 0.54979054503E+02 0.61568990564E+02 0.61574558957E+02 0.54988813033E+02
 0.43835154616E+02 0.31323594064E+02 0.20574468415E+02 0.13465798128E+02 0.10029802292E+02
 0.86349528513E+01 0.77679244862E+01 0.73517798587E+01 0.73528035222E+01 0.77687262324E+01
 0.86331394386E+01 0.10028896032E+02 0.13472155964E+02 0.20587630070E+02 0.31333802520E+02
 0.24032856237E+02 0.31313303530E+02 0.36884504752E+02 0.38968295708E+02 0.36878867764E+02
 0.31301754184E+02 0.24018307470E+02 0.17167914145E+02 0.12327672516E+02 0.98161154218E+01
 0.86118456268E+01 0.77679850635E+01 0.72863547909E+01 0.71370461476E+01 0.72878592382E+01
 0.77669185052E+01 0.86064494019E+01 0.98109907780E+01 0.12329683664E+02 0.17178780680E+02
 0.13652567618E+02 0.17193755203E+02 0.20598392802E+02 0.22679018314E+02 0.22672572442E+02
 0.20584575527E+02 0.17183966699E+02 0.13653936193E+02 0.11004660273E+02 0.95058325513E+01
 0.85552355218E+01 0.78182532727E+01 0.73515465144E+01 0.71370070672E+01 0.71380337760E+01
 0.73533864377E+01 0.78176574809E+01 0.85490420869E+01 0.94945836384E+01 0.10994410112E+02
 0.99350715515E+01 0.11026965387E+02 0.12383421138E+02 0.13536058490E+02 0.13986152597E+02
 0.13531418279E+02 0.12383338235E+02 0.11037767824E+02 0.99515548078E+01 0.91814515715E+01
 0.84945068587E+01 0.79382712638E+01 0.75598917514E+01 0.73526527344E+01 0.72882247537E+01
 0.73534689942E+01 0.75637654358E+01 0.79435931940E+01 0.84941559003E+01 0.91705145264E+01
 0.88290518865E+01 0.92086303207E+01 0.95654161473E+01 0.99063271418E+01 0.10138185567E+02
 0.10140036502E+02 0.99128804166E+01 0.95763839713E+01 0.92182556479E+01 0.88294646193E+01
 0.84568957912E+01 0.81499418733E+01 0.79374052831E+01 0.78184935121E+01 0.77689696359E+01
 0.77671013313E+01 0.78171660073E+01 0.79434393487E+01 0.81626003460E+01 0.84670081078E+01
 0.84718032151E+01 0.85074871330E+01 0.85738478763E+01 0.86616203580E+01 0.87421226205E+01
 0.87774464451E+01 0.87475961342E+01 0.86669157175E+01 0.85722683204E+01 0.84969288051E+01
 0.84569024539E+01 0.84560685334E+01 0.84926368959E+01 0.85540905789E+01 0.86118456268E+01
 0.86333024385E+01 0.86060969895E+01 0.85487815350E+01 0.84947360988E+01 0.84672146867E+01
 0.88284429894E+01 0.85072824453E+01 0.82459732041E+01 0.80678776296E+01 0.79741126020E+01
 0.79418649279E+01 0.79434712085E+01 0.79748625989E+01 0.80614232067E+01 0.82334279722E+01
 0.84977829478E+01 0.88295151800E+01 0.91806361516E+01 0.95055417512E+01 0.98168122500E+01
 0.10030676007E+02 0.10029143616E+02 0.98109328762E+01 0.94950102732E+01 0.91708270610E+01
 0.99346209451E+01 0.92083462367E+01 0.85744161557E+01 0.80680133775E+01 0.77283681352E+01
 0.75467315393E+01 0.74921363178E+01 0.75463519708E+01 0.77246975911E+01 0.80622386266E+01
 0.85740833715E+01 0.92191216286E+01 0.99516097195E+01 0.11005766493E+02 0.12329487568E+02
 0.13467487263E+02 0.13919943955E+02 0.13472266257E+02 0.12329416100E+02 0.10994374982E+02
 0.13652841974E+02 0.11027071476E+02 0.95658335886E+01 0.86617778335E+01 0.79736438101E+01
 0.75467141535E+01 0.73533055568E+01 0.73524415745E+01 0.75452677442E+01 0.79745937923E+01
 0.86679612213E+01 0.95766022172E+01 0.11036683598E+02 0.13653958187E+02 0.17169116963E+02
 0.20573863506E+02 0.22671494423E+02 0.22677593944E+02 0.20586977219E+02 0.17178509416E+02
 0.24033535426E+02 0.17194081518E+02 0.12383157233E+02 0.99061788379E+01 0.87417884740E+01
 0.79419026068E+01 0.74924753479E+01 0.73523349533E+01 0.74903212667E+01 0.79425421655E+01
 0.87475961342E+01 0.99121280591E+01 0.12381468272E+02 0.17182746856E+02 0.24018307470E+02
 0.31322018552E+02 0.36935891287E+02 0.39043394962E+02 0.36941468579E+02 0.31333848193E+02
 0.43834005380E+02 0.31313212378E+02 0.20597749750E+02 0.13535808678E+02 0.10138426922E+02
 0.87776049033E+01 0.79436924922E+01 0.75461221178E+01 0.75450552770E+01 0.79427257702E+01
 0.87791614302E+01 0.10139226221E+02 0.13529742017E+02 0.20585145569E+02 0.31303311854E+02
 0.43835167489E+02 0.55050901043E+02 0.61691299096E+02 0.61686072158E+02 0.55041806101E+02
 0.73264011104E+02 0.54978409490E+02 0.36884200709E+02 0.22679203305E+02 0.13986706183E+02
 0.10140103185E+02 0.87473766716E+01 0.79747280367E+01 0.77245949887E+01 0.79749280219E+01
 0.87477108182E+01 0.10139051547E+02 0.13982434363E+02 0.22673678662E+02 0.36884455962E+02
 0.54990502169E+02 0.73284682588E+02 0.87013428147E+02 0.92117709250E+02 0.86997062469E+02
 0.10927805991E+03 0.86910685811E+02 0.61569276896E+02 0.38968951297E+02 0.22672827028E+02
 0.13531108663E+02 0.99124414919E+01 0.86670698839E+01 0.80616371005E+01 0.80623167725E+01
 0.86679579123E+01 0.99118374382E+01 0.13529682213E+02 0.22673748257E+02 0.38974790576E+02
 0.61579246098E+02 0.86921207688E+02 0.10928555443E+03 0.12250573665E+03 0.12250309881E+03
 0.14529814007E+03 0.12243057777E+03 0.91992387629E+02 0.61574955762E+02 0.36878612512E+02
 0.20584018344E+02 0.12383157233E+02 0.95768045053E+01 0.85726011046E+01 0.82331026408E+01
 0.85738478763E+01 0.95766053100E+01 0.12381551175E+02 0.20585231438E+02 0.36884504752E+02
 0.61579356572E+02 0.91986311600E+02 0.12241400803E+03 0.14528331900E+03 0.15382802614E+03
 0.17239079745E+03 0.15379540223E+03 0.12243263100E+03 0.86927064004E+02 0.54988411406E+02
 0.31301534200E+02 0.17184193225E+02 0.11038157619E+02 0.92183481525E+01 0.84964651096E+01
 0.84975239400E+01 0.92194982171E+01 0.11036967303E+02 0.17182647067E+02 0.31303183022E+02
 0.54990745554E+02 0.86921141486E+02 0.12241368996E+03 0.15377220737E+03 0.17238020038E+03
 0.17219650764E+03 0.16264832401E+03 0.13708792785E+03 0.10308948020E+03 0.69070892008E+02
 0.41290753911E+02 0.22709432623E+02 0.13114666415E+02 0.97447037406E+01 0.86703590319E+01
 0.83096159298E+01 0.86709947715E+01 0.97451905370E+01 0.13114421704E+02 0.22708775963E+02
 0.41290454867E+02 0.69071214354E+02 0.10308996277E+03 0.13708808287E+03 0.16264822517E+03
 0.16265741866E+03 0.16264776088E+03 0.14512828584E+03 0.11555679102E+03 0.82027523930E+02
 0.51849151776E+02 0.29526322955E+02 0.16336095625E+02 0.10690792673E+02 0.90072193746E+01
 0.83046879431E+01 0.83037006821E+01 0.90061405529E+01 0.10691908159E+02 0.16337626958E+02
 0.29524994708E+02 0.51847180788E+02 0.82033016397E+02 0.11557409053E+03 0.14514943220E+03
 0.13710176205E+03 0.14512159256E+03 0.13708799887E+03 0.11555733743E+03 0.86848626281E+02
 0.58110199771E+02 0.34787246747E+02 0.19481383864E+02 0.11880886555E+02 0.93135191801E+01
 0.83368628322E+01 0.80040459582E+01 0.83345127564E+01 0.93128019244E+01 0.11882883953E+02
 0.19481589055E+02 0.34782451826E+02 0.58105545327E+02 0.86853247100E+02 0.11557220554E+03
 0.10308411511E+03 0.11551541050E+03 0.11551758500E+03 0.10309053565E+03 0.82027472950E+02
 0.58109756917E+02 0.36764851392E+02 0.21426519344E+02 0.12911289890E+02 0.95906506091E+01
 0.83923068899E+01 0.77976224450E+01 0.77969475051E+01 0.83914404502E+01 0.95912745341E+01
 0.12912670525E+02 0.21425497766E+02 0.36759073857E+02 0.58100314508E+02 0.82017975248E+02
 0.69052444251E+02 0.81956819067E+02 0.86762173361E+02 0.81971886998E+02 0.69071042285E+02
 0.51848261428E+02 0.34787288663E+02 0.21426813498E+02 0.13320380238E+02 0.97788615213E+01
 0.84450375520E+01 0.76808542369E+01 0.74336203649E+01 0.76815866296E+01 0.84453768966E+01
 0.97793320166E+01 0.13323178438E+02 0.21431345425E+02 0.34787542745E+02 0.51837987298E+02
 0.41288968216E+02 0.51802757471E+02 0.58028351485E+02 0.58033470080E+02 0.51811703145E+02
 0.41290244168E+02 0.29526200994E+02 0.19482025893E+02 0.12911229688E+02 0.97787105585E+01
 0.84668498841E+01 0.76319991662E+01 0.72337135450E+01 0.72347161942E+01 0.76328552575E+01
 0.84652418521E+01 0.97778453659E+01 0.12917031533E+02 0.19494154183E+02 0.29535674849E+02
 0.22722455147E+02 0.29539736739E+02 0.34775730096E+02 0.36737391165E+02 0.34770622545E+02
 0.29529204886E+02 0.22709111102E+02 0.16336583888E+02 0.11880957217E+02 0.95902587612E+01
 0.84451577501E+01 0.76320568183E+01 0.71710078676E+01 0.70284832368E+01 0.71724459024E+01
 0.76311602077E+01 0.84402859779E+01 0.95856352745E+01 0.11882883953E+02 0.16346612049E+02
 0.13113339762E+02 0.16381104884E+02 0.19543710495E+02 0.21483639601E+02 0.21477749579E+02
 0.19531104267E+02 0.16372224194E+02 0.13114677014E+02 0.10691053155E+02 0.93130822535E+01
 0.83923156629E+01 0.76810668496E+01 0.72334899168E+01 0.70284463882E+01 0.70293567791E+01
 0.72351209035E+01 0.76805046881E+01 0.83866747330E+01 0.93028053884E+01 0.10681632728E+02
 0.97297213528E+01 0.10728798708E+02 0.11966494508E+02 0.13022612543E+02 0.13436102054E+02
 0.13018323126E+02 0.11966414254E+02 0.10738766101E+02 0.97449184005E+01 0.90070177708E+01
 0.83366410886E+01 0.77979806699E+01 0.74335049401E+01 0.72345718582E+01 0.71727978680E+01
 0.72352001958E+01 0.74369212833E+01 0.78027951639E+01 0.83363027567E+01 0.89969470629E+01
 0.86701710976E+01 0.90463763392E+01 0.93962056913E+01 0.97127793414E+01 0.99241839856E+01
 0.99258286282E+01 0.97186801632E+01 0.94061882969E+01 0.90551911578E+01 0.86705572063E+01
 0.83044337183E+01 0.80043349792E+01 0.77971569959E+01 0.76813251171E+01 0.76330888914E+01
 0.76313361894E+01 0.76800305629E+01 0.78026464297E+01 0.80159481096E+01 0.83137178461E+01
 0.83232951136E+01 0.83637880509E+01 0.84339711068E+01 0.85236065845E+01 0.86042063127E+01
 0.86390874568E+01 0.86091561087E+01 0.85283714868E+01 0.84324605663E+01 0.83540818182E+01
 0.83096120511E+01 0.83036465469E+01 0.83348510883E+01 0.83911972188E+01 0.84451577501E+01
 0.84653997360E+01 0.84399466334E+01 0.83864227286E+01 0.83368628322E+01 0.83139179357E+01
 0.86695830804E+01 0.83635895520E+01 0.81155886342E+01 0.79470153975E+01 0.78583507244E+01
 0.78278131707E+01 0.78293134606E+01 0.78590881823E+01 0.79411185840E+01 0.81040815250E+01
 0.83548942722E+01 0.86706049288E+01 0.90062418193E+01 0.93127762636E+01 0.95908263135E+01
 0.97794212578E+01 0.97780855698E+01 0.95855789018E+01 0.93032166541E+01 0.89972499331E+01
 0.97292866422E+01 0.90461005606E+01 0.84345199437E+01 0.79471473054E+01 0.76202934943E+01
 0.74451938138E+01 0.73924929697E+01 0.74449839493E+01 0.76170699873E+01 0.79418945355E+01
 0.84341984808E+01 0.90560148317E+01 0.97449704863E+01 0.10692135097E+02 0.11882695132E+02
 0.12912716339E+02 0.13323733242E+02 0.12917137549E+02 0.11882624470E+02 0.10681599183E+02
 0.13113605667E+02 0.10728900762E+02 0.93966085857E+01 0.85237601234E+01 0.78578982443E+01
 0.74451765978E+01 0.72580448883E+01 0.72572899904E+01 0.74439232014E+01 0.78588033859E+01
 0.85293957321E+01 0.94064253708E+01 0.10737705353E+02 0.13114698207E+02 0.16337853035E+02
 0.19481599990E+02 0.21425752751E+02 0.21431306255E+02 0.19493523089E+02 0.16346349863E+02
 0.22723111807E+02 0.16381420591E+02 0.11966238991E+02 0.97126366545E+01 0.86038839270E+01
 0.78278486826E+01 0.73928198905E+01 0.72571868633E+01 0.73907550552E+01 0.78283347863E+01
 0.86091561087E+01 0.97180592121E+01 0.11964624254E+02 0.16370939530E+02 0.22709111102E+02
 0.29524917066E+02 0.34782197745E+02 0.36758801010E+02 0.34787246747E+02 0.29535719168E+02
 0.41289278508E+02 0.29539648707E+02 0.19543088763E+02 0.13022370828E+02 0.99244173395E+01
 0.86392398406E+01 0.78295268087E+01 0.74447619424E+01 0.74437184105E+01 0.78285126225E+01
 0.86405993626E+01 0.99251768989E+01 0.13016847723E+02 0.19531497728E+02 0.29530471891E+02
 0.41290255415E+02 0.51846786025E+02 0.58105384661E+02 0.58100596697E+02 0.51838482883E+02
 0.69052152474E+02 0.51802133462E+02 0.34775436300E+02 0.21483818145E+02 0.13436636976E+02
 0.99258927428E+01 0.86089442773E+01 0.78589589922E+01 0.76169710585E+01 0.78591266758E+01
 0.86092666630E+01 0.99250076596E+01 0.13432831704E+02 0.21478831520E+02 0.34775682895E+02
 0.51813189795E+02 0.69071072853E+02 0.82033320608E+02 0.86853686631E+02 0.82018330440E+02
 0.10308365779E+03 0.81956380335E+02 0.58028628643E+02 0.36738025158E+02 0.21477995727E+02
 0.13018023814E+02 0.97182563490E+01 0.85285217930E+01 0.79413248880E+01 0.79419689315E+01
 0.85293924993E+01 0.97177780849E+01 0.13016790125E+02 0.21478899125E+02 0.36743421981E+02
 0.58037805847E+02 0.81966064580E+02 0.10309056089E+03 0.11557423833E+03 0.11557180693E+03
 0.13710160703E+03 0.11551587763E+03 0.86762612934E+02 0.58033853877E+02 0.34770375949E+02
 0.19530565709E+02 0.11966238991E+02 0.94065954889E+01 0.84327820291E+01 0.81037650316E+01
 0.84339711068E+01 0.94064296685E+01 0.11964704507E+02 0.19531580902E+02 0.34775730096E+02
 0.58037912486E+02 0.86757082442E+02 0.11550068969E+03 0.13708799887E+03 0.14514852698E+03
 0.16265750497E+03 0.14512266195E+03 0.11551774433E+03 0.81971383708E+02 0.51811314417E+02
 0.29528992349E+02 0.16372442359E+02 0.10739142465E+02 0.90552815155E+01 0.83536326456E+01
 0.83546435986E+01 0.90563809681E+01 0.10737979663E+02 0.16370841987E+02 0.29530347385E+02
 0.51813425076E+02 0.81966000021E+02 0.11550038188E+03 0.14510133312E+03 0.16264774835E+03
 0.14465505815E+03 0.13664102240E+03 0.11514344155E+03 0.86474087503E+02 0.57786501751E+02
 0.34529867939E+02 0.19293182385E+02 0.11743634834E+02 0.92015373136E+01 0.82370314634E+01
 0.79104728898E+01 0.82375998398E+01 0.92019704197E+01 0.11743410941E+02 0.19292589571E+02
 0.34529597732E+02 0.57786790865E+02 0.86474521322E+02 0.11514358150E+03 0.13664093415E+03
 0.13664798653E+03 0.13664051144E+03 0.12190617330E+03 0.96977740574E+02 0.68676809424E+02
 0.43299526432E+02 0.24792916613E+02 0.14196714334E+02 0.98918277286E+01 0.85259610912E+01
 0.78882420999E+01 0.78873845721E+01 0.85250190920E+01 0.98928582810E+01 0.14198350916E+02
 0.24792311254E+02 0.43298110976E+02 0.68680896477E+02 0.96990942774E+02 0.12192247499E+03
 0.11515409154E+03 0.12191251990E+03 0.11514350358E+03 0.96978235435E+02 0.72733760611E+02
 0.48525363578E+02 0.29087656511E+02 0.16646460403E+02 0.10745483725E+02 0.87897877123E+01
 0.79029585241E+01 0.76052453896E+01 0.79008923864E+01 0.87890846816E+01 0.10747239773E+02
 0.16647037767E+02 0.29084195721E+02 0.48521667284E+02 0.72737065642E+02 0.96989543310E+02
 0.86470114525E+02 0.96976259638E+02 0.96977923225E+02 0.86475043364E+02 0.68676766871E+02
 0.48524963499E+02 0.30710547305E+02 0.18180742280E+02 0.11497399419E+02 0.89968793415E+01
 0.79422884558E+01 0.74119246349E+01 0.74113528249E+01 0.79414844188E+01 0.89971813092E+01
 0.11498281446E+02 0.18179795405E+02 0.30705975655E+02 0.48517622241E+02 0.68669437303E+02
 0.57772555063E+02 0.68672160398E+02 0.72735646247E+02 0.68683649640E+02 0.57786640979E+02
 0.43298722028E+02 0.29087690222E+02 0.18181007158E+02 0.11799260190E+02 0.91268104180E+01
 0.79830427484E+01 0.73022722374E+01 0.70849717865E+01 0.73029930526E+01 0.79833453020E+01
 0.91269004484E+01 0.11800965816E+02 0.18184202202E+02 0.29087921481E+02 0.43291058599E+02
 0.34528621906E+02 0.43326818203E+02 0.48563334926E+02 0.48567279658E+02 0.43333648286E+02
 0.34529407135E+02 0.24792802915E+02 0.16647039266E+02 0.11497350274E+02 0.91266757742E+01
 0.80003403408E+01 0.72560080246E+01 0.69068778695E+01 0.69078093943E+01 0.72569739997E+01
 0.79992512446E+01 0.91259246229E+01 0.11501712418E+02 0.16656465432E+02 0.24800339457E+02
 0.19303099613E+02 0.24869884006E+02 0.29196735059E+02 0.30826608005E+02 0.29192990303E+02
 0.24861986291E+02 0.19292892523E+02 0.14197156325E+02 0.10745552057E+02 0.89965276878E+01
 0.79831451983E+01 0.72560575332E+01 0.68512266072E+01 0.67270643068E+01 0.68524756257E+01
 0.72555815107E+01 0.79796195420E+01 0.89931911755E+01 0.10747239773E+02 0.14204986630E+02
 0.11742409302E+02 0.14293446556E+02 0.16812015016E+02 0.18374933623E+02 0.18370484830E+02
 0.16802544658E+02 0.14286906177E+02 0.11743647141E+02 0.98920621669E+01 0.87893913872E+01
 0.79422905041E+01 0.73024604869E+01 0.69066814071E+01 0.67270336200E+01 0.67276492826E+01
 0.69077835806E+01 0.73019914133E+01 0.79380792609E+01 0.87816344807E+01 0.98848042650E+01
 0.91898974933E+01 0.99752778292E+01 0.10917673886E+02 0.11727260658E+02 0.12046319898E+02
 0.11723892618E+02 0.10917601146E+02 0.99830561820E+01 0.92017269711E+01 0.85257737065E+01
 0.79027580586E+01 0.74122495536E+01 0.70848734152E+01 0.69076830464E+01 0.68527894912E+01
 0.69078536950E+01 0.70871346625E+01 0.74157596221E+01 0.79024552705E+01 0.85179667153E+01
 0.82368937984E+01 0.86040399003E+01 0.89472473926E+01 0.92214502452E+01 0.93897506758E+01
 0.93908718730E+01 0.92256803073E+01 0.89546835431E+01 0.86107460491E+01 0.82372069365E+01
 0.78880168567E+01 0.76055130928E+01 0.74115435122E+01 0.73027560848E+01 0.72571802381E+01
 0.72557382404E+01 0.73015661960E+01 0.74156253907E+01 0.76144032711E+01 0.78951429902E+01
 0.79209829322E+01 0.79784021965E+01 0.80634127370E+01 0.81625778722E+01 0.82468788521E+01
 0.82818882869E+01 0.82504820693E+01 0.81659842993E+01 0.80620976295E+01 0.79709200750E+01
 0.79104731327E+01 0.78873409928E+01 0.79011951745E+01 0.79412586873E+01 0.79831451983E+01
 0.79993946928E+01 0.79793169884E+01 0.79378514811E+01 0.79029585241E+01 0.78953246541E+01
 0.82363649384E+01 0.79782212740E+01 0.77740078993E+01 0.76394133393E+01 0.75717417755E+01
 0.75501077208E+01 0.75513247671E+01 0.75724333399E+01 0.76349626548E+01 0.77652051003E+01
 0.79716167775E+01 0.82372464529E+01 0.85251071815E+01 0.87890562729E+01 0.89967775493E+01
 0.91269850747E+01 0.91261438930E+01 0.89931390693E+01 0.87820023972E+01 0.85182421895E+01
 0.91895077834E+01 0.86037876630E+01 0.80639062811E+01 0.76395343196E+01 0.73580098433E+01
 0.72084718574E+01 0.71638052247E+01 0.72086708812E+01 0.73559157517E+01 0.76356291798E+01
 0.80636171174E+01 0.86114520905E+01 0.92017703672E+01 0.98930638062E+01 0.10747071545E+02
 0.11498326100E+02 0.11801466462E+02 0.11501806216E+02 0.10747003213E+02 0.98847753519E+01
 0.11742651196E+02 0.99753683200E+01 0.89476089058E+01 0.81627202143E+01 0.75713357610E+01
 0.72084551157E+01 0.70448298904E+01 0.70443503031E+01 0.72076872431E+01 0.75721162268E+01
 0.81669377600E+01 0.89549611399E+01 0.99820725439E+01 0.11743665142E+02 0.14198556627E+02
 0.16647047079E+02 0.18180023520E+02 0.18184165439E+02 0.16655895882E+02 0.14204750348E+02
 0.19303692428E+02 0.14293732023E+02 0.10917442200E+02 0.92213235447E+01 0.82465899855E+01
 0.75501370720E+01 0.71640976261E+01 0.70442571900E+01 0.71622857368E+01 0.75502473044E+01
 0.82504820693E+01 0.92253852036E+01 0.10916038262E+02 0.14285493600E+02 0.19292892523E+02
 0.24792238027E+02 0.29083964462E+02 0.30705729571E+02 0.29087656511E+02 0.24800379927E+02
 0.34528900488E+02 0.24869804852E+02 0.16811453883E+02 0.11727042015E+02 0.93899612900E+01
 0.82820234385E+01 0.75515154608E+01 0.72084713027E+01 0.72075044064E+01 0.75504086469E+01
 0.82828859154E+01 0.93906104633E+01 0.11722925167E+02 0.16802510470E+02 0.24862537079E+02
 0.34529415510E+02 0.43297754577E+02 0.48521524153E+02 0.48517879189E+02 0.43291506604E+02
 0.57772289799E+02 0.43326253975E+02 0.29196470337E+02 0.18375093894E+02 0.12046801718E+02
 0.93909287410E+01 0.82502918959E+01 0.75723193991E+01 0.73558274208E+01 0.75724083006E+01
 0.82505807625E+01 0.93904567171E+01 0.12044180872E+02 0.18371486469E+02 0.29196692213E+02
 0.43334624112E+02 0.57786664828E+02 0.68681173668E+02 0.72737462522E+02 0.68669757047E+02
 0.86469700631E+02 0.68671764373E+02 0.48563585906E+02 0.30827180604E+02 0.18370707022E+02
 0.11723622594E+02 0.92252994786E+01 0.81661234479E+01 0.76351474479E+01 0.76356929926E+01
 0.81669345665E+01 0.92251310756E+01 0.11722873786E+02 0.18371548391E+02 0.30831411541E+02
 0.48570690704E+02 0.68679262769E+02 0.86475063290E+02 0.96991074147E+02 0.96989179822E+02
 0.11515395160E+03 0.96976684695E+02 0.72736044774E+02 0.48567626423E+02 0.29192768426E+02
 0.16802059043E+02 0.10917442200E+02 0.89550526561E+01 0.80623867932E+01 0.77649139858E+01
 0.80634127370E+01 0.89549687397E+01 0.10916111002E+02 0.16802585988E+02 0.29196735059E+02
 0.48570786489E+02 0.72731920487E+02 0.96965089039E+02 0.11514350358E+03 0.12192165307E+03
 0.13664806481E+03 0.12191349052E+03 0.96978069671E+02 0.68683193657E+02 0.43333296388E+02
 0.24861794989E+02 0.14287100549E+02 0.99833943706E+01 0.86108300755E+01 0.79705123365E+01
 0.79713899614E+01 0.86117883542E+01 0.99823202418E+01 0.14285402504E+02 0.24862424930E+02
 0.43334836441E+02 0.68679202810E+02 0.96964810428E+02 0.12189702565E+03 0.13664050148E+03
 0.10817351174E+03 0.10215004533E+03 0.85965834350E+02 0.64367070670E+02 0.42870126170E+02
 0.25772777834E+02 0.15043446006E+02 0.10119167035E+02 0.84665353477E+01 0.76382992048E+01
 0.73649024722E+01 0.76387682358E+01 0.84668885510E+01 0.10118972829E+02 0.15042948130E+02
 0.25772554068E+02 0.42870371643E+02 0.64367435943E+02 0.85965951883E+02 0.10214997113E+03
 0.10215435674E+03 0.10214961271E+03 0.91051018450E+02 0.72252282613E+02 0.50962483226E+02
 0.32108308203E+02 0.18783577273E+02 0.11610205768E+02 0.89163345458E+01 0.78487050768E+01
 0.73124340079E+01 0.73117620838E+01 0.78479591387E+01 0.89172107123E+01 0.11611850870E+02
 0.18783760435E+02 0.32107554000E+02 0.50964850935E+02 0.72260405248E+02 0.91061274960E+02
 0.85972509323E+02 0.91074137048E+02 0.85965883199E+02 0.72252700466E+02 0.53988309257E+02
 0.35924618319E+02 0.21774220421E+02 0.13160249384E+02 0.93918424186E+01 0.80470401333E+01
 0.72963958251E+01 0.70510444406E+01 0.72947483488E+01 0.80463927973E+01 0.93932426602E+01
 0.13161185131E+02 0.21772363856E+02 0.35922141649E+02 0.53990031120E+02 0.72259597115E+02
 0.64364801398E+02 0.72301688402E+02 0.72302719877E+02 0.64367877805E+02 0.50962453175E+02
 0.35924281835E+02 0.22916457304E+02 0.14155096763E+02 0.98111827450E+01 0.81988507961E+01
 0.73071704466E+01 0.68716862778E+01 0.68712596501E+01 0.73064862479E+01 0.81988028096E+01
 0.98114926914E+01 0.14154287367E+02 0.22913425624E+02 0.35919582456E+02 0.50957830786E+02
 0.42861738507E+02 0.51041826085E+02 0.54102657584E+02 0.51048875488E+02 0.42870248593E+02
 0.32107631541E+02 0.21774241728E+02 0.14155318193E+02 0.99821023272E+01 0.82804469462E+01
 0.73266998334E+01 0.67678518478E+01 0.65929298914E+01 0.67685203492E+01 0.73269484188E+01
 0.82801329083E+01 0.99825596688E+01 0.14156921912E+02 0.21774439552E+02 0.32103168396E+02
 0.25772168768E+02 0.32229854766E+02 0.36115677278E+02 0.36118153358E+02 0.32234054184E+02
 0.25772389587E+02 0.18783475817E+02 0.13160734423E+02 0.98111498861E+01 0.82803363597E+01
 0.73360122165E+01 0.67227196832E+01 0.64420542652E+01 0.64428520487E+01 0.67237355664E+01
 0.73355262564E+01 0.82797476082E+01 0.98137419364E+01 0.13166764168E+02 0.18788531339E+02
 0.15049505570E+02 0.18943971366E+02 0.22040186258E+02 0.23218788005E+02 0.22038093651E+02
 0.18939309748E+02 0.15043203488E+02 0.11610578819E+02 0.93919071183E+01 0.81985587119E+01
 0.73267767447E+01 0.67227575280E+01 0.63950009987E+01 0.62955762569E+01 0.63959709453E+01
 0.67227450899E+01 0.73248727229E+01 0.81967734408E+01 0.93932426602E+01 0.11615631298E+02
 0.10118118358E+02 0.11778892346E+02 0.13466533261E+02 0.14534536217E+02 0.14531864418E+02
 0.13460917545E+02 0.11775199092E+02 0.10119181781E+02 0.89165303045E+01 0.80467045597E+01
 0.73071633893E+01 0.67680045211E+01 0.64418971057E+01 0.62955542303E+01 0.62958255514E+01
 0.64423828779E+01 0.67676658783E+01 0.73047061736E+01 0.80420535308E+01 0.89119706371E+01
 0.84591030208E+01 0.90680834081E+01 0.96919229447E+01 0.10214022070E+02 0.10419949978E+02
 0.10211823339E+02 0.96918613957E+01 0.90730955397E+01 0.84666882017E+01 0.78485396054E+01
 0.72962270877E+01 0.68719614561E+01 0.65928557767E+01 0.64427515765E+01 0.63962290888E+01
 0.64424395653E+01 0.65937774971E+01 0.68738941952E+01 0.72959764390E+01 0.78435735344E+01
 0.76382289792E+01 0.79903776702E+01 0.83258225101E+01 0.85890187532E+01 0.87332511631E+01
 0.87337590851E+01 0.85912477085E+01 0.83301419440E+01 0.79944642594E+01 0.76384411623E+01
 0.73122510125E+01 0.70512793183E+01 0.68714221995E+01 0.67683197353E+01 0.67239019610E+01
 0.67228736397E+01 0.67673125912E+01 0.68737815664E+01 0.70567774347E+01 0.73166869447E+01
 0.73714599123E+01 0.74581068981E+01 0.75689732019E+01 0.76860816973E+01 0.77790294514E+01
 0.78156332097E+01 0.77810046182E+01 0.76878611465E+01 0.75679456388E+01 0.74534086756E+01
 0.73649077110E+01 0.73117332629E+01 0.72949989975E+01 0.73062874113E+01 0.73267767447E+01
 0.73356484234E+01 0.73246241375E+01 0.73045143944E+01 0.72963958251E+01 0.73168411192E+01
 0.76377879826E+01 0.74579522155E+01 0.73261352345E+01 0.72498232832E+01 0.72206132701E+01
 0.72168192684E+01 0.72176635009E+01 0.72212108260E+01 0.72471566062E+01 0.73207022202E+01
 0.74539414049E+01 0.76384691967E+01 0.78480283831E+01 0.80463613110E+01 0.81984647578E+01
 0.82802104376E+01 0.82799357239E+01 0.81967274732E+01 0.80423576181E+01 0.78438082503E+01
 0.84587800632E+01 0.79901604732E+01 0.75693840534E+01 0.72499278799E+01 0.70462971379E+01
 0.69428426605E+01 0.69131735799E+01 0.69434574599E+01 0.70455111953E+01 0.72476678285E+01
 0.75691434832E+01 0.79950035160E+01 0.84667184475E+01 0.89173847754E+01 0.93931049627E+01
 0.98115351863E+01 0.99829801787E+01 0.98138172902E+01 0.93930402630E+01 0.89119489415E+01
 0.10118324418E+02 0.90681563408E+01 0.83261221236E+01 0.76862072451E+01 0.72202769810E+01
 0.69428266095E+01 0.68208096303E+01 0.68206481140E+01 0.69426148430E+01 0.72208794313E+01
 0.76886822563E+01 0.83304453042E+01 0.90722529229E+01 0.10119193635E+02 0.11612026612E+02
 0.13161191740E+02 0.14154475576E+02 0.14156888692E+02 0.13166285738E+02 0.11615433990E+02
 0.15050003446E+02 0.11779132384E+02 0.96917268700E+01 0.85889159954E+01 0.77787909339E+01
 0.72168393896E+01 0.69134140944E+01 0.68205702080E+01 0.69119757355E+01 0.72165490840E+01
 0.77810046182E+01 0.85913116465E+01 0.96906333055E+01 0.11773741426E+02 0.15043203488E+02
 0.18783693711E+02 0.21772166032E+02 0.22913219565E+02 0.21774220421E+02 0.18788566072E+02
 0.25772400380E+02 0.18943905511E+02 0.13466062694E+02 0.10213838083E+02 0.87334277784E+01
 0.78157426962E+01 0.72178200386E+01 0.69432917720E+01 0.69424652061E+01 0.72166855006E+01
 0.78160321711E+01 0.87339208874E+01 0.10211445884E+02 0.13460440528E+02 0.18939082026E+02
 0.25772397432E+02 0.32107254086E+02 0.35922024745E+02 0.35919802036E+02 0.32103545145E+02
 0.42861512920E+02 0.32229380092E+02 0.22039964882E+02 0.14534669303E+02 0.10420352307E+02
 0.87338052328E+01 0.77808467435E+01 0.72211195978E+01 0.70454391727E+01 0.72211244923E+01
 0.77810852610E+01 0.87337904198E+01 0.10419122259E+02 0.14532718889E+02 0.22040149460E+02
 0.32234439484E+02 0.42870268479E+02 0.50965087720E+02 0.53990365067E+02 0.50958097622E+02
 0.64364452240E+02 0.51041493889E+02 0.36115888830E+02 0.23219268818E+02 0.14532050872E+02
 0.10211597106E+02 0.85909312314E+01 0.76879830589E+01 0.72473094493E+01 0.72477160747E+01
 0.76886786209E+01 0.85910979272E+01 0.10211403639E+02 0.14532772257E+02 0.23222011612E+02
 0.36120386488E+02 0.51046257058E+02 0.64367893920E+02 0.72260512634E+02 0.72259286648E+02
 0.85972391790E+02 0.72302050095E+02 0.54102994308E+02 0.36118444611E+02 0.22037909072E+02
 0.13460511028E+02 0.96917268700E+01 0.83304537187E+01 0.75681862090E+01 0.73204498002E+01
 0.75689732019E+01 0.83304574656E+01 0.96906948546E+01 0.13460504578E+02 0.22040186258E+02
 0.36120466189E+02 0.54100581888E+02 0.72294911120E+02 0.85965883199E+02 0.91060578267E+02
 0.10215442302E+03 0.91074959328E+02 0.72302846615E+02 0.51048490012E+02 0.32233757784E+02
 0.18939150364E+02 0.11775357886E+02 0.90733766504E+01 0.79945381658E+01 0.74530633007E+01
 0.74537507125E+01 0.79952946195E+01 0.90724611008E+01 0.11773660183E+02 0.18938988497E+02
 0.32234617759E+02 0.51046203778E+02 0.72294676164E+02 0.91064565618E+02 0.10214960480E+03
 0.71803662400E+02 0.67747866438E+02 0.56867647927E+02 0.42443036650E+02 0.28350509555E+02
 0.17592988248E+02 0.11345519992E+02 0.87590218364E+01 0.76577033636E+01 0.70017655579E+01
 0.67918989006E+01 0.70021210552E+01 0.76579655498E+01 0.87588629456E+01 0.11345133909E+02
 0.17592822444E+02 0.28350709682E+02 0.42443325585E+02 0.56867739069E+02 0.67747806789E+02
 0.67749839599E+02 0.67747527303E+02 0.60270458637E+02 0.47658329975E+02 0.33556335316E+02
 0.21437616515E+02 0.13370925193E+02 0.94430230934E+01 0.79676395087E+01 0.71154369668E+01