   2   2   0   0
  0.1084789E+02  0.2399900E-09  0.2399900E-09  0.4349690E-09  0.5000000E-15
  1.000000000000000E-004
  CAR 
 unknown system                          
     69.88861826     -5.76091532  301      6.22131796      1.00000000
     -5.761  0.0000E+00  0.0000E+00
     -5.509  0.0000E+00  0.0000E+00
     -5.257  0.0000E+00  0.0000E+00
     -5.004  0.0000E+00  0.0000E+00
     -4.752  0.0000E+00  0.0000E+00
     -4.500  0.0000E+00  0.0000E+00
     -4.248  0.0000E+00  0.0000E+00
     -3.996 -0.5550E-32 -0.1400E-32
     -3.744 -0.1410E-23 -0.3555E-24
     -3.491 -0.1424E-16 -0.3591E-17
     -3.239 -0.5835E-11 -0.1471E-11
     -2.987 -0.9562E-07 -0.2411E-07
     -2.735 -0.5781E-04 -0.1460E-04
     -2.483 -0.4287E-03 -0.1227E-03
     -2.231  0.8914E-02  0.2125E-02
     -1.978  0.5881E-01  0.1696E-01
     -1.726  0.1088E+00  0.4440E-01
     -1.474  0.6200E-01  0.6003E-01
     -1.222  0.1605E+00  0.1005E+00
     -0.970  0.1923E+00  0.1490E+00
     -0.718  0.1959E+00  0.1984E+00
     -0.465  0.9484E-01  0.2223E+00
     -0.213  0.2564E+00  0.2870E+00
      0.039  0.2983E+00  0.3622E+00
      0.291  0.3412E+00  0.4483E+00
      0.543  0.2851E+00  0.5201E+00
      0.795  0.2606E+00  0.5859E+00
      1.048  0.3960E+00  0.6857E+00
      1.300  0.6992E+00  0.8621E+00
      1.552  0.8521E+00  0.1077E+01
      1.804  0.1221E+01  0.1385E+01
      2.056  0.2028E+01  0.1896E+01
      2.308  0.2738E+01  0.2587E+01
      2.561  0.2315E+01  0.3170E+01
      2.813  0.3014E+01  0.3930E+01
      3.065  0.2595E+01  0.4585E+01
      3.317  0.3432E+01  0.5450E+01
      3.569  0.3455E+01  0.6321E+01
      3.821  0.3437E+01  0.7188E+01
      4.074  0.2616E+01  0.7848E+01
      4.326  0.2989E+01  0.8601E+01
      4.578  0.4473E+01  0.9729E+01
      4.830  0.4057E+01  0.1075E+02
      5.082  0.3940E+01  0.1175E+02
      5.334  0.3494E+01  0.1263E+02
      5.587  0.3982E+01  0.1363E+02
      5.839  0.3800E+01  0.1459E+02
      6.091  0.3807E+01  0.1555E+02
      6.343  0.3394E+01  0.1640E+02
      6.595  0.4056E+01  0.1743E+02
      6.847  0.5330E+01  0.1877E+02
      7.100  0.4835E+01  0.1999E+02
      7.352  0.4046E+01  0.2101E+02
      7.604  0.9734E+00  0.2126E+02
      7.856  0.4538E+00  0.2137E+02
      8.108  0.5076E+00  0.2150E+02
      8.360  0.8233E+00  0.2171E+02
      8.612  0.9773E+00  0.2195E+02
      8.865  0.5116E+00  0.2208E+02
      9.117  0.3639E+00  0.2217E+02
      9.369  0.5113E+00  0.2230E+02
      9.621  0.4788E+00  0.2242E+02
      9.873  0.3858E+00  0.2252E+02
     10.125  0.6583E+00  0.2269E+02
     10.378  0.5762E+00  0.2283E+02
     10.630  0.5116E+00  0.2296E+02
     10.882  0.5013E+00  0.2309E+02
     11.134  0.3743E+00  0.2318E+02
     11.386  0.1905E+00  0.2323E+02
     11.638  0.4655E+00  0.2335E+02
     11.891  0.3287E+00  0.2343E+02
     12.143  0.4445E+00  0.2354E+02
     12.395  0.1754E+00  0.2359E+02
     12.647  0.4141E+00  0.2369E+02
     12.899  0.6527E+00  0.2386E+02
     13.151  0.6280E+00  0.2401E+02
     13.404  0.2117E+00  0.2407E+02
     13.656  0.2139E+00  0.2412E+02
     13.908  0.1615E+00  0.2416E+02
     14.160  0.8832E-01  0.2418E+02
     14.412  0.2231E+00  0.2424E+02
     14.664  0.3404E+00  0.2433E+02
     14.917  0.1664E+00  0.2437E+02
     15.169  0.4287E+00  0.2448E+02
     15.421  0.8571E+00  0.2469E+02
     15.673  0.9616E+00  0.2494E+02
     15.925  0.9392E+00  0.2517E+02
     16.177  0.6900E+00  0.2535E+02
     16.430  0.4575E+00  0.2546E+02
     16.682  0.5889E+00  0.2561E+02
     16.934  0.8564E+00  0.2583E+02
     17.186  0.6844E+00  0.2600E+02
     17.438  0.8008E+00  0.2620E+02
     17.690  0.9446E+00  0.2644E+02
     17.943  0.7365E+00  0.2662E+02
     18.195  0.3156E+00  0.2670E+02
     18.447  0.6117E+00  0.2686E+02
     18.699  0.7938E+00  0.2706E+02
     18.951  0.7940E+00  0.2726E+02
     19.203  0.5227E+00  0.2739E+02
     19.456  0.5549E+00  0.2753E+02
     19.708  0.6098E+00  0.2768E+02
     19.960  0.5422E+00  0.2782E+02
     20.212  0.4733E+00  0.2794E+02
     20.464  0.9115E+00  0.2817E+02
     20.716  0.6171E+00  0.2833E+02
     20.969  0.6520E+00  0.2849E+02
     21.221  0.8493E+00  0.2870E+02
     21.473  0.4560E+00  0.2882E+02
     21.725  0.6563E+00  0.2898E+02
     21.977  0.1160E+01  0.2928E+02
     22.229  0.1043E+01  0.2954E+02
     22.482  0.8169E+00  0.2975E+02
     22.734  0.8054E+00  0.2995E+02
     22.986  0.1018E+01  0.3021E+02
     23.238  0.7257E+00  0.3039E+02
     23.490  0.8188E+00  0.3060E+02
     23.742  0.1160E+01  0.3089E+02
     23.995  0.8667E+00  0.3111E+02
     24.247  0.8508E+00  0.3132E+02
     24.499  0.9564E+00  0.3156E+02
     24.751  0.9254E+00  0.3180E+02
     25.003  0.1582E+01  0.3219E+02
     25.255  0.1176E+01  0.3249E+02
     25.508  0.5692E+00  0.3263E+02
     25.760  0.6346E+00  0.3279E+02
     26.012  0.9417E+00  0.3303E+02
     26.264  0.7525E+00  0.3322E+02
     26.516  0.9393E+00  0.3346E+02
     26.768  0.8780E+00  0.3368E+02
     27.021  0.5611E+00  0.3382E+02
     27.273  0.1008E+01  0.3408E+02
     27.525  0.1063E+01  0.3434E+02
     27.777  0.6111E+00  0.3450E+02
     28.029  0.4800E+00  0.3462E+02
     28.281  0.5041E+00  0.3475E+02
     28.534  0.6024E+00  0.3490E+02
     28.786  0.5541E+00  0.3504E+02
     29.038  0.1012E+01  0.3529E+02
     29.290  0.8881E+00  0.3552E+02
     29.542  0.6993E+00  0.3569E+02
     29.794  0.7925E+00  0.3589E+02
     30.047  0.8116E+00  0.3610E+02
     30.299  0.1013E+01  0.3635E+02
     30.551  0.1089E+01  0.3663E+02
     30.803  0.8850E+00  0.3685E+02
     31.055  0.5897E+00  0.3700E+02
     31.307  0.7406E+00  0.3719E+02
     31.560  0.7364E+00  0.3737E+02
     31.812  0.7130E+00  0.3755E+02
     32.064  0.1159E+01  0.3784E+02
     32.316  0.9962E+00  0.3809E+02
     32.568  0.7938E+00  0.3830E+02
     32.820  0.8872E+00  0.3852E+02
     33.073  0.1153E+01  0.3881E+02
     33.325  0.1007E+01  0.3906E+02
     33.577  0.8972E+00  0.3929E+02
     33.829  0.1511E+01  0.3967E+02
     34.081  0.1137E+01  0.3996E+02
     34.333  0.1016E+01  0.4021E+02
     34.586  0.1301E+01  0.4054E+02
     34.838  0.8661E+00  0.4076E+02
     35.090  0.7896E+00  0.4096E+02
     35.342  0.9230E+00  0.4119E+02
     35.594  0.9336E+00  0.4143E+02
     35.846  0.4097E+00  0.4153E+02
     36.098  0.7627E+00  0.4172E+02
     36.351  0.7354E+00  0.4191E+02
     36.603  0.3928E+00  0.4201E+02
     36.855  0.7406E+00  0.4219E+02
     37.107  0.1067E+01  0.4246E+02
     37.359  0.1286E+01  0.4279E+02
     37.611  0.8494E+00  0.4300E+02
     37.864  0.8319E+00  0.4321E+02
     38.116  0.8357E+00  0.4342E+02
     38.368  0.8096E+00  0.4363E+02
     38.620  0.8155E+00  0.4383E+02
     38.872  0.8013E+00  0.4403E+02
     39.124  0.1161E+01  0.4433E+02
     39.377  0.1022E+01  0.4458E+02
     39.629  0.1334E+01  0.4492E+02
     39.881  0.1179E+01  0.4522E+02
     40.133  0.8571E+00  0.4543E+02
     40.385  0.1063E+01  0.4570E+02
     40.637  0.1221E+01  0.4601E+02
     40.890  0.8699E+00  0.4623E+02
     41.142  0.1145E+01  0.4652E+02
     41.394  0.1302E+01  0.4685E+02
     41.646  0.8989E+00  0.4707E+02
     41.898  0.1051E+01  0.4734E+02
     42.150  0.1223E+01  0.4765E+02
     42.403  0.1346E+01  0.4799E+02
     42.655  0.9154E+00  0.4822E+02
     42.907  0.6687E+00  0.4839E+02
     43.159  0.9069E+00  0.4861E+02
     43.411  0.9907E+00  0.4886E+02
     43.663  0.1105E+01  0.4914E+02
     43.916  0.1118E+01  0.4942E+02
     44.168  0.8801E+00  0.4965E+02
     44.420  0.1050E+01  0.4991E+02
     44.672  0.1132E+01  0.5020E+02
     44.924  0.1463E+01  0.5057E+02
     45.176  0.7337E+00  0.5075E+02
     45.429  0.5854E+00  0.5090E+02
     45.681  0.9420E+00  0.5114E+02
     45.933  0.1135E+01  0.5142E+02
     46.185  0.1160E+01  0.5171E+02
     46.437  0.1104E+01  0.5199E+02
     46.689  0.9652E+00  0.5224E+02
     46.942  0.6054E+00  0.5239E+02
     47.194  0.9999E+00  0.5264E+02
     47.446  0.1501E+01  0.5302E+02
     47.698  0.1281E+01  0.5334E+02
     47.950  0.1708E+01  0.5377E+02
     48.202  0.1231E+01  0.5408E+02
     48.455  0.1288E+01  0.5441E+02
     48.707  0.1019E+01  0.5467E+02
     48.959  0.1216E+01  0.5497E+02
     49.211  0.8408E+00  0.5518E+02
     49.463  0.1267E+01  0.5550E+02
     49.715  0.1352E+01  0.5585E+02
     49.968  0.5991E+00  0.5600E+02
     50.220  0.1109E+01  0.5628E+02
     50.472  0.9004E+00  0.5650E+02
     50.724  0.1045E+01  0.5677E+02
     50.976  0.1317E+01  0.5710E+02
     51.228  0.1114E+01  0.5738E+02
     51.481  0.1410E+01  0.5773E+02
     51.733  0.1621E+01  0.5814E+02
     51.985  0.1341E+01  0.5848E+02
     52.237  0.1402E+01  0.5884E+02
     52.489  0.1348E+01  0.5918E+02
     52.741  0.1341E+01  0.5951E+02
     52.994  0.1095E+01  0.5979E+02
     53.246  0.7117E+00  0.5997E+02
     53.498  0.1309E+01  0.6030E+02
     53.750  0.1236E+01  0.6061E+02
     54.002  0.1570E+01  0.6101E+02
     54.254  0.1642E+01  0.6142E+02
     54.507  0.1378E+01  0.6177E+02
     54.759  0.1439E+01  0.6213E+02
     55.011  0.1349E+01  0.6247E+02
     55.263  0.1292E+01  0.6280E+02
     55.515  0.1209E+01  0.6310E+02
     55.767  0.1998E+01  0.6361E+02
     56.020  0.1527E+01  0.6399E+02
     56.272  0.1152E+01  0.6428E+02
     56.524  0.1604E+01  0.6469E+02
     56.776  0.1507E+01  0.6507E+02
     57.028  0.1256E+01  0.6538E+02
     57.280  0.1519E+01  0.6577E+02
     57.533  0.1635E+01  0.6618E+02
     57.785  0.1826E+01  0.6664E+02
     58.037  0.1624E+01  0.6705E+02
     58.289  0.1591E+01  0.6745E+02
     58.541  0.1180E+01  0.6775E+02
     58.793  0.1674E+01  0.6817E+02
     59.046  0.1849E+01  0.6863E+02
     59.298  0.1205E+01  0.6894E+02
     59.550  0.1610E+01  0.6934E+02
     59.802  0.1402E+01  0.6970E+02
     60.054  0.1806E+01  0.7015E+02
     60.306  0.1843E+01  0.7062E+02
     60.559  0.1408E+01  0.7097E+02
     60.811  0.1149E+01  0.7126E+02
     61.063  0.1655E+01  0.7168E+02
     61.315  0.2024E+01  0.7219E+02
     61.567  0.1587E+01  0.7259E+02
     61.819  0.1995E+01  0.7309E+02
     62.071  0.1836E+01  0.7356E+02
     62.324  0.1443E+01  0.7392E+02
     62.576  0.1558E+01  0.7431E+02
     62.828  0.2285E+01  0.7489E+02
     63.080  0.1789E+01  0.7534E+02
     63.332  0.1748E+01  0.7578E+02
     63.584  0.2117E+01  0.7632E+02
     63.837  0.1891E+01  0.7679E+02
     64.089  0.2054E+01  0.7731E+02
     64.341  0.2364E+01  0.7791E+02
     64.593  0.1646E+01  0.7832E+02
     64.845  0.1317E+01  0.7865E+02
     65.097  0.1928E+01  0.7914E+02
     65.350  0.1389E+01  0.7949E+02
     65.602  0.6379E+00  0.7965E+02
     65.854  0.9706E+00  0.7990E+02
     66.106  0.2382E+00  0.7996E+02
     66.358  0.8280E-01  0.7998E+02
     66.610  0.9681E-01  0.8000E+02
     66.863 -0.1928E-02  0.8000E+02
     67.115 -0.5080E-03  0.8000E+02
     67.367 -0.9901E-06  0.8000E+02
     67.619 -0.6572E-10  0.8000E+02
     67.871 -0.1747E-15  0.8000E+02
     68.123  0.0000E+00  0.8000E+02
     68.376  0.0000E+00  0.8000E+02
     68.628  0.0000E+00  0.8000E+02
     68.880  0.0000E+00  0.8000E+02
     69.132  0.0000E+00  0.8000E+02
     69.384  0.0000E+00  0.8000E+02
     69.636  0.0000E+00  0.8000E+02
     69.889  0.0000E+00  0.8000E+02
