<?xml version="1.0" encoding="ISO-8859-1"?>
<modeling>
 <generator>
  <i name="program" type="string">vasp </i>
  <i name="version" type="string">6.2.0  </i>
  <i name="subversion" type="string">18Jan21 (build Mar 17 2021 09:06:54) complex                          serial </i>
  <i name="platform" type="string">LinuxIFC </i>
  <i name="date" type="string">2021 09 09 </i>
  <i name="time" type="string">12:09:30 </i>
 </generator>
 <incar>
  <i type="string" name="PREC">normal</i>
  <i type="int" name="ICHARG">     1</i>
  <i type="int" name="IBRION">     1</i>
  <i name="EDIFF">      0.00000100</i>
  <i type="int" name="NSW">     0</i>
  <i type="int" name="ISIF">     2</i>
  <i name="ENCUT">    280.00000000</i>
  <i type="int" name="NBANDS">    40</i>
  <i type="int" name="ISMEAR">     1</i>
  <i name="SIGMA">      0.20000000</i>
  <i type="logical" name="LCHARG"> T  </i>
  <i type="int" name="KPAR">     1</i>
  <i type="int" name="NCORE">     1</i>
  <i type="string" name="GGA">PE</i>
 </incar>
 <primitive_cell>
  <structure name="primitive_cell" >
   <crystal>
    <varray name="basis" >
     <v>       2.39990000       0.00000000       0.00000000 </v>
     <v>      -1.19995000       2.07837437       0.00000000 </v>
     <v>       0.00000000       0.00000000       4.34969000 </v>
    </varray>
    <i name="volume">     21.69577805 </i>
    <varray name="rec_basis" >
     <v>       0.41668403       0.24057264       0.00000000 </v>
     <v>       0.00000000       0.48114527       0.00000000 </v>
     <v>       0.00000000       0.00000000       0.22990144 </v>
    </varray>
   </crystal>
   <varray name="positions" >
    <v>       0.00000000       0.00000000       0.00000000 </v>
    <v>       0.33333333       0.66666667       0.50000000 </v>
   </varray>
  </structure>
  <varray name="primitive_index" >
   <v type="int" >        1 </v>
   <v type="int" >        2 </v>
  </varray>
 </primitive_cell>
 <kpoints>
  <generation param="Monkhorst-Pack">
   <v type="int" name="divisions">      11       11       11 </v>
   <v name="usershift">      0.00000000       0.00000000       0.00000000 </v>
   <v name="genvec1">      0.09090909       0.00000000       0.00000000 </v>
   <v name="genvec2">      0.00000000       0.09090909       0.00000000 </v>
   <v name="genvec3">      0.00000000       0.00000000       0.09090909 </v>
   <v name="shift">      0.00000000       0.00000000       0.00000000 </v>
  </generation>
  <varray name="kpointlist" >
   <v>       0.00000000       0.00000000       0.00000000 </v>
   <v>       0.09090909       0.00000000       0.00000000 </v>
   <v>       0.18181818       0.00000000       0.00000000 </v>
   <v>       0.27272727      -0.00000000       0.00000000 </v>
   <v>       0.36363636       0.00000000       0.00000000 </v>
   <v>       0.45454545       0.00000000       0.00000000 </v>
   <v>       0.09090909       0.09090909       0.00000000 </v>
   <v>       0.18181818       0.09090909       0.00000000 </v>
   <v>       0.27272727       0.09090909       0.00000000 </v>
   <v>       0.36363636       0.09090909       0.00000000 </v>
   <v>       0.45454545       0.09090909       0.00000000 </v>
   <v>       0.18181818       0.18181818       0.00000000 </v>
   <v>       0.27272727       0.18181818       0.00000000 </v>
   <v>       0.36363636       0.18181818       0.00000000 </v>
   <v>       0.27272727       0.27272727       0.00000000 </v>
   <v>       0.36363636       0.27272727       0.00000000 </v>
   <v>       0.00000000       0.00000000       0.09090909 </v>
   <v>       0.09090909       0.00000000       0.09090909 </v>
   <v>       0.18181818       0.00000000       0.09090909 </v>
   <v>       0.27272727      -0.00000000       0.09090909 </v>
   <v>       0.36363636       0.00000000       0.09090909 </v>
   <v>       0.45454545       0.00000000       0.09090909 </v>
   <v>       0.09090909       0.09090909       0.09090909 </v>
   <v>       0.18181818       0.09090909       0.09090909 </v>
   <v>       0.27272727       0.09090909       0.09090909 </v>
   <v>       0.36363636       0.09090909       0.09090909 </v>
   <v>       0.45454545       0.09090909       0.09090909 </v>
   <v>       0.18181818       0.18181818       0.09090909 </v>
   <v>       0.27272727       0.18181818       0.09090909 </v>
   <v>       0.36363636       0.18181818       0.09090909 </v>
   <v>       0.27272727       0.27272727       0.09090909 </v>
   <v>       0.36363636       0.27272727       0.09090909 </v>
   <v>       0.00000000       0.00000000       0.18181818 </v>
   <v>       0.09090909       0.00000000       0.18181818 </v>
   <v>       0.18181818       0.00000000       0.18181818 </v>
   <v>       0.27272727      -0.00000000       0.18181818 </v>
   <v>       0.36363636       0.00000000       0.18181818 </v>
   <v>       0.45454545       0.00000000       0.18181818 </v>
   <v>       0.09090909       0.09090909       0.18181818 </v>
   <v>       0.18181818       0.09090909       0.18181818 </v>
   <v>       0.27272727       0.09090909       0.18181818 </v>
   <v>       0.36363636       0.09090909       0.18181818 </v>
   <v>       0.45454545       0.09090909       0.18181818 </v>
   <v>       0.18181818       0.18181818       0.18181818 </v>
   <v>       0.27272727       0.18181818       0.18181818 </v>
   <v>       0.36363636       0.18181818       0.18181818 </v>
   <v>       0.27272727       0.27272727       0.18181818 </v>
   <v>       0.36363636       0.27272727       0.18181818 </v>
   <v>       0.00000000       0.00000000       0.27272727 </v>
   <v>       0.09090909       0.00000000       0.27272727 </v>
   <v>       0.18181818       0.00000000       0.27272727 </v>
   <v>       0.27272727      -0.00000000       0.27272727 </v>
   <v>       0.36363636       0.00000000       0.27272727 </v>
   <v>       0.45454545       0.00000000       0.27272727 </v>
   <v>       0.09090909       0.09090909       0.27272727 </v>
   <v>       0.18181818       0.09090909       0.27272727 </v>
   <v>       0.27272727       0.09090909       0.27272727 </v>
   <v>       0.36363636       0.09090909       0.27272727 </v>
   <v>       0.45454545       0.09090909       0.27272727 </v>
   <v>       0.18181818       0.18181818       0.27272727 </v>
   <v>       0.27272727       0.18181818       0.27272727 </v>
   <v>       0.36363636       0.18181818       0.27272727 </v>
   <v>       0.27272727       0.27272727       0.27272727 </v>
   <v>       0.36363636       0.27272727       0.27272727 </v>
   <v>       0.00000000       0.00000000       0.36363636 </v>
   <v>       0.09090909       0.00000000       0.36363636 </v>
   <v>       0.18181818       0.00000000       0.36363636 </v>
   <v>       0.27272727      -0.00000000       0.36363636 </v>
   <v>       0.36363636       0.00000000       0.36363636 </v>
   <v>       0.45454545       0.00000000       0.36363636 </v>
   <v>       0.09090909       0.09090909       0.36363636 </v>
   <v>       0.18181818       0.09090909       0.36363636 </v>
   <v>       0.27272727       0.09090909       0.36363636 </v>
   <v>       0.36363636       0.09090909       0.36363636 </v>
   <v>       0.45454545       0.09090909       0.36363636 </v>
   <v>       0.18181818       0.18181818       0.36363636 </v>
   <v>       0.27272727       0.18181818       0.36363636 </v>
   <v>       0.36363636       0.18181818       0.36363636 </v>
   <v>       0.27272727       0.27272727       0.36363636 </v>
   <v>       0.36363636       0.27272727       0.36363636 </v>
   <v>       0.00000000       0.00000000       0.45454545 </v>
   <v>       0.09090909       0.00000000       0.45454545 </v>
   <v>       0.18181818       0.00000000       0.45454545 </v>
   <v>       0.27272727      -0.00000000       0.45454545 </v>
   <v>       0.36363636       0.00000000       0.45454545 </v>
   <v>       0.45454545       0.00000000       0.45454545 </v>
   <v>       0.09090909       0.09090909       0.45454545 </v>
   <v>       0.18181818       0.09090909       0.45454545 </v>
   <v>       0.27272727       0.09090909       0.45454545 </v>
   <v>       0.36363636       0.09090909       0.45454545 </v>
   <v>       0.45454545       0.09090909       0.45454545 </v>
   <v>       0.18181818       0.18181818       0.45454545 </v>
   <v>       0.27272727       0.18181818       0.45454545 </v>
   <v>       0.36363636       0.18181818       0.45454545 </v>
   <v>       0.27272727       0.27272727       0.45454545 </v>
   <v>       0.36363636       0.27272727       0.45454545 </v>
  </varray>
  <varray name="weights" >
   <v>       0.00075131 </v>
   <v>       0.00450789 </v>
   <v>       0.00450789 </v>
   <v>       0.00450789 </v>
   <v>       0.00450789 </v>
   <v>       0.00450789 </v>
   <v>       0.00450789 </v>
   <v>       0.00901578 </v>
   <v>       0.00901578 </v>
   <v>       0.00901578 </v>
   <v>       0.00450789 </v>
   <v>       0.00450789 </v>
   <v>       0.00901578 </v>
   <v>       0.00901578 </v>
   <v>       0.00450789 </v>
   <v>       0.00450789 </v>
   <v>       0.00150263 </v>
   <v>       0.00901578 </v>
   <v>       0.00901578 </v>
   <v>       0.00901578 </v>
   <v>       0.00901578 </v>
   <v>       0.00901578 </v>
   <v>       0.00901578 </v>
   <v>       0.01803156 </v>
   <v>       0.01803156 </v>
   <v>       0.01803156 </v>
   <v>       0.00901578 </v>
   <v>       0.00901578 </v>
   <v>       0.01803156 </v>
   <v>       0.01803156 </v>
   <v>       0.00901578 </v>
   <v>       0.00901578 </v>
   <v>       0.00150263 </v>
   <v>       0.00901578 </v>
   <v>       0.00901578 </v>
   <v>       0.00901578 </v>
   <v>       0.00901578 </v>
   <v>       0.00901578 </v>
   <v>       0.00901578 </v>
   <v>       0.01803156 </v>
   <v>       0.01803156 </v>
   <v>       0.01803156 </v>
   <v>       0.00901578 </v>
   <v>       0.00901578 </v>
   <v>       0.01803156 </v>
   <v>       0.01803156 </v>
   <v>       0.00901578 </v>
   <v>       0.00901578 </v>
   <v>       0.00150263 </v>
   <v>       0.00901578 </v>
   <v>       0.00901578 </v>
   <v>       0.00901578 </v>
   <v>       0.00901578 </v>
   <v>       0.00901578 </v>
   <v>       0.00901578 </v>
   <v>       0.01803156 </v>
   <v>       0.01803156 </v>
   <v>       0.01803156 </v>
   <v>       0.00901578 </v>
   <v>       0.00901578 </v>
   <v>       0.01803156 </v>
   <v>       0.01803156 </v>
   <v>       0.00901578 </v>
   <v>       0.00901578 </v>
   <v>       0.00150263 </v>
   <v>       0.00901578 </v>
   <v>       0.00901578 </v>
   <v>       0.00901578 </v>
   <v>       0.00901578 </v>
   <v>       0.00901578 </v>
   <v>       0.00901578 </v>
   <v>       0.01803156 </v>
   <v>       0.01803156 </v>
   <v>       0.01803156 </v>
   <v>       0.00901578 </v>
   <v>       0.00901578 </v>
   <v>       0.01803156 </v>
   <v>       0.01803156 </v>
   <v>       0.00901578 </v>
   <v>       0.00901578 </v>
   <v>       0.00150263 </v>
   <v>       0.00901578 </v>
   <v>       0.00901578 </v>
   <v>       0.00901578 </v>
   <v>       0.00901578 </v>
   <v>       0.00901578 </v>
   <v>       0.00901578 </v>
   <v>       0.01803156 </v>
   <v>       0.01803156 </v>
   <v>       0.01803156 </v>
   <v>       0.00901578 </v>
   <v>       0.00901578 </v>
   <v>       0.01803156 </v>
   <v>       0.01803156 </v>
   <v>       0.00901578 </v>
   <v>       0.00901578 </v>
  </varray>
 </kpoints>
 <parameters>
  <separator name="general" >
   <i type="string" name="SYSTEM">unknown system</i>
   <i type="logical" name="LCOMPAT"> F  </i>
  </separator>
  <separator name="electronic" >
   <i type="string" name="PREC">normal</i>
   <i name="ENMAX">    280.00000000</i>
   <i name="ENAUG">    511.36800000</i>
   <i name="EDIFF">      0.00000100</i>
   <i type="int" name="IALGO">    38</i>
   <i type="int" name="IWAVPR">     0</i>
   <i type="int" name="NBANDS">    40</i>
   <i type="int" name="NBANDSLOW">    -1</i>
   <i type="int" name="NBANDSHIGH">    -1</i>
   <i name="NELECT">     16.00000000</i>
   <i type="int" name="TURBO">     0</i>
   <i type="int" name="IRESTART">     0</i>
   <i type="int" name="NREBOOT">     0</i>
   <i type="int" name="NMIN">     0</i>
   <i name="EREF">      0.00000000</i>
   <separator name="electronic smearing" >
    <i type="int" name="ISMEAR">     1</i>
    <i name="SIGMA">      0.20000000</i>
    <i name="KSPACING">      0.50000000</i>
    <i type="logical" name="KGAMMA"> T  </i>
    <i type="logical" name="KBLOWUP"> T  </i>
   </separator>
   <separator name="electronic projectors" >
    <i type="logical" name="LREAL"> F  </i>
    <v name="ROPT">      0.00000000</v>
    <i type="int" name="LMAXPAW">  -100</i>
    <i type="int" name="LMAXMIX">     2</i>
    <i type="logical" name="NLSPLINE"> F  </i>
   </separator>
   <separator name="electronic startup" >
    <i type="int" name="ISTART">     0</i>
    <i type="int" name="ICHARG">     1</i>
    <i type="int" name="INIWAV">     1</i>
   </separator>
   <separator name="electronic spin" >
    <i type="int" name="ISPIN">     1</i>
    <i type="logical" name="LNONCOLLINEAR"> F  </i>
    <v name="MAGMOM">      1.00000000      1.00000000</v>
    <i name="NUPDOWN">     -1.00000000</i>
    <i type="logical" name="LSORBIT"> F  </i>
    <v name="SAXIS">      0.00000000      0.00000000      1.00000000</v>
    <i type="logical" name="LSPIRAL"> F  </i>
    <v name="QSPIRAL">      0.00000000      0.00000000      0.00000000</v>
    <i type="logical" name="LZEROZ"> F  </i>
   </separator>
   <separator name="electronic exchange-correlation" >
    <i type="logical" name="LASPH"> F  </i>
    <i type="logical" name="LMETAGGA"> F  </i>
   </separator>
   <separator name="electronic convergence" >
    <i type="int" name="NELM">    60</i>
    <i type="int" name="NELMDL">    -5</i>
    <i type="int" name="NELMIN">     2</i>
    <i name="ENINI">    280.00000000</i>
    <separator name="electronic convergence detail" >
     <i type="logical" name="LDIAG"> T  </i>
     <i type="logical" name="LSUBROT"> F  </i>
     <i name="WEIMIN">      0.00000000</i>
     <i name="EBREAK">      0.00000001</i>
     <i name="DEPER">      0.30000000</i>
     <i type="int" name="NRMM">     4</i>
     <i name="TIME">      0.40000000</i>
    </separator>
   </separator>
   <separator name="electronic mixer" >
    <i name="AMIX">      0.40000000</i>
    <i name="BMIX">      1.00000000</i>
    <i name="AMIN">      0.10000000</i>
    <i name="AMIX_MAG">      1.60000000</i>
    <i name="BMIX_MAG">      1.00000000</i>
    <separator name="electronic mixer details" >
     <i type="int" name="IMIX">     4</i>
     <i type="logical" name="MIXFIRST"> F  </i>
     <i type="int" name="MAXMIX">   -45</i>
     <i name="WC">    100.00000000</i>
     <i type="int" name="INIMIX">     1</i>
     <i type="int" name="MIXPRE">     1</i>
     <i type="int" name="MREMOVE">     5</i>
    </separator>
   </separator>
   <separator name="electronic dipolcorrection" >
    <i type="logical" name="LDIPOL"> F  </i>
    <i type="logical" name="LMONO"> F  </i>
    <i type="int" name="IDIPOL">     0</i>
    <i name="EPSILON">      1.00000000</i>
    <v name="DIPOL">   -100.00000000   -100.00000000   -100.00000000</v>
    <i name="EFIELD">      0.00000000</i>
   </separator>
  </separator>
  <separator name="grids" >
   <i type="int" name="NGX">    10</i>
   <i type="int" name="NGY">    10</i>
   <i type="int" name="NGZ">    18</i>
   <i type="int" name="NGXF">    20</i>
   <i type="int" name="NGYF">    20</i>
   <i type="int" name="NGZF">    36</i>
   <i type="logical" name="ADDGRID"> F  </i>
  </separator>
  <separator name="ionic" >
   <i type="int" name="NSW">     0</i>
   <i type="int" name="IBRION">    -1</i>
   <i type="int" name="MDALGO">     0</i>
   <i type="int" name="ISIF">     2</i>
   <i name="PSTRESS">      0.00000000</i>
   <i name="EDIFFG">      0.00001000</i>
   <i type="int" name="NFREE">     0</i>
   <i name="POTIM">      0.50000000</i>
   <i name="SMASS">     -3.00000000</i>
   <i name="SCALEE">      1.00000000</i>
  </separator>
  <separator name="ionic md" >
   <i name="TEBEG">      0.00010000</i>
   <i name="TEEND">      0.00010000</i>
   <i type="int" name="NBLOCK">     1</i>
   <i type="int" name="KBLOCK">     1</i>
   <i type="int" name="NPACO">   256</i>
   <i name="APACO">     16.00000000</i>
  </separator>
  <separator name="symmetry" >
   <i type="int" name="ISYM">     2</i>
   <i name="SYMPREC">      0.00001000</i>
  </separator>
  <separator name="dos" >
   <i type="int" name="LORBIT">     0</i>
   <v name="RWIGS">     -1.00000000</v>
   <i type="int" name="NEDOS">   301</i>
   <i name="EMIN">     10.00000000</i>
   <i name="EMAX">    -10.00000000</i>
   <i name="EFERMI">      0.00000000</i>
  </separator>
  <separator name="writing" >
   <i type="int" name="NWRITE">     2</i>
   <i type="logical" name="LWAVE"> T  </i>
   <i type="logical" name="LDOWNSAMPLE"> F  </i>
   <i type="logical" name="LCHARG"> T  </i>
   <i type="logical" name="LPARD"> F  </i>
   <i type="logical" name="LVTOT"> F  </i>
   <i type="logical" name="LVHAR"> F  </i>
   <i type="logical" name="LELF"> F  </i>
   <i type="logical" name="LOPTICS"> F  </i>
   <v name="STM">      0.00000000      0.00000000      0.00000000      0.00000000      0.00000000      0.00000000      0.00000000</v>
  </separator>
  <separator name="performance" >
   <i type="int" name="NPAR">     1</i>
   <i type="int" name="NSIM">     4</i>
   <i type="int" name="NBLK">    -1</i>
   <i type="logical" name="LPLANE"> T  </i>
   <i type="logical" name="LSCALAPACK"> F  </i>
   <i type="logical" name="LSCAAWARE"> F  </i>
   <i type="logical" name="LSCALU"> F  </i>
   <i type="logical" name="LASYNC"> F  </i>
   <i type="logical" name="LORBITALREAL"> F  </i>
  </separator>
  <separator name="miscellaneous" >
   <i type="int" name="IDIOT">     3</i>
   <i type="int" name="PHON_NSTRUCT">    -1</i>
   <i type="logical" name="LMUSIC"> F  </i>
   <v name="POMASS">     55.84700000</v>
   <v name="DARWINR">      0.00000000</v>
   <v name="DARWINV">      1.00000000</v>
   <i type="logical" name="LCORR"> T  </i>
  </separator>
  <i type="logical" name="GGA_COMPAT"> T  </i>
  <i type="logical" name="LBERRY"> F  </i>
  <i type="int" name="ICORELEVEL">     0</i>
  <i type="logical" name="LDAU"> F  </i>
  <i type="int" name="I_CONSTRAINED_M">     0</i>
  <separator name="electronic exchange-correlation" >
   <i type="string" name="GGA">PE</i>
   <i type="int" name="VOSKOWN">     0</i>
   <i type="logical" name="LHFCALC"> F  </i>
   <i type="string" name="PRECFOCK"></i>
   <i type="logical" name="LSYMGRAD"> F  </i>
   <i type="logical" name="LHFONE"> F  </i>
   <i type="logical" name="LRHFCALC"> F  </i>
   <i type="logical" name="LTHOMAS"> F  </i>
   <i type="logical" name="LMODELHF"> F  </i>
   <i type="logical" name="LFOCKACE"> F  </i>
   <i name="ENCUT4O">     -1.00000000</i>
   <i type="int" name="EXXOEP">     0</i>
   <i type="int" name="FOURORBIT">     0</i>
   <i name="AEXX">      0.00000000</i>
   <i name="HFALPHA">      0.00000000</i>
   <i name="MCALPHA">      0.00000000</i>
   <i name="ALDAX">      1.00000000</i>
   <i name="AGGAX">      1.00000000</i>
   <i name="ALDAC">      1.00000000</i>
   <i name="AGGAC">      1.00000000</i>
   <i type="int" name="NKREDX">     1</i>
   <i type="int" name="NKREDY">     1</i>
   <i type="int" name="NKREDZ">     1</i>
   <i type="logical" name="SHIFTRED"> F  </i>
   <i type="logical" name="ODDONLY"> F  </i>
   <i type="logical" name="EVENONLY"> F  </i>
   <i type="int" name="LMAXFOCK">     0</i>
   <i type="int" name="NMAXFOCKAE">     0</i>
   <i type="logical" name="LFOCKAEDFT"> F  </i>
   <i name="HFSCREEN">      0.00000000</i>
   <i name="HFSCREENC">      0.00000000</i>
   <i type="int" name="NBANDSGWLOW">     0</i>
  </separator>
  <separator name="vdW DFT" >
   <i type="logical" name="LUSE_VDW"> F  </i>
   <i name="Zab_VDW">     -0.84910000</i>
   <i name="PARAM1">      0.12340000</i>
   <i name="PARAM2">      1.00000000</i>
   <i name="PARAM3">      0.00000000</i>
  </separator>
  <separator name="model GW" >
   <i type="int" name="MODEL_GW">     0</i>
   <i name="MODEL_EPS0">      6.50873341</i>
   <i name="MODEL_ALPHA">      1.00000000</i>
  </separator>
  <separator name="linear response parameters" >
   <i type="logical" name="LEPSILON"> F  </i>
   <i type="logical" name="LRPA"> F  </i>
   <i type="logical" name="LNABLA"> F  </i>
   <i type="logical" name="LVEL"> F  </i>
   <i type="int" name="KINTER">     0</i>
   <i name="CSHIFT">      0.10000000</i>
   <i name="OMEGAMAX">     -1.00000000</i>
   <i name="DEG_THRESHOLD">      0.00200000</i>
   <i name="RTIME">     -0.10000000</i>
   <i name="WPLASMAI">      0.00000000</i>
   <v name="DFIELD">      0.00000000      0.00000000      0.00000000</v>
   <v name="WPLASMA">      0.00000000      0.00000000      0.00000000      0.00000000      0.00000000      0.00000000      0.00000000      0.00000000      0.00000000</v>
  </separator>
  <separator name="orbital magnetization" >
   <i type="logical" name="NUCIND"> F  </i>
   <v name="MAGPOS">      0.00000000      0.00000000      0.00000000</v>
   <i type="logical" name="LNICSALL"> T  </i>
   <i type="logical" name="ORBITALMAG"> F  </i>
   <i type="logical" name="LMAGBLOCH"> F  </i>
   <i type="logical" name="LCHIMAG"> F  </i>
   <i type="logical" name="LGAUGE"> T  </i>
   <i type="int" name="MAGATOM">     0</i>
   <v name="MAGDIPOL">      0.00000000      0.00000000      0.00000000</v>
   <v name="AVECCONST">      0.00000000      0.00000000      0.00000000</v>
  </separator>
  <separator name="response functions" >
   <i type="logical" name="LFINITE_TEMPERATURE"> F  </i>
   <i type="logical" name="LADDER"> F  </i>
   <i type="logical" name="LRPAFORCE"> F  </i>
   <i type="logical" name="LFXC"> F  </i>
   <i type="logical" name="LHARTREE"> T  </i>
   <i type="int" name="IBSE">     0</i>
   <v type="int" name="KPOINT">    -1     0     0     0</v>
   <i type="logical" name="LTCTC"> F  </i>
   <i type="logical" name="LTCTE"> F  </i>
   <i type="logical" name="LTETE"> F  </i>
   <i type="logical" name="LTRIPLET"> F  </i>
   <i type="logical" name="LFXCEPS"> F  </i>
   <i type="logical" name="LFXHEG"> F  </i>
   <i type="int" name="NATURALO">     2</i>
   <i type="logical" name="LHOLEGF"> F  </i>
   <i type="logical" name="L2ORDER"> F  </i>
   <i type="logical" name="LDMP1"> F  </i>
   <i type="logical" name="LMP2LT"> F  </i>
   <i type="logical" name="LSMP2LT"> F  </i>
   <i type="logical" name="LGWLF"> F  </i>
   <i name="ENCUTGW">     -2.00000000</i>
   <i name="ENCUTGWSOFT">     -2.00000000</i>
   <i name="ENCUTLF">     -1.00000000</i>
   <i type="logical" name="LESF_SPLINES"> F  </i>
   <i type="int" name="LMAXMP2">    -1</i>
   <i name="SCISSOR">      0.00000000</i>
   <i type="int" name="NOMEGA">     0</i>
   <i type="int" name="NOMEGAR">     0</i>
   <i type="int" name="NBANDSGW">    -1</i>
   <i type="int" name="NBANDSO">    -1</i>
   <i type="int" name="NBANDSV">    -1</i>
   <i type="int" name="NELM">     1</i>
   <i type="int" name="NELMHF">     1</i>
   <i type="int" name="DIM">     3</i>
   <i type="int" name="IESPILON">     4</i>
   <i type="int" name="ANTIRES">     0</i>
   <i name="OMEGAMAX">    -30.00000000</i>
   <i name="OMEGAMIN">    -30.00000000</i>
   <i name="OMEGATL">   -200.00000000</i>
   <i type="int" name="OMEGAGRID">     0</i>
   <i name="CSHIFT">     -0.10000000</i>
   <i type="logical" name="LSELFENERGY"> F  </i>
   <i type="logical" name="LSPECTRAL"> F  </i>
   <i type="logical" name="LSPECTRALGW"> F  </i>
   <i type="logical" name="LSINGLES"> F  </i>
   <i type="logical" name="LFERMIGW"> F  </i>
   <i type="logical" name="ODDONLYGW"> F  </i>
   <i type="logical" name="EVENONLYGW"> F  </i>
   <i type="int" name="NKREDLFX">     1</i>
   <i type="int" name="NKREDLFY">     1</i>
   <i type="int" name="NKREDLFZ">     1</i>
   <i type="int" name="MAXMEM">  2800</i>
   <i type="int" name="TELESCOPE">     0</i>
   <i type="int" name="NTAUPAR">    -1</i>
   <i type="int" name="NOMEGAPAR">    -1</i>
   <i name="DAMP_NEWTON">      0.80000001</i>
   <i name="LAMBDA">      1.00000000</i>
  </separator>
  <separator name="External order field" >
   <i name="OFIELD_KAPPA">      0.00000000</i>
   <v name="OFIELD_K">      0.00000000      0.00000000      0.00000000</v>
   <i name="OFIELD_Q6_NEAR">      0.00000000</i>
   <i name="OFIELD_Q6_FAR">      0.00000000</i>
   <i name="OFIELD_A">      0.00000000</i>
  </separator>
 </parameters>
 <atominfo>
  <atoms>       2 </atoms>
  <types>       1 </types>
  <array name="atoms" >
   <dimension dim="1">ion</dimension>
   <field type="string">element</field>
   <field type="int">atomtype</field>
   <set>
    <rc><c>Fe</c><c>   1</c></rc>
    <rc><c>Fe</c><c>   1</c></rc>
   </set>
  </array>
  <array name="atomtypes" >
   <dimension dim="1">type</dimension>
   <field type="int">atomspertype</field>
   <field type="string">element</field>
   <field>mass</field>
   <field>valence</field>
   <field type="string">pseudopotential</field>
   <set>
    <rc><c>   2</c><c>Fe</c><c>     55.84700000</c><c>      8.00000000</c><c>  PAW_PBE Fe 06Sep2000                  </c></rc>
   </set>
  </array>
 </atominfo>
 <structure name="initialpos" >
  <crystal>
   <varray name="basis" >
    <v>       2.39990000       0.00000000       0.00000000 </v>
    <v>      -1.19995000       2.07837437       0.00000000 </v>
    <v>       0.00000000       0.00000000       4.34969000 </v>
   </varray>
   <i name="volume">     21.69577805 </i>
   <varray name="rec_basis" >
    <v>       0.41668403       0.24057264       0.00000000 </v>
    <v>       0.00000000       0.48114527       0.00000000 </v>
    <v>       0.00000000       0.00000000       0.22990144 </v>
   </varray>
  </crystal>
  <varray name="positions" >
   <v>       0.00000000       0.00000000       0.00000000 </v>
   <v>       0.33333333       0.66666667       0.50000000 </v>
  </varray>
 </structure>
 <calculation>
  <scstep>
   <time name="dav">    0.81    0.83</time>
   <time name="total">    0.82    0.84</time>
   <energy>
    <i name="alphaZ">    127.42345695 </i>
    <i name="ewald">  -1200.37499775 </i>
    <i name="hartreedc">   -217.66680045 </i>
    <i name="XCdc">      8.11345614 </i>
    <i name="pawpsdc">   1109.69170683 </i>
    <i name="pawaedc">  -1125.09647265 </i>
    <i name="eentropy">     -0.00102023 </i>
    <i name="bandstr">    171.34510957 </i>
    <i name="atom">   1188.57490811 </i>
    <i name="e_fr_energy">     62.00934653 </i>
    <i name="e_wo_entrp">     62.01036675 </i>
    <i name="e_0_energy">     62.00968660 </i>
   </energy>
  </scstep>
  <scstep>
   <time name="dav">    0.70    0.70</time>
   <time name="total">    0.71    0.71</time>
   <energy>
    <i name="e_fr_energy">    -14.50665429 </i>
    <i name="e_wo_entrp">    -14.50653243 </i>
    <i name="e_0_energy">    -14.50661367 </i>
   </energy>
  </scstep>
  <scstep>
   <time name="dav">    0.79    0.79</time>
   <time name="total">    0.80    0.80</time>
   <energy>
    <i name="e_fr_energy">    -19.06825957 </i>
    <i name="e_wo_entrp">    -19.06897725 </i>
    <i name="e_0_energy">    -19.06849880 </i>
   </energy>
  </scstep>
  <scstep>
   <time name="dav">    0.77    0.77</time>
   <time name="total">    0.77    0.77</time>
   <energy>
    <i name="e_fr_energy">    -19.09165948 </i>
    <i name="e_wo_entrp">    -19.09239572 </i>
    <i name="e_0_energy">    -19.09190489 </i>
   </energy>
  </scstep>
  <scstep>
   <time name="dav">    0.77    0.77</time>
   <time name="total">    0.80    0.80</time>
   <energy>
    <i name="e_fr_energy">    -19.09170006 </i>
    <i name="e_wo_entrp">    -19.09243636 </i>
    <i name="e_0_energy">    -19.09194549 </i>
   </energy>
  </scstep>
  <scstep>
   <time name="dav">    0.91    0.91</time>
   <time name="total">    0.95    0.95</time>
   <energy>
    <i name="e_fr_energy">    -16.24441507 </i>
    <i name="e_wo_entrp">    -16.24738779 </i>
    <i name="e_0_energy">    -16.24540598 </i>
   </energy>
  </scstep>
  <scstep>
   <time name="dav">    0.84    0.84</time>
   <time name="total">    0.87    0.87</time>
   <energy>
    <i name="e_fr_energy">    -15.97141707 </i>
    <i name="e_wo_entrp">    -15.97463515 </i>
    <i name="e_0_energy">    -15.97248977 </i>
   </energy>
  </scstep>
  <scstep>
   <time name="dav">    0.85    0.85</time>
   <time name="total">    0.88    0.88</time>
   <energy>
    <i name="e_fr_energy">    -15.94632764 </i>
    <i name="e_wo_entrp">    -15.94963749 </i>
    <i name="e_0_energy">    -15.94743092 </i>
   </energy>
  </scstep>
  <scstep>
   <time name="dav">    0.92    0.92</time>
   <time name="total">    0.95    0.95</time>
   <energy>
    <i name="e_fr_energy">    -15.93601316 </i>
    <i name="e_wo_entrp">    -15.93932891 </i>
    <i name="e_0_energy">    -15.93711841 </i>
   </energy>
  </scstep>
  <scstep>
   <time name="dav">    0.77    0.77</time>
   <time name="total">    0.80    0.80</time>
   <energy>
    <i name="e_fr_energy">    -15.93603979 </i>
    <i name="e_wo_entrp">    -15.93935222 </i>
    <i name="e_0_energy">    -15.93714393 </i>
   </energy>
  </scstep>
  <scstep>
   <time name="dav">    0.79    0.79</time>
   <time name="total">    0.82    0.82</time>
   <energy>
    <i name="e_fr_energy">    -15.93603490 </i>
    <i name="e_wo_entrp">    -15.93934758 </i>
    <i name="e_0_energy">    -15.93713913 </i>
   </energy>
  </scstep>
  <scstep>
   <time name="dav">    0.57    0.57</time>
   <time name="total">    0.59    0.59</time>
   <energy>
    <i name="alphaZ">    127.42345695 </i>
    <i name="ewald">  -1200.37499775 </i>
    <i name="hartreedc">   -183.41974929 </i>
    <i name="XCdc">      6.52798060 </i>
    <i name="pawpsdc">   1415.62928295 </i>
    <i name="pawaedc">  -1432.63836346 </i>
    <i name="eentropy">      0.00331280 </i>
    <i name="bandstr">     62.33813458 </i>
    <i name="atom">   1188.57490811 </i>
    <i name="e_fr_energy">    -15.93603450 </i>
    <i name="e_wo_entrp">    -15.93934730 </i>
    <i name="e_0_energy">    -15.93713877 </i>
   </energy>
  </scstep>
  <structure>
   <crystal>
    <varray name="basis" >
     <v>       2.39990000       0.00000000       0.00000000 </v>
     <v>      -1.19995000       2.07837437       0.00000000 </v>
     <v>       0.00000000       0.00000000       4.34969000 </v>
    </varray>
    <i name="volume">     21.69577805 </i>
    <varray name="rec_basis" >
     <v>       0.41668403       0.24057264       0.00000000 </v>
     <v>       0.00000000       0.48114527       0.00000000 </v>
     <v>       0.00000000       0.00000000       0.22990144 </v>
    </varray>
   </crystal>
   <varray name="positions" >
    <v>       0.00000000       0.00000000       0.00000000 </v>
    <v>       0.33333333       0.66666667       0.50000000 </v>
   </varray>
  </structure>
  <varray name="forces" >
   <v>      -0.00000000       0.00000000      -0.00000000 </v>
   <v>       0.00000000      -0.00000000       0.00000000 </v>
  </varray>
  <varray name="stress" >
   <v>      26.54796752      -0.00000000       0.00000000 </v>
   <v>      -0.00000000      26.54796752       0.00000000 </v>
   <v>       0.00000000       0.00000000    -455.07709535 </v>
  </varray>
  <energy>
   <i name="e_fr_energy">    -15.93603450 </i>
   <i name="e_wo_entrp">    -15.93934730 </i>
   <i name="e_0_energy">    -15.93713877 </i>
  </energy>
  <time name="totalsc">   10.09   10.11</time>
  <eigenvalues>
   <array>
    <dimension dim="1">band</dimension>
    <dimension dim="2">kpoint</dimension>
    <dimension dim="3">spin</dimension>
    <field>eigene</field>
    <field>occ</field>
    <set>
     <set comment="spin 1">
      <set comment="kpoint 1">
       <r>   -2.3223    1.0000 </r>
       <r>    1.4777    1.0000 </r>
       <r>    4.0417    1.0000 </r>
       <r>    4.7861    1.0000 </r>
       <r>    4.7862    1.0000 </r>
       <r>    5.0309    1.0000 </r>
       <r>    5.0311    1.0000 </r>
       <r>    5.3013    1.0000 </r>
       <r>    6.0402    1.0123 </r>
       <r>    6.0403    1.0123 </r>
       <r>    6.8965   -0.0000 </r>
       <r>    6.8965   -0.0000 </r>
       <r>   12.5407    0.0000 </r>
       <r>   28.0876    0.0000 </r>
       <r>   29.4809    0.0000 </r>
       <r>   32.1303    0.0000 </r>
       <r>   34.2157    0.0000 </r>
       <r>   34.2158    0.0000 </r>
       <r>   34.2313    0.0000 </r>
       <r>   35.0202    0.0000 </r>
       <r>   35.0204    0.0000 </r>
       <r>   37.8641    0.0000 </r>
       <r>   37.8641    0.0000 </r>
       <r>   38.8087    0.0000 </r>
       <r>   40.9939    0.0000 </r>
       <r>   40.9939    0.0000 </r>
       <r>   41.0521    0.0000 </r>
       <r>   44.3788    0.0000 </r>
       <r>   44.3792    0.0000 </r>
       <r>   46.0417    0.0000 </r>
       <r>   46.0419    0.0000 </r>
       <r>   48.0823    0.0000 </r>
       <r>   55.5089    0.0000 </r>
       <r>   59.6553    0.0000 </r>
       <r>   59.6564    0.0000 </r>
       <r>   59.9237    0.0000 </r>
       <r>   60.5545    0.0000 </r>
       <r>   60.8705    0.0000 </r>
       <r>   60.8705    0.0000 </r>
       <r>   61.1454    0.0000 </r>
      </set>
      <set comment="kpoint 2">
       <r>   -2.0014    1.0000 </r>
       <r>    1.7241    1.0000 </r>
       <r>    4.0967    1.0000 </r>
       <r>    4.6204    1.0000 </r>
       <r>    4.6927    1.0000 </r>
       <r>    4.9203    1.0000 </r>
       <r>    4.9673    1.0000 </r>
       <r>    5.2013    1.0000 </r>
       <r>    5.8850    1.0194 </r>
       <r>    5.9423    1.0319 </r>
       <r>    6.9198   -0.0000 </r>
       <r>    7.8491   -0.0000 </r>
       <r>   12.5714    0.0000 </r>
       <r>   28.0292    0.0000 </r>
       <r>   28.4867    0.0000 </r>
       <r>   30.4481    0.0000 </r>
       <r>   31.5168    0.0000 </r>
       <r>   33.8195    0.0000 </r>
       <r>   33.8664    0.0000 </r>
       <r>   34.1534    0.0000 </r>
       <r>   37.1351    0.0000 </r>
       <r>   37.3743    0.0000 </r>
       <r>   37.9420    0.0000 </r>
       <r>   38.5256    0.0000 </r>
       <r>   41.7605    0.0000 </r>
       <r>   42.0215    0.0000 </r>
       <r>   42.3011    0.0000 </r>
       <r>   42.7738    0.0000 </r>
       <r>   45.8311    0.0000 </r>
       <r>   47.2781    0.0000 </r>
       <r>   48.5623    0.0000 </r>
       <r>   50.2737    0.0000 </r>
       <r>   55.2334    0.0000 </r>
       <r>   57.1398    0.0000 </r>
       <r>   58.0711    0.0000 </r>
       <r>   58.4918    0.0000 </r>
       <r>   59.2014    0.0000 </r>
       <r>   60.7451    0.0000 </r>
       <r>   61.9248    0.0000 </r>
       <r>   62.6203    0.0000 </r>
      </set>
      <set comment="kpoint 3">
       <r>   -1.0893    1.0000 </r>
       <r>    2.3142    1.0000 </r>
       <r>    3.7169    1.0000 </r>
       <r>    4.0363    1.0000 </r>
       <r>    4.4777    1.0000 </r>
       <r>    4.9764    1.0000 </r>
       <r>    5.4723    1.0000 </r>
       <r>    5.5173    1.0000 </r>
       <r>    5.6740    1.0004 </r>
       <r>    5.7101    1.0009 </r>
       <r>    6.9568   -0.0000 </r>
       <r>    9.5160   -0.0000 </r>
       <r>   12.6950    0.0000 </r>
       <r>   24.1558    0.0000 </r>
       <r>   28.7810    0.0000 </r>
       <r>   29.1639    0.0000 </r>
       <r>   29.2276    0.0000 </r>
       <r>   29.8502    0.0000 </r>
       <r>   33.4068    0.0000 </r>
       <r>   34.7074    0.0000 </r>
       <r>   34.8585    0.0000 </r>
       <r>   36.1166    0.0000 </r>
       <r>   38.4733    0.0000 </r>
       <r>   38.9554    0.0000 </r>
       <r>   42.1958    0.0000 </r>
       <r>   43.5530    0.0000 </r>
       <r>   45.0174    0.0000 </r>
       <r>   47.0271    0.0000 </r>
       <r>   48.1858    0.0000 </r>
       <r>   51.0283    0.0000 </r>
       <r>   51.4061    0.0000 </r>
       <r>   53.6283    0.0000 </r>
       <r>   54.1755    0.0000 </r>
       <r>   54.3194    0.0000 </r>
       <r>   56.3533    0.0000 </r>
       <r>   57.6282    0.0000 </r>
       <r>   59.0111    0.0000 </r>
       <r>   60.6135    0.0000 </r>
       <r>   62.6015    0.0000 </r>
       <r>   64.2038    0.0000 </r>
      </set>
      <set comment="kpoint 4">
       <r>    0.2217    1.0000 </r>
       <r>    2.6294    1.0000 </r>
       <r>    3.0233    1.0000 </r>
       <r>    4.0328    1.0000 </r>
       <r>    4.2882    1.0000 </r>
       <r>    5.0520    1.0000 </r>
       <r>    5.4418    1.0000 </r>
       <r>    5.6561    1.0002 </r>
       <r>    6.1873    0.6416 </r>
       <r>    6.3317    0.1026 </r>
       <r>    6.9636   -0.0000 </r>
       <r>   11.4430   -0.0000 </r>
       <r>   12.9777    0.0000 </r>
       <r>   20.1433    0.0000 </r>
       <r>   25.6982    0.0000 </r>
       <r>   26.4552    0.0000 </r>
       <r>   27.2475    0.0000 </r>
       <r>   30.1952    0.0000 </r>
       <r>   31.8061    0.0000 </r>
       <r>   34.1363    0.0000 </r>
       <r>   35.2298    0.0000 </r>
       <r>   35.3339    0.0000 </r>
       <r>   35.9884    0.0000 </r>
       <r>   39.3205    0.0000 </r>
       <r>   45.8794    0.0000 </r>
       <r>   47.0580    0.0000 </r>
       <r>   48.4683    0.0000 </r>
       <r>   49.0284    0.0000 </r>
       <r>   49.1708    0.0000 </r>
       <r>   51.4925    0.0000 </r>
       <r>   52.5013    0.0000 </r>
       <r>   53.6636    0.0000 </r>
       <r>   55.6132    0.0000 </r>
       <r>   56.5208    0.0000 </r>
       <r>   57.3112    0.0000 </r>
       <r>   59.0258    0.0000 </r>
       <r>   60.3448    0.0000 </r>
       <r>   60.9350    0.0000 </r>
       <r>   63.3956    0.0000 </r>
       <r>   63.4787    0.0000 </r>
      </set>
      <set comment="kpoint 5">
       <r>    1.4333    1.0000 </r>
       <r>    2.3929    1.0000 </r>
       <r>    2.5776    1.0000 </r>
       <r>    4.1231    1.0000 </r>
       <r>    4.6370    1.0000 </r>
       <r>    4.7449    1.0000 </r>
       <r>    5.2185    1.0000 </r>
       <r>    6.8093   -0.0001 </r>
       <r>    6.9049   -0.0000 </r>
       <r>    6.9527   -0.0000 </r>
       <r>    6.9911   -0.0000 </r>
       <r>   13.1426    0.0000 </r>
       <r>   13.5518    0.0000 </r>
       <r>   17.0950    0.0000 </r>
       <r>   22.3816    0.0000 </r>
       <r>   24.2045    0.0000 </r>
       <r>   24.6899    0.0000 </r>
       <r>   29.5920    0.0000 </r>
       <r>   30.9490    0.0000 </r>
       <r>   34.0093    0.0000 </r>
       <r>   34.8467    0.0000 </r>
       <r>   35.8971    0.0000 </r>
       <r>   35.9291    0.0000 </r>
       <r>   39.3749    0.0000 </r>
       <r>   45.7174    0.0000 </r>
       <r>   47.6145    0.0000 </r>
       <r>   49.1603    0.0000 </r>
       <r>   52.0348    0.0000 </r>
       <r>   52.4190    0.0000 </r>
       <r>   52.5781    0.0000 </r>
       <r>   54.1991    0.0000 </r>
       <r>   55.9002    0.0000 </r>
       <r>   56.1067    0.0000 </r>
       <r>   58.3307    0.0000 </r>
       <r>   60.2305    0.0000 </r>
       <r>   60.2628    0.0000 </r>
       <r>   61.6365    0.0000 </r>
       <r>   62.5854    0.0000 </r>
       <r>   64.0425    0.0000 </r>
       <r>   65.0992    0.0000 </r>
      </set>
      <set comment="kpoint 6">
       <r>    1.9526    1.0000 </r>
       <r>    2.1459    1.0000 </r>
       <r>    2.3652    1.0000 </r>
       <r>    4.3948    1.0000 </r>
       <r>    4.6528    1.0000 </r>
       <r>    4.9698    1.0000 </r>
       <r>    5.0933    1.0000 </r>
       <r>    6.9410   -0.0000 </r>
       <r>    7.3490   -0.0000 </r>
       <r>    7.4327   -0.0000 </r>
       <r>    8.4092   -0.0000 </r>
       <r>   11.6452   -0.0000 </r>
       <r>   15.5912    0.0000 </r>
       <r>   16.8602    0.0000 </r>
       <r>   19.7678    0.0000 </r>
       <r>   21.4323    0.0000 </r>
       <r>   23.7111    0.0000 </r>
       <r>   29.0354    0.0000 </r>
       <r>   30.6726    0.0000 </r>
       <r>   32.9216    0.0000 </r>
       <r>   34.6212    0.0000 </r>
       <r>   36.8801    0.0000 </r>
       <r>   38.4660    0.0000 </r>
       <r>   38.6612    0.0000 </r>
       <r>   42.3709    0.0000 </r>
       <r>   47.6431    0.0000 </r>
       <r>   49.9279    0.0000 </r>
       <r>   53.4978    0.0000 </r>
       <r>   55.0583    0.0000 </r>
       <r>   55.4776    0.0000 </r>
       <r>   56.0047    0.0000 </r>
       <r>   57.8218    0.0000 </r>
       <r>   58.8712    0.0000 </r>
       <r>   59.6721    0.0000 </r>
       <r>   60.4836    0.0000 </r>
       <r>   60.5642    0.0000 </r>
       <r>   63.5936    0.0000 </r>
       <r>   63.9763    0.0000 </r>
       <r>   64.0360    0.0000 </r>
       <r>   64.9146    0.0000 </r>
      </set>
      <set comment="kpoint 7">
       <r>   -1.3826    1.0000 </r>
       <r>    2.1600    1.0000 </r>
       <r>    3.9522    1.0000 </r>
       <r>    4.0540    1.0000 </r>
       <r>    4.6759    1.0000 </r>
       <r>    4.7087    1.0000 </r>
       <r>    5.3371    1.0000 </r>
       <r>    5.5318    1.0000 </r>
       <r>    5.5667    1.0000 </r>
       <r>    5.8895    1.0204 </r>
       <r>    6.9169   -0.0000 </r>
       <r>    9.0473   -0.0000 </r>
       <r>   12.6524    0.0000 </r>
       <r>   25.9556    0.0000 </r>
       <r>   27.0431    0.0000 </r>
       <r>   29.1690    0.0000 </r>
       <r>   31.1283    0.0000 </r>
       <r>   32.5776    0.0000 </r>
       <r>   32.7525    0.0000 </r>
       <r>   33.4582    0.0000 </r>
       <r>   34.0151    0.0000 </r>
       <r>   39.0766    0.0000 </r>
       <r>   39.5567    0.0000 </r>
       <r>   39.7245    0.0000 </r>
       <r>   41.1885    0.0000 </r>
       <r>   41.3994    0.0000 </r>
       <r>   41.8072    0.0000 </r>
       <r>   47.7769    0.0000 </r>
       <r>   49.1411    0.0000 </r>
       <r>   49.3569    0.0000 </r>
       <r>   49.4015    0.0000 </r>
       <r>   53.4177    0.0000 </r>
       <r>   54.6759    0.0000 </r>
       <r>   54.7990    0.0000 </r>
       <r>   56.1165    0.0000 </r>
       <r>   57.4916    0.0000 </r>
       <r>   58.9773    0.0000 </r>
       <r>   61.3787    0.0000 </r>
       <r>   62.3934    0.0000 </r>
       <r>   63.6947    0.0000 </r>
      </set>
      <set comment="kpoint 8">
       <r>   -0.2485    1.0000 </r>
       <r>    2.7337    1.0000 </r>
       <r>    3.2722    1.0000 </r>
       <r>    3.8192    1.0000 </r>
       <r>    4.3920    1.0000 </r>
       <r>    5.0667    1.0000 </r>
       <r>    5.1052    1.0000 </r>
       <r>    5.6513    1.0002 </r>
       <r>    5.9947    1.0340 </r>
       <r>    6.2391    0.4250 </r>
       <r>    6.8956   -0.0000 </r>
       <r>   10.7628   -0.0000 </r>
       <r>   12.8929    0.0000 </r>
       <r>   22.2039    0.0000 </r>
       <r>   24.7609    0.0000 </r>
       <r>   27.5910    0.0000 </r>
       <r>   29.5807    0.0000 </r>
       <r>   29.9617    0.0000 </r>
       <r>   32.2251    0.0000 </r>
       <r>   32.7604    0.0000 </r>
       <r>   33.9441    0.0000 </r>
       <r>   37.7596    0.0000 </r>
       <r>   38.8218    0.0000 </r>
       <r>   39.8029    0.0000 </r>
       <r>   42.8849    0.0000 </r>
       <r>   43.9729    0.0000 </r>
       <r>   45.9636    0.0000 </r>
       <r>   49.1712    0.0000 </r>
       <r>   50.9293    0.0000 </r>
       <r>   51.9456    0.0000 </r>
       <r>   52.1604    0.0000 </r>
       <r>   53.9468    0.0000 </r>
       <r>   55.0853    0.0000 </r>
       <r>   55.3837    0.0000 </r>
       <r>   56.3694    0.0000 </r>
       <r>   56.9557    0.0000 </r>
       <r>   60.0766    0.0000 </r>
       <r>   61.6894    0.0000 </r>
       <r>   63.1529    0.0000 </r>
       <r>   64.1164    0.0000 </r>
      </set>
      <set comment="kpoint 9">
       <r>    1.0983    1.0000 </r>
       <r>    2.7095    1.0000 </r>
       <r>    2.7802    1.0000 </r>
       <r>    3.8890    1.0000 </r>
       <r>    4.4587    1.0000 </r>
       <r>    4.7267    1.0000 </r>
       <r>    5.3225    1.0000 </r>
       <r>    5.8013    1.0057 </r>
       <r>    6.7081   -0.0015 </r>
       <r>    6.8689   -0.0000 </r>
       <r>    7.1145   -0.0000 </r>
       <r>   12.7616    0.0000 </r>
       <r>   13.3498    0.0000 </r>
       <r>   18.4806    0.0000 </r>
       <r>   23.1193    0.0000 </r>
       <r>   24.1356    0.0000 </r>
       <r>   26.4950    0.0000 </r>
       <r>   28.5901    0.0000 </r>
       <r>   31.9182    0.0000 </r>
       <r>   33.3371    0.0000 </r>
       <r>   33.7758    0.0000 </r>
       <r>   37.1950    0.0000 </r>
       <r>   38.0590    0.0000 </r>
       <r>   40.8761    0.0000 </r>
       <r>   44.7183    0.0000 </r>
       <r>   47.2717    0.0000 </r>
       <r>   48.1923    0.0000 </r>
       <r>   48.2504    0.0000 </r>
       <r>   50.6880    0.0000 </r>
       <r>   52.6068    0.0000 </r>
       <r>   53.4328    0.0000 </r>
       <r>   55.6589    0.0000 </r>
       <r>   56.7816    0.0000 </r>
       <r>   57.5725    0.0000 </r>
       <r>   59.3006    0.0000 </r>
       <r>   61.5742    0.0000 </r>
       <r>   61.6767    0.0000 </r>
       <r>   62.2956    0.0000 </r>
       <r>   62.6857    0.0000 </r>
       <r>   64.0385    0.0000 </r>
      </set>
      <set comment="kpoint 10">
       <r>    1.9861    1.0000 </r>
       <r>    2.4114    1.0000 </r>
       <r>    2.5001    1.0000 </r>
       <r>    4.2449    1.0000 </r>
       <r>    4.4644    1.0000 </r>
       <r>    4.8464    1.0000 </r>
       <r>    5.0543    1.0000 </r>
       <r>    6.6922   -0.0022 </r>
       <r>    6.8420   -0.0001 </r>
       <r>    7.1869   -0.0000 </r>
       <r>    8.2310   -0.0000 </r>
       <r>   12.9519    0.0000 </r>
       <r>   14.9096    0.0000 </r>
       <r>   16.7087    0.0000 </r>
       <r>   21.1133    0.0000 </r>
       <r>   21.7702    0.0000 </r>
       <r>   23.2956    0.0000 </r>
       <r>   27.7631    0.0000 </r>
       <r>   31.0173    0.0000 </r>
       <r>   32.8767    0.0000 </r>
       <r>   35.5303    0.0000 </r>
       <r>   37.5774    0.0000 </r>
       <r>   38.3602    0.0000 </r>
       <r>   40.1123    0.0000 </r>
       <r>   44.3657    0.0000 </r>
       <r>   47.2311    0.0000 </r>
       <r>   48.4372    0.0000 </r>
       <r>   50.5884    0.0000 </r>
       <r>   51.9691    0.0000 </r>
       <r>   54.2653    0.0000 </r>
       <r>   55.8062    0.0000 </r>
       <r>   57.6503    0.0000 </r>
       <r>   58.7024    0.0000 </r>
       <r>   60.0061    0.0000 </r>
       <r>   60.7099    0.0000 </r>
       <r>   61.7724    0.0000 </r>
       <r>   62.3555    0.0000 </r>
       <r>   63.3603    0.0000 </r>
       <r>   64.0818    0.0000 </r>
       <r>   65.0193    0.0000 </r>
      </set>
      <set comment="kpoint 11">
       <r>    2.1899    1.0000 </r>
       <r>    2.2729    1.0000 </r>
       <r>    2.4116    1.0000 </r>
       <r>    4.3697    1.0000 </r>
       <r>    4.6539    1.0000 </r>
       <r>    4.9200    1.0000 </r>
       <r>    4.9526    1.0000 </r>
       <r>    6.8303   -0.0001 </r>
       <r>    7.2125   -0.0000 </r>
       <r>    7.2388   -0.0000 </r>
       <r>    9.4079   -0.0000 </r>
       <r>   11.3968   -0.0000 </r>
       <r>   16.3952    0.0000 </r>
       <r>   17.3092    0.0000 </r>
       <r>   19.3473    0.0000 </r>
       <r>   20.6340    0.0000 </r>
       <r>   22.1260    0.0000 </r>
       <r>   27.4701    0.0000 </r>
       <r>   30.6484    0.0000 </r>
       <r>   32.7296    0.0000 </r>
       <r>   35.9936    0.0000 </r>
       <r>   38.3274    0.0000 </r>
       <r>   39.0530    0.0000 </r>
       <r>   39.7762    0.0000 </r>
       <r>   42.1031    0.0000 </r>
       <r>   48.1105    0.0000 </r>
       <r>   48.4763    0.0000 </r>
       <r>   50.9191    0.0000 </r>
       <r>   54.6650    0.0000 </r>
       <r>   55.0913    0.0000 </r>
       <r>   58.0072    0.0000 </r>
       <r>   58.2769    0.0000 </r>
       <r>   59.1485    0.0000 </r>
       <r>   59.1800    0.0000 </r>
       <r>   59.3178    0.0000 </r>
       <r>   61.5596    0.0000 </r>
       <r>   64.3774    0.0000 </r>
       <r>   64.4488    0.0000 </r>
       <r>   64.7501    0.0000 </r>
       <r>   65.4396    0.0000 </r>
      </set>
      <set comment="kpoint 12">
       <r>    0.9901    1.0000 </r>
       <r>    2.9021    1.0000 </r>
       <r>    3.2021    1.0000 </r>
       <r>    3.4071    1.0000 </r>
       <r>    4.4349    1.0000 </r>
       <r>    4.6924    1.0000 </r>
       <r>    5.2886    1.0000 </r>
       <r>    5.4235    1.0000 </r>
       <r>    6.6810   -0.0027 </r>
       <r>    6.7700   -0.0004 </r>
       <r>    7.1812   -0.0000 </r>
       <r>   12.5128    0.0000 </r>
       <r>   13.4394    0.0000 </r>
       <r>   20.3016    0.0000 </r>
       <r>   20.9371    0.0000 </r>
       <r>   25.8288    0.0000 </r>
       <r>   26.8812    0.0000 </r>
       <r>   28.7878    0.0000 </r>
       <r>   29.2912    0.0000 </r>
       <r>   33.2380    0.0000 </r>
       <r>   35.5664    0.0000 </r>
       <r>   39.0113    0.0000 </r>
       <r>   39.7632    0.0000 </r>
       <r>   42.0780    0.0000 </r>
       <r>   42.9610    0.0000 </r>
       <r>   44.7008    0.0000 </r>
       <r>   45.5079    0.0000 </r>
       <r>   49.3628    0.0000 </r>
       <r>   51.5028    0.0000 </r>
       <r>   51.7226    0.0000 </r>
       <r>   52.1238    0.0000 </r>
       <r>   56.1428    0.0000 </r>
       <r>   56.7689    0.0000 </r>
       <r>   59.3234    0.0000 </r>
       <r>   59.6256    0.0000 </r>
       <r>   60.0406    0.0000 </r>
       <r>   60.3525    0.0000 </r>
       <r>   63.1631    0.0000 </r>
       <r>   63.4891    0.0000 </r>
       <r>   63.9893    0.0000 </r>
      </set>
      <set comment="kpoint 13">
       <r>    2.2005    1.0000 </r>
       <r>    2.6899    1.0000 </r>
       <r>    2.9363    1.0000 </r>
       <r>    3.6024    1.0000 </r>
       <r>    4.4317    1.0000 </r>
       <r>    4.7056    1.0000 </r>
       <r>    5.0454    1.0000 </r>
       <r>    5.8340    1.0098 </r>
       <r>    6.6631   -0.0038 </r>
       <r>    7.1093   -0.0000 </r>
       <r>    8.3879   -0.0000 </r>
       <r>   14.2106    0.0000 </r>
       <r>   14.5823    0.0000 </r>
       <r>   17.2811    0.0000 </r>
       <r>   19.3909    0.0000 </r>
       <r>   23.0403    0.0000 </r>
       <r>   25.2547    0.0000 </r>
       <r>   25.4226    0.0000 </r>
       <r>   28.0313    0.0000 </r>
       <r>   35.4581    0.0000 </r>
       <r>   36.0584    0.0000 </r>
       <r>   38.9583    0.0000 </r>
       <r>   41.4531    0.0000 </r>
       <r>   42.8678    0.0000 </r>
       <r>   43.4366    0.0000 </r>
       <r>   45.6647    0.0000 </r>
       <r>   46.6368    0.0000 </r>
       <r>   47.3828    0.0000 </r>
       <r>   50.7024    0.0000 </r>
       <r>   51.6189    0.0000 </r>
       <r>   54.5375    0.0000 </r>
       <r>   58.0072    0.0000 </r>
       <r>   59.0992    0.0000 </r>
       <r>   60.3113    0.0000 </r>
       <r>   62.4206    0.0000 </r>
       <r>   62.5242    0.0000 </r>
       <r>   62.9842    0.0000 </r>
       <r>   63.4018    0.0000 </r>
       <r>   64.6151    0.0000 </r>
       <r>   64.9697    0.0000 </r>
      </set>
      <set comment="kpoint 14">
       <r>    2.6107    1.0000 </r>
       <r>    2.6392    1.0000 </r>
       <r>    2.7305    1.0000 </r>
       <r>    4.0707    1.0000 </r>
       <r>    4.3677    1.0000 </r>
       <r>    4.7082    1.0000 </r>
       <r>    4.9689    1.0000 </r>
       <r>    6.5114   -0.0298 </r>
       <r>    6.6018   -0.0108 </r>
       <r>    7.0789   -0.0000 </r>
       <r>    9.9346   -0.0000 </r>
       <r>   12.8137    0.0000 </r>
       <r>   16.7351    0.0000 </r>
       <r>   17.3924    0.0000 </r>
       <r>   18.5194    0.0000 </r>
       <r>   20.3490    0.0000 </r>
       <r>   22.3014    0.0000 </r>
       <r>   24.8751    0.0000 </r>
       <r>   27.4019    0.0000 </r>
       <r>   36.1477    0.0000 </r>
       <r>   37.7512    0.0000 </r>
       <r>   39.1908    0.0000 </r>
       <r>   40.5399    0.0000 </r>
       <r>   41.5451    0.0000 </r>
       <r>   44.7529    0.0000 </r>
       <r>   45.9093    0.0000 </r>
       <r>   47.3538    0.0000 </r>
       <r>   48.4596    0.0000 </r>
       <r>   51.6490    0.0000 </r>
       <r>   53.3658    0.0000 </r>
       <r>   54.3353    0.0000 </r>
       <r>   57.6645    0.0000 </r>
       <r>   58.2128    0.0000 </r>
       <r>   59.5827    0.0000 </r>
       <r>   62.7218    0.0000 </r>
       <r>   63.9846    0.0000 </r>
       <r>   64.0402    0.0000 </r>
       <r>   64.9445    0.0000 </r>
       <r>   65.2291    0.0000 </r>
       <r>   65.4991    0.0000 </r>
      </set>
      <set comment="kpoint 15">
       <r>    2.7482    1.0000 </r>
       <r>    3.0102    1.0000 </r>
       <r>    3.2852    1.0000 </r>
       <r>    3.3580    1.0000 </r>
       <r>    4.2849    1.0000 </r>
       <r>    4.6520    1.0000 </r>
       <r>    4.9874    1.0000 </r>
       <r>    6.0805    0.9614 </r>
       <r>    6.4820   -0.0346 </r>
       <r>    7.0400   -0.0000 </r>
       <r>   10.0599   -0.0000 </r>
       <r>   14.8421    0.0000 </r>
       <r>   15.5305    0.0000 </r>
       <r>   16.7602    0.0000 </r>
       <r>   17.9720    0.0000 </r>
       <r>   22.2836    0.0000 </r>
       <r>   22.4743    0.0000 </r>
       <r>   24.0484    0.0000 </r>
       <r>   24.8458    0.0000 </r>
       <r>   37.2959    0.0000 </r>
       <r>   37.9414    0.0000 </r>
       <r>   42.0163    0.0000 </r>
       <r>   43.0138    0.0000 </r>
       <r>   43.0277    0.0000 </r>
       <r>   43.1228    0.0000 </r>
       <r>   44.1196    0.0000 </r>
       <r>   46.2604    0.0000 </r>
       <r>   48.6480    0.0000 </r>
       <r>   48.8713    0.0000 </r>
       <r>   53.3263    0.0000 </r>
       <r>   53.6648    0.0000 </r>
       <r>   55.6470    0.0000 </r>
       <r>   58.0629    0.0000 </r>
       <r>   59.7777    0.0000 </r>
       <r>   63.6647    0.0000 </r>
       <r>   64.2814    0.0000 </r>
       <r>   64.5574    0.0000 </r>
       <r>   65.2692    0.0000 </r>
       <r>   65.5925    0.0000 </r>
       <r>   66.0617    0.0000 </r>
      </set>
      <set comment="kpoint 16">
       <r>    2.8107    1.0000 </r>
       <r>    3.1531    1.0000 </r>
       <r>    3.1971    1.0000 </r>
       <r>    3.6652    1.0000 </r>
       <r>    4.3459    1.0000 </r>
       <r>    4.3537    1.0000 </r>
       <r>    5.1191    1.0000 </r>
       <r>    6.4121   -0.0197 </r>
       <r>    6.4344   -0.0306 </r>
       <r>    6.7255   -0.0011 </r>
       <r>   11.8209    0.0000 </r>
       <r>   12.9734    0.0000 </r>
       <r>   15.1440    0.0000 </r>
       <r>   18.6697    0.0000 </r>
       <r>   18.9408    0.0000 </r>
       <r>   20.1500    0.0000 </r>
       <r>   22.2158    0.0000 </r>
       <r>   22.3144    0.0000 </r>
       <r>   24.2666    0.0000 </r>
       <r>   37.6989    0.0000 </r>
       <r>   40.4966    0.0000 </r>
       <r>   41.0168    0.0000 </r>
       <r>   42.1121    0.0000 </r>
       <r>   42.3744    0.0000 </r>
       <r>   43.9671    0.0000 </r>
       <r>   44.9695    0.0000 </r>
       <r>   48.0949    0.0000 </r>
       <r>   48.7835    0.0000 </r>
       <r>   48.9901    0.0000 </r>
       <r>   52.3980    0.0000 </r>
       <r>   53.5718    0.0000 </r>
       <r>   54.0262    0.0000 </r>
       <r>   57.4973    0.0000 </r>
       <r>   58.1379    0.0000 </r>
       <r>   64.1304    0.0000 </r>
       <r>   64.8949    0.0000 </r>
       <r>   65.5688    0.0000 </r>
       <r>   65.7339    0.0000 </r>
       <r>   65.8491    0.0000 </r>
       <r>   66.2922    0.0000 </r>
      </set>
      <set comment="kpoint 17">
       <r>   -2.2499    1.0000 </r>
       <r>    1.4340    1.0000 </r>
       <r>    4.0243    1.0000 </r>
       <r>    4.7816    1.0000 </r>
       <r>    4.7817    1.0000 </r>
       <r>    5.0188    1.0000 </r>
       <r>    5.0189    1.0000 </r>
       <r>    5.1107    1.0000 </r>
       <r>    6.0678    0.9813 </r>
       <r>    6.0678    0.9813 </r>
       <r>    6.8875   -0.0000 </r>
       <r>    6.8875   -0.0000 </r>
       <r>   12.8957    0.0000 </r>
       <r>   27.3808    0.0000 </r>
       <r>   29.5558    0.0000 </r>
       <r>   31.9881    0.0000 </r>
       <r>   34.2675    0.0000 </r>
       <r>   34.2675    0.0000 </r>
       <r>   34.8256    0.0000 </r>
       <r>   35.0349    0.0000 </r>
       <r>   35.0352    0.0000 </r>
       <r>   37.7733    0.0000 </r>
       <r>   37.7733    0.0000 </r>
       <r>   39.0276    0.0000 </r>
       <r>   40.6576    0.0000 </r>
       <r>   40.6576    0.0000 </r>
       <r>   41.2188    0.0000 </r>
       <r>   44.6257    0.0000 </r>
       <r>   44.6261    0.0000 </r>
       <r>   46.4680    0.0000 </r>
       <r>   46.4681    0.0000 </r>
       <r>   47.9724    0.0000 </r>
       <r>   54.9883    0.0000 </r>
       <r>   58.9479    0.0000 </r>
       <r>   58.9482    0.0000 </r>
       <r>   59.0800    0.0000 </r>
       <r>   59.3003    0.0000 </r>
       <r>   59.3014    0.0000 </r>
       <r>   61.0047    0.0000 </r>
       <r>   61.1054    0.0000 </r>
      </set>
      <set comment="kpoint 18">
       <r>   -1.9305    1.0000 </r>
       <r>    1.6841    1.0000 </r>
       <r>    4.0835    1.0000 </r>
       <r>    4.4929    1.0000 </r>
       <r>    4.6769    1.0000 </r>
       <r>    4.9355    1.0000 </r>
       <r>    4.9610    1.0000 </r>
       <r>    5.1882    1.0000 </r>
       <r>    5.9202    1.0274 </r>
       <r>    5.9749    1.0355 </r>
       <r>    6.9088   -0.0000 </r>
       <r>    7.7116   -0.0000 </r>
       <r>   12.9638    0.0000 </r>
       <r>   27.6786    0.0000 </r>
       <r>   28.1683    0.0000 </r>
       <r>   30.4343    0.0000 </r>
       <r>   31.5826    0.0000 </r>
       <r>   33.1943    0.0000 </r>
       <r>   34.3443    0.0000 </r>
       <r>   34.7524    0.0000 </r>
       <r>   36.8380    0.0000 </r>
       <r>   37.4564    0.0000 </r>
       <r>   38.0183    0.0000 </r>
       <r>   38.7213    0.0000 </r>
       <r>   41.6879    0.0000 </r>
       <r>   41.8667    0.0000 </r>
       <r>   42.6288    0.0000 </r>
       <r>   43.1064    0.0000 </r>
       <r>   45.6276    0.0000 </r>
       <r>   47.5732    0.0000 </r>
       <r>   48.8709    0.0000 </r>
       <r>   50.2582    0.0000 </r>
       <r>   54.0255    0.0000 </r>
       <r>   57.2025    0.0000 </r>
       <r>   57.6061    0.0000 </r>
       <r>   58.2617    0.0000 </r>
       <r>   59.3660    0.0000 </r>
       <r>   60.6097    0.0000 </r>
       <r>   60.7975    0.0000 </r>
       <r>   62.4463    0.0000 </r>
      </set>
      <set comment="kpoint 19">
       <r>   -1.0244    1.0000 </r>
       <r>    2.2855    1.0000 </r>
       <r>    3.6540    1.0000 </r>
       <r>    4.0470    1.0000 </r>
       <r>    4.4537    1.0000 </r>
       <r>    4.9254    1.0000 </r>
       <r>    5.4454    1.0000 </r>
       <r>    5.5990    1.0000 </r>
       <r>    5.6405    1.0002 </r>
       <r>    5.7851    1.0043 </r>
       <r>    6.9377   -0.0000 </r>
       <r>    9.1733   -0.0000 </r>
       <r>   13.2180    0.0000 </r>
       <r>   24.2097    0.0000 </r>
       <r>   28.3303    0.0000 </r>
       <r>   28.8615    0.0000 </r>
       <r>   29.1680    0.0000 </r>
       <r>   29.8402    0.0000 </r>
       <r>   33.3510    0.0000 </r>
       <r>   35.0757    0.0000 </r>
       <r>   35.2371    0.0000 </r>
       <r>   35.5951    0.0000 </r>
       <r>   38.9369    0.0000 </r>
       <r>   39.4066    0.0000 </r>
       <r>   42.3830    0.0000 </r>
       <r>   43.4906    0.0000 </r>
       <r>   44.8055    0.0000 </r>
       <r>   47.0080    0.0000 </r>
       <r>   48.0240    0.0000 </r>
       <r>   50.9625    0.0000 </r>
       <r>   51.7160    0.0000 </r>
       <r>   52.4833    0.0000 </r>
       <r>   53.6563    0.0000 </r>
       <r>   55.6070    0.0000 </r>
       <r>   55.6310    0.0000 </r>
       <r>   57.6034    0.0000 </r>
       <r>   59.4188    0.0000 </r>
       <r>   60.9962    0.0000 </r>
       <r>   61.3988    0.0000 </r>
       <r>   64.1503    0.0000 </r>
      </set>
      <set comment="kpoint 20">
       <r>    0.2692    1.0000 </r>
       <r>    2.6087    1.0000 </r>
       <r>    3.0136    1.0000 </r>
       <r>    4.0302    1.0000 </r>
       <r>    4.2662    1.0000 </r>
       <r>    5.0553    1.0000 </r>
       <r>    5.4597    1.0000 </r>
       <r>    5.6989    1.0007 </r>
       <r>    6.1943    0.6130 </r>
       <r>    6.3222    0.1275 </r>
       <r>    6.9455   -0.0000 </r>
       <r>   10.7380   -0.0000 </r>
       <r>   13.8174    0.0000 </r>
       <r>   20.2026    0.0000 </r>
       <r>   25.2697    0.0000 </r>
       <r>   26.5526    0.0000 </r>
       <r>   27.5635    0.0000 </r>
       <r>   29.8012    0.0000 </r>
       <r>   31.7296    0.0000 </r>
       <r>   33.5919    0.0000 </r>
       <r>   34.2870    0.0000 </r>
       <r>   36.1740    0.0000 </r>
       <r>   37.0819    0.0000 </r>
       <r>   39.8196    0.0000 </r>
       <r>   45.9666    0.0000 </r>
       <r>   46.3913    0.0000 </r>
       <r>   47.6575    0.0000 </r>
       <r>   48.0987    0.0000 </r>
       <r>   50.7644    0.0000 </r>
       <r>   51.6495    0.0000 </r>
       <r>   52.7577    0.0000 </r>
       <r>   53.9162    0.0000 </r>
       <r>   54.7459    0.0000 </r>
       <r>   56.0898    0.0000 </r>
       <r>   57.8362    0.0000 </r>
       <r>   58.8926    0.0000 </r>
       <r>   60.9484    0.0000 </r>
       <r>   61.2544    0.0000 </r>
       <r>   62.3787    0.0000 </r>
       <r>   64.3931    0.0000 </r>
      </set>
      <set comment="kpoint 21">
       <r>    1.4335    1.0000 </r>
       <r>    2.3533    1.0000 </r>
       <r>    2.6510    1.0000 </r>
       <r>    3.9420    1.0000 </r>
       <r>    4.7201    1.0000 </r>
       <r>    4.9085    1.0000 </r>
       <r>    5.2472    1.0000 </r>
       <r>    6.7777   -0.0003 </r>
       <r>    6.8643   -0.0000 </r>
       <r>    6.9149   -0.0000 </r>
       <r>    7.0329   -0.0000 </r>
       <r>   12.0423    0.0000 </r>
       <r>   14.6918    0.0000 </r>
       <r>   17.1790    0.0000 </r>
       <r>   21.9814    0.0000 </r>
       <r>   24.6473    0.0000 </r>
       <r>   24.7970    0.0000 </r>
       <r>   29.5182    0.0000 </r>
       <r>   30.9047    0.0000 </r>
       <r>   32.9777    0.0000 </r>
       <r>   34.2487    0.0000 </r>
       <r>   35.9291    0.0000 </r>
       <r>   37.3497    0.0000 </r>
       <r>   39.8348    0.0000 </r>
       <r>   44.6285    0.0000 </r>
       <r>   48.8655    0.0000 </r>
       <r>   48.9127    0.0000 </r>
       <r>   51.3853    0.0000 </r>
       <r>   51.5473    0.0000 </r>
       <r>   53.7320    0.0000 </r>
       <r>   53.9764    0.0000 </r>
       <r>   55.8023    0.0000 </r>
       <r>   56.6571    0.0000 </r>
       <r>   57.9592    0.0000 </r>
       <r>   60.3855    0.0000 </r>
       <r>   60.8718    0.0000 </r>
       <r>   61.5362    0.0000 </r>
       <r>   62.3120    0.0000 </r>
       <r>   64.5332    0.0000 </r>
       <r>   65.1211    0.0000 </r>
      </set>
      <set comment="kpoint 22">
       <r>    1.8876    1.0000 </r>
       <r>    2.0878    1.0000 </r>
       <r>    2.5313    1.0000 </r>
       <r>    4.0017    1.0000 </r>
       <r>    4.8670    1.0000 </r>
       <r>    5.1252    1.0000 </r>
       <r>    5.2399    1.0000 </r>
       <r>    6.8946   -0.0000 </r>
       <r>    7.3515   -0.0000 </r>
       <r>    7.4322   -0.0000 </r>
       <r>    8.3299   -0.0000 </r>
       <r>   11.4655   -0.0000 </r>
       <r>   15.4616    0.0000 </r>
       <r>   16.9448    0.0000 </r>
       <r>   19.7941    0.0000 </r>
       <r>   21.8287    0.0000 </r>
       <r>   23.8241    0.0000 </r>
       <r>   29.0188    0.0000 </r>
       <r>   30.6421    0.0000 </r>
       <r>   32.1202    0.0000 </r>
       <r>   35.4720    0.0000 </r>
       <r>   35.8772    0.0000 </r>
       <r>   37.5232    0.0000 </r>
       <r>   40.2108    0.0000 </r>
       <r>   42.4214    0.0000 </r>
       <r>   48.3622    0.0000 </r>
       <r>   49.3835    0.0000 </r>
       <r>   52.3767    0.0000 </r>
       <r>   54.8698    0.0000 </r>
       <r>   55.9226    0.0000 </r>
       <r>   56.7743    0.0000 </r>
       <r>   58.2096    0.0000 </r>
       <r>   58.5504    0.0000 </r>
       <r>   59.5304    0.0000 </r>
       <r>   60.8245    0.0000 </r>
       <r>   60.8389    0.0000 </r>
       <r>   63.4510    0.0000 </r>
       <r>   64.0164    0.0000 </r>
       <r>   64.2320    0.0000 </r>
       <r>   64.6078    0.0000 </r>
      </set>
      <set comment="kpoint 23">
       <r>   -1.3153    1.0000 </r>
       <r>    2.1275    1.0000 </r>
       <r>    3.8732    1.0000 </r>
       <r>    4.0603    1.0000 </r>
       <r>    4.6158    1.0000 </r>
       <r>    4.7233    1.0000 </r>
       <r>    5.3198    1.0000 </r>
       <r>    5.5126    1.0000 </r>
       <r>    5.6418    1.0002 </r>
       <r>    5.9220    1.0278 </r>
       <r>    6.9030   -0.0000 </r>
       <r>    8.7705   -0.0000 </r>
       <r>   13.1275    0.0000 </r>
       <r>   25.9946    0.0000 </r>
       <r>   27.0934    0.0000 </r>
       <r>   28.4079    0.0000 </r>
       <r>   30.7055    0.0000 </r>
       <r>   32.6365    0.0000 </r>
       <r>   33.0723    0.0000 </r>
       <r>   33.1992    0.0000 </r>
       <r>   34.7872    0.0000 </r>
       <r>   39.0553    0.0000 </r>
       <r>   39.4225    0.0000 </r>
       <r>   40.2893    0.0000 </r>
       <r>   40.4377    0.0000 </r>
       <r>   41.9139    0.0000 </r>
       <r>   42.2509    0.0000 </r>
       <r>   47.5676    0.0000 </r>
       <r>   48.7001    0.0000 </r>
       <r>   49.5604    0.0000 </r>
       <r>   49.8688    0.0000 </r>
       <r>   52.7407    0.0000 </r>
       <r>   53.1886    0.0000 </r>
       <r>   55.3147    0.0000 </r>
       <r>   56.6803    0.0000 </r>
       <r>   58.3265    0.0000 </r>
       <r>   58.7269    0.0000 </r>
       <r>   60.1817    0.0000 </r>
       <r>   61.9099    0.0000 </r>
       <r>   64.2301    0.0000 </r>
      </set>
      <set comment="kpoint 24">
       <r>   -0.1918    1.0000 </r>
       <r>    2.7146    1.0000 </r>
       <r>    3.2340    1.0000 </r>
       <r>    3.8369    1.0000 </r>
       <r>    4.3730    1.0000 </r>
       <r>    4.8834    1.0000 </r>
       <r>    5.3186    1.0000 </r>
       <r>    5.6248    1.0001 </r>
       <r>    6.0389    1.0135 </r>
       <r>    6.2244    0.4870 </r>
       <r>    6.8831   -0.0000 </r>
       <r>   10.2214   -0.0000 </r>
       <r>   13.5866    0.0000 </r>
       <r>   22.2628    0.0000 </r>
       <r>   24.8173    0.0000 </r>
       <r>   27.2425    0.0000 </r>
       <r>   28.9711    0.0000 </r>
       <r>   30.3438    0.0000 </r>
       <r>   31.4010    0.0000 </r>
       <r>   33.3288    0.0000 </r>
       <r>   34.3674    0.0000 </r>
       <r>   38.2375    0.0000 </r>
       <r>   38.3982    0.0000 </r>
       <r>   40.4000    0.0000 </r>
       <r>   42.8324    0.0000 </r>
       <r>   43.8338    0.0000 </r>
       <r>   46.1609    0.0000 </r>
       <r>   48.4248    0.0000 </r>
       <r>   50.8337    0.0000 </r>
       <r>   51.3591    0.0000 </r>
       <r>   52.8805    0.0000 </r>
       <r>   54.0690    0.0000 </r>
       <r>   54.4018    0.0000 </r>
       <r>   55.9426    0.0000 </r>
       <r>   56.1231    0.0000 </r>
       <r>   57.7171    0.0000 </r>
       <r>   60.0181    0.0000 </r>
       <r>   61.1204    0.0000 </r>
       <r>   62.5495    0.0000 </r>
       <r>   64.1548    0.0000 </r>
      </set>
      <set comment="kpoint 25">
       <r>    1.1255    1.0000 </r>
       <r>    2.6631    1.0000 </r>
       <r>    2.8223    1.0000 </r>
       <r>    3.8654    1.0000 </r>
       <r>    4.4236    1.0000 </r>
       <r>    4.8079    1.0000 </r>
       <r>    5.3303    1.0000 </r>
       <r>    5.8182    1.0076 </r>
       <r>    6.7187   -0.0012 </r>
       <r>    6.8059   -0.0001 </r>
       <r>    7.1405   -0.0000 </r>
       <r>   11.7217    0.0000 </r>
       <r>   14.4940    0.0000 </r>
       <r>   18.5412    0.0000 </r>
       <r>   23.1232    0.0000 </r>
       <r>   23.8341    0.0000 </r>
       <r>   26.8426    0.0000 </r>
       <r>   28.3357    0.0000 </r>
       <r>   31.9717    0.0000 </r>
       <r>   32.6317    0.0000 </r>
       <r>   33.8599    0.0000 </r>
       <r>   37.5968    0.0000 </r>
       <r>   38.3319    0.0000 </r>
       <r>   41.3393    0.0000 </r>
       <r>   44.3315    0.0000 </r>
       <r>   46.0228    0.0000 </r>
       <r>   47.8988    0.0000 </r>
       <r>   49.6304    0.0000 </r>
       <r>   50.9007    0.0000 </r>
       <r>   52.0963    0.0000 </r>
       <r>   53.8471    0.0000 </r>
       <r>   55.6366    0.0000 </r>
       <r>   56.5862    0.0000 </r>
       <r>   57.8589    0.0000 </r>
       <r>   59.3612    0.0000 </r>
       <r>   60.9481    0.0000 </r>
       <r>   61.3160    0.0000 </r>
       <r>   62.4777    0.0000 </r>
       <r>   63.1074    0.0000 </r>
       <r>   64.0581    0.0000 </r>
      </set>
      <set comment="kpoint 26">
       <r>    1.9395    1.0000 </r>
       <r>    2.3563    1.0000 </r>
       <r>    2.6425    1.0000 </r>
       <r>    3.9357    1.0000 </r>
       <r>    4.7772    1.0000 </r>
       <r>    4.8447    1.0000 </r>
       <r>    5.1310    1.0000 </r>
       <r>    6.6802   -0.0028 </r>
       <r>    6.7902   -0.0002 </r>
       <r>    7.1971   -0.0000 </r>
       <r>    8.2168   -0.0000 </r>
       <r>   12.4747    0.0000 </r>
       <r>   15.1777    0.0000 </r>
       <r>   16.9657    0.0000 </r>
       <r>   20.7275    0.0000 </r>
       <r>   22.0226    0.0000 </r>
       <r>   23.6695    0.0000 </r>
       <r>   27.5066    0.0000 </r>
       <r>   31.2787    0.0000 </r>
       <r>   32.7624    0.0000 </r>
       <r>   34.6310    0.0000 </r>
       <r>   37.0736    0.0000 </r>
       <r>   39.3601    0.0000 </r>
       <r>   40.4501    0.0000 </r>
       <r>   43.9838    0.0000 </r>
       <r>   47.0862    0.0000 </r>
       <r>   48.5670    0.0000 </r>
       <r>   50.7975    0.0000 </r>
       <r>   52.5889    0.0000 </r>
       <r>   53.9488    0.0000 </r>
       <r>   55.6351    0.0000 </r>
       <r>   57.4297    0.0000 </r>
       <r>   58.7386    0.0000 </r>
       <r>   59.9691    0.0000 </r>
       <r>   61.1588    0.0000 </r>
       <r>   61.6422    0.0000 </r>
       <r>   62.4712    0.0000 </r>
       <r>   63.1784    0.0000 </r>
       <r>   64.3005    0.0000 </r>
       <r>   65.0448    0.0000 </r>
      </set>
      <set comment="kpoint 27">
       <r>    2.0984    1.0000 </r>
       <r>    2.1992    1.0000 </r>
       <r>    2.6287    1.0000 </r>
       <r>    3.9930    1.0000 </r>
       <r>    4.8161    1.0000 </r>
       <r>    5.0685    1.0000 </r>
       <r>    5.1045    1.0000 </r>
       <r>    6.7789   -0.0003 </r>
       <r>    7.2082   -0.0000 </r>
       <r>    7.2368   -0.0000 </r>
       <r>    9.3545   -0.0000 </r>
       <r>   11.3239   -0.0000 </r>
       <r>   16.2492    0.0000 </r>
       <r>   16.9531    0.0000 </r>
       <r>   19.8490    0.0000 </r>
       <r>   20.8877    0.0000 </r>
       <r>   22.2800    0.0000 </r>
       <r>   27.2161    0.0000 </r>
       <r>   30.9041    0.0000 </r>
       <r>   32.6874    0.0000 </r>
       <r>   35.5528    0.0000 </r>
       <r>   36.7623    0.0000 </r>
       <r>   39.2908    0.0000 </r>
       <r>   41.5390    0.0000 </r>
       <r>   41.9564    0.0000 </r>
       <r>   47.4625    0.0000 </r>
       <r>   48.7183    0.0000 </r>
       <r>   51.6499    0.0000 </r>
       <r>   54.7189    0.0000 </r>
       <r>   55.0793    0.0000 </r>
       <r>   57.3120    0.0000 </r>
       <r>   57.8348    0.0000 </r>
       <r>   58.8577    0.0000 </r>
       <r>   59.6253    0.0000 </r>
       <r>   59.7836    0.0000 </r>
       <r>   62.3252    0.0000 </r>
       <r>   64.2321    0.0000 </r>
       <r>   64.3575    0.0000 </r>
       <r>   64.9476    0.0000 </r>
       <r>   65.0723    0.0000 </r>
      </set>
      <set comment="kpoint 28">
       <r>    1.0276    1.0000 </r>
       <r>    2.8603    1.0000 </r>
       <r>    3.2262    1.0000 </r>
       <r>    3.4232    1.0000 </r>
       <r>    4.4324    1.0000 </r>
       <r>    4.6320    1.0000 </r>
       <r>    5.3817    1.0000 </r>
       <r>    5.4052    1.0000 </r>
       <r>    6.7051   -0.0017 </r>
       <r>    6.7106   -0.0015 </r>
       <r>    7.2084   -0.0000 </r>
       <r>   11.6101   -0.0000 </r>
       <r>   14.4601    0.0000 </r>
       <r>   20.3631    0.0000 </r>
       <r>   21.0071    0.0000 </r>
       <r>   25.4854    0.0000 </r>
       <r>   26.4743    0.0000 </r>
       <r>   29.2369    0.0000 </r>
       <r>   29.4989    0.0000 </r>
       <r>   32.4123    0.0000 </r>
       <r>   36.2261    0.0000 </r>
       <r>   39.5403    0.0000 </r>
       <r>   39.7228    0.0000 </r>
       <r>   41.8111    0.0000 </r>
       <r>   42.2927    0.0000 </r>
       <r>   45.3376    0.0000 </r>
       <r>   45.3601    0.0000 </r>
       <r>   49.3560    0.0000 </r>
       <r>   50.0593    0.0000 </r>
       <r>   51.9636    0.0000 </r>
       <r>   53.8440    0.0000 </r>
       <r>   56.2622    0.0000 </r>
       <r>   56.7426    0.0000 </r>
       <r>   58.6118    0.0000 </r>
       <r>   59.1520    0.0000 </r>
       <r>   60.6011    0.0000 </r>
       <r>   60.8365    0.0000 </r>
       <r>   61.9317    0.0000 </r>
       <r>   63.2098    0.0000 </r>
       <r>   63.4627    0.0000 </r>
      </set>
      <set comment="kpoint 29">
       <r>    2.1875    1.0000 </r>
       <r>    2.6915    1.0000 </r>
       <r>    2.9585    1.0000 </r>
       <r>    3.6037    1.0000 </r>
       <r>    4.4406    1.0000 </r>
       <r>    4.7052    1.0000 </r>
       <r>    5.0637    1.0000 </r>
       <r>    5.8633    1.0148 </r>
       <r>    6.6073   -0.0100 </r>
       <r>    7.1323   -0.0000 </r>
       <r>    8.4012   -0.0000 </r>
       <r>   13.1270    0.0000 </r>
       <r>   15.6977    0.0000 </r>
       <r>   17.3931    0.0000 </r>
       <r>   19.4558    0.0000 </r>
       <r>   22.6430    0.0000 </r>
       <r>   25.0238    0.0000 </r>
       <r>   25.7464    0.0000 </r>
       <r>   28.4844    0.0000 </r>
       <r>   33.9839    0.0000 </r>
       <r>   36.9138    0.0000 </r>
       <r>   39.4067    0.0000 </r>
       <r>   40.9154    0.0000 </r>
       <r>   42.9854    0.0000 </r>
       <r>   43.4501    0.0000 </r>
       <r>   44.7215    0.0000 </r>
       <r>   47.4670    0.0000 </r>
       <r>   47.7817    0.0000 </r>
       <r>   50.3066    0.0000 </r>
       <r>   52.4460    0.0000 </r>
       <r>   54.7412    0.0000 </r>
       <r>   58.0412    0.0000 </r>
       <r>   59.0043    0.0000 </r>
       <r>   60.2448    0.0000 </r>
       <r>   61.8225    0.0000 </r>
       <r>   62.4140    0.0000 </r>
       <r>   62.7029    0.0000 </r>
       <r>   63.4743    0.0000 </r>
       <r>   64.0867    0.0000 </r>
       <r>   64.7991    0.0000 </r>
      </set>
      <set comment="kpoint 30">
       <r>    2.4575    1.0000 </r>
       <r>    2.6775    1.0000 </r>
       <r>    2.9033    1.0000 </r>
       <r>    3.8561    1.0000 </r>
       <r>    4.5407    1.0000 </r>
       <r>    4.6425    1.0000 </r>
       <r>    5.0864    1.0000 </r>
       <r>    6.5172   -0.0286 </r>
       <r>    6.5453   -0.0222 </r>
       <r>    7.0941   -0.0000 </r>
       <r>    9.9488   -0.0000 </r>
       <r>   12.7188    0.0000 </r>
       <r>   16.2561    0.0000 </r>
       <r>   17.8106    0.0000 </r>
       <r>   18.4934    0.0000 </r>
       <r>   20.4161    0.0000 </r>
       <r>   22.7358    0.0000 </r>
       <r>   24.4643    0.0000 </r>
       <r>   27.9157    0.0000 </r>
       <r>   35.4313    0.0000 </r>
       <r>   37.1878    0.0000 </r>
       <r>   38.6019    0.0000 </r>
       <r>   41.2952    0.0000 </r>
       <r>   42.3510    0.0000 </r>
       <r>   44.6523    0.0000 </r>
       <r>   44.8307    0.0000 </r>
       <r>   48.0795    0.0000 </r>
       <r>   49.3018    0.0000 </r>
       <r>   51.9695    0.0000 </r>
       <r>   53.1681    0.0000 </r>
       <r>   54.4276    0.0000 </r>
       <r>   57.7190    0.0000 </r>
       <r>   57.9314    0.0000 </r>
       <r>   59.8874    0.0000 </r>
       <r>   61.5786    0.0000 </r>
       <r>   63.9286    0.0000 </r>
       <r>   64.3535    0.0000 </r>
       <r>   64.8476    0.0000 </r>
       <r>   65.2114    0.0000 </r>
       <r>   65.6290    0.0000 </r>
      </set>
      <set comment="kpoint 31">
       <r>    2.7374    1.0000 </r>
       <r>    3.0155    1.0000 </r>
       <r>    3.2538    1.0000 </r>
       <r>    3.4049    1.0000 </r>
       <r>    4.3264    1.0000 </r>
       <r>    4.5792    1.0000 </r>
       <r>    5.0223    1.0000 </r>
       <r>    6.1175    0.8805 </r>
       <r>    6.4228   -0.0259 </r>
       <r>    7.0613   -0.0000 </r>
       <r>   10.0928   -0.0000 </r>
       <r>   14.4601    0.0000 </r>
       <r>   15.5970    0.0000 </r>
       <r>   16.7870    0.0000 </r>
       <r>   18.3745    0.0000 </r>
       <r>   21.8688    0.0000 </r>
       <r>   22.0638    0.0000 </r>
       <r>   24.6805    0.0000 </r>
       <r>   25.3427    0.0000 </r>
       <r>   35.6923    0.0000 </r>
       <r>   38.8955    0.0000 </r>
       <r>   41.2911    0.0000 </r>
       <r>   41.4860    0.0000 </r>
       <r>   43.4998    0.0000 </r>
       <r>   43.8621    0.0000 </r>
       <r>   44.9714    0.0000 </r>
       <r>   47.1246    0.0000 </r>
       <r>   48.5114    0.0000 </r>
       <r>   48.7849    0.0000 </r>
       <r>   53.7084    0.0000 </r>
       <r>   53.7768    0.0000 </r>
       <r>   55.8317    0.0000 </r>
       <r>   57.7316    0.0000 </r>
       <r>   60.0763    0.0000 </r>
       <r>   63.6610    0.0000 </r>
       <r>   63.9919    0.0000 </r>
       <r>   64.2724    0.0000 </r>
       <r>   65.2108    0.0000 </r>
       <r>   65.2916    0.0000 </r>
       <r>   65.7572    0.0000 </r>
      </set>
      <set comment="kpoint 32">
       <r>    2.8016    1.0000 </r>
       <r>    3.1705    1.0000 </r>
       <r>    3.2415    1.0000 </r>
       <r>    3.6176    1.0000 </r>
       <r>    4.3203    1.0000 </r>
       <r>    4.3583    1.0000 </r>
       <r>    5.1406    1.0000 </r>
       <r>    6.3511    0.0593 </r>
       <r>    6.4619   -0.0354 </r>
       <r>    6.7521   -0.0006 </r>
       <r>   11.8820    0.0000 </r>
       <r>   12.9699    0.0000 </r>
       <r>   15.1510    0.0000 </r>
       <r>   18.3651    0.0000 </r>
       <r>   18.4441    0.0000 </r>
       <r>   20.5429    0.0000 </r>
       <r>   22.0533    0.0000 </r>
       <r>   22.7228    0.0000 </r>
       <r>   24.8249    0.0000 </r>
       <r>   36.6897    0.0000 </r>
       <r>   39.1586    0.0000 </r>
       <r>   41.0788    0.0000 </r>
       <r>   41.6455    0.0000 </r>
       <r>   43.6788    0.0000 </r>
       <r>   44.2559    0.0000 </r>
       <r>   46.1121    0.0000 </r>
       <r>   47.7888    0.0000 </r>
       <r>   48.9986    0.0000 </r>
       <r>   49.2616    0.0000 </r>
       <r>   52.1789    0.0000 </r>
       <r>   53.3667    0.0000 </r>
       <r>   54.3175    0.0000 </r>
       <r>   57.7131    0.0000 </r>
       <r>   58.3055    0.0000 </r>
       <r>   63.9395    0.0000 </r>
       <r>   64.8226    0.0000 </r>
       <r>   65.1347    0.0000 </r>
       <r>   65.5019    0.0000 </r>
       <r>   65.7807    0.0000 </r>
       <r>   66.3290    0.0000 </r>
      </set>
      <set comment="kpoint 33">
       <r>   -2.0352    1.0000 </r>
       <r>    1.2843    1.0000 </r>
       <r>    3.9773    1.0000 </r>
       <r>    4.6717    1.0000 </r>
       <r>    4.7740    1.0000 </r>
       <r>    4.7742    1.0000 </r>
       <r>    4.9859    1.0000 </r>
       <r>    4.9860    1.0000 </r>
       <r>    6.1449    0.7987 </r>
       <r>    6.1449    0.7985 </r>
       <r>    6.8613   -0.0000 </r>
       <r>    6.8614   -0.0000 </r>
       <r>   13.8467    0.0000 </r>
       <r>   25.8646    0.0000 </r>
       <r>   29.6230    0.0000 </r>
       <r>   31.6249    0.0000 </r>
       <r>   34.4203    0.0000 </r>
       <r>   34.4203    0.0000 </r>
       <r>   35.1024    0.0000 </r>
       <r>   35.1026    0.0000 </r>
       <r>   36.2224    0.0000 </r>
[...]
       <r>   20.4709    0.0000 </r>
       <r>   21.1558    0.0000 </r>
       <r>   24.7952    0.0000 </r>
       <r>   25.8152    0.0000 </r>
       <r>   30.2108    0.0000 </r>
       <r>   31.2143    0.0000 </r>
       <r>   33.7461    0.0000 </r>
       <r>   35.2103    0.0000 </r>
       <r>   40.1087    0.0000 </r>
       <r>   40.4765    0.0000 </r>
       <r>   49.3158    0.0000 </r>
       <r>   50.1637    0.0000 </r>
       <r>   50.3089    0.0000 </r>
       <r>   51.5867    0.0000 </r>
       <r>   53.4235    0.0000 </r>
       <r>   54.7534    0.0000 </r>
       <r>   55.0805    0.0000 </r>
       <r>   55.8041    0.0000 </r>
       <r>   57.9967    0.0000 </r>
       <r>   58.8284    0.0000 </r>
       <r>   60.2375    0.0000 </r>
       <r>   61.5964    0.0000 </r>
       <r>   63.0301    0.0000 </r>
       <r>   63.3471    0.0000 </r>
       <r>   63.9791    0.0000 </r>
       <r>   64.2627    0.0000 </r>
      </set>
      <set comment="kpoint 95">
       <r>    2.7172    1.0000 </r>
       <r>    2.7610    1.0000 </r>
       <r>    3.5747    1.0000 </r>
       <r>    3.7637    1.0000 </r>
       <r>    4.1449    1.0000 </r>
       <r>    4.3141    1.0000 </r>
       <r>    5.3810    1.0000 </r>
       <r>    5.5577    1.0000 </r>
       <r>    6.9017   -0.0000 </r>
       <r>    7.0733   -0.0000 </r>
       <r>   10.9168   -0.0000 </r>
       <r>   11.3991   -0.0000 </r>
       <r>   16.9712    0.0000 </r>
       <r>   17.3476    0.0000 </r>
       <r>   18.5505    0.0000 </r>
       <r>   18.9093    0.0000 </r>
       <r>   24.9287    0.0000 </r>
       <r>   26.4105    0.0000 </r>
       <r>   30.3918    0.0000 </r>
       <r>   31.6410    0.0000 </r>
       <r>   33.3654    0.0000 </r>
       <r>   34.3531    0.0000 </r>
       <r>   42.7510    0.0000 </r>
       <r>   43.1490    0.0000 </r>
       <r>   46.3887    0.0000 </r>
       <r>   46.5017    0.0000 </r>
       <r>   51.7246    0.0000 </r>
       <r>   53.4159    0.0000 </r>
       <r>   53.9547    0.0000 </r>
       <r>   54.2163    0.0000 </r>
       <r>   56.2388    0.0000 </r>
       <r>   56.3626    0.0000 </r>
       <r>   57.4959    0.0000 </r>
       <r>   57.6013    0.0000 </r>
       <r>   58.5818    0.0000 </r>
       <r>   59.2877    0.0000 </r>
       <r>   62.9924    0.0000 </r>
       <r>   63.4530    0.0000 </r>
       <r>   64.3875    0.0000 </r>
       <r>   64.4452    0.0000 </r>
      </set>
      <set comment="kpoint 96">
       <r>    2.9152    1.0000 </r>
       <r>    3.0255    1.0000 </r>
       <r>    3.5467    1.0000 </r>
       <r>    3.6443    1.0000 </r>
       <r>    4.1091    1.0000 </r>
       <r>    4.2351    1.0000 </r>
       <r>    5.4140    1.0000 </r>
       <r>    5.5482    1.0000 </r>
       <r>    6.8880   -0.0000 </r>
       <r>    6.9500   -0.0000 </r>
       <r>   12.7160    0.0000 </r>
       <r>   12.8433    0.0000 </r>
       <r>   15.2820    0.0000 </r>
       <r>   15.5624    0.0000 </r>
       <r>   17.9038    0.0000 </r>
       <r>   18.3391    0.0000 </r>
       <r>   26.6643    0.0000 </r>
       <r>   27.2116    0.0000 </r>
       <r>   29.3534    0.0000 </r>
       <r>   29.7674    0.0000 </r>
       <r>   33.0301    0.0000 </r>
       <r>   33.8085    0.0000 </r>
       <r>   43.7911    0.0000 </r>
       <r>   44.3791    0.0000 </r>
       <r>   48.4547    0.0000 </r>
       <r>   48.9010    0.0000 </r>
       <r>   50.5253    0.0000 </r>
       <r>   50.9587    0.0000 </r>
       <r>   53.5173    0.0000 </r>
       <r>   54.0578    0.0000 </r>
       <r>   56.0106    0.0000 </r>
       <r>   56.4738    0.0000 </r>
       <r>   57.0226    0.0000 </r>
       <r>   57.5333    0.0000 </r>
       <r>   59.5502    0.0000 </r>
       <r>   60.3069    0.0000 </r>
       <r>   61.4082    0.0000 </r>
       <r>   61.9752    0.0000 </r>
       <r>   65.7241    0.0000 </r>
       <r>   65.7621    0.0000 </r>
      </set>
     </set>
    </set>
   </array>
  </eigenvalues>
  <separator name="orbital magnetization" >
   <v name="MAGDIPOLOUT">      0.00000000      0.00000000      0.00000000</v>
  </separator>
  <dos>
   <i name="efermi">      6.22131796 </i>
   <total>
    <array>
     <dimension dim="1">gridpoints</dimension>
     <dimension dim="2">spin</dimension>
     <field>energy</field>
     <field>total</field>
     <field>integrated</field>
     <set>
      <set comment="spin 1">
       <r>    -5.7609     0.0000     0.0000 </r>
       <r>    -5.5088     0.0000     0.0000 </r>
       <r>    -5.2566     0.0000     0.0000 </r>
       <r>    -5.0044     0.0000     0.0000 </r>
       <r>    -4.7523     0.0000     0.0000 </r>
       <r>    -4.5001     0.0000     0.0000 </r>
       <r>    -4.2479     0.0000     0.0000 </r>
       <r>    -3.9958    -0.0000    -0.0000 </r>
       <r>    -3.7436    -0.0000    -0.0000 </r>
       <r>    -3.4914    -0.0000    -0.0000 </r>
       <r>    -3.2393    -0.0000    -0.0000 </r>
       <r>    -2.9871    -0.0000    -0.0000 </r>
       <r>    -2.7349    -0.0001    -0.0000 </r>
       <r>    -2.4828    -0.0004    -0.0001 </r>
       <r>    -2.2306     0.0089     0.0021 </r>
       <r>    -1.9784     0.0588     0.0170 </r>
       <r>    -1.7263     0.1088     0.0444 </r>
       <r>    -1.4741     0.0620     0.0600 </r>
       <r>    -1.2219     0.1605     0.1005 </r>
       <r>    -0.9698     0.1923     0.1490 </r>
       <r>    -0.7176     0.1959     0.1984 </r>
       <r>    -0.4654     0.0948     0.2223 </r>
       <r>    -0.2133     0.2564     0.2870 </r>
       <r>     0.0389     0.2983     0.3622 </r>
       <r>     0.2910     0.3412     0.4483 </r>
       <r>     0.5432     0.2851     0.5201 </r>
       <r>     0.7954     0.2606     0.5859 </r>
       <r>     1.0475     0.3960     0.6857 </r>
       <r>     1.2997     0.6992     0.8621 </r>
       <r>     1.5519     0.8521     1.0769 </r>
       <r>     1.8040     1.2215     1.3849 </r>
       <r>     2.0562     2.0276     1.8962 </r>
       <r>     2.3084     2.7379     2.5866 </r>
       <r>     2.5605     2.3149     3.1704 </r>
       <r>     2.8127     3.0139     3.9304 </r>
       <r>     3.0649     2.5954     4.5848 </r>
       <r>     3.3170     3.4317     5.4502 </r>
       <r>     3.5692     3.4552     6.3215 </r>
       <r>     3.8214     3.4365     7.1880 </r>
       <r>     4.0735     2.6155     7.8476 </r>
       <r>     4.3257     2.9888     8.6012 </r>
       <r>     4.5779     4.4733     9.7293 </r>
       <r>     4.8300     4.0575    10.7524 </r>
       <r>     5.0822     3.9399    11.7459 </r>
       <r>     5.3343     3.4937    12.6269 </r>
       <r>     5.5865     3.9815    13.6309 </r>
       <r>     5.8387     3.8000    14.5891 </r>
       <r>     6.0908     3.8065    15.5490 </r>
       <r>     6.3430     3.3940    16.4049 </r>
       <r>     6.5952     4.0565    17.4278 </r>
       <r>     6.8473     5.3304    18.7719 </r>
       <r>     7.0995     4.8348    19.9911 </r>
       <r>     7.3517     4.0463    21.0114 </r>
       <r>     7.6038     0.9734    21.2568 </r>
       <r>     7.8560     0.4538    21.3713 </r>
       <r>     8.1082     0.5076    21.4993 </r>
       <r>     8.3603     0.8233    21.7069 </r>
       <r>     8.6125     0.9773    21.9533 </r>
       <r>     8.8647     0.5116    22.0823 </r>
       <r>     9.1168     0.3639    22.1741 </r>
       <r>     9.3690     0.5113    22.3030 </r>
       <r>     9.6212     0.4788    22.4238 </r>
       <r>     9.8733     0.3858    22.5210 </r>
       <r>    10.1255     0.6583    22.6870 </r>
       <r>    10.3777     0.5762    22.8323 </r>
       <r>    10.6298     0.5116    22.9613 </r>
       <r>    10.8820     0.5013    23.0878 </r>
       <r>    11.1341     0.3743    23.1821 </r>
       <r>    11.3863     0.1905    23.2302 </r>
       <r>    11.6385     0.4655    23.3476 </r>
       <r>    11.8906     0.3287    23.4305 </r>
       <r>    12.1428     0.4445    23.5425 </r>
       <r>    12.3950     0.1754    23.5868 </r>
       <r>    12.6471     0.4141    23.6912 </r>
       <r>    12.8993     0.6527    23.8558 </r>
       <r>    13.1515     0.6280    24.0141 </r>
       <r>    13.4036     0.2117    24.0675 </r>
       <r>    13.6558     0.2139    24.1215 </r>
       <r>    13.9080     0.1615    24.1622 </r>
       <r>    14.1601     0.0883    24.1845 </r>
       <r>    14.4123     0.2231    24.2407 </r>
       <r>    14.6645     0.3404    24.3265 </r>
       <r>    14.9166     0.1664    24.3685 </r>
       <r>    15.1688     0.4287    24.4766 </r>
       <r>    15.4210     0.8571    24.6927 </r>
       <r>    15.6731     0.9616    24.9352 </r>
       <r>    15.9253     0.9392    25.1721 </r>
       <r>    16.1774     0.6900    25.3460 </r>
       <r>    16.4296     0.4575    25.4614 </r>
       <r>    16.6818     0.5889    25.6099 </r>
       <r>    16.9339     0.8564    25.8259 </r>
       <r>    17.1861     0.6844    25.9985 </r>
       <r>    17.4383     0.8008    26.2004 </r>
       <r>    17.6904     0.9446    26.4386 </r>
       <r>    17.9426     0.7365    26.6243 </r>
       <r>    18.1948     0.3156    26.7039 </r>
       <r>    18.4469     0.6117    26.8581 </r>
       <r>    18.6991     0.7938    27.0583 </r>
       <r>    18.9513     0.7940    27.2585 </r>
       <r>    19.2034     0.5227    27.3903 </r>
       <r>    19.4556     0.5549    27.5303 </r>
       <r>    19.7078     0.6098    27.6840 </r>
       <r>    19.9599     0.5422    27.8207 </r>
       <r>    20.2121     0.4733    27.9401 </r>
       <r>    20.4643     0.9115    28.1700 </r>
       <r>    20.7164     0.6171    28.3256 </r>
       <r>    20.9686     0.6520    28.4900 </r>
       <r>    21.2208     0.8493    28.7041 </r>
       <r>    21.4729     0.4560    28.8191 </r>
       <r>    21.7251     0.6563    28.9846 </r>
       <r>    21.9772     1.1601    29.2772 </r>
       <r>    22.2294     1.0434    29.5403 </r>
       <r>    22.4816     0.8169    29.7462 </r>
       <r>    22.7337     0.8054    29.9493 </r>
       <r>    22.9859     1.0175    30.2059 </r>
       <r>    23.2381     0.7257    30.3889 </r>
       <r>    23.4902     0.8188    30.5954 </r>
       <r>    23.7424     1.1597    30.8878 </r>
       <r>    23.9946     0.8667    31.1064 </r>
       <r>    24.2467     0.8508    31.3209 </r>
       <r>    24.4989     0.9564    31.5621 </r>
       <r>    24.7511     0.9254    31.7954 </r>
       <r>    25.0032     1.5818    32.1943 </r>
       <r>    25.2554     1.1759    32.4908 </r>
       <r>    25.5076     0.5692    32.6344 </r>
       <r>    25.7597     0.6346    32.7944 </r>
       <r>    26.0119     0.9417    33.0319 </r>
       <r>    26.2641     0.7525    33.2216 </r>
       <r>    26.5162     0.9393    33.4585 </r>
       <r>    26.7684     0.8780    33.6799 </r>
       <r>    27.0205     0.5611    33.8214 </r>
       <r>    27.2727     1.0077    34.0755 </r>
       <r>    27.5249     1.0626    34.3434 </r>
       <r>    27.7770     0.6111    34.4975 </r>
       <r>    28.0292     0.4800    34.6186 </r>
       <r>    28.2814     0.5041    34.7457 </r>
       <r>    28.5335     0.6024    34.8976 </r>
       <r>    28.7857     0.5541    35.0373 </r>
       <r>    29.0379     1.0121    35.2925 </r>
       <r>    29.2900     0.8881    35.5165 </r>
       <r>    29.5422     0.6993    35.6928 </r>
       <r>    29.7944     0.7925    35.8927 </r>
       <r>    30.0465     0.8116    36.0973 </r>
       <r>    30.2987     1.0130    36.3528 </r>
       <r>    30.5509     1.0886    36.6273 </r>
       <r>    30.8030     0.8850    36.8504 </r>
       <r>    31.0552     0.5897    36.9992 </r>
       <r>    31.3074     0.7406    37.1859 </r>
       <r>    31.5595     0.7364    37.3716 </r>
       <r>    31.8117     0.7130    37.5514 </r>
       <r>    32.0639     1.1594    37.8438 </r>
       <r>    32.3160     0.9962    38.0950 </r>
       <r>    32.5682     0.7938    38.2951 </r>
       <r>    32.8203     0.8872    38.5189 </r>
       <r>    33.0725     1.1533    38.8097 </r>
       <r>    33.3247     1.0070    39.0636 </r>
       <r>    33.5768     0.8972    39.2899 </r>
       <r>    33.8290     1.5113    39.6710 </r>
       <r>    34.0812     1.1371    39.9577 </r>
       <r>    34.3333     1.0158    40.2138 </r>
       <r>    34.5855     1.3008    40.5419 </r>
       <r>    34.8377     0.8661    40.7603 </r>
       <r>    35.0898     0.7896    40.9594 </r>
       <r>    35.3420     0.9230    41.1921 </r>
       <r>    35.5942     0.9336    41.4276 </r>
       <r>    35.8463     0.4097    41.5309 </r>
       <r>    36.0985     0.7627    41.7232 </r>
       <r>    36.3507     0.7354    41.9086 </r>
       <r>    36.6028     0.3928    42.0077 </r>
       <r>    36.8550     0.7406    42.1944 </r>
       <r>    37.1072     1.0673    42.4636 </r>
       <r>    37.3593     1.2858    42.7878 </r>
       <r>    37.6115     0.8494    43.0020 </r>
       <r>    37.8636     0.8319    43.2118 </r>
       <r>    38.1158     0.8357    43.4225 </r>
       <r>    38.3680     0.8096    43.6267 </r>
       <r>    38.6201     0.8155    43.8323 </r>
       <r>    38.8723     0.8013    44.0343 </r>
       <r>    39.1245     1.1613    44.3272 </r>
       <r>    39.3766     1.0217    44.5848 </r>
       <r>    39.6288     1.3344    44.9213 </r>
       <r>    39.8810     1.1795    45.2187 </r>
       <r>    40.1331     0.8571    45.4348 </r>
       <r>    40.3853     1.0630    45.7029 </r>
       <r>    40.6375     1.2209    46.0108 </r>
       <r>    40.8896     0.8699    46.2301 </r>
       <r>    41.1418     1.1447    46.5188 </r>
       <r>    41.3940     1.3021    46.8471 </r>
       <r>    41.6461     0.8989    47.0738 </r>
       <r>    41.8983     1.0507    47.3387 </r>
       <r>    42.1505     1.2232    47.6472 </r>
       <r>    42.4026     1.3458    47.9865 </r>
       <r>    42.6548     0.9154    48.2174 </r>
       <r>    42.9070     0.6687    48.3860 </r>
       <r>    43.1591     0.9069    48.6147 </r>
       <r>    43.4113     0.9907    48.8645 </r>
       <r>    43.6634     1.1049    49.1431 </r>
       <r>    43.9156     1.1176    49.4249 </r>
       <r>    44.1678     0.8801    49.6468 </r>
       <r>    44.4199     1.0500    49.9116 </r>
       <r>    44.6721     1.1325    50.1972 </r>
       <r>    44.9243     1.4627    50.5660 </r>
       <r>    45.1764     0.7337    50.7510 </r>
       <r>    45.4286     0.5854    50.8987 </r>
       <r>    45.6808     0.9420    51.1362 </r>
       <r>    45.9329     1.1347    51.4223 </r>
       <r>    46.1851     1.1604    51.7149 </r>
       <r>    46.4373     1.1040    51.9933 </r>
       <r>    46.6894     0.9652    52.2367 </r>
       <r>    46.9416     0.6054    52.3894 </r>
       <r>    47.1938     0.9999    52.6415 </r>
       <r>    47.4459     1.5014    53.0201 </r>
       <r>    47.6981     1.2806    53.3430 </r>
       <r>    47.9503     1.7081    53.7738 </r>
       <r>    48.2024     1.2314    54.0843 </r>
       <r>    48.4546     1.2882    54.4091 </r>
       <r>    48.7067     1.0188    54.6660 </r>
       <r>    48.9589     1.2160    54.9726 </r>
       <r>    49.2111     0.8408    55.1846 </r>
       <r>    49.4632     1.2671    55.5042 </r>
       <r>    49.7154     1.3520    55.8451 </r>
       <r>    49.9676     0.5991    55.9961 </r>
       <r>    50.2197     1.1088    56.2758 </r>
       <r>    50.4719     0.9004    56.5028 </r>
       <r>    50.7241     1.0453    56.7664 </r>
       <r>    50.9762     1.3174    57.0986 </r>
       <r>    51.2284     1.1138    57.3794 </r>
       <r>    51.4806     1.4098    57.7349 </r>
       <r>    51.7327     1.6213    58.1438 </r>
       <r>    51.9849     1.3407    58.4818 </r>
       <r>    52.2371     1.4024    58.8355 </r>
       <r>    52.4892     1.3479    59.1754 </r>
       <r>    52.7414     1.3407    59.5134 </r>
       <r>    52.9936     1.0949    59.7895 </r>
       <r>    53.2457     0.7117    59.9690 </r>
       <r>    53.4979     1.3087    60.2990 </r>
       <r>    53.7501     1.2362    60.6108 </r>
       <r>    54.0022     1.5696    61.0066 </r>
       <r>    54.2544     1.6421    61.4207 </r>
       <r>    54.5065     1.3776    61.7680 </r>
       <r>    54.7587     1.4393    62.1310 </r>
       <r>    55.0109     1.3486    62.4710 </r>
       <r>    55.2630     1.2920    62.7968 </r>
       <r>    55.5152     1.2095    63.1018 </r>
       <r>    55.7674     1.9978    63.6056 </r>
       <r>    56.0195     1.5270    63.9907 </r>
       <r>    56.2717     1.1525    64.2813 </r>
       <r>    56.5239     1.6041    64.6858 </r>
       <r>    56.7760     1.5069    65.0658 </r>
       <r>    57.0282     1.2556    65.3824 </r>
       <r>    57.2804     1.5186    65.7653 </r>
       <r>    57.5325     1.6348    66.1776 </r>
       <r>    57.7847     1.8265    66.6381 </r>
       <r>    58.0369     1.6238    67.0476 </r>
       <r>    58.2890     1.5909    67.4488 </r>
       <r>    58.5412     1.1797    67.7462 </r>
       <r>    58.7934     1.6738    68.1683 </r>
       <r>    59.0455     1.8491    68.6346 </r>
       <r>    59.2977     1.2050    68.9384 </r>
       <r>    59.5498     1.6099    69.3444 </r>
       <r>    59.8020     1.4023    69.6980 </r>
       <r>    60.0542     1.8062    70.1535 </r>
       <r>    60.3063     1.8432    70.6182 </r>
       <r>    60.5585     1.4076    70.9732 </r>
       <r>    60.8107     1.1493    71.2630 </r>
       <r>    61.0628     1.6546    71.6802 </r>
       <r>    61.3150     2.0242    72.1907 </r>
       <r>    61.5672     1.5867    72.5908 </r>
       <r>    61.8193     1.9949    73.0938 </r>
       <r>    62.0715     1.8363    73.5569 </r>
       <r>    62.3237     1.4428    73.9207 </r>
       <r>    62.5758     1.5576    74.3134 </r>
       <r>    62.8280     2.2853    74.8897 </r>
       <r>    63.0802     1.7886    75.3408 </r>
       <r>    63.3323     1.7483    75.7816 </r>
       <r>    63.5845     2.1169    76.3154 </r>
       <r>    63.8367     1.8906    76.7922 </r>
       <r>    64.0888     2.0539    77.3101 </r>
       <r>    64.3410     2.3642    77.9063 </r>
       <r>    64.5932     1.6458    78.3213 </r>
       <r>    64.8453     1.3166    78.6533 </r>
       <r>    65.0975     1.9280    79.1395 </r>
       <r>    65.3496     1.3887    79.4897 </r>
       <r>    65.6018     0.6379    79.6505 </r>
       <r>    65.8540     0.9706    79.8953 </r>
       <r>    66.1061     0.2382    79.9553 </r>
       <r>    66.3583     0.0828    79.9762 </r>
       <r>    66.6105     0.0968    80.0006 </r>
       <r>    66.8626    -0.0019    80.0001 </r>
       <r>    67.1148    -0.0005    80.0000 </r>
       <r>    67.3670    -0.0000    80.0000 </r>
       <r>    67.6191    -0.0000    80.0000 </r>
       <r>    67.8713    -0.0000    80.0000 </r>
       <r>    68.1235     0.0000    80.0000 </r>
       <r>    68.3756     0.0000    80.0000 </r>
       <r>    68.6278     0.0000    80.0000 </r>
       <r>    68.8800     0.0000    80.0000 </r>
       <r>    69.1321     0.0000    80.0000 </r>
       <r>    69.3843     0.0000    80.0000 </r>
       <r>    69.6365     0.0000    80.0000 </r>
       <r>    69.8886     0.0000    80.0000 </r>
      </set>
     </set>
    </array>
   </total>
  </dos>
 </calculation>
 <structure name="finalpos" >
  <crystal>
   <varray name="basis" >
    <v>       2.39990000       0.00000000       0.00000000 </v>
    <v>      -1.19995000       2.07837437       0.00000000 </v>
    <v>       0.00000000       0.00000000       4.34969000 </v>
   </varray>
   <i name="volume">     21.69577805 </i>
   <varray name="rec_basis" >
    <v>       0.41668403       0.24057264       0.00000000 </v>
    <v>       0.00000000       0.48114527       0.00000000 </v>
    <v>       0.00000000       0.00000000       0.22990144 </v>
   </varray>
  </crystal>
  <varray name="positions" >
   <v>       0.00000000       0.00000000       0.00000000 </v>
   <v>       0.33333333       0.66666667       0.50000000 </v>
  </varray>
 </structure>
</modeling>
