 vasp.6.2.0 18Jan21 (build Mar 17 2021 09:06:54) complex                        
  
 POSCAR found type information on POSCAR Fe
 POSCAR found :  1 types and       2 ions
 LDA part: xc-table for Pade appr. of Perdew
 POSCAR, INCAR and KPOINTS ok, starting setup
 FFT: planning ...
 WAVECAR not read
 WARNING: chargedensity file is incomplete
 entering main loop
       N       E                     dE             d eps       ncg     rms          rms(c)
DAV:   1     0.620093465254E+02    0.62009E+02   -0.27746E+03  9200   0.317E+02
DAV:   2    -0.145066542874E+02   -0.76516E+02   -0.65044E+02  7936   0.951E+01
DAV:   3    -0.190682595697E+02   -0.45616E+01   -0.43225E+01  9440   0.243E+01
DAV:   4    -0.190916594783E+02   -0.23400E-01   -0.23383E-01  9120   0.182E+00
DAV:   5    -0.190917000616E+02   -0.40583E-04   -0.40582E-04  9304   0.714E-02    0.161E+01
DAV:   6    -0.162444150729E+02    0.28473E+01   -0.21483E+00 11152   0.261E+01    0.339E+00
DAV:   7    -0.159714170734E+02    0.27300E+00   -0.17180E-01 10168   0.659E+00    0.102E+00
DAV:   8    -0.159463276414E+02    0.25089E-01   -0.47236E-03 10160   0.463E-01    0.463E-01
DAV:   9    -0.159360131644E+02    0.10314E-01   -0.87295E-04 11296   0.167E-01    0.626E-02
DAV:  10    -0.159360397921E+02   -0.26628E-04   -0.39676E-05  9176   0.251E-02    0.293E-02
DAV:  11    -0.159360349046E+02    0.48874E-05   -0.67248E-07  9352   0.601E-03    0.179E-03
DAV:  12    -0.159360345002E+02    0.40444E-06   -0.27053E-08  5960   0.842E-04
   1 F= -.15936035E+02 E0= -.15937139E+02  d E =0.331280E-02
 writing wavefunctions
