unknown system                          
   1.00000000000000     
     3.866000    0.000000    0.000000
     0.000000    3.866000    0.000000
     0.000000    0.000000    3.866000
   Pd   Ir   Pt   Cu
     1     1     1     1
Direct
  0.000000  0.000000  0.000000
  0.500000  0.500000  0.000000
  0.500000  0.000000  0.500000
  0.000000  0.500000  0.500000
 
   24   24   24
  339.28      313.60      251.39      181.52      122.10      76.600      44.381      23.995      12.683      10.076    
  9.7308      7.4795      5.8693      7.4795      9.7308      10.076      12.683      23.995      44.381      76.600    
  122.10      181.52      251.39      313.60      313.62      289.98      232.70      168.31      113.51      71.624    
  42.101      23.271      12.820      10.544      10.384      8.4797      7.0774      8.4797      10.384      10.544    
  12.820      23.271      42.101      71.624      113.51      168.31      232.70      289.98      250.13      231.57    
  186.54      135.75      92.402      59.455      36.494      21.352      13.050      11.432      11.516      10.304    
  9.3541      10.304      11.516      11.432      13.050      21.352      36.494      59.455      92.402      135.75    
  186.54      231.57      177.16      164.48      133.59      98.495      68.362      45.690      29.995      18.998    
  13.380      12.416      12.611      12.055      11.571      12.055      12.611      12.416      13.380      18.998    
  29.995      45.690      68.362      98.495      133.59      164.48      116.02      108.23      89.156      67.235    
  48.319      34.246      24.181      17.375      14.723      14.926      15.810      16.215      16.257      16.215    
  15.810      14.926      14.723      17.375      24.181      34.246      48.319      67.235      89.156      108.23    
  72.206      67.881      57.203      44.796      34.022      25.818      20.069      17.694      18.427      20.950    
  23.937      26.287      27.176      26.287      23.937      20.950      18.427      17.694      20.069      25.818    
  34.022      44.796      57.203      67.881      42.660      40.643      35.592      29.536      23.943      19.949    
  18.750      20.605      25.030      31.356      38.241      43.711      45.813      43.711      38.241      31.356    
  25.030      20.605      18.750      19.949      23.943      29.536      35.592      40.643      23.519      22.841    
  21.019      18.738      17.133      17.452      20.420      26.149      34.682      45.208      55.918      64.139    
  67.252      64.139      55.918      45.208      34.682      26.149      20.420      17.452      17.133      18.738    
  21.019      22.841      12.471      12.591      12.793      13.102      14.409      18.033      24.545      34.205    
  46.390      59.844      72.757      82.456      86.110      82.456      72.757      59.844      46.390      34.205    
  24.545      18.033      14.409      13.102      12.793      12.591      9.4347      9.9010      10.830      11.925    
  14.492      20.365      30.336      43.796      58.804      74.024      88.378      99.406      103.65      99.406    
  88.378      74.024      58.804      43.796      30.336      20.365      14.492      11.925      10.830      9.9010    
  8.5169      9.2120      10.524      11.923      15.282      23.105      36.455      53.309      70.634      87.679    
  104.48      118.22      123.71      118.22      104.48      87.679      70.634      53.309      36.455      23.105    
  15.282      11.923      10.524      9.2120      5.9756      7.0444      9.1339      11.302      15.649      25.212    
  41.207      60.551      79.714      98.812      118.79      136.02      143.07      136.02      118.79      98.812    
  79.714      60.551      41.207      25.212      15.649      11.302      9.1339      7.0444      4.3103      5.5932    
  8.1570      10.818      15.687      25.996      43.013      63.295      83.205      103.28      124.80      143.68    
  151.46      143.68      124.80      103.28      83.205      63.295      43.013      25.996      15.687      10.818    
  8.1570      5.5932      5.9756      7.0444      9.1339      11.302      15.649      25.212      41.207      60.551    
  79.714      98.812      118.79      136.02      143.07      136.02      118.79      98.812      79.714      60.551    
  41.207      25.212      15.649      11.302      9.1339      7.0444      8.5169      9.2120      10.524      11.923    
  15.282      23.105      36.455      53.309      70.634      87.679      104.48      118.22      123.71      118.22    
  104.48      87.679      70.634      53.309      36.455      23.105      15.282      11.923      10.524      9.2120    
  9.4347      9.9010      10.830      11.925      14.492      20.365      30.336      43.796      58.804      74.024    
  88.378      99.406      103.65      99.406      88.378      74.024      58.804      43.796      30.336      20.365    
  14.492      11.925      10.830      9.9010      12.471      12.591      12.793      13.102      14.409      18.033    
  24.545      34.205      46.390      59.844      72.757      82.456      86.110      82.456      72.757      59.844    
  46.390      34.205      24.545      18.033      14.409      13.102      12.793      12.591      23.519      22.841    
  21.019      18.738      17.133      17.452      20.420      26.149      34.682      45.208      55.918      64.139    
  67.252      64.139      55.918      45.208      34.682      26.149      20.420      17.452      17.133      18.738    
  21.019      22.841      42.660      40.643      35.592      29.536      23.943      19.949      18.750      20.605    
  25.030      31.356      38.241      43.711      45.813      43.711      38.241      31.356      25.030      20.605    
  18.750      19.949      23.943      29.536      35.592      40.643      72.206      67.881      57.203      44.796    
  34.022      25.818      20.069      17.694      18.427      20.950      23.937      26.287      27.176      26.287    
  23.937      20.950      18.427      17.694      20.069      25.818      34.022      44.796      57.203      67.881    
  116.02      108.23      89.156      67.235      48.319      34.246      24.181      17.375      14.723      14.926    
  15.810      16.215      16.257      16.215      15.810      14.926      14.723      17.375      24.181      34.246    
  48.319      67.235      89.156      108.23      177.16      164.48      133.59      98.495      68.362      45.690    
  29.995      18.998      13.380      12.416      12.611      12.055      11.571      12.055      12.611      12.416    
  13.380      18.998      29.995      45.690      68.362      98.495      133.59      164.48      250.13      231.57    
  186.54      135.75      92.402      59.455      36.494      21.352      13.050      11.432      11.516      10.304    
  9.3541      10.304      11.516      11.432      13.050      21.352      36.494      59.455      92.402      135.75    
  186.54      231.57      313.62      289.98      232.70      168.31      113.51      71.624      42.101      23.271    
  12.820      10.544      10.384      8.4797      7.0774      8.4797      10.384      10.544      12.820      23.271    
  42.101      71.624      113.51      168.31      232.70      289.98      314.31      290.72      233.48      168.96    
  113.87      71.716      42.068      23.234      12.824      10.621      10.561      8.7540      7.3937      8.7540    
  10.561      10.621      12.824      23.234      42.068      71.716      113.87      168.96      233.48      290.72    
  291.72      269.90      216.92      157.17      106.14      67.227      40.008      22.556      12.934      11.012    
  11.099      9.5964      8.4220      9.5964      11.099      11.012      12.934      22.556      40.008      67.227    
  106.14      157.17      216.92      269.90      235.18      217.81      175.59      127.83      87.015      56.186    
  34.902      20.760      13.114      11.741      11.997      11.088      10.313      11.088      11.997      11.741    
  13.114      20.760      34.902      56.186      87.015      127.83      175.59      217.81      168.69      156.61    
  127.15      93.629      64.929      43.559      28.880      18.552      13.395      12.581      12.876      12.507    
  12.131      12.507      12.876      12.581      13.395      18.552      28.880      43.559      64.929      93.629    
  127.15      156.61      111.25      103.76      85.390      64.306      46.225      32.904      23.359      17.028    
  14.642      14.898      15.790      16.247      16.325      16.247      15.790      14.898      14.642      17.028    
  23.359      32.904      46.225      64.306      85.390      103.76      69.162      65.026      54.822      42.989    
  32.743      24.898      19.475      17.334      18.125      20.558      23.368      25.559      26.386      25.559    
  23.368      20.558      18.125      17.334      19.475      24.898      32.743      42.989      54.822      65.026    
  40.835      38.941      34.192      28.473      23.135      19.365      18.283      20.119      24.355      30.322    
  36.749      41.814      43.753      41.814      36.749      30.322      24.355      20.119      18.283      19.365    
  23.135      28.473      34.192      38.941      22.616      21.971      20.260      18.157      16.720      17.091    
  19.959      25.424      33.545      43.520      53.571      61.209      64.083      61.209      53.571      43.520    
  33.545      25.424      19.959      17.091      16.720      18.157      20.260      21.971      12.240      12.331    
  12.498      12.829      14.161      17.695      23.952      33.222      44.978      57.873      70.021      78.962    
  82.289      78.962      70.021      57.873      44.978      33.222      23.952      17.695      14.161      12.829    
  12.498      12.331      9.6776      10.034      10.753      11.715      14.201      19.909      29.540      42.682    
  57.457      72.198      85.562      95.435      99.154      95.435      85.562      72.198      57.457      42.682    
  29.540      19.909      14.201      11.715      10.753      10.034      9.3532      9.8473      10.745      11.812    
  14.947      22.499      35.489      52.225      69.597      86.156      101.45      113.32      117.94      113.32    
  101.45      86.156      69.597      52.225      35.489      22.499      14.947      11.812      10.745      9.8473    
  7.6096      8.3838      9.8379      11.433      15.364      24.514      40.146      59.569      78.996      97.493    
  115.36      129.92      135.74      129.92      115.36      97.493      78.996      59.569      40.146      24.514    
  15.364      11.433      9.8379      8.3838      6.3495      7.2949      9.1195      11.090      15.446      25.272    
  41.925      62.365      82.618      102.02      121.15      137.02      143.41      137.02      121.15      102.02    
  82.618      62.365      41.925      25.272      15.446      11.090      9.1195      7.2949      7.6096      8.3838    
  9.8379      11.433      15.364      24.514      40.146      59.569      78.996      97.493      115.36      129.92    
  135.74      129.92      115.36      97.493      78.996      59.569      40.146      24.514      15.364      11.433    
  9.8379      8.3838      9.3532      9.8473      10.745      11.812      14.947      22.499      35.489      52.225    
  69.597      86.156      101.45      113.32      117.94      113.32      101.45      86.156      69.597      52.225    
  35.489      22.499      14.947      11.812      10.745      9.8473      9.6776      10.034      10.753      11.715    
  14.201      19.909      29.540      42.682      57.457      72.198      85.562      95.435      99.154      95.435    
  85.562      72.198      57.457      42.682      29.540      19.909      14.201      11.715      10.753      10.034    
  12.240      12.331      12.498      12.829      14.161      17.695      23.952      33.222      44.978      57.873    
  70.021      78.962      82.289      78.962      70.021      57.873      44.978      33.222      23.952      17.695    
  14.161      12.829      12.498      12.331      22.616      21.971      20.260      18.157      16.720      17.091    
  19.959      25.424      33.545      43.520      53.571      61.209      64.083      61.209      53.571      43.520    
  33.545      25.424      19.959      17.091      16.720      18.157      20.260      21.971      40.835      38.941    
  34.192      28.473      23.135      19.365      18.283      20.119      24.355      30.322      36.749      41.814    
  43.753      41.814      36.749      30.322      24.355      20.119      18.283      19.365      23.135      28.473    
  34.192      38.941      69.162      65.026      54.822      42.989      32.743      24.898      19.475      17.334    
  18.125      20.558      23.368      25.559      26.386      25.559      23.368      20.558      18.125      17.334    
  19.475      24.898      32.743      42.989      54.822      65.026      111.25      103.76      85.390      64.306    
  46.225      32.904      23.359      17.028      14.642      14.898      15.790      16.247      16.325      16.247    
  15.790      14.898      14.642      17.028      23.359      32.904      46.225      64.306      85.390      103.76    
  168.69      156.61      127.15      93.629      64.929      43.559      28.880      18.552      13.395      12.581    
  12.876      12.507      12.131      12.507      12.876      12.581      13.395      18.552      28.880      43.559    
  64.929      93.629      127.15      156.61      235.18      217.81      175.59      127.83      87.015      56.186    
  34.902      20.760      13.114      11.741      11.997      11.088      10.313      11.088      11.997      11.741    
  13.114      20.760      34.902      56.186      87.015      127.83      175.59      217.81      291.72      269.90    
  216.92      157.17      106.14      67.227      40.008      22.556      12.934      11.012      11.099      9.5964    
  8.4220      9.5964      11.099      11.012      12.934      22.556      40.008      67.227      106.14      157.17    
  216.92      269.90      252.02      233.60      188.69      137.51      93.316      59.617      36.342      21.200    
  12.996      11.520      11.793      10.772      9.9062      10.772      11.793      11.520      12.996      21.200    
  36.342      59.617      93.316      137.51      188.69      233.60      236.43      219.15      177.00      128.97    
  87.595      56.270      34.787      20.647      13.064      11.773      12.135      11.333      10.605      11.333    
  12.135      11.773      13.064      20.647      34.787      56.270      87.595      128.97      177.00      219.15    
  195.92      181.66      146.84      107.14      73.157      47.915      30.838      19.174      13.167      12.244    
  12.676      12.284      11.844      12.284      12.676      12.244      13.167      19.174      30.838      47.915    
  73.157      107.14      146.84      181.66      144.84      134.51      109.24      80.391      55.883      38.075    
  25.916      17.354      13.366      12.855      13.263      13.212      13.039      13.212      13.263      12.855    
  13.366      17.354      25.916      38.075      55.883      80.391      109.24      134.51      97.071      90.537    
  74.513      56.182      40.670      29.397      21.189      16.096      14.379      14.750      15.617      16.139    
  16.275      16.139      15.617      14.750      14.379      16.096      21.189      29.397      40.670      56.182    
  74.513      90.537      60.347      56.815      48.113      38.057      29.333      22.469      17.947      16.386    
  17.287      19.489      21.873      23.673      24.343      23.673      21.873      19.489      17.287      16.386    
  17.947      22.469      29.333      38.057      48.113      56.815      35.868      34.307      30.370      25.521    
  20.928      17.824      17.081      18.844      22.573      27.596      32.863      36.929      38.467      36.929    
  32.863      27.596      22.573      18.844      17.081      17.824      20.928      25.521      30.370      34.307    
  20.193      19.648      18.240      16.589      15.568      16.076      18.705      23.504      30.494      38.972    
  47.332      53.534      55.834      53.534      47.332      38.972      30.494      23.504      18.705      16.076    
  15.568      16.589      18.240      19.648      11.590      11.643      11.778      12.164      13.487      16.708    
  22.278      30.459      40.950      52.305      62.553      69.720      72.301      69.720      62.553      52.305    
  40.950      30.459      22.278      16.708      13.487      12.164      11.778      11.643      9.7933      9.9889    
  10.421      11.210      13.475      18.632      27.211      39.251      53.147      66.605      77.707      85.044    
  87.620      85.044      77.707      66.605      53.147      39.251      27.211      18.632      13.475      11.210    
  10.421      9.9889      10.125      10.340      10.707      11.385      14.101      20.842      32.552      48.469    
  65.567      80.944      93.003      100.83      103.58      100.83      93.003      80.944      65.567      48.469    
  32.552      20.842      14.101      11.385      10.707      10.340      9.5230      9.8780      10.484      11.355    
  14.567      22.593      36.815      55.745      75.375      92.519      105.90      114.74      117.90      114.74    
  105.90      92.519      75.375      55.745      36.815      22.593      14.567      11.355      10.484      9.8780    
  8.9100      9.3661      10.177      11.239      14.712      23.266      38.461      58.547      79.175      97.092    
  111.14      120.54      123.93      120.54      111.14      97.092      79.175      58.547      38.461      23.266    
  14.712      11.239      10.177      9.3661      9.5230      9.8780      10.484      11.355      14.567      22.593    
  36.815      55.745      75.375      92.519      105.90      114.74      117.90      114.74      105.90      92.519    
  75.375      55.745      36.815      22.593      14.567      11.355      10.484      9.8780      10.125      10.340    
  10.707      11.385      14.101      20.842      32.552      48.469      65.567      80.944      93.003      100.83    
  103.58      100.83      93.003      80.944      65.567      48.469      32.552      20.842      14.101      11.385    
  10.707      10.340      9.7933      9.9889      10.421      11.210      13.475      18.632      27.211      39.251    
  53.147      66.605      77.707      85.044      87.620      85.044      77.707      66.605      53.147      39.251    
  27.211      18.632      13.475      11.210      10.421      9.9889      11.590      11.643      11.778      12.164    
  13.487      16.708      22.278      30.459      40.950      52.305      62.553      69.720      72.301      69.720    
  62.553      52.305      40.950      30.459      22.278      16.708      13.487      12.164      11.778      11.643    
  20.193      19.648      18.240      16.589      15.568      16.076      18.705      23.504      30.494      38.972    
  47.332      53.534      55.834      53.534      47.332      38.972      30.494      23.504      18.705      16.076    
  15.568      16.589      18.240      19.648      35.868      34.307      30.370      25.521      20.928      17.824    
  17.081      18.844      22.573      27.596      32.863      36.929      38.467      36.929      32.863      27.596    
  22.573      18.844      17.081      17.824      20.928      25.521      30.370      34.307      60.347      56.815    
  48.113      38.057      29.333      22.469      17.947      16.386      17.287      19.489      21.873      23.673    
  24.343      23.673      21.873      19.489      17.287      16.386      17.947      22.469      29.333      38.057    
  48.113      56.815      97.071      90.537      74.513      56.182      40.670      29.397      21.189      16.096    
  14.379      14.750      15.617      16.139      16.275      16.139      15.617      14.750      14.379      16.096    
  21.189      29.397      40.670      56.182      74.513      90.537      144.84      134.51      109.24      80.391    
  55.883      38.075      25.916      17.354      13.366      12.855      13.263      13.212      13.039      13.212    
  13.263      12.855      13.366      17.354      25.916      38.075      55.883      80.391      109.24      134.51    
  195.92      181.66      146.84      107.14      73.157      47.915      30.838      19.174      13.167      12.244    
  12.676      12.284      11.844      12.284      12.676      12.244      13.167      19.174      30.838      47.915    
  73.157      107.14      146.84      181.66      236.43      219.15      177.00      128.97      87.595      56.270    
  34.787      20.647      13.064      11.773      12.135      11.333      10.605      11.333      12.135      11.773    
  13.064      20.647      34.787      56.270      87.595      128.97      177.00      219.15      179.39      166.86    
  136.05      100.38      69.179      45.640      29.645      18.667      13.134      12.232      12.494      12.025    
  11.585      12.025      12.494      12.232      13.134      18.667      29.645      45.640      69.179      100.38    
  136.05      166.86      170.43      158.46      129.05      95.063      65.515      43.476      28.573      18.265    
  13.174      12.393      12.711      12.381      12.027      12.381      12.711      12.393      13.174      18.265    
  28.573      43.476      65.515      95.063      129.05      158.46      145.56      135.28      110.00      80.930    
  56.053      37.974      25.734      17.187      13.225      12.709      13.090      13.018      12.840      13.018    
  13.090      12.709      13.225      17.187      25.734      37.974      56.053      80.930      110.00      135.28    
  110.95      103.22      84.233      62.540      44.283      31.233      21.972      15.842      13.331      13.166    
  13.590      13.736      13.713      13.736      13.590      13.166      13.331      15.842      21.972      31.233    
  44.283      62.540      84.233      103.22      75.638      70.724      58.682      44.965      33.425      24.784    
  18.407      14.922      14.026      14.560      15.383      15.917      16.082      15.917      15.383      14.560    
  14.026      14.922      18.407      24.784      33.425      44.965      58.682      70.724      47.571      45.006    
  38.685      31.331      24.684      19.313      16.077      15.202      16.169      18.068      20.018      21.412    
  21.917      21.412      20.018      18.068      16.169      15.202      16.077      19.313      24.684      31.331    
  38.685      45.006      29.066      27.934      25.005      21.277      17.903      15.830      15.583      17.206    
  20.264      24.100      27.982      30.919      32.018      30.919      27.982      24.100      20.264      17.206    
  15.583      15.830      17.903      21.277      25.005      27.934      16.854      16.474      15.514      14.451    
  13.934      14.623      16.971      20.973      26.427      32.881      39.135      43.700      45.375      43.700    
  39.135      32.881      26.427      20.973      16.971      14.623      13.934      14.451      15.514      16.474    
  10.536      10.618      10.843      11.313      12.508      15.192      19.842      26.488      35.018      44.185    
  52.185      57.524      59.382      57.524      52.185      44.185      35.018      26.488      19.842      15.192    
  12.508      11.313      10.843      10.618      8.9275      9.1375      9.6596      10.540      12.516      16.725    
  23.684      33.688      45.743      57.364      66.227      71.375      73.002      71.375      66.227      57.364    
  45.743      33.688      23.684      16.725      12.516      10.540      9.6596      9.1375      8.6692      8.9304    
  9.5242      10.495      12.951      18.466      27.892      41.554      57.196      71.046      80.409      85.062    
  86.345      85.062      80.409      71.046      57.196      41.554      27.892      18.466      12.951      10.495    
  9.5242      8.9304      8.0125      8.3915      9.2137      10.407      13.302      19.823      31.316      47.948    
  66.447      82.083      91.932      96.327      97.403      96.327      91.932      82.083      66.447      47.948    
  31.316      19.823      13.302      10.407      9.2137      8.3915      7.5597      8.0119      8.9865      10.327    
  13.424      20.342      32.653      50.446      70.059      86.411      96.499      100.85      101.87      100.85    
  96.499      86.411      70.059      50.446      32.653      20.342      13.424      10.327      8.9865      8.0119    
  8.0125      8.3915      9.2137      10.407      13.302      19.823      31.316      47.948      66.447      82.083    
  91.932      96.327      97.403      96.327      91.932      82.083      66.447      47.948      31.316      19.823    
  13.302      10.407      9.2137      8.3915      8.6692      8.9304      9.5242      10.495      12.951      18.466    
  27.892      41.554      57.196      71.046      80.409      85.062      86.345      85.062      80.409      71.046    
  57.196      41.554      27.892      18.466      12.951      10.495      9.5242      8.9304      8.9275      9.1375    
  9.6596      10.540      12.516      16.725      23.684      33.688      45.743      57.364      66.227      71.375    
  73.002      71.375      66.227      57.364      45.743      33.688      23.684      16.725      12.516      10.540    
  9.6596      9.1375      10.536      10.618      10.843      11.313      12.508      15.192      19.842      26.488    
  35.018      44.185      52.185      57.524      59.382      57.524      52.185      44.185      35.018      26.488    
  19.842      15.192      12.508      11.313      10.843      10.618      16.854      16.474      15.514      14.451    
  13.934      14.623      16.971      20.973      26.427      32.881      39.135      43.700      45.375      43.700    
  39.135      32.881      26.427      20.973      16.971      14.623      13.934      14.451      15.514      16.474    
  29.066      27.934      25.005      21.277      17.903      15.830      15.583      17.206      20.264      24.100    
  27.982      30.919      32.018      30.919      27.982      24.100      20.264      17.206      15.583      15.830    
  17.903      21.277      25.005      27.934      47.571      45.006      38.685      31.331      24.684      19.313    
  16.077      15.202      16.169      18.068      20.018      21.412      21.917      21.412      20.018      18.068    
  16.169      15.202      16.077      19.313      24.684      31.331      38.685      45.006      75.638      70.724    
  58.682      44.965      33.425      24.784      18.407      14.922      14.026      14.560      15.383      15.917    
  16.082      15.917      15.383      14.560      14.026      14.922      18.407      24.784      33.425      44.965    
  58.682      70.724      110.95      103.22      84.233      62.540      44.283      31.233      21.972      15.842    
  13.331      13.166      13.590      13.736      13.713      13.736      13.590      13.166      13.331      15.842    
  21.972      31.233      44.283      62.540      84.233      103.22      145.56      135.28      110.00      80.930    
  56.053      37.974      25.734      17.187      13.225      12.709      13.090      13.018      12.840      13.018    
  13.090      12.709      13.225      17.187      25.734      37.974      56.053      80.930      110.00      135.28    
  170.43      158.46      129.05      95.063      65.515      43.476      28.573      18.265      13.174      12.393    
  12.711      12.381      12.027      12.381      12.711      12.393      13.174      18.265      28.573      43.476    
  65.515      95.063      129.05      158.46      117.47      109.77      90.632      68.167      48.443      33.829    
  23.634      16.905      14.373      14.659      15.618      16.109      16.194      16.109      15.618      14.659    
  14.373      16.905      23.634      33.829      48.443      68.167      90.632      109.77      112.42      104.99    
  86.554      65.007      46.259      32.504      22.859      16.597      14.320      14.646      15.593      16.110    
  16.219      16.110      15.593      14.646      14.320      16.597      22.859      32.504      46.259      65.007    
  86.554      104.99      97.653      91.134      75.039      56.429      40.559      29.070      20.813      15.773    
  14.132      14.552      15.449      15.997      16.145      15.997      15.449      14.552      14.132      15.773    
  20.813      29.070      40.559      56.429      75.039      91.134      75.774      70.852      58.765      44.947    
  33.302      24.601      18.210      14.750      13.895      14.468      15.326      15.887      16.063      15.887    
  15.326      14.468      13.895      14.750      18.210      24.601      33.302      44.947      58.765      70.852    
  52.714      49.669      42.205      33.651      26.152      20.007      15.875      14.051      14.045      14.968    
  16.017      16.736      16.981      16.736      16.017      14.968      14.045      14.051      15.875      20.007    
  26.152      33.651      42.205      49.669      34.370      32.824      28.953      24.196      19.647      16.239    
  14.438      14.232      15.254      16.924      18.619      19.836      20.274      19.836      18.619      16.924    