unknown system                          
   1.00000000000000     
     3.866000    0.000000    0.000000
     0.000000    3.866000    0.000000
     0.000000    0.000000    3.866000
   Pd   Ir   Pt   Cu
     1     1     1     1
Direct
  0.000000  0.000000  0.000000
  0.500000  0.500000  0.000000
  0.500000  0.000000  0.500000
  0.000000  0.500000  0.500000
 
   24   24   24
 0.33928093660E+03 0.31360012955E+03 0.25138967847E+03 0.18151526801E+03 0.12210057631E+03
 0.76599669850E+02 0.44381122692E+02 0.23995293422E+02 0.12683169926E+02 0.10076440295E+02
 0.97308238800E+01 0.74795135114E+01 0.58693127869E+01 0.74795135114E+01 0.97308238800E+01
 0.10076440295E+02 0.12683169926E+02 0.23995293422E+02 0.44381122692E+02 0.76599669850E+02
 0.12210057631E+03 0.18151526801E+03 0.25138967847E+03 0.31360012955E+03 0.31362316771E+03
 0.28998157281E+03 0.23269768311E+03 0.16830617504E+03 0.11350876133E+03 0.71623955202E+02
 0.42101013584E+02 0.23271361159E+02 0.12819596103E+02 0.10544380335E+02 0.10384155114E+02
 0.84797205888E+01 0.70774232052E+01 0.84797205888E+01 0.10384155114E+02 0.10544380335E+02
 0.12819596103E+02 0.23271361159E+02 0.42101013584E+02 0.71623955202E+02 0.11350876133E+03
 0.16830617504E+03 0.23269768311E+03 0.28998157281E+03 0.25012735338E+03 0.23156654416E+03
 0.18653742526E+03 0.13575428066E+03 0.92402226322E+02 0.59455295369E+02 0.36494132289E+02
 0.21352309167E+02 0.13050235043E+02 0.11431580046E+02 0.11516111376E+02 0.10303851689E+02
 0.93540725188E+01 0.10303851689E+02 0.11516111376E+02 0.11431580046E+02 0.13050235043E+02
 0.21352309167E+02 0.36494132289E+02 0.59455295369E+02 0.92402226322E+02 0.13575428066E+03
 0.18653742526E+03 0.23156654416E+03 0.17716042043E+03 0.16447552069E+03 0.13359114564E+03
 0.98494679693E+02 0.68362007857E+02 0.45690411402E+02 0.29995295173E+02 0.18997526438E+02
 0.13379609147E+02 0.12416289620E+02 0.12611177276E+02 0.12055291502E+02 0.11570918243E+02
 0.12055291502E+02 0.12611177276E+02 0.12416289620E+02 0.13379609147E+02 0.18997526438E+02
 0.29995295173E+02 0.45690411402E+02 0.68362007857E+02 0.98494679693E+02 0.13359114564E+03
 0.16447552069E+03 0.11601802062E+03 0.10823323460E+03 0.89156323954E+02 0.67234612140E+02
 0.48319440065E+02 0.34246269736E+02 0.24180562796E+02 0.17374975828E+02 0.14723373502E+02
 0.14926450631E+02 0.15810331538E+02 0.16214963403E+02 0.16257463528E+02 0.16214963403E+02
 0.15810331538E+02 0.14926450631E+02 0.14723373502E+02 0.17374975828E+02 0.24180562796E+02
 0.34246269736E+02 0.48319440065E+02 0.67234612140E+02 0.89156323954E+02 0.10823323460E+03
 0.72205803015E+02 0.67881264595E+02 0.57203380224E+02 0.44795943147E+02 0.34021896993E+02
 0.25817845440E+02 0.20069321070E+02 0.17694020751E+02 0.18427303892E+02 0.20950034560E+02
 0.23936589205E+02 0.26286717302E+02 0.27176249529E+02 0.26286717302E+02 0.23936589205E+02
 0.20950034560E+02 0.18427303892E+02 0.17694020751E+02 0.20069321070E+02 0.25817845440E+02
 0.34021896993E+02 0.44795943147E+02 0.57203380224E+02 0.67881264595E+02 0.42659634920E+02
 0.40642864323E+02 0.35591804113E+02 0.29535525867E+02 0.23942696588E+02 0.19949282993E+02
 0.18749963553E+02 0.20604584869E+02 0.25029736065E+02 0.31355689546E+02 0.38241189374E+02
 0.43710647723E+02 0.45813053161E+02 0.43710647723E+02 0.38241189374E+02 0.31355689546E+02
 0.25029736065E+02 0.20604584869E+02 0.18749963553E+02 0.19949282993E+02 0.23942696588E+02
 0.29535525867E+02 0.35591804113E+02 0.40642864323E+02 0.23518704802E+02 0.22840652454E+02
 0.21019317296E+02 0.18738311408E+02 0.17133296945E+02 0.17452417995E+02 0.20419964486E+02
 0.26148948780E+02 0.34682301826E+02 0.45208399185E+02 0.55917557071E+02 0.64138760378E+02
 0.67251856188E+02 0.64138760378E+02 0.55917557071E+02 0.45208399185E+02 0.34682301826E+02
 0.26148948780E+02 0.20419964486E+02 0.17452417995E+02 0.17133296945E+02 0.18738311408E+02
 0.21019317296E+02 0.22840652454E+02 0.12470562727E+02 0.12590937129E+02 0.12793035394E+02
 0.13102075785E+02 0.14409474479E+02 0.18033356964E+02 0.24545460200E+02 0.34204675315E+02
 0.46390114010E+02 0.59843753383E+02 0.72757012324E+02 0.82456169489E+02 0.86109888127E+02
 0.82456169489E+02 0.72757012324E+02 0.59843753383E+02 0.46390114010E+02 0.34204675315E+02
 0.24545460200E+02 0.18033356964E+02 0.14409474479E+02 0.13102075785E+02 0.12793035394E+02
 0.12590937129E+02 0.94347336168E+01 0.99010157246E+01 0.10829543193E+02 0.11925461283E+02
 0.14492355971E+02 0.20365444200E+02 0.30336214940E+02 0.43795870959E+02 0.58804487697E+02
 0.74023603332E+02 0.88378257777E+02 0.99405977585E+02 0.10365027379E+03 0.99405977585E+02
 0.88378257777E+02 0.74023603332E+02 0.58804487697E+02 0.43795870959E+02 0.30336214940E+02
 0.20365444200E+02 0.14492355971E+02 0.11925461283E+02 0.10829543193E+02 0.99010157246E+01
 0.85168947108E+01 0.92120424185E+01 0.10523587314E+02 0.11922758374E+02 0.15281629887E+02
 0.23105447357E+02 0.36455431732E+02 0.53308668870E+02 0.70634273890E+02 0.87679444802E+02
 0.10447740254E+03 0.11822329682E+03 0.12371399291E+03 0.11822329682E+03 0.10447740254E+03
 0.87679444802E+02 0.70634273890E+02 0.53308668870E+02 0.36455431732E+02 0.23105447357E+02
 0.15281629887E+02 0.11922758374E+02 0.10523587314E+02 0.92120424185E+01 0.59756341013E+01
 0.70444196749E+01 0.91338581996E+01 0.11301691908E+02 0.15649441751E+02 0.25211833185E+02
 0.41206541549E+02 0.60551068293E+02 0.79713533626E+02 0.98812147944E+02 0.11879402174E+03
 0.13601762517E+03 0.14306894137E+03 0.13601762517E+03 0.11879402174E+03 0.98812147944E+02
 0.79713533626E+02 0.60551068293E+02 0.41206541549E+02 0.25211833185E+02 0.15649441751E+02
 0.11301691908E+02 0.91338581996E+01 0.70444196749E+01 0.43103265903E+01 0.55932377426E+01
 0.81569908442E+01 0.10817872582E+02 0.15687071392E+02 0.25995994616E+02 0.43012988050E+02
 0.63294542111E+02 0.83205285836E+02 0.10327798631E+03 0.12480157413E+03 0.14367856329E+03
 0.15146358013E+03 0.14367856329E+03 0.12480157413E+03 0.10327798631E+03 0.83205285836E+02
 0.63294542111E+02 0.43012988050E+02 0.25995994616E+02 0.15687071392E+02 0.10817872582E+02
 0.81569908442E+01 0.55932377426E+01 0.59756341013E+01 0.70444196749E+01 0.91338581996E+01
 0.11301691908E+02 0.15649441751E+02 0.25211833185E+02 0.41206541549E+02 0.60551068293E+02
 0.79713533626E+02 0.98812147944E+02 0.11879402174E+03 0.13601762517E+03 0.14306894137E+03
 0.13601762517E+03 0.11879402174E+03 0.98812147944E+02 0.79713533626E+02 0.60551068293E+02
 0.41206541549E+02 0.25211833185E+02 0.15649441751E+02 0.11301691908E+02 0.91338581996E+01
 0.70444196749E+01 0.85168947108E+01 0.92120424185E+01 0.10523587314E+02 0.11922758374E+02
 0.15281629887E+02 0.23105447357E+02 0.36455431732E+02 0.53308668870E+02 0.70634273890E+02
 0.87679444802E+02 0.10447740254E+03 0.11822329682E+03 0.12371399291E+03 0.11822329682E+03
 0.10447740254E+03 0.87679444802E+02 0.70634273890E+02 0.53308668870E+02 0.36455431732E+02
 0.23105447357E+02 0.15281629887E+02 0.11922758374E+02 0.10523587314E+02 0.92120424185E+01
 0.94347336168E+01 0.99010157246E+01 0.10829543193E+02 0.11925461283E+02 0.14492355971E+02
 0.20365444200E+02 0.30336214940E+02 0.43795870959E+02 0.58804487697E+02 0.74023603332E+02
 0.88378257777E+02 0.99405977585E+02 0.10365027379E+03 0.99405977585E+02 0.88378257777E+02
 0.74023603332E+02 0.58804487697E+02 0.43795870959E+02 0.30336214940E+02 0.20365444200E+02
 0.14492355971E+02 0.11925461283E+02 0.10829543193E+02 0.99010157246E+01 0.12470562727E+02
 0.12590937129E+02 0.12793035394E+02 0.13102075785E+02 0.14409474479E+02 0.18033356964E+02
 0.24545460200E+02 0.34204675315E+02 0.46390114010E+02 0.59843753383E+02 0.72757012324E+02
 0.82456169489E+02 0.86109888127E+02 0.82456169489E+02 0.72757012324E+02 0.59843753383E+02
 0.46390114010E+02 0.34204675315E+02 0.24545460200E+02 0.18033356964E+02 0.14409474479E+02
 0.13102075785E+02 0.12793035394E+02 0.12590937129E+02 0.23518704802E+02 0.22840652454E+02
 0.21019317296E+02 0.18738311408E+02 0.17133296945E+02 0.17452417995E+02 0.20419964486E+02
 0.26148948780E+02 0.34682301826E+02 0.45208399185E+02 0.55917557071E+02 0.64138760378E+02
 0.67251856188E+02 0.64138760378E+02 0.55917557071E+02 0.45208399185E+02 0.34682301826E+02
 0.26148948780E+02 0.20419964486E+02 0.17452417995E+02 0.17133296945E+02 0.18738311408E+02
 0.21019317296E+02 0.22840652454E+02 0.42659634920E+02 0.40642864323E+02 0.35591804113E+02
 0.29535525867E+02 0.23942696588E+02 0.19949282993E+02 0.18749963553E+02 0.20604584869E+02
 0.25029736065E+02 0.31355689546E+02 0.38241189374E+02 0.43710647723E+02 0.45813053161E+02
 0.43710647723E+02 0.38241189374E+02 0.31355689546E+02 0.25029736065E+02 0.20604584869E+02
 0.18749963553E+02 0.19949282993E+02 0.23942696588E+02 0.29535525867E+02 0.35591804113E+02
 0.40642864323E+02 0.72205803015E+02 0.67881264595E+02 0.57203380224E+02 0.44795943147E+02
 0.34021896993E+02 0.25817845440E+02 0.20069321070E+02 0.17694020751E+02 0.18427303892E+02
 0.20950034560E+02 0.23936589205E+02 0.26286717302E+02 0.27176249529E+02 0.26286717302E+02
 0.23936589205E+02 0.20950034560E+02 0.18427303892E+02 0.17694020751E+02 0.20069321070E+02
 0.25817845440E+02 0.34021896993E+02 0.44795943147E+02 0.57203380224E+02 0.67881264595E+02
 0.11601802062E+03 0.10823323460E+03 0.89156323954E+02 0.67234612140E+02 0.48319440065E+02
 0.34246269736E+02 0.24180562796E+02 0.17374975828E+02 0.14723373502E+02 0.14926450631E+02
 0.15810331538E+02 0.16214963403E+02 0.16257463528E+02 0.16214963403E+02 0.15810331538E+02
 0.14926450631E+02 0.14723373502E+02 0.17374975828E+02 0.24180562796E+02 0.34246269736E+02
 0.48319440065E+02 0.67234612140E+02 0.89156323954E+02 0.10823323460E+03 0.17716042043E+03
 0.16447552069E+03 0.13359114564E+03 0.98494679693E+02 0.68362007857E+02 0.45690411402E+02
 0.29995295173E+02 0.18997526438E+02 0.13379609147E+02 0.12416289620E+02 0.12611177276E+02
 0.12055291502E+02 0.11570918243E+02 0.12055291502E+02 0.12611177276E+02 0.12416289620E+02
 0.13379609147E+02 0.18997526438E+02 0.29995295173E+02 0.45690411402E+02 0.68362007857E+02
 0.98494679693E+02 0.13359114564E+03 0.16447552069E+03 0.25012735338E+03 0.23156654416E+03
 0.18653742526E+03 0.13575428066E+03 0.92402226322E+02 0.59455295369E+02 0.36494132289E+02
 0.21352309167E+02 0.13050235043E+02 0.11431580046E+02 0.11516111376E+02 0.10303851689E+02
 0.93540725188E+01 0.10303851689E+02 0.11516111376E+02 0.11431580046E+02 0.13050235043E+02
 0.21352309167E+02 0.36494132289E+02 0.59455295369E+02 0.92402226322E+02 0.13575428066E+03
 0.18653742526E+03 0.23156654416E+03 0.31362316771E+03 0.28998157281E+03 0.23269768311E+03
 0.16830617504E+03 0.11350876133E+03 0.71623955202E+02 0.42101013584E+02 0.23271361159E+02
 0.12819596103E+02 0.10544380335E+02 0.10384155114E+02 0.84797205888E+01 0.70774232052E+01
 0.84797205888E+01 0.10384155114E+02 0.10544380335E+02 0.12819596103E+02 0.23271361159E+02
 0.42101013584E+02 0.71623955202E+02 0.11350876133E+03 0.16830617504E+03 0.23269768311E+03
 0.28998157281E+03 0.31430746520E+03 0.29071785590E+03 0.23348134275E+03 0.16896290969E+03
 0.11387487810E+03 0.71716319082E+02 0.42067963966E+02 0.23233556331E+02 0.12823944652E+02
 0.10621337481E+02 0.10560897338E+02 0.87540310918E+01 0.73936633099E+01 0.87540310918E+01
 0.10560897338E+02 0.10621337481E+02 0.12823944652E+02 0.23233556331E+02 0.42067963966E+02
 0.71716319082E+02 0.11387487810E+03 0.16896290969E+03 0.23348134275E+03 0.29071785590E+03
 0.29172118570E+03 0.26989536970E+03 0.21692203875E+03 0.15716770534E+03 0.10614387645E+03
 0.67226723041E+02 0.40007615514E+02 0.22556235113E+02 0.12934168619E+02 0.11011626545E+02
 0.11098979860E+02 0.95964299569E+01 0.84219757315E+01 0.95964299569E+01 0.11098979860E+02
 0.11011626545E+02 0.12934168619E+02 0.22556235113E+02 0.40007615514E+02 0.67226723041E+02
 0.10614387645E+03 0.15716770534E+03 0.21692203875E+03 0.26989536970E+03 0.23518131511E+03
 0.21780854960E+03 0.17558662094E+03 0.12782752375E+03 0.87015069755E+02 0.56185738600E+02
 0.34902356625E+02 0.20759516505E+02 0.13114219233E+02 0.11741208299E+02 0.11997296098E+02
 0.11088304506E+02 0.10312858183E+02 0.11088304506E+02 0.11997296098E+02 0.11741208299E+02
 0.13114219233E+02 0.20759516505E+02 0.34902356625E+02 0.56185738600E+02 0.87015069755E+02
 0.12782752375E+03 0.17558662094E+03 0.21780854960E+03 0.16869034433E+03 0.15660947969E+03
 0.12715217033E+03 0.93629324365E+02 0.64928826448E+02 0.43559493665E+02 0.28880250482E+02
 0.18551741585E+02 0.13395233702E+02 0.12581328231E+02 0.12876001789E+02 0.12507188093E+02
 0.12131052743E+02 0.12507188093E+02 0.12876001789E+02 0.12581328231E+02 0.13395233702E+02
 0.18551741585E+02 0.28880250482E+02 0.43559493665E+02 0.64928826448E+02 0.93629324365E+02
 0.12715217033E+03 0.15660947969E+03 0.11124949737E+03 0.10375754664E+03 0.85390067576E+02
 0.64306494790E+02 0.46225111248E+02 0.32903690730E+02 0.23359475727E+02 0.17027539833E+02
 0.14642158211E+02 0.14897813088E+02 0.15789827313E+02 0.16246538576E+02 0.16325021754E+02
 0.16246538576E+02 0.15789827313E+02 0.14897813088E+02 0.14642158211E+02 0.17027539833E+02
 0.23359475727E+02 0.32903690730E+02 0.46225111248E+02 0.64306494790E+02 0.85390067576E+02
 0.10375754664E+03 0.69161537615E+02 0.65026474034E+02 0.54822273611E+02 0.42989295020E+02
 0.32742862241E+02 0.24898329579E+02 0.19474913511E+02 0.17333840325E+02 0.18124673344E+02
 0.20557569574E+02 0.23367998300E+02 0.25559369596E+02 0.26386229921E+02 0.25559369596E+02
 0.23367998300E+02 0.20557569574E+02 0.18124673344E+02 0.17333840325E+02 0.19474913511E+02
 0.24898329579E+02 0.32742862241E+02 0.42989295020E+02 0.54822273611E+02 0.65026474034E+02
 0.40835472288E+02 0.38940835132E+02 0.34192077822E+02 0.28472584117E+02 0.23134976110E+02
 0.19365143701E+02 0.18283440804E+02 0.20118671440E+02 0.24354578533E+02 0.30321552453E+02
 0.36749310435E+02 0.41814314151E+02 0.43752674080E+02 0.41814314151E+02 0.36749310435E+02
 0.30321552453E+02 0.24354578533E+02 0.20118671440E+02 0.18283440804E+02 0.19365143701E+02
 0.23134976110E+02 0.28472584117E+02 0.34192077822E+02 0.38940835132E+02 0.22615833945E+02
 0.21971274857E+02 0.20260132200E+02 0.18156809329E+02 0.16719835600E+02 0.17090706057E+02
 0.19958888599E+02 0.25423508591E+02 0.33544679389E+02 0.43519738892E+02 0.53571438601E+02
 0.61209097013E+02 0.64083130264E+02 0.61209097013E+02 0.53571438601E+02 0.43519738892E+02
 0.33544679389E+02 0.25423508591E+02 0.19958888599E+02 0.17090706057E+02 0.16719835600E+02
 0.18156809329E+02 0.20260132200E+02 0.21971274857E+02 0.12239992453E+02 0.12330901081E+02
 0.12497594864E+02 0.12829279504E+02 0.14161472540E+02 0.17695441341E+02 0.23951566740E+02
 0.33221675727E+02 0.44977556988E+02 0.57872602371E+02 0.70020802247E+02 0.78961839703E+02
 0.82288871064E+02 0.78961839703E+02 0.70020802247E+02 0.57872602371E+02 0.44977556988E+02
 0.33221675727E+02 0.23951566740E+02 0.17695441341E+02 0.14161472540E+02 0.12829279504E+02
 0.12497594864E+02 0.12330901081E+02 0.96775748058E+01 0.10034020114E+02 0.10752846235E+02
 0.11714876550E+02 0.14200707340E+02 0.19909465583E+02 0.29540050956E+02 0.42682386285E+02
 0.57457446011E+02 0.72197998229E+02 0.85561549639E+02 0.95434752304E+02 0.99153850664E+02
 0.95434752304E+02 0.85561549639E+02 0.72197998229E+02 0.57457446011E+02 0.42682386285E+02
 0.29540050956E+02 0.19909465583E+02 0.14200707340E+02 0.11714876550E+02 0.10752846235E+02
 0.10034020114E+02 0.93531646748E+01 0.98472774879E+01 0.10744983618E+02 0.11811875319E+02
 0.14946527225E+02 0.22498556738E+02 0.35489450305E+02 0.52224894767E+02 0.69597486239E+02
 0.86156426888E+02 0.10145324572E+03 0.11331888139E+03 0.11793954370E+03 0.11331888139E+03
 0.10145324572E+03 0.86156426888E+02 0.69597486239E+02 0.52224894767E+02 0.35489450305E+02
 0.22498556738E+02 0.14946527225E+02 0.11811875319E+02 0.10744983618E+02 0.98472774879E+01
 0.76095669443E+01 0.83837555472E+01 0.98379039794E+01 0.11433007488E+02 0.15364467856E+02
 0.24513531929E+02 0.40146023559E+02 0.59569000691E+02 0.78996146455E+02 0.97493136301E+02
 0.11536323551E+03 0.12992264269E+03 0.13574230183E+03 0.12992264269E+03 0.11536323551E+03
 0.97493136301E+02 0.78996146455E+02 0.59569000691E+02 0.40146023559E+02 0.24513531929E+02
 0.15364467856E+02 0.11433007488E+02 0.98379039794E+01 0.83837555472E+01 0.63495074847E+01
 0.72949485580E+01 0.91194605780E+01 0.11090072651E+02 0.15446220771E+02 0.25271923528E+02
 0.41924806791E+02 0.62364506265E+02 0.82618059909E+02 0.10201779592E+03 0.12114951950E+03
 0.13701697295E+03 0.14341301125E+03 0.13701697295E+03 0.12114951950E+03 0.10201779592E+03
 0.82618059909E+02 0.62364506265E+02 0.41924806791E+02 0.25271923528E+02 0.15446220771E+02
 0.11090072651E+02 0.91194605780E+01 0.72949485580E+01 0.76095669443E+01 0.83837555472E+01
 0.98379039794E+01 0.11433007488E+02 0.15364467856E+02 0.24513531929E+02 0.40146023559E+02
 0.59569000691E+02 0.78996146455E+02 0.97493136301E+02 0.11536323551E+03 0.12992264269E+03
 0.13574230183E+03 0.12992264269E+03 0.11536323551E+03 0.97493136301E+02 0.78996146455E+02
 0.59569000691E+02 0.40146023559E+02 0.24513531929E+02 0.15364467856E+02 0.11433007488E+02
 0.98379039794E+01 0.83837555472E+01 0.93531646748E+01 0.98472774879E+01 0.10744983618E+02
 0.11811875319E+02 0.14946527225E+02 0.22498556738E+02 0.35489450305E+02 0.52224894767E+02
 0.69597486239E+02 0.86156426888E+02 0.10145324572E+03 0.11331888139E+03 0.11793954370E+03
 0.11331888139E+03 0.10145324572E+03 0.86156426888E+02 0.69597486239E+02 0.52224894767E+02
 0.35489450305E+02 0.22498556738E+02 0.14946527225E+02 0.11811875319E+02 0.10744983618E+02
 0.98472774879E+01 0.96775748058E+01 0.10034020114E+02 0.10752846235E+02 0.11714876550E+02
 0.14200707340E+02 0.19909465583E+02 0.29540050956E+02 0.42682386285E+02 0.57457446011E+02
 0.72197998229E+02 0.85561549639E+02 0.95434752304E+02 0.99153850664E+02 0.95434752304E+02
 0.85561549639E+02 0.72197998229E+02 0.57457446011E+02 0.42682386285E+02 0.29540050956E+02
 0.19909465583E+02 0.14200707340E+02 0.11714876550E+02 0.10752846235E+02 0.10034020114E+02
 0.12239992453E+02 0.12330901081E+02 0.12497594864E+02 0.12829279504E+02 0.14161472540E+02
 0.17695441341E+02 0.23951566740E+02 0.33221675727E+02 0.44977556988E+02 0.57872602371E+02
 0.70020802247E+02 0.78961839703E+02 0.82288871064E+02 0.78961839703E+02 0.70020802247E+02
 0.57872602371E+02 0.44977556988E+02 0.33221675727E+02 0.23951566740E+02 0.17695441341E+02
 0.14161472540E+02 0.12829279504E+02 0.12497594864E+02 0.12330901081E+02 0.22615833945E+02
 0.21971274857E+02 0.20260132200E+02 0.18156809329E+02 0.16719835600E+02 0.17090706057E+02
 0.19958888599E+02 0.25423508591E+02 0.33544679389E+02 0.43519738892E+02 0.53571438601E+02
 0.61209097013E+02 0.64083130264E+02 0.61209097013E+02 0.53571438601E+02 0.43519738892E+02
 0.33544679389E+02 0.25423508591E+02 0.19958888599E+02 0.17090706057E+02 0.16719835600E+02
 0.18156809329E+02 0.20260132200E+02 0.21971274857E+02 0.40835472288E+02 0.38940835132E+02
 0.34192077822E+02 0.28472584117E+02 0.23134976110E+02 0.19365143701E+02 0.18283440804E+02
 0.20118671440E+02 0.24354578533E+02 0.30321552453E+02 0.36749310435E+02 0.41814314151E+02
 0.43752674080E+02 0.41814314151E+02 0.36749310435E+02 0.30321552453E+02 0.24354578533E+02
 0.20118671440E+02 0.18283440804E+02 0.19365143701E+02 0.23134976110E+02 0.28472584117E+02
 0.34192077822E+02 0.38940835132E+02 0.69161537615E+02 0.65026474034E+02 0.54822273611E+02
 0.42989295020E+02 0.32742862241E+02 0.24898329579E+02 0.19474913511E+02 0.17333840325E+02
 0.18124673344E+02 0.20557569574E+02 0.23367998300E+02 0.25559369596E+02 0.26386229921E+02
 0.25559369596E+02 0.23367998300E+02 0.20557569574E+02 0.18124673344E+02 0.17333840325E+02
 0.19474913511E+02 0.24898329579E+02 0.32742862241E+02 0.42989295020E+02 0.54822273611E+02
 0.65026474034E+02 0.11124949737E+03 0.10375754664E+03 0.85390067576E+02 0.64306494790E+02
 0.46225111248E+02 0.32903690730E+02 0.23359475727E+02 0.17027539833E+02 0.14642158211E+02
 0.14897813088E+02 0.15789827313E+02 0.16246538576E+02 0.16325021754E+02 0.16246538576E+02
 0.15789827313E+02 0.14897813088E+02 0.14642158211E+02 0.17027539833E+02 0.23359475727E+02
 0.32903690730E+02 0.46225111248E+02 0.64306494790E+02 0.85390067576E+02 0.10375754664E+03
 0.16869034433E+03 0.15660947969E+03 0.12715217033E+03 0.93629324365E+02 0.64928826448E+02
 0.43559493665E+02 0.28880250482E+02 0.18551741585E+02 0.13395233702E+02 0.12581328231E+02
 0.12876001789E+02 0.12507188093E+02 0.12131052743E+02 0.12507188093E+02 0.12876001789E+02
 0.12581328231E+02 0.13395233702E+02 0.18551741585E+02 0.28880250482E+02 0.43559493665E+02
 0.64928826448E+02 0.93629324365E+02 0.12715217033E+03 0.15660947969E+03 0.23518131511E+03
 0.21780854960E+03 0.17558662094E+03 0.12782752375E+03 0.87015069755E+02 0.56185738600E+02
 0.34902356625E+02 0.20759516505E+02 0.13114219233E+02 0.11741208299E+02 0.11997296098E+02
 0.11088304506E+02 0.10312858183E+02 0.11088304506E+02 0.11997296098E+02 0.11741208299E+02
 0.13114219233E+02 0.20759516505E+02 0.34902356625E+02 0.56185738600E+02 0.87015069755E+02
 0.12782752375E+03 0.17558662094E+03 0.21780854960E+03 0.29172118570E+03 0.26989536970E+03
 0.21692203875E+03 0.15716770534E+03 0.10614387645E+03 0.67226723041E+02 0.40007615514E+02
 0.22556235113E+02 0.12934168619E+02 0.11011626545E+02 0.11098979860E+02 0.95964299569E+01
 0.84219757315E+01 0.95964299569E+01 0.11098979860E+02 0.11011626545E+02 0.12934168619E+02
 0.22556235113E+02 0.40007615514E+02 0.67226723041E+02 0.10614387645E+03 0.15716770534E+03
 0.21692203875E+03 0.26989536970E+03 0.25201930839E+03 0.23360088200E+03 0.18868510727E+03
 0.13750840605E+03 0.93316158323E+02 0.59617232821E+02 0.36342007490E+02 0.21199794189E+02
 0.12995690451E+02 0.11519799762E+02 0.11793367068E+02 0.10771871007E+02 0.99061666313E+01
 0.10771871007E+02 0.11793367068E+02 0.11519799762E+02 0.12995690451E+02 0.21199794189E+02
 0.36342007490E+02 0.59617232821E+02 0.93316158323E+02 0.13750840605E+03 0.18868510727E+03
 0.23360088200E+03 0.23643297872E+03 0.21915366829E+03 0.17700173763E+03 0.12897185842E+03
 0.87595298870E+02 0.56270097561E+02 0.34786563726E+02 0.20646773168E+02 0.13063830449E+02
 0.11773347744E+02 0.12134603873E+02 0.11332764390E+02 0.10605076600E+02 0.11332764390E+02
 0.12134603873E+02 0.11773347744E+02 0.13063830449E+02 0.20646773168E+02 0.34786563726E+02
 0.56270097561E+02 0.87595298870E+02 0.12897185842E+03 0.17700173763E+03 0.21915366829E+03
 0.19591591624E+03 0.18165663213E+03 0.14683503635E+03 0.10714148768E+03 0.73157239254E+02
 0.47914587046E+02 0.30837927901E+02 0.19173938386E+02 0.13167201715E+02 0.12243955380E+02
 0.12675645642E+02 0.12284164215E+02 0.11843518629E+02 0.12284164215E+02 0.12675645642E+02
 0.12243955380E+02 0.13167201715E+02 0.19173938386E+02 0.30837927901E+02 0.47914587046E+02
 0.73157239254E+02 0.10714148768E+03 0.14683503635E+03 0.18165663213E+03 0.14484495585E+03
 0.13451344300E+03 0.10923738767E+03 0.80390978039E+02 0.55882849506E+02 0.38075316898E+02
 0.25915744093E+02 0.17353941854E+02 0.13365526470E+02 0.12854804168E+02 0.13262647309E+02
 0.13211988096E+02 0.13039401058E+02 0.13211988096E+02 0.13262647309E+02 0.12854804168E+02
 0.13365526470E+02 0.17353941854E+02 0.25915744093E+02 0.38075316898E+02 0.55882849506E+02
 0.80390978039E+02 0.10923738767E+03 0.13451344300E+03 0.97070643832E+02 0.90537237282E+02
 0.74513239308E+02 0.56181677705E+02 0.40669567087E+02 0.29397183950E+02 0.21188564927E+02
 0.16096045498E+02 0.14378569197E+02 0.14749752315E+02 0.15616554999E+02 0.16138859499E+02
 0.16275225574E+02 0.16138859499E+02 0.15616554999E+02 0.14749752315E+02 0.14378569197E+02
 0.16096045498E+02 0.21188564927E+02 0.29397183950E+02 0.40669567087E+02 0.56181677705E+02
 0.74513239308E+02 0.90537237282E+02 0.60347117074E+02 0.56815465122E+02 0.48113276680E+02
 0.38056993706E+02 0.29333060330E+02 0.22469015050E+02 0.17946830493E+02 0.16385827419E+02
 0.17286884890E+02 0.19488623660E+02 0.21872641685E+02 0.23672592215E+02 0.24342997038E+02
 0.23672592215E+02 0.21872641685E+02 0.19488623660E+02 0.17286884890E+02 0.16385827419E+02
 0.17946830493E+02 0.22469015050E+02 0.29333060330E+02 0.38056993706E+02 0.48113276680E+02
 0.56815465122E+02 0.35868199659E+02 0.34307012408E+02 0.30370386652E+02 0.25521163549E+02
 0.20927595216E+02 0.17824410224E+02 0.17080624232E+02 0.18844111079E+02 0.22573305150E+02
 0.27596348695E+02 0.32862678989E+02 0.36928899841E+02 0.38467466544E+02 0.36928899841E+02
 0.32862678989E+02 0.27596348695E+02 0.22573305150E+02 0.18844111079E+02 0.17080624232E+02
 0.17824410224E+02 0.20927595216E+02 0.25521163549E+02 0.30370386652E+02 0.34307012408E+02
 0.20192558439E+02 0.19647786986E+02 0.18239519676E+02 0.16589192213E+02 0.15568173165E+02
 0.16075612549E+02 0.18704709220E+02 0.23503699907E+02 0.30494041342E+02 0.38972470873E+02
 0.47331675960E+02 0.53534462980E+02 0.55833955253E+02 0.53534462980E+02 0.47331675960E+02
 0.38972470873E+02 0.30494041342E+02 0.23503699907E+02 0.18704709220E+02 0.16075612549E+02
 0.15568173165E+02 0.16589192213E+02 0.18239519676E+02 0.19647786986E+02 0.11590340395E+02
 0.11642809813E+02 0.11777807567E+02 0.12163927031E+02 0.13486513381E+02 0.16707841079E+02
 0.22278074487E+02 0.30459038778E+02 0.40949876880E+02 0.52305307933E+02 0.62552897475E+02
 0.69720257400E+02 0.72300940724E+02 0.69720257400E+02 0.62552897475E+02 0.52305307933E+02
 0.40949876880E+02 0.30459038778E+02 0.22278074487E+02 0.16707841079E+02 0.13486513381E+02
 0.12163927031E+02 0.11777807567E+02 0.11642809813E+02 0.97933195742E+01 0.99889416048E+01
 0.10421114034E+02 0.11209873847E+02 0.13474662909E+02 0.18632197449E+02 0.27210899406E+02
 0.39251049223E+02 0.53146880017E+02 0.66605459212E+02 0.77706565380E+02 0.85043515165E+02
 0.87619646254E+02 0.85043515165E+02 0.77706565380E+02 0.66605459212E+02 0.53146880017E+02
 0.39251049223E+02 0.27210899406E+02 0.18632197449E+02 0.13474662909E+02 0.11209873847E+02
 0.10421114034E+02 0.99889416048E+01 0.10125355473E+02 0.10340119194E+02 0.10707487622E+02
 0.11385248043E+02 0.14100529966E+02 0.20841702587E+02 0.32552445107E+02 0.48468583451E+02
 0.65566632377E+02 0.80943694317E+02 0.93003087718E+02 0.10083308292E+03 0.10358265833E+03
 0.10083308292E+03 0.93003087718E+02 0.80943694317E+02 0.65566632377E+02 0.48468583451E+02
 0.32552445107E+02 0.20841702587E+02 0.14100529966E+02 0.11385248043E+02 0.10707487622E+02
 0.10340119194E+02 0.95229902544E+01 0.98780495939E+01 0.10484357460E+02 0.11354931708E+02
 0.14566542668E+02 0.22593369095E+02 0.36814957432E+02 0.55744897447E+02 0.75374604613E+02
 0.92518808193E+02 0.10589562816E+03 0.11473799196E+03 0.11790003434E+03 0.11473799196E+03
 0.10589562816E+03 0.92518808193E+02 0.75374604613E+02 0.55744897447E+02 0.36814957432E+02
 0.22593369095E+02 0.14566542668E+02 0.11354931708E+02 0.10484357460E+02 0.98780495939E+01
 0.89100171529E+01 0.93661316124E+01 0.10177056884E+02 0.11238672653E+02 0.14712344010E+02
 0.23265575844E+02 0.38461420789E+02 0.58546865026E+02 0.79174524175E+02 0.97091787258E+02
 0.11113889830E+03 0.12053726914E+03 0.12392926708E+03 0.12053726914E+03 0.11113889830E+03
 0.97091787258E+02 0.79174524175E+02 0.58546865026E+02 0.38461420789E+02 0.23265575844E+02
 0.14712344010E+02 0.11238672653E+02 0.10177056884E+02 0.93661316124E+01 0.95229902544E+01
 0.98780495939E+01 0.10484357460E+02 0.11354931708E+02 0.14566542668E+02 0.22593369095E+02
 0.36814957432E+02 0.55744897447E+02 0.75374604613E+02 0.92518808193E+02 0.10589562816E+03
 0.11473799196E+03 0.11790003434E+03 0.11473799196E+03 0.10589562816E+03 0.92518808193E+02
 0.75374604613E+02 0.55744897447E+02 0.36814957432E+02 0.22593369095E+02 0.14566542668E+02
 0.11354931708E+02 0.10484357460E+02 0.98780495939E+01 0.10125355473E+02 0.10340119194E+02
 0.10707487622E+02 0.11385248043E+02 0.14100529966E+02 0.20841702587E+02 0.32552445107E+02
 0.48468583451E+02 0.65566632377E+02 0.80943694317E+02 0.93003087718E+02 0.10083308292E+03
 0.10358265833E+03 0.10083308292E+03 0.93003087718E+02 0.80943694317E+02 0.65566632377E+02
 0.48468583451E+02 0.32552445107E+02 0.20841702587E+02 0.14100529966E+02 0.11385248043E+02
 0.10707487622E+02 0.10340119194E+02 0.97933195742E+01 0.99889416048E+01 0.10421114034E+02
 0.11209873847E+02 0.13474662909E+02 0.18632197449E+02 0.27210899406E+02 0.39251049223E+02
 0.53146880017E+02 0.66605459212E+02 0.77706565380E+02 0.85043515165E+02 0.87619646254E+02
 0.85043515165E+02 0.77706565380E+02 0.66605459212E+02 0.53146880017E+02 0.39251049223E+02
 0.27210899406E+02 0.18632197449E+02 0.13474662909E+02 0.11209873847E+02 0.10421114034E+02
 0.99889416048E+01 0.11590340395E+02 0.11642809813E+02 0.11777807567E+02 0.12163927031E+02
 0.13486513381E+02 0.16707841079E+02 0.22278074487E+02 0.30459038778E+02 0.40949876880E+02
 0.52305307933E+02 0.62552897475E+02 0.69720257400E+02 0.72300940724E+02 0.69720257400E+02
 0.62552897475E+02 0.52305307933E+02 0.40949876880E+02 0.30459038778E+02 0.22278074487E+02
 0.16707841079E+02 0.13486513381E+02 0.12163927031E+02 0.11777807567E+02 0.11642809813E+02
 0.20192558439E+02 0.19647786986E+02 0.18239519676E+02 0.16589192213E+02 0.15568173165E+02
 0.16075612549E+02 0.18704709220E+02 0.23503699907E+02 0.30494041342E+02 0.38972470873E+02
 0.47331675960E+02 0.53534462980E+02 0.55833955253E+02 0.53534462980E+02 0.47331675960E+02
 0.38972470873E+02 0.30494041342E+02 0.23503699907E+02 0.18704709220E+02 0.16075612549E+02
 0.15568173165E+02 0.16589192213E+02 0.18239519676E+02 0.19647786986E+02 0.35868199659E+02
 0.34307012408E+02 0.30370386652E+02 0.25521163549E+02 0.20927595216E+02 0.17824410224E+02
 0.17080624232E+02 0.18844111079E+02 0.22573305150E+02 0.27596348695E+02 0.32862678989E+02
 0.36928899841E+02 0.38467466544E+02 0.36928899841E+02 0.32862678989E+02 0.27596348695E+02
 0.22573305150E+02 0.18844111079E+02 0.17080624232E+02 0.17824410224E+02 0.20927595216E+02
 0.25521163549E+02 0.30370386652E+02 0.34307012408E+02 0.60347117074E+02 0.56815465122E+02
 0.48113276680E+02 0.38056993706E+02 0.29333060330E+02 0.22469015050E+02 0.17946830493E+02
 0.16385827419E+02 0.17286884890E+02 0.19488623660E+02 0.21872641685E+02 0.23672592215E+02
 0.24342997038E+02 0.23672592215E+02 0.21872641685E+02 0.19488623660E+02 0.17286884890E+02