   4   4   0   0
  0.1444527E+02  0.3866000E-09  0.3866000E-09  0.3866000E-09  0.5000000E-15
  1.000000000000000E-004
  CAR 
 unknown system                          
     27.59907160     -1.83148806  301      8.87669255      1.00000000
     -1.831  0.0000E+00  0.0000E+00
     -1.733  0.0000E+00  0.0000E+00
     -1.635  0.0000E+00  0.0000E+00
     -1.537  0.0000E+00  0.0000E+00
     -1.439 -0.3226E-28 -0.3165E-29
     -1.341 -0.6328E-25 -0.6211E-26
     -1.243 -0.7639E-22 -0.7500E-23
     -1.145 -0.5671E-19 -0.5571E-20
     -1.047 -0.2586E-16 -0.2543E-17
     -0.949 -0.7013E-14 -0.6906E-15
     -0.850 -0.1195E-11 -0.1179E-12
     -0.752 -0.1242E-09 -0.1230E-10
     -0.654 -0.7843E-08 -0.7817E-09
     -0.556 -0.2989E-06 -0.3011E-07
     -0.458 -0.6801E-05 -0.6973E-06
     -0.360 -0.9056E-04 -0.9582E-05
     -0.262 -0.6767E-03 -0.7597E-04
     -0.164 -0.2530E-02 -0.3242E-03
     -0.066 -0.2402E-02 -0.5599E-03
      0.032  0.1335E-01  0.7500E-03
      0.131  0.4759E-01  0.5419E-02
      0.229  0.6121E-01  0.1142E-01
      0.327  0.2614E-01  0.1399E-01
      0.425 -0.4377E-02  0.1356E-01
      0.523  0.7113E-01  0.2054E-01
      0.621  0.2644E+00  0.4647E-01
      0.719  0.3678E+00  0.8255E-01
      0.817  0.2206E+00  0.1042E+00
      0.915  0.5227E-01  0.1093E+00
      1.013  0.2146E+00  0.1304E+00
      1.112  0.6254E+00  0.1917E+00
      1.210  0.7260E+00  0.2629E+00
      1.308  0.3840E+00  0.3006E+00
      1.406  0.1938E+00  0.3196E+00
      1.504  0.4029E+00  0.3592E+00
      1.602  0.5595E+00  0.4140E+00
      1.700  0.3798E+00  0.4513E+00
      1.798  0.1010E+00  0.4612E+00
      1.896  0.1286E-01  0.4625E+00
      1.994  0.2281E+00  0.4849E+00
      2.093  0.5708E+00  0.5409E+00
      2.191  0.7298E+00  0.6124E+00
      2.289  0.9372E+00  0.7044E+00
      2.387  0.1495E+01  0.8510E+00
      2.485  0.1886E+01  0.1036E+01
      2.583  0.1616E+01  0.1195E+01
      2.681  0.9468E+00  0.1287E+01
      2.779  0.6903E+00  0.1355E+01
      2.877  0.1341E+01  0.1487E+01
      2.976  0.2309E+01  0.1713E+01
      3.074  0.2762E+01  0.1984E+01
      3.172  0.2598E+01  0.2239E+01
      3.270  0.2145E+01  0.2449E+01
      3.368  0.2052E+01  0.2651E+01
      3.466  0.3149E+01  0.2960E+01
      3.564  0.4720E+01  0.3423E+01
      3.662  0.5090E+01  0.3922E+01
      3.760  0.4893E+01  0.4402E+01
      3.858  0.5536E+01  0.4945E+01
      3.957  0.6662E+01  0.5598E+01
      4.055  0.7507E+01  0.6335E+01
      4.153  0.7402E+01  0.7061E+01
      4.251  0.5993E+01  0.7649E+01
      4.349  0.4699E+01  0.8110E+01
      4.447  0.5486E+01  0.8648E+01
      4.545  0.7495E+01  0.9383E+01
      4.643  0.7815E+01  0.1015E+02
      4.741  0.5749E+01  0.1071E+02
      4.839  0.3457E+01  0.1105E+02
      4.938  0.2868E+01  0.1133E+02
      5.036  0.3800E+01  0.1171E+02
      5.134  0.5037E+01  0.1220E+02
      5.232  0.6149E+01  0.1280E+02
      5.330  0.6987E+01  0.1349E+02
      5.428  0.7230E+01  0.1420E+02
      5.526  0.7185E+01  0.1490E+02
      5.624  0.7360E+01  0.1563E+02
      5.722  0.7540E+01  0.1637E+02
      5.820  0.7631E+01  0.1711E+02
      5.919  0.8437E+01  0.1794E+02
      6.017  0.9704E+01  0.1889E+02
      6.115  0.1019E+02  0.1989E+02
      6.213  0.9713E+01  0.2085E+02
      6.311  0.9176E+01  0.2175E+02
      6.409  0.9613E+01  0.2269E+02
      6.507  0.1091E+02  0.2376E+02
      6.605  0.1227E+02  0.2496E+02
      6.703  0.1279E+02  0.2622E+02
      6.801  0.1164E+02  0.2736E+02
      6.900  0.9061E+01  0.2825E+02
      6.998  0.6474E+01  0.2889E+02
      7.096  0.5467E+01  0.2942E+02
      7.194  0.5985E+01  0.3001E+02
      7.292  0.6619E+01  0.3066E+02
      7.390  0.6446E+01  0.3129E+02
      7.488  0.5514E+01  0.3183E+02
      7.586  0.4710E+01  0.3229E+02
      7.684  0.4471E+01  0.3273E+02
      7.782  0.4570E+01  0.3318E+02
      7.881  0.5528E+01  0.3372E+02
      7.979  0.7146E+01  0.3442E+02
      8.077  0.7616E+01  0.3517E+02
      8.175  0.6743E+01  0.3583E+02
      8.273  0.6353E+01  0.3646E+02
      8.371  0.6786E+01  0.3712E+02
      8.469  0.7016E+01  0.3781E+02
      8.567  0.6641E+01  0.3846E+02
      8.665  0.5656E+01  0.3902E+02
      8.764  0.4708E+01  0.3948E+02
      8.862  0.4595E+01  0.3993E+02
      8.960  0.4629E+01  0.4038E+02
      9.058  0.4099E+01  0.4079E+02
      9.156  0.3683E+01  0.4115E+02
      9.254  0.3637E+01  0.4150E+02
      9.352  0.3293E+01  0.4183E+02
      9.450  0.2733E+01  0.4209E+02
      9.548  0.2404E+01  0.4233E+02
      9.646  0.2096E+01  0.4254E+02
      9.745  0.1810E+01  0.4271E+02
      9.843  0.1715E+01  0.4288E+02
      9.941  0.1605E+01  0.4304E+02
     10.039  0.1293E+01  0.4317E+02
     10.137  0.8680E+00  0.4325E+02
     10.235  0.8047E+00  0.4333E+02
     10.333  0.1132E+01  0.4344E+02
     10.431  0.1094E+01  0.4355E+02
     10.529  0.5604E+00  0.4360E+02
     10.627  0.2902E+00  0.4363E+02
     10.726  0.6593E+00  0.4370E+02
     10.824  0.1267E+01  0.4382E+02
     10.922  0.1635E+01  0.4398E+02
     11.020  0.1544E+01  0.4413E+02
     11.118  0.1022E+01  0.4423E+02
     11.216  0.5320E+00  0.4429E+02
     11.314  0.4551E+00  0.4433E+02
     11.412  0.6152E+00  0.4439E+02
     11.510  0.7417E+00  0.4446E+02
     11.608  0.8705E+00  0.4455E+02
     11.707  0.1030E+01  0.4465E+02
     11.805  0.1099E+01  0.4476E+02
     11.903  0.9777E+00  0.4485E+02
     12.001  0.6104E+00  0.4491E+02
     12.099  0.2927E+00  0.4494E+02
     12.197  0.3374E+00  0.4497E+02
     12.295  0.4416E+00  0.4502E+02
     12.393  0.3453E+00  0.4505E+02
     12.491  0.3451E+00  0.4509E+02
     12.589  0.6383E+00  0.4515E+02
     12.688  0.1142E+01  0.4526E+02
     12.786  0.1581E+01  0.4542E+02
     12.884  0.1713E+01  0.4558E+02
     12.982  0.1795E+01  0.4576E+02
     13.080  0.1759E+01  0.4593E+02
     13.178  0.1264E+01  0.4606E+02
     13.276  0.7253E+00  0.4613E+02
     13.374  0.6728E+00  0.4619E+02
     13.472  0.9184E+00  0.4628E+02
     13.571  0.9298E+00  0.4637E+02
     13.669  0.7558E+00  0.4645E+02
     13.767  0.1092E+01  0.4656E+02
     13.865  0.1800E+01  0.4673E+02
     13.963  0.1867E+01  0.4692E+02
     14.061  0.1389E+01  0.4705E+02
     14.159  0.1050E+01  0.4716E+02
     14.257  0.7810E+00  0.4723E+02
     14.355  0.6224E+00  0.4729E+02
     14.453  0.6524E+00  0.4736E+02
     14.552  0.5221E+00  0.4741E+02
     14.650  0.1851E+00  0.4743E+02
     14.748 -0.4776E-01  0.4742E+02
     14.846 -0.3288E-01  0.4742E+02
     14.944  0.2804E+00  0.4745E+02
     15.042  0.8285E+00  0.4753E+02
     15.140  0.1280E+01  0.4765E+02
     15.238  0.1346E+01  0.4778E+02
     15.336  0.1237E+01  0.4791E+02
     15.434  0.1581E+01  0.4806E+02
     15.533  0.2249E+01  0.4828E+02
     15.631  0.2329E+01  0.4851E+02
     15.729  0.1853E+01  0.4869E+02
     15.827  0.1401E+01  0.4883E+02
     15.925  0.1076E+01  0.4894E+02
     16.023  0.1059E+01  0.4904E+02
     16.121  0.1435E+01  0.4918E+02
     16.219  0.1774E+01  0.4935E+02
     16.317  0.1501E+01  0.4950E+02
     16.415  0.6960E+00  0.4957E+02
     16.514  0.8930E-01  0.4958E+02
     16.612 -0.4068E-02  0.4958E+02
     16.710  0.3371E+00  0.4961E+02
     16.808  0.1240E+01  0.4973E+02
     16.906  0.2338E+01  0.4996E+02
     17.004  0.2484E+01  0.5021E+02
     17.102  0.1429E+01  0.5035E+02
     17.200  0.3029E+00  0.5038E+02
     17.298 -0.4342E-01  0.5037E+02
     17.396  0.3816E+00  0.5041E+02
     17.495  0.1159E+01  0.5052E+02
     17.593  0.1637E+01  0.5068E+02
     17.691  0.1561E+01  0.5084E+02
     17.789  0.1682E+01  0.5100E+02
     17.887  0.2485E+01  0.5124E+02
     17.985  0.2862E+01  0.5153E+02
     18.083  0.2000E+01  0.5172E+02
     18.181  0.8284E+00  0.5180E+02
     18.279  0.4141E+00  0.5184E+02
     18.377  0.6951E+00  0.5191E+02
     18.476  0.1109E+01  0.5202E+02
     18.574  0.1424E+01  0.5216E+02
     18.672  0.1586E+01  0.5232E+02
     18.770  0.1458E+01  0.5246E+02
     18.868  0.1123E+01  0.5257E+02
     18.966  0.1053E+01  0.5267E+02
     19.064  0.1261E+01  0.5280E+02
     19.162  0.1116E+01  0.5291E+02
     19.260  0.7403E+00  0.5298E+02
     19.359  0.8370E+00  0.5306E+02
     19.457  0.1231E+01  0.5318E+02
     19.555  0.1363E+01  0.5331E+02
     19.653  0.1304E+01  0.5344E+02
     19.751  0.1503E+01  0.5359E+02
     19.849  0.2010E+01  0.5379E+02
     19.947  0.2291E+01  0.5401E+02
     20.045  0.2278E+01  0.5424E+02
     20.143  0.2296E+01  0.5446E+02
     20.241  0.2018E+01  0.5466E+02
     20.340  0.1483E+01  0.5480E+02
     20.438  0.1514E+01  0.5495E+02
     20.536  0.1896E+01  0.5514E+02
     20.634  0.1666E+01  0.5530E+02
     20.732  0.1004E+01  0.5540E+02
     20.830  0.6218E+00  0.5546E+02
     20.928  0.5844E+00  0.5552E+02
     21.026  0.9020E+00  0.5561E+02
     21.124  0.1621E+01  0.5577E+02
     21.222  0.2209E+01  0.5598E+02
     21.321  0.2199E+01  0.5620E+02
     21.419  0.1943E+01  0.5639E+02
     21.517  0.1914E+01  0.5658E+02
     21.615  0.2055E+01  0.5678E+02
     21.713  0.2022E+01  0.5698E+02
     21.811  0.1790E+01  0.5715E+02
     21.909  0.1757E+01  0.5733E+02
     22.007  0.1962E+01  0.5752E+02
     22.105  0.1949E+01  0.5771E+02
     22.203  0.1882E+01  0.5789E+02
     22.302  0.2089E+01  0.5810E+02
     22.400  0.2140E+01  0.5831E+02
     22.498  0.1692E+01  0.5847E+02
     22.596  0.9536E+00  0.5857E+02
     22.694  0.4773E+00  0.5861E+02
     22.792  0.6298E+00  0.5868E+02
     22.890  0.1171E+01  0.5879E+02
     22.988  0.1631E+01  0.5895E+02
     23.086  0.1596E+01  0.5911E+02
     23.184  0.9940E+00  0.5921E+02
     23.283  0.3791E+00  0.5924E+02
     23.381  0.2717E+00  0.5927E+02
     23.479  0.4367E+00  0.5931E+02
     23.577  0.3828E+00  0.5935E+02
     23.675  0.1410E+00  0.5936E+02
     23.773 -0.4650E-02  0.5936E+02
     23.871 -0.2125E-01  0.5936E+02
     23.969 -0.7597E-02  0.5936E+02
     24.067 -0.3739E-02  0.5936E+02
     24.166 -0.1360E-01  0.5936E+02
     24.264 -0.3335E-01  0.5936E+02
     24.362  0.6641E-03  0.5936E+02
     24.460  0.2114E+00  0.5938E+02
     24.558  0.6040E+00  0.5944E+02
     24.656  0.1017E+01  0.5953E+02
     24.754  0.1166E+01  0.5965E+02
     24.852  0.8066E+00  0.5973E+02
     24.950  0.2461E+00  0.5975E+02
     25.048 -0.3551E-01  0.5975E+02
     25.147 -0.6967E-01  0.5974E+02
     25.245 -0.4537E-01  0.5974E+02
     25.343  0.9765E-01  0.5975E+02
     25.441  0.4676E+00  0.5979E+02
     25.539  0.8372E+00  0.5988E+02
     25.637  0.8188E+00  0.5996E+02
     25.735  0.4338E+00  0.6000E+02
     25.833  0.8085E-01  0.6001E+02
     25.931 -0.3401E-01  0.6000E+02
     26.029 -0.2338E-01  0.6000E+02
     26.128 -0.5764E-02  0.6000E+02
     26.226 -0.7468E-03  0.6000E+02
     26.324 -0.5525E-04  0.6000E+02
     26.422 -0.2410E-05  0.6000E+02
     26.520 -0.6300E-07  0.6000E+02
     26.618 -0.9956E-09  0.6000E+02
     26.716 -0.9568E-11  0.6000E+02
     26.814 -0.5620E-13  0.6000E+02
     26.912 -0.2897E-15  0.6000E+02
     27.010  0.0000E+00  0.6000E+02
     27.109  0.0000E+00  0.6000E+02
     27.207  0.0000E+00  0.6000E+02
     27.305  0.0000E+00  0.6000E+02
     27.403  0.0000E+00  0.6000E+02
     27.501  0.0000E+00  0.6000E+02
     27.599  0.0000E+00  0.6000E+02
