    4    4    1    1
  0.1444527E+02  0.3866000E-09  0.3866000E-09  0.3866000E-09  0.5000000E-15
  1.000000000000000E-004
  CAR 
 unknown system                          
     40     27     30
 
  0.0000000E+00  0.0000000E+00  0.0000000E+00  0.8000000E-02
    1        0.168512   1.000000
    2        2.562468   1.000000
    3        3.465482   1.000000
    4        3.507317   1.000000
    5        3.639653   1.000000
    6        3.851279   1.000000
    7        4.068205   1.000000
    8        6.050241   1.000000
    9        6.110085   1.000000
   10        6.255131   1.000000
   11        7.636250   1.000000
   12        8.048802   1.000000
   13        8.148290   1.000002
   14        8.274720   1.000088
   15        8.469741   1.007134
   16        8.845411   0.630585
   17        9.261943  -0.010071
   18        9.330235  -0.003067
   19        9.745141  -0.000000
   20       10.063105  -0.000000
   21       10.680746  -0.000000
   22       11.493026  -0.000000
   23       11.508394  -0.000000
   24       11.518050  -0.000000
   25       17.957667   0.000000
   26       18.213264   0.000000
   27       19.792802   0.000000
   28       20.357908   0.000000
   29       20.528997   0.000000
   30       20.799256   0.000000
 
  0.2000000E+00  0.0000000E+00  0.0000000E+00  0.1600000E-01
    1        0.624540   1.000000
    2        2.849293   1.000000
    3        3.521834   1.000000
    4        3.808772   1.000000
    5        3.927931   1.000000
    6        3.929374   1.000000
    7        4.402172   1.000000
    8        5.845163   1.000000
    9        6.079133   1.000000
   10        6.223260   1.000000
   11        7.110470   1.000000
   12        7.128675   1.000000
   13        7.509030   1.000000
   14        7.586810   1.000000
   15        7.631086   1.000000
   16        8.308147   1.000219
   17        8.495948   1.010775
   18        8.870243   0.527275
   19        8.951256   0.207490
   20        9.422905  -0.000388
   21        9.737319  -0.000000
   22       10.704364  -0.000000
   23       13.151004  -0.000000
   24       13.154677  -0.000000
   25       17.898190   0.000000
   26       17.969057   0.000000
   27       20.476769   0.000000
   28       20.535997   0.000000
   29       20.742961   0.000000
   30       21.120823   0.000000
 
  0.0000000E+00  0.2000000E+00  0.0000000E+00  0.1600000E-01
    1        0.686550   1.000000
    2        2.886356   1.000000
    3        3.542952   1.000000
    4        3.780621   1.000000
    5        3.876686   1.000000
    6        3.904330   1.000000
    7        4.413071   1.000000
    8        6.039739   1.000000
    9        6.170859   1.000000
   10        6.253535   1.000000
   11        6.832759   1.000000
   12        7.021363   1.000000
   13        7.180585   1.000000
   14        8.051631   1.000000
   15        8.305736   1.000206
   16        8.538161   1.018869
   17        8.620343   1.034995
   18        8.786229   0.842796
   19        8.914764   0.342096
   20        9.195231  -0.023404
   21        9.278027  -0.007824
   22        9.704364  -0.000000
   23       13.274936  -0.000000
   24       13.412188  -0.000000
   25       17.418062   0.000000
   26       18.649522   0.000000
   27       20.410299   0.000000
   28       20.447997   0.000000
   29       20.831690   0.000000
   30       21.369621   0.000000
 
  0.0000000E+00  0.0000000E+00  0.2000000E+00  0.1600000E-01
    1        0.688311   1.000000
    2        2.895887   1.000000
    3        3.699610   1.000000
    4        3.797593   1.000000
    5        3.804455   1.000000
    6        4.029062   1.000000
    7        4.213749   1.000000
    8        5.811106   1.000000
    9        6.203994   1.000000
   10        6.261840   1.000000
   11        6.809770   1.000000
   12        7.031961   1.000000
   13        7.666685   1.000000
   14        7.717524   1.000000
   15        8.014252   1.000000
   16        8.248826   1.000042
   17        8.446467   1.004761
   18        8.923955   0.306075
   19        9.000414   0.071810
   20        9.103672  -0.034056
   21        9.725645  -0.000000
   22       10.071592  -0.000000
   23       13.232946  -0.000000
   24       13.374416  -0.000000
   25       17.053928   0.000000
   26       18.954162   0.000000
   27       20.495762   0.000000
   28       20.511790   0.000000
   29       20.913871   0.000000
   30       21.336189   0.000000
 
  0.4000000E+00  0.0000000E+00  0.0000000E+00  0.1600000E-01
    1        1.670251   1.000000
    2        3.443756   1.000000
    3        3.789849   1.000000
    4        3.808529   1.000000
    5        4.487185   1.000000
    6        4.549887   1.000000
    7        5.047351   1.000000
    8        5.411880   1.000000
    9        5.809042   1.000000
   10        5.931769   1.000000
   11        6.300118   1.000000
   12        6.308184   1.000000
   13        6.626065   1.000000
   14        6.883719   1.000000
   15        6.977704   1.000000
   16        7.114449   1.000000
   17        7.873886   1.000000
   18        7.887884   1.000000
   19        8.214630   1.000015
   20        8.436462   1.003959
   21        9.360640  -0.001645
   22       10.474603  -0.000000
   23       15.662289   0.000000
   24       15.733450   0.000000
   25       16.924357   0.000000
   26       17.939251   0.000000
   27       18.681756   0.000000
   28       18.795879   0.000000
   29       19.328304   0.000000
   30       22.072970   0.000000
 
  0.0000000E+00  0.4000000E+00  0.0000000E+00  0.1600000E-01
    1        2.042434   1.000000
    2        3.227748   1.000000
    3        3.729434   1.000000
    4        3.794149   1.000000
    5        4.414456   1.000000
    6        4.424247   1.000000
    7        5.279833   1.000000
    8        5.521292   1.000000
    9        5.907867   1.000000
   10        6.010200   1.000000
   11        6.671971   1.000000
   12        6.740629   1.000000
   13        6.756149   1.000000
   14        6.799447   1.000000
   15        7.160643   1.000000
   16        7.181483   1.000000
   17        7.494436   1.000000
   18        7.948608   1.000000
   19        8.335440   1.000439
   20        8.343064   1.000529
   21        8.638033   1.035299
   22        8.928067   0.290365
   23       15.957030   0.000000
   24       15.972792   0.000000
   25       16.593505   0.000000
   26       18.382941   0.000000
   27       18.481629   0.000000
   28       18.629547   0.000000
   29       20.559323   0.000000
   30       21.140300   0.000000
 
  0.0000000E+00  0.0000000E+00  0.4000000E+00  0.1600000E-01
    1        2.067157   1.000000
    2        3.217927   1.000000
    3        3.926011   1.000000
    4        4.033607   1.000000
    5        4.470740   1.000000
    6        4.525378   1.000000
    7        4.871364   1.000000
    8        5.278015   1.000000
    9        5.751181   1.000000
   10        5.986135   1.000000
   11        6.433380   1.000000
   12        6.451214   1.000000
   13        6.631357   1.000000
   14        6.845244   1.000000
   15        7.126119   1.000000
   16        7.430899   1.000000
   17        7.589014   1.000000
   18        7.598492   1.000000
   19        8.231544   1.000025
   20        8.365783   1.000904
   21        8.959573   0.180467
   22        9.782574  -0.000000
   23       15.917451   0.000000
   24       16.005704   0.000000
   25       16.124472   0.000000
   26       18.455949   0.000000
   27       18.721300   0.000000
   28       18.923828   0.000000
   29       20.212344   0.000000
   30       21.419549   0.000000
 
  0.2000000E+00  0.2000000E+00  0.0000000E+00  0.3200000E-01
    1        1.121220   1.000000
    2        3.132319   1.000000
    3        3.804533   1.000000
    4        3.968098   1.000000
    5        4.040122   1.000000
    6        4.128190   1.000000
    7        4.537964   1.000000
    8        5.790081   1.000000
    9        6.241239   1.000000
   10        6.385439   1.000000
   11        6.551458   1.000000
   12        6.688919   1.000000
   13        6.837622   1.000000
   14        7.336394   1.000000
   15        7.489937   1.000000
   16        7.822220   1.000000
   17        7.944901   1.000000
   18        8.524800   1.016037
   19        8.584888   1.029434
   20        8.848711   0.617123
   21        9.457408  -0.000159
   22       10.806092  -0.000000
   23       11.904523  -0.000000
   24       14.456440   0.000000
   25       16.907455   0.000000
   26       19.074237   0.000000
   27       20.026515   0.000000
   28       20.374999   0.000000
   29       21.146676   0.000000
   30       21.936189   0.000000
 
  0.0000000E+00  0.2000000E+00  0.2000000E+00  0.3200000E-01
    1        1.152272   1.000000
    2        3.184963   1.000000
    3        3.833434   1.000000
    4        3.881026   1.000000
    5        4.139484   1.000000
    6        4.165255   1.000000
    7        4.480305   1.000000
    8        5.714763   1.000000
    9        6.253212   1.000000
   10        6.393643   1.000000
   11        6.561947   1.000000
   12        6.708759   1.000000
   13        6.778278   1.000000
   14        7.289240   1.000000
   15        7.715689   1.000000
   16        7.899520   1.000000
   17        7.948832   1.000000
   18        8.403642   1.002070
   19        8.465275   1.006619
   20        8.636987   1.035348
   21        9.272427  -0.008560
   22       10.879236  -0.000000
   23       12.256527  -0.000000
   24       14.340383   0.000000
   25       16.749177   0.000000
   26       19.121736   0.000000
   27       19.583607   0.000000
   28       20.948202   0.000000
   29       21.260667   0.000000
   30       21.986211   0.000000
 
  0.2000000E+00  0.0000000E+00  0.2000000E+00  0.3200000E-01
    1        1.120640   1.000000
    2        3.141783   1.000000
    3        3.830273   1.000000
    4        3.867359   1.000000
    5        4.169719   1.000000
    6        4.249097   1.000000
    7        4.422309   1.000000
    8        5.660053   1.000000
    9        6.341578   1.000000
   10        6.374731   1.000000
   11        6.399002   1.000000
   12        6.706818   1.000000
   13        6.923478   1.000000
   14        7.193554   1.000000
   15        7.404675   1.000000
   16        7.573478   1.000000
   17        7.869427   1.000000
   18        8.703944   1.004605
   19        8.779466   0.862386
   20        9.003768   0.064742
   21        9.580840  -0.000004
   22       11.031727  -0.000000
   23       11.577062  -0.000000
   24       14.457825   0.000000
   25       16.858304   0.000000
   26       18.998905   0.000000
   27       19.976310   0.000000
   28       20.529673   0.000000
   29       21.255351   0.000000
   30       22.016471   0.000000
 
  0.4000000E+00  0.2000000E+00  0.0000000E+00  0.3200000E-01
    1        2.128005   1.000000
    2        3.717118   1.000000
    3        4.054668   1.000000
    4        4.087783   1.000000
    5        4.627997   1.000000
    6        4.629591   1.000000
    7        5.055050   1.000000
    8        5.436062   1.000000
    9        5.554697   1.000000
   10        5.951722   1.000000
   11        6.173319   1.000000
   12        6.264068   1.000000
   13        6.594918   1.000000
   14        6.610635   1.000000
   15        7.080991   1.000000
   16        7.207031   1.000000
   17        7.634502   1.000000
   18        8.073305   1.000000
   19        8.233561   1.000027
   20        8.794929   0.815996
   21        9.284767  -0.007002
   22        9.592601  -0.000003
   23       13.033223  -0.000000
   24       15.247372   0.000000
   25       16.950359   0.000000
   26       18.072139   0.000000
   27       19.605382   0.000000
   28       19.818287   0.000000
   29       21.962128   0.000000
   30       23.136011   0.000000
 
  0.0000000E+00  0.4000000E+00  0.2000000E+00  0.3200000E-01
    1        2.381201   1.000000
    2        3.542683   1.000000
    3        3.926629   1.000000
    4        4.063930   1.000000
    5        4.517797   1.000000
    6        4.563508   1.000000
    7        5.270222   1.000000
    8        5.540125   1.000000
    9        5.637563   1.000000
   10        6.170957   1.000000
   11        6.217702   1.000000
   12        6.407131   1.000000
   13        6.672449   1.000000
   14        6.808386   1.000000
   15        7.147512   1.000000
   16        7.215266   1.000000
   17        7.445753   1.000000
   18        8.100032   1.000000
   19        8.228991   1.000023
   20        8.421546   1.002972
   21        8.849266   0.614850
   22        9.060908  -0.014880
   23       13.590213  -0.000000
   24       15.147693   0.000000
   25       16.835602   0.000000
   26       18.367721   0.000000
   27       19.392959   0.000000
   28       19.647140   0.000000
   29       21.758502   0.000000
   30       23.416698   0.000000
 
  0.2000000E+00  0.0000000E+00  0.4000000E+00  0.3200000E-01
    1        2.426128   1.000000
    2        3.541189   1.000000
    3        4.138673   1.000000
    4        4.201523   1.000000
    5        4.550789   1.000000
    6        4.749031   1.000000
    7        5.061369   1.000000
    8        5.217989   1.000000
    9        5.443040   1.000000
   10        6.017404   1.000000
   11        6.169197   1.000000
   12        6.446345   1.000000
   13        6.677293   1.000000
   14        6.724417   1.000000
   15        6.984759   1.000000
   16        7.577646   1.000000
   17        7.683111   1.000000
   18        7.691530   1.000000
   19        8.251745   1.000046
   20        8.521109   1.015295
   21        8.957746   0.186269
   22        9.178631  -0.027217
   23       13.427865  -0.000000
   24       15.196794   0.000000
   25       16.926908   0.000000
   26       17.954007   0.000000
   27       19.387024   0.000000
   28       20.174663   0.000000
   29       22.010483   0.000000
   30       23.047799   0.000000
 
 -0.2000000E+00  0.4000000E+00  0.0000000E+00  0.3200000E-01
    1        2.418544   1.000000
    2        3.522341   1.000000
    3        3.978201   1.000000
    4        4.072517   1.000000
    5        4.534519   1.000000
    6        4.553080   1.000000
    7        5.237896   1.000000
    8        5.528235   1.000000
    9        5.853378   1.000000
   10        6.121633   1.000000
   11        6.143870   1.000000
   12        6.416178   1.000000
   13        6.712143   1.000000
   14        6.784343   1.000000
   15        7.214633   1.000000
   16        7.282263   1.000000
   17        7.316764   1.000000
   18        8.162085   1.000003
   19        8.242787   1.000035
   20        8.334053   1.000424
   21        8.700535   1.007928
   22        8.891592   0.437147
   23       13.502124  -0.000000
   24       15.204668   0.000000
   25       16.918961   0.000000
   26       18.326193   0.000000
   27       19.376909   0.000000
   28       19.786624   0.000000
   29       22.036274   0.000000
   30       23.082354   0.000000
 
 -0.4000000E+00  0.0000000E+00  0.2000000E+00  0.3200000E-01
    1        2.124418   1.000000
    2        3.736358   1.000000
    3        4.034406   1.000000
    4        4.048137   1.000000
    5        4.554407   1.000000
    6        4.709015   1.000000
    7        5.131116   1.000000
    8        5.346939   1.000000
    9        5.450461   1.000000
   10        6.023697   1.000000
   11        6.179633   1.000000
   12        6.389373   1.000000
   13        6.587396   1.000000
   14        6.630807   1.000000
   15        7.068139   1.000000
   16        7.335380   1.000000
   17        7.680350   1.000000
   18        7.883872   1.000000
   19        8.332113   1.000404
   20        8.822273   0.721087
   21        9.244366  -0.013001
   22        9.535407  -0.000016
   23       13.005707  -0.000000
   24       15.302855   0.000000
   25       16.912876   0.000000
   26       18.042166   0.000000
   27       19.517510   0.000000
   28       19.748980   0.000000
   29       22.047820   0.000000
   30       23.030800   0.000000
 
  0.0000000E+00  0.2000000E+00  0.4000000E+00  0.3200000E-01
    1        2.394243   1.000000
    2        3.528193   1.000000
    3        4.135427   1.000000
    4        4.254570   1.000000
    5        4.605668   1.000000
    6        4.636973   1.000000
    7        4.999737   1.000000
    8        5.321806   1.000000
    9        5.388030   1.000000
   10        5.993567   1.000000
   11        6.234944   1.000000
   12        6.318205   1.000000
   13        6.631362   1.000000
   14        6.695309   1.000000
   15        6.992823   1.000000
   16        7.228616   1.000000
   17        7.708849   1.000000
   18        8.093052   1.000000
   19        8.173659   1.000004
   20        8.475497   1.007841
   21        9.183723  -0.026061
   22        9.331719  -0.002979
   23       13.534400  -0.000000
   24       15.079703   0.000000
   25       16.885619   0.000000
   26       18.019128   0.000000
   27       19.487990   0.000000
   28       20.095307   0.000000
   29       21.667627   0.000000
   30       23.487334   0.000000
 
  0.4000000E+00  0.4000000E+00  0.0000000E+00  0.3200000E-01
    1        3.233552   1.000000
    2        4.193861   1.000000
    3        4.466889   1.000000
    4        4.704118   1.000000
    5        4.893585   1.000000
    6        5.045756   1.000000
    7        5.205846   1.000000
    8        5.217268   1.000000
    9        5.332037   1.000000
   10        5.955591   1.000000
   11        5.973703   1.000000
   12        6.349407   1.000000
   13        6.513542   1.000000
   14        6.928125   1.000000
   15        7.086328   1.000000
   16        7.157003   1.000000
   17        7.364206   1.000000
   18        7.911843   1.000000
   19        8.203829   1.000011
   20        8.369417   1.000983
   21        8.581824   1.028779
   22        9.992957  -0.000000
   23       11.648632  -0.000000
   24       13.056861  -0.000000
   25       18.780570   0.000000
   26       19.070504   0.000000
   27       20.538209   0.000000
   28       21.250140   0.000000
   29       21.289320   0.000000
   30       21.885546   0.000000
 
  0.0000000E+00  0.4000000E+00  0.4000000E+00  0.3200000E-01
    1        3.137245   1.000000
    2        3.976825   1.000000
    3        4.326668   1.000000
    4        4.703232   1.000000
    5        4.919576   1.000000
    6        5.092266   1.000000
    7        5.097373   1.000000
    8        5.341143   1.000000
    9        5.407858   1.000000
   10        5.897131   1.000000
   11        6.136347   1.000000
   12        6.393913   1.000000
   13        6.539203   1.000000
   14        6.738087   1.000000
   15        7.103356   1.000000
   16        7.153984   1.000000
   17        7.317149   1.000000
   18        7.839459   1.000000
   19        8.439097   1.004158
   20        8.614410   1.034432
   21        8.700293   1.008154
   22        9.819816  -0.000000
   23       12.212289  -0.000000
   24       13.064739  -0.000000
   25       18.524609   0.000000
   26       18.762081   0.000000
   27       20.477104   0.000000
   28       20.585644   0.000000
   29       21.143639   0.000000
   30       22.311130   0.000000
 
  0.4000000E+00  0.0000000E+00  0.4000000E+00  0.3200000E-01
    1        3.202369   1.000000
    2        4.304351   1.000000
    3        4.421396   1.000000
    4        4.577521   1.000000
    5        4.776715   1.000000
    6        4.913049   1.000000
    7        4.976603   1.000000
    8        5.201351   1.000000
    9        5.775565   1.000000
   10        5.980000   1.000000
   11        6.287253   1.000000
   12        6.327289   1.000000
   13        6.617990   1.000000
   14        6.765504   1.000000
   15        7.063671   1.000000
   16        7.240975   1.000000
   17        7.534359   1.000000
   18        7.688258   1.000000
   19        8.036273   1.000000
   20        8.275442   1.000090
   21        8.827107   0.702834
   22       10.374901  -0.000000
   23       11.199906  -0.000000
   24       12.926049  -0.000000
   25       18.698936   0.000000
   26       19.055995   0.000000
   27       20.743300   0.000000
   28       21.071454   0.000000
   29       21.442536   0.000000
   30       21.728078   0.000000
 
  0.2000000E+00  0.2000000E+00  0.2000000E+00  0.6400000E-01
    1        1.524872   1.000000
    2        3.334226   1.000000
    3        3.938801   1.000000
    4        3.991434   1.000000
    5        4.143141   1.000000
    6        4.508175   1.000000
    7        4.663281   1.000000
    8        5.629845   1.000000
    9        6.314253   1.000000
   10        6.382404   1.000000
   11        6.444859   1.000000
   12        6.635009   1.000000
   13        6.793996   1.000000
   14        6.890223   1.000000
   15        6.995078   1.000000
   16        7.359737   1.000000
   17        8.047844   1.000000
   18        8.114551   1.000000
   19        8.335829   1.000443
   20        8.857962   0.578870
   21        9.761010  -0.000000
   22       11.715648  -0.000000
   23       12.539837  -0.000000
   24       12.746079  -0.000000
   25       17.635152   0.000000
   26       17.903892   0.000000
   27       18.567284   0.000000
   28       21.153773   0.000000
   29       21.554271   0.000000
   30       21.785511   0.000000
 
  0.4000000E+00  0.2000000E+00  0.2000000E+00  0.6400000E-01
    1        2.350473   1.000000
    2        3.702613   1.000000
    3        4.161644   1.000000
    4        4.443504   1.000000
    5        4.571318   1.000000
    6        4.664598   1.000000
    7        5.331713   1.000000
    8        5.422810   1.000000
    9        5.648833   1.000000
   10        5.960698   1.000000
   11        6.155690   1.000000
   12        6.341314   1.000000
   13        6.482616   1.000000
   14        6.653030   1.000000
   15        6.917688   1.000000
   16        7.287298   1.000000
   17        7.441808   1.000000
   18        7.976613   1.000000
   19        8.392256   1.001628
   20        8.618073   1.034803
   21        9.250608  -0.011904
   22        9.561883  -0.000007
   23       13.805899  -0.000000
   24       13.911914  -0.000000
   25       15.488355   0.000000
   26       16.274381   0.000000
   27       20.130025   0.000000
   28       21.560483   0.000000
   29       22.202967   0.000000
   30       22.395889   0.000000
 
  0.2000000E+00  0.4000000E+00  0.2000000E+00  0.6400000E-01
    1        2.558865   1.000000
    2        3.540098   1.000000
    3        3.973557   1.000000
    4        4.392507   1.000000
    5        4.598002   1.000000
    6        4.736947   1.000000
    7        5.458795   1.000000
    8        5.631576   1.000000
    9        5.710757   1.000000
   10        5.965875   1.000000
   11        6.190194   1.000000
   12        6.514475   1.000000
   13        6.537562   1.000000
   14        6.807367   1.000000
   15        6.814684   1.000000
   16        6.857150   1.000000
   17        7.753688   1.000000
   18        7.927722   1.000000
   19        8.064400   1.000000
   20        8.479296   1.008336
   21        9.056974  -0.011640
   22        9.405912  -0.000588
   23       13.860882  -0.000000
   24       14.145831  -0.000000
   25       15.601490   0.000000
   26       16.067546   0.000000
   27       20.224207   0.000000
   28       21.643260   0.000000
   29       22.285572   0.000000
   30       22.437044   0.000000
 
  0.2000000E+00  0.2000000E+00  0.4000000E+00  0.6400000E-01
    1        2.567487   1.000000
    2        3.548260   1.000000
    3        4.105432   1.000000
    4        4.496589   1.000000
    5        4.565231   1.000000
    6        4.833221   1.000000
    7        5.226545   1.000000
    8        5.437762   1.000000
    9        5.596859   1.000000
   10        5.907816   1.000000
   11        6.142209   1.000000
   12        6.400716   1.000000
   13        6.580096   1.000000
   14        6.677554   1.000000
   15        6.924535   1.000000
   16        7.125717   1.000000
   17        7.617799   1.000000
   18        7.964225   1.000000
   19        8.312096   1.000243
   20        8.385819   1.001416
   21        9.153007  -0.032425
   22        9.501299  -0.000046
   23       13.848565  -0.000000
   24       14.089912  -0.000000
   25       15.550949   0.000000
   26       16.179989   0.000000
   27       20.137919   0.000000
   28       21.409239   0.000000
   29       22.248801   0.000000
   30       22.523316   0.000000
 
  0.4000000E+00  0.4000000E+00  0.2000000E+00  0.6400000E-01
    1        2.979937   1.000000
    2        3.524938   1.000000
    3        3.834143   1.000000
    4        4.265957   1.000000
    5        5.043037   1.000000
    6        5.234776   1.000000
    7        5.498374   1.000000
    8        5.684352   1.000000
    9        5.863669   1.000000
   10        5.995706   1.000000
   11        6.057010   1.000000
   12        6.156933   1.000000
   13        6.448747   1.000000
   14        6.504248   1.000000
   15        6.685986   1.000000
   16        6.834141   1.000000
   17        7.370412   1.000000
   18        8.025449   1.000000
   19        8.284875   1.000117
   20        8.593084   1.031094
   21        8.911070   0.356894
   22       10.006091  -0.000000
   23       11.379645  -0.000000
   24       12.799533  -0.000000
   25       15.788806   0.000000
   26       17.466262   0.000000
   27       17.856373   0.000000
   28       19.884127   0.000000
   29       22.898857   0.000000
   30       24.703991   0.000000
 
  0.2000000E+00  0.4000000E+00  0.4000000E+00  0.6400000E-01
    1        2.978885   1.000000
    2        3.547519   1.000000
    3        3.599554   1.000000
    4        4.248440   1.000000
    5        5.051109   1.000000
    6        5.245758   1.000000
    7        5.547553   1.000000
    8        5.746494   1.000000
    9        5.848689   1.000000
   10        5.978188   1.000000
   11        6.063558   1.000000
   12        6.093710   1.000000
   13        6.468104   1.000000
   14        6.540281   1.000000
   15        6.654650   1.000000
   16        6.842570   1.000000
   17        7.383316   1.000000
   18        7.978817   1.000000
   19        8.496230   1.010820
   20        8.576788   1.027673
   21        8.923696   0.307073
   22        9.889025  -0.000000
   23       11.868902  -0.000000
   24       12.973923  -0.000000
   25       15.520430   0.000000
   26       17.011130   0.000000
   27       17.926466   0.000000
   28       19.845997   0.000000
   29       22.974539   0.000000
   30       24.539677   0.000000
 
  0.4000000E+00  0.2000000E+00  0.4000000E+00  0.6400000E-01
    1        2.977002   1.000000
    2        3.555941   1.000000
    3        3.871049   1.000000
    4        4.070308   1.000000
    5        5.004352   1.000000
    6        5.170758   1.000000
    7        5.462825   1.000000
    8        5.796506   1.000000
    9        5.926373   1.000000
   10        6.099875   1.000000
   11        6.114576   1.000000
   12        6.224621   1.000000
   13        6.494933   1.000000
   14        6.577053   1.000000
   15        6.644450   1.000000
   16        6.689477   1.000000
   17        7.553381   1.000000
   18        7.882545   1.000000
   19        8.007178   1.000000
   20        8.721537   0.983588
   21        9.063083  -0.016548
   22       10.347322  -0.000000
   23       10.931283  -0.000000
   24       12.725647  -0.000000
   25       15.765333   0.000000
   26       17.532050   0.000000
   27       17.833579   0.000000
   28       19.945232   0.000000
   29       22.777872   0.000000
   30       24.748256   0.000000
 
  0.4000000E+00  0.4000000E+00  0.4000000E+00  0.6400000E-01
    1        2.835687   1.000000
    2        3.072672   1.000000
    3        3.353817   1.000000
    4        3.710941   1.000000
    5        5.280658   1.000000
    6        5.351897   1.000000
    7        5.593167   1.000000
    8        5.672256   1.000000
    9        5.712880   1.000000
   10        5.755914   1.000000
   11        5.907626   1.000000
   12        5.974824   1.000000
   13        6.650405   1.000000
   14        6.785955   1.000000
   15        7.207138   1.000000
   16        7.391217   1.000000
   17        7.785085   1.000000
   18        8.023838   1.000000
   19        8.186317   1.000006
   20        8.559815   1.023788
   21        9.239596  -0.013880
   22       10.274993  -0.000000
   23       10.764634  -0.000000
   24       11.000211  -0.000000
   25       15.015751   0.000000
   26       15.447304   0.000000
   27       16.241364   0.000000
   28       17.629530   0.000000
   29       25.471195   0.000000
   30       25.599072   0.000000
