 vasp.6.2.0 18Jan21 (build Mar 17 2021 09:06:54) complex                        
  
 POSCAR found type information on POSCAR PdIrPtCu
 POSCAR found :  4 types and       4 ions
 LDA part: xc-table for Pade appr. of Perdew
 found WAVECAR, reading the header
 POSCAR, INCAR and KPOINTS ok, starting setup
 FFT: planning ...
 reading WAVECAR
 the WAVECAR file was read successfully
 charge-density read from file: unknown                                 
 entering main loop
       N       E                     dE             d eps       ncg     rms          rms(c)
DAV:   1    -0.791711486732E+01   -0.79171E+01   -0.59753E-03  1830   0.498E-01    0.121E-01
DAV:   2    -0.789287062861E+01    0.24244E-01   -0.90786E-03  1862   0.620E-01    0.181E-01
DAV:   3    -0.789227907184E+01    0.59156E-03   -0.87202E-04  1836   0.307E-01    0.511E-02
DAV:   4    -0.789226868976E+01    0.10382E-04   -0.33121E-05  1824   0.399E-02    0.389E-02
DAV:   5    -0.789226759079E+01    0.10990E-05   -0.19937E-06  1190   0.237E-02    0.339E-02
DAV:   6    -0.789226781398E+01   -0.22319E-06   -0.11976E-06  1006   0.762E-03
   1 F= -.78922678E+01 E0= -.78913302E+01  d E =-.281294E-02
 writing wavefunctions
