unknown system                          
   1.00000000000000     
     2.260100    0.000000    0.000000
    -1.130050    1.957304    0.000000
     0.000000    0.000000    3.937230
   Fe
     2
Direct
  0.000000  0.000000  0.000000
  0.333333  0.666667  0.500000
 
   20   20   32
  146.05      138.83      119.31      92.804      65.363      41.756      24.626      14.519      10.160      8.9892    
  8.6996      8.9893      10.160      14.519      24.626      41.756      65.363      92.804      119.31      138.83    
  138.83      138.83      125.50      102.63      75.984      50.945      31.152      18.143      11.510      9.2583    
  8.6869      8.6867      9.2582      11.510      18.143      31.151      50.945      75.986      102.64      125.50    
  119.32      125.47      119.31      102.63      79.894      56.290      36.013      21.454      13.080      9.6343    
  8.6898      8.4117      8.6896      9.6343      13.081      21.453      36.011      56.288      79.896      102.64    
  92.802      102.56      102.56      92.804      75.984      56.290      37.812      23.431      14.350      10.062    
  8.7022      8.2025      8.2024      8.7021      10.063      14.351      23.431      37.810      56.286      75.981    
  65.356      75.887      79.761      75.893      65.363      50.945      36.013      23.431      14.837      10.353    
  8.7206      8.0721      7.8391      8.0720      8.7207      10.354      14.839      23.434      36.013      50.941    
  41.755      50.866      56.149      56.150      50.869      41.756      31.152      21.454      14.350      10.353    
  8.7318      8.0125      7.6259      7.6259      8.0122      8.7309      10.353      14.352      21.458      31.155    
  24.631      31.122      35.931      37.706      35.929      31.118      24.626      18.143      13.080      10.062    
  8.7207      8.0125      7.5571      7.4035      7.5573      8.0118      8.7185      10.060      13.081      18.146    
  14.519      18.157      21.455      23.413      23.411      21.450      18.153      14.519      11.510      9.6343    
  8.7022      8.0721      7.6259      7.4035      7.4040      7.6267      8.0719      8.7000      9.6304      11.507    
  10.155      11.542      13.136      14.414      14.901      14.412      13.136      11.546      10.160      9.2583    
  8.6898      8.2025      7.8391      7.6259      7.5573      7.6268      7.8410      8.2046      8.6898      9.2550    
  8.9891      9.2974      9.7103      10.166      10.472      10.473      10.169      9.7142      9.3006      8.9893    
  8.6869      8.4117      8.2024      8.0720      8.0122      8.0118      8.0719      8.2046      8.4158      8.6901    
  8.7044      8.7331      8.7738      8.8193      8.8622      8.8832      8.8643      8.8214      8.7735      8.7297    
  8.6996      8.6867      8.6896      8.7021      8.7207      8.7309      8.7185      8.7000      8.6898      8.6901    
  8.9891      8.7331      8.5007      8.3282      8.2265      8.1839      8.1843      8.2266      8.3260      8.4966    
  8.7299      8.9893      9.2582      9.6343      10.063      10.354      10.353      10.060      9.6304      9.2550    
  10.155      9.2974      8.7738      8.3282      7.9997      7.8106      7.7504      7.8098      7.9979      8.3261    
  8.7738      9.3008      10.160      11.510      13.081      14.351      14.839      14.352      13.081      11.507    
  14.519      11.542      9.7103      8.8193      8.2265      7.8106      7.6048      7.6044      7.8098      8.2266    
  8.8214      9.7141      11.546      14.519      18.143      21.453      23.431      23.434      21.458      18.146    
  24.631      18.157      13.136      10.166      8.8621      8.1839      7.7504      7.6044      7.7501      8.1846    
  8.8643      10.168      13.136      18.154      24.626      31.151      36.011      37.810      36.013      31.155    
  41.755      31.122      21.455      14.414      10.472      8.8832      8.1843      7.8098      7.8097      8.1846    
  8.8841      10.472      14.411      21.451      31.119      41.756      50.945      56.288      56.286      50.941    
  65.356      50.866      35.931      23.413      14.901      10.473      8.8643      8.2266      7.9979      8.2266    
  8.8643      10.472      14.899      23.411      35.931      50.870      65.363      75.986      79.896      75.981    
  92.802      75.887      56.149      37.706      23.411      14.412      10.169      8.8214      8.3260      8.3261    
  8.8214      10.168      14.411      23.411      37.707      56.152      75.891      92.804      102.64      102.64    
  119.32      102.56      79.761      56.150      35.929      21.450      13.136      9.7142      8.7735      8.4966    
  8.7738      9.7141      13.136      21.451      35.931      56.152      79.759      102.56      119.31      125.50    
  138.83      125.47      102.56      75.893      50.869      31.118      18.153      11.546      9.3006      8.7297    
  8.7299      9.3008      11.546      18.154      31.119      50.870      75.891      102.56      125.46      138.83    
  137.51      130.72      112.35      87.376      61.510      39.288      23.240      13.871      9.9052      8.8395    
  8.5557      8.8396      9.9053      13.871      23.240      39.288      61.511      87.376      112.35      130.72    
  130.72      130.72      118.17      96.631      71.509      47.916      29.323      17.197      11.106      9.0797    
  8.5320      8.5319      9.0796      11.106      17.197      29.322      47.915      71.512      96.637      118.18    
  112.36      118.15      112.35      96.631      75.190      52.938      33.866      20.255      12.521      9.4006    
  8.5282      8.2574      8.5280      9.4007      12.521      20.254      33.864      52.937      75.192      96.636    
  87.374      96.580      96.581      87.376      71.509      52.938      35.550      22.087      13.673      9.7700    
  8.5369      8.0515      8.0513      8.5369      9.7705      13.673      22.087      35.548      52.935      71.506    
  61.504      71.442      75.097      71.447      61.510      47.916      33.866      22.087      14.117      10.024    
  8.5500      7.9242      7.6999      7.9242      8.5500      10.024      14.118      22.089      33.866      47.912    
  39.287      47.871      52.853      52.855      47.874      39.288      29.323      20.255      13.673      10.024    
  8.5579      7.8664      7.4951      7.4952      7.8662      8.5572      10.024      13.675      20.259      29.326    
  23.245      29.328      33.847      35.517      33.845      29.324      23.240      17.197      12.521      9.7700    
  8.5500      7.8664      7.4292      7.2824      7.4294      7.8658      8.5480      9.7681      12.521      17.200    
  13.871      17.243      20.317      22.147      22.145      20.312      17.239      13.871      11.106      9.4006    
  8.5369      7.9243      7.4951      7.2824      7.2829      7.4959      7.9241      8.5349      9.3970      11.103    
  9.9006      11.168      12.632      13.812      14.263      13.811      12.632      11.171      9.9052      9.0797    
  8.5282      8.0515      7.6999      7.4951      7.4294      7.4959      7.7017      8.0534      8.5282      9.0766    
  8.8394      9.1456      9.5286      9.9464      10.226      10.227      9.9487      9.5322      9.1486      8.8395    
  8.5320      8.2574      8.0513      7.9242      7.8662      7.8658      7.9241      8.0534      8.2612      8.5350    
  8.5601      8.6039      8.6621      8.7241      8.7750      8.7975      8.7769      8.7260      8.6619      8.6008    
  8.5557      8.5319      8.5280      8.5369      8.5500      8.5572      8.5480      8.5349      8.5282      8.5351    
  8.8394      8.6039      8.3956      8.2462      8.1624      8.1293      8.1297      8.1624      8.2442      8.3918    
  8.6009      8.8396      9.0796      9.4007      9.7705      10.024      10.024      9.7681      9.3970      9.0766    
  9.9006      9.1456      8.6621      8.2462      7.9441      7.7725      7.7185      7.7718      7.9424      8.2443    
  8.6621      9.1487      9.9053      11.106      12.521      13.673      14.118      13.675      12.521      11.103    
  13.871      11.168      9.5286      8.7241      8.1623      7.7725      7.5812      7.5808      7.7718      8.1625    
  8.7261      9.5321      11.170      13.871      17.197      20.254      22.087      22.089      20.259      17.200    
  23.245      17.243      12.632      9.9464      8.7749      8.1293      7.7185      7.5808      7.7182      8.1299    
  8.7769      9.9482      12.632      17.240      23.240      29.322      33.864      35.548      33.866      29.326    
  39.287      29.328      20.317      13.812      10.226      8.7975      8.1297      7.7718      7.7718      8.1299    
  8.7983      10.226      13.810      20.313      29.325      39.288      47.915      52.937      52.935      47.912    
  61.504      47.871      33.847      22.147      14.263      10.227      8.7769      8.1624      7.9424      8.1625    
  8.7769      10.226      14.262      22.145      33.847      47.874      61.511      71.512      75.192      71.506    
  87.374      71.442      52.853      35.517      22.145      13.811      9.9487      8.7260      8.2442      8.2443    
  8.7261      9.9482      13.810      22.145      35.518      52.856      71.445      87.376      96.637      96.636    
  112.36      96.580      75.097      52.855      33.845      20.312      12.632      9.5322      8.6619      8.3918    
  8.6621      9.5321      12.632      20.313      33.847      52.856      75.095      96.575      112.35      118.18    
  130.72      118.15      96.581      71.447      47.874      29.324      17.239      11.171      9.1486      8.6008    
  8.6009      9.1487      11.171      17.240      29.325      47.874      71.445      96.575      118.14      130.72    
  114.83      109.16      93.818      72.911      51.259      32.765      19.633      12.226      9.2684      8.4317    
  8.1666      8.4317      9.2684      12.226      19.633      32.765      51.259      72.911      93.818      109.16    
  109.17      109.16      98.675      80.642      59.590      39.879      24.525      14.767      10.096      8.6138    
  8.1152      8.1151      8.6137      10.096      14.767      24.524      39.878      59.592      80.647      98.680    
  93.822      98.674      93.818      80.642      62.659      44.035      28.213      17.150      11.107      8.8104    
  8.0918      7.8433      8.0915      8.8104      11.108      17.150      28.211      44.034      62.661      80.646    
  72.910      80.640      80.640      72.911      59.590      44.035      29.585      18.593      11.952      9.0376    
  8.0878      7.6449      7.6447      8.0876      9.0379      11.953      18.593      29.583      44.033      59.588    
  51.254      59.599      62.672      59.603      51.259      39.879      28.213      18.593      12.281      9.1987    
  8.0919      7.5242      7.3244      7.5242      8.0919      9.1991      12.283      18.595      28.213      39.876    
  32.765      39.925      44.099      44.100      39.928      32.765      24.525      17.150      11.952      9.1987    
  8.0945      7.4697      7.1409      7.1410      7.4696      8.0939      9.1986      11.954      17.153      24.527    
  19.637      24.620      28.357      29.743      28.355      24.617      19.633      14.767      11.107      9.0376    
  8.0919      7.4697      7.0823      6.9540      7.0825      7.4693      8.0903      9.0361      11.108      14.770    
  12.226      14.894      17.367      18.854      18.852      17.364      14.891      12.226      10.096      8.8104    
  8.0878      7.5242      7.1409      6.9540      6.9543      7.1414      7.5241      8.0861      8.8075      10.093    
  9.2645      10.229      11.359      12.282      12.637      12.281      11.359      10.232      9.2684      8.6138    
  8.0917      7.6449      7.3244      7.1410      7.0825      7.1414      7.3257      7.6464      8.0917      8.6113    
  8.4316      8.7452      9.0654      9.3902      9.6052      9.6057      9.3920      9.0683      8.7476      8.4317    
  8.1152      7.8433      7.6447      7.5242      7.4696      7.4693      7.5240      7.6464      7.8465      8.1177    
  8.1702      8.2489      8.3454      8.4420      8.5151      8.5431      8.5166      8.4436      8.3452      8.2464    
  8.1666      8.1151      8.0915      8.0877      8.0919      8.0939      8.0903      8.0861      8.0918      8.1177    
  8.4315      8.2489      8.0984      8.0016      7.9565      7.9435      7.9438      7.9565      7.9999      8.0953    
  8.2465      8.4317      8.6137      8.8104      9.0379      9.1991      9.1986      9.0361      8.8075      8.6113    
  9.2645      8.7452      8.3454      8.0016      7.7606      7.6285      7.5879      7.6281      7.7594      8.0001    
  8.3454      8.7478      9.2684      10.096      11.108      11.953      12.283      11.954      11.108      10.093    
  12.226      10.229      9.0654      8.4420      7.9565      7.6285      7.4706      7.4702      7.6280      7.9566    
  8.4436      9.0682      10.231      12.226      14.767      17.150      18.593      18.595      17.153      14.770    
  19.637      14.894      11.359      9.3902      8.5151      7.9435      7.5879      7.4702      7.5877      7.9439    
  8.5166      9.3916      11.359      14.891      19.633      24.524      28.211      29.583      28.213      24.527    
  32.765      24.620      17.367      12.282      9.6052      8.5431      7.9438      7.6281      7.6280      7.9439    
  8.5436      9.6053      12.280      17.364      24.618      32.765      39.878      44.034      44.033      39.876    
  51.254      39.925      28.357      18.854      12.637      9.6057      8.5166      7.9565      7.7594      7.9566    
  8.5166      9.6053      12.636      18.852      28.357      39.928      51.259      59.592      62.661      59.588    
  72.910      59.599      44.099      29.743      18.852      12.281      9.3920      8.4436      7.9999      8.0001    
  8.4436      9.3916      12.280      18.852      29.744      44.101      59.602      72.911      80.647      80.646    
  93.822      80.640      62.672      44.100      28.355      17.364      11.359      9.0683      8.3452      8.0953    
  8.3454      9.0682      11.359      17.364      28.357      44.101      62.670      80.636      93.818      98.680    
  109.17      98.674      80.640      59.603      39.928      24.617      14.891      10.232      8.7476      8.2464    
  8.2465      8.7478      10.231      14.891      24.618      39.928      59.602      80.636      98.669      109.16    
  85.080      80.874      69.461      53.905      37.871      24.395      15.166      10.299      8.5204      7.8734    
  7.6420      7.8734      8.5204      10.299      15.166      24.395      37.871      53.905      69.461      80.874    
  80.876      80.874      73.063      59.624      43.971      29.473      18.475      11.843      8.9359      7.9932    
  7.5555      7.5554      7.9930      8.9361      11.843      18.475      29.473      43.972      59.627      73.067    
  69.463      73.086      69.461      59.624      46.225      32.465      21.018      13.350      9.4657      8.0919    
  7.5012      7.2897      7.5009      8.0919      9.4660      13.349      21.017      32.464      46.226      59.626    
  53.904      59.684      59.685      53.905      43.971      32.465      21.972      14.281      9.9296      8.1769    
  7.4728      7.0981      7.0980      7.4727      8.1771      9.9300      14.281      21.971      32.463      43.970    
  37.868      44.080      46.374      44.082      37.871      29.473      21.018      14.281      10.115      8.2377    
  7.4610      6.9813      6.8176      6.9813      7.4611      8.2379      10.115      14.282      21.018      29.471    
  24.395      29.635      32.717      32.718      29.637      24.395      18.475      13.350      9.9296      8.2377    
  7.4581      6.9280      6.6595      6.6596      6.9281      7.4578      8.2376      9.9307      13.352      18.477    
  15.168      18.682      21.365      22.369      21.364      18.680      15.166      11.843      9.4657      8.1769    
  7.4611      6.9280      6.6093      6.5058      6.6096      6.9278      7.4601      8.1759      9.4660      11.845    
  10.299      12.068      13.756      14.787      14.786      13.753      12.066      10.299      8.9359      8.0919    
  7.4728      6.9813      6.6594      6.5058      6.5060      6.6598      6.9812      7.4717      8.0900      8.9343    
  8.5177      9.1547      9.8841      10.487      10.721      10.486      9.8841      9.1564      8.5204      7.9932    
  7.5012      7.0981      6.8176      6.6596      6.6096      6.6598      6.8183      7.0991      7.5012      7.9914    
  7.8733      8.2013      8.4956      8.7354      8.8822      8.8825      8.7366      8.4975      8.2030      7.8734    
  7.5555      7.2897      7.0980      6.9813      6.9281      6.9278      6.9812      7.0991      7.2919      7.5572    
  7.6444      7.7603      7.8924      8.0182      8.1101      8.1443      8.1110      8.0191      7.8921      7.7586    
  7.6420      7.5554      7.5009      7.4727      7.4611      7.4578      7.4601      7.4717      7.5012      7.5572    
  7.8733      7.7603      7.6776      7.6363      7.6286      7.6336      7.6338      7.6287      7.6353      7.6755    
  7.7587      7.8734      7.9930      8.0919      8.1771      8.2379      8.2376      8.1759      8.0900      7.9914    
  8.5177      8.2013      7.8924      7.6363      7.4640      7.3732      7.3462      7.3730      7.4633      7.6354    
  7.8924      8.2031      8.5204      8.9361      9.4660      9.9300      10.115      9.9307      9.4660      8.9343    
  10.299      9.1547      8.4956      8.0182      7.6286      7.3732      7.2526      7.2524      7.3729      7.6287    
  8.0192      8.4975      9.1563      10.299      11.843      13.349      14.281      14.282      13.352      11.845    
  15.168      12.068      9.8841      8.7354      8.1101      7.6336      7.3462      7.2524      7.3459      7.6338    
  8.1110      8.7364      9.8839      12.066      15.166      18.475      21.017      21.971      21.018      18.477    
  24.395      18.682      13.756      10.487      8.8822      8.1443      7.6338      7.3730      7.3729      7.6338    
  8.1446      8.8823      10.485      13.754      18.680      24.395      29.473      32.464      32.463      29.471    
  37.868      29.635      21.365      14.787      10.721      8.8825      8.1110      7.6287      7.4633      7.6287    
  8.1110      8.8823      10.720      14.786      21.365      29.637      37.871      43.972      46.226      43.970    
  53.904      44.080      32.717      22.369      14.786      10.486      8.7366      8.0191      7.6353      7.6354    
  8.0192      8.7364      10.485      14.786      22.370      32.718      44.081      53.905      59.627      59.626    
  69.463      59.684      46.374      32.718      21.364      13.753      9.8841      8.4975      7.8921      7.6755    
  7.8924      8.4975      9.8839      13.754      21.365      32.718      46.373      59.682      69.461      73.067    
  80.876      73.086      59.685      44.082      29.637      18.680      12.066      9.1564      8.2030      7.7586    
  7.7587      8.2031      9.1563      12.066      18.680      29.637      44.081      59.682      73.083      80.874    
  55.907      53.128      45.598      35.399      25.059      16.674      11.307      8.7701      7.8279      7.2962    
  7.1112      7.2963      7.8279      8.7701      11.307      16.674      25.059      35.399      45.598      53.128    
  53.129      53.128      47.957      39.097      28.898      19.700      13.079      9.4372      7.9975      7.3397    
  6.9871      6.9870      7.3396      7.9976      9.4374      13.079      19.700      28.899      39.099      47.959    
  45.599      48.002      45.598      39.097      30.327      21.514      14.491      10.134      8.1636      7.3752    
  6.8945      6.7296      6.8942      7.3752      8.1638      10.134      14.490      21.514      30.328      39.099    
  35.398      39.214      39.214      35.399      28.898      21.514      15.029      10.582      8.3146      7.3954    
  6.8322      6.5410      6.5409      6.8321      7.3954      8.3147      10.582      15.028      21.513      28.898    
  25.057      29.094      30.597      29.096      25.059      19.700      14.491      10.582      8.3775      7.4029    
  6.7969      6.4223      6.2987      6.4224      6.7969      7.4029      8.3778      10.583      14.491      19.699    
  16.674      19.963      21.931      21.931      19.964      16.674      13.079      10.134      8.3146      7.4029    
  6.7854      6.3662      6.1624      6.1625      6.3664      6.7853      7.4028      8.3152      10.135      13.080    
  11.308      13.382      15.015      15.634      15.014      13.381      11.307      9.4372      8.1636      7.3954    
  6.7969      6.3662      6.1190      6.0403      6.1192      6.3662      6.7964      7.3949      8.1638      9.4383    
  8.7700      9.7488      10.707      11.304      11.304      10.706      9.7480      8.7701      7.9975      7.3752    
  6.8322      6.4223      6.1624      6.0403      6.0404      6.1625      6.4222      6.8316      7.3742      7.9966    
  7.8263      8.2954      8.7342      9.0777      9.2099      9.0772      8.7342      8.2964      7.8279      7.3397    
  6.8945      6.5410      6.2987      6.1625      6.1193      6.1625      6.2989      6.5415      6.8945      7.3387    
  7.2962      7.6221      7.9217      8.1504      8.2736      8.2737      8.1508      7.9227      7.6230      7.2962    
  6.9871      6.7296      6.5409      6.4223      6.3664      6.3662      6.4222      6.5415      6.7308      6.9880    
  7.1125      7.2620      7.4214      7.5669      7.6702      7.7079      7.6706      7.5673      7.4212      7.2610    
  7.1112      6.9870      6.8942      6.8321      6.7969      6.7853      6.7964      6.8316      6.8945      6.9880    
  7.2962      7.2620      7.2500      7.2628      7.2892      7.3099      7.3101      7.2893      7.2623      7.2488    
  7.2611      7.2963      7.3396      7.3752      7.3954      7.4029      7.4028      7.3949      7.3742      7.3387    
  7.8263      7.6221      7.4214      7.2628      7.1623      7.1133      7.0996      7.1133      7.1621      7.2623    
  7.4214      7.6231      7.8279      7.9976      8.1638      8.3147      8.3778      8.3152      8.1638      7.9966    
  8.7700      8.2954      7.9218      7.5669      7.2892      7.1133      7.0322      7.0321      7.1132      7.2893    
  7.5675      7.9227      8.2963      8.7701      9.4374      10.134      10.582      10.583      10.135      9.4383    
  11.308      9.7488      8.7342      8.1504      7.6702      7.3099      7.0996      7.0321      7.0994      7.3099    
  7.6706      8.1508      8.7340      9.7478      11.307      13.079      14.490      15.028      14.491      13.080    
  16.674      13.382      10.707      9.0777      8.2736      7.7079      7.3101      7.1133      7.1132      7.3099    
  7.7080      8.2737      9.0771      10.706      13.381      16.674      19.700      21.514      21.513      19.699    
  25.057      19.963      15.015      11.304      9.2099      8.2737      7.6706      7.2893      7.1621      7.2893    
  7.6706      8.2737      9.2096      11.304      15.015      19.964      25.059      28.899      30.328      28.898    
  35.398      29.094      21.931      15.634      11.304      9.0772      8.1508      7.5673      7.2623      7.2623    
  7.5675      8.1508      9.0771      11.304      15.634      21.932      29.095      35.399      39.099      39.099    
  45.599      39.214      30.597      21.931      15.014      10.706      8.7342      7.9227      7.4212      7.2488    
  7.4214      7.9227      8.7340      10.706      15.015      21.932      30.596      39.213      45.598      47.959    
  53.129      48.002      39.214      29.096      19.964      13.381      9.7480      8.2964      7.6230      7.2610    
  7.2611      7.6231      8.2963      9.7478      13.381      19.964      29.095      39.213      48.000      53.128    
  32.679      31.084      26.796      21.097      15.535      11.324      8.9106      7.8451      7.2094      6.8082    
  6.6744      6.8082      7.2094      7.8451      8.9106      11.324      15.535      21.097      26.796      31.084    
  31.084      31.084      28.118      23.104      17.496      12.702      9.5538      8.0157      7.2783      6.7685    
  6.5108      6.5107      6.7684      7.2784      8.0159      9.5540      12.702      17.496      23.104      28.118    
  26.796      28.174      26.796      23.104      18.237      13.557      10.103      8.1901      7.3170      6.7346    
  6.3775      6.2599      6.3774      6.7346      7.3171      8.1903      10.103      13.557      18.237      23.104    
  21.097      23.252      23.252      21.097      17.496      13.557      10.320      8.3103      7.3303      6.7064    
  6.2792      6.0703      6.0702      6.2791      6.7064      7.3303      8.3102      10.319      13.557      17.495    
  15.534      17.741      18.575      17.742      15.535      12.702      10.103      8.3103      7.3330      6.6895    
  6.2186      5.9455      5.8581      5.9456      6.2186      6.6894      7.3330      8.3104      10.103      12.702    
  11.324      13.025      14.071      14.071      13.025      11.324      9.5538      8.1901      7.3303      6.6895    
  6.1981      5.8842      5.7366      5.7367      5.8844      6.1981      6.6894      7.3305      8.1907      9.5543    
  8.9111      9.9195      10.738      11.053      10.738      9.9192      8.9106      8.0157      7.3170      6.7064    
  6.2186      5.8842      5.6974      5.6384      5.6975      5.8843      6.2185      6.7063      7.3171      8.0162    
  7.8450      8.3915      8.8807      9.1815      9.1813      8.8804      8.3913      7.8451      7.2783      6.7346    
  6.2792      5.9456      5.7366      5.6384      5.6384      5.7366      5.9455      6.2790      6.7343      7.2779    
  7.2087      7.6454      8.0145      8.2603      8.3470      8.2601      8.0145      7.6458      7.2094      6.7685    
  6.3775      6.0703      5.8580      5.7367      5.6975      5.7366      5.8580      6.0704      6.3775      6.7681    
  6.8082      7.1239      7.4186      7.6478      7.7733      7.7732      7.6479      7.4189      7.1242      6.8082    
  6.5108      6.2599      6.0702      5.9456      5.8844      5.8843      5.9455      6.0704      6.2604      6.5111    
  6.6749      6.8594      7.0477      7.2142      7.3301      7.3718      7.3302      7.2142      7.0475      6.8591    
  6.6744      6.5107      6.3774      6.2791      6.2186      6.1981      6.2185      6.2790      6.3775      6.5111    
  6.8081      6.8594      6.9249      6.9988      7.0659      7.1064      7.1065      7.0660      6.9987      6.9244    
  6.8591      6.8082      6.7684      6.7346      6.7064      6.6894      6.6894      6.7063      6.7343      6.7681    
  7.2087      7.1239      7.0477      6.9988      6.9803      6.9801      6.9826      6.9803      6.9803      6.9987    
  7.0477      7.1243      7.2094      7.2784      7.3171      7.3303      7.3330      7.3305      7.3171      7.2779    
  7.8450      7.6454      7.4186      7.2142      7.0659      6.9801      6.9441      6.9441      6.9802      7.0660    
  7.2144      7.4189      7.6457      7.8451      8.0159      8.1903      8.3102      8.3104      8.1907      8.0162    
  8.9111      8.3915      8.0145      7.6478      7.3301      7.1064      6.9826      6.9441      6.9824      7.1064    
  7.3302      7.6479      8.0144      8.3910      8.9106      9.5540      10.103      10.319      10.103      9.5543    
  11.324      9.9195      8.8807      8.2603      7.7733      7.3718      7.1065      6.9803      6.9802      7.1064    
  7.3718      7.7733      8.2602      8.8802      9.9191      11.324      12.702      13.557      13.557      12.702    
  15.534      13.025      10.738      9.1815      8.3470      7.7732      7.3302      7.0660      6.9803      7.0660    
  7.3302      7.7733      8.3471      9.1814      10.738      13.025      15.535      17.496      18.237      17.495    
  21.097      17.741      14.071      11.053      9.1813      8.2601      7.6478      7.2142      6.9987      6.9987    
  7.2144      7.6479      8.2602      9.1814      11.054      14.071      17.741      21.097      23.104      23.104    
  26.796      23.252      18.575      14.071      10.738      8.8804      8.0145      7.4189      7.0475      6.9244    
  7.0477      7.4189      8.0144      8.8802      10.738      14.071      18.575      23.251      26.796      28.118    
  31.084      28.174      23.252      17.742      13.025      9.9192      8.3913      7.6458      7.1242      6.8590    
  6.8591      7.1243      7.6457      8.3910      9.9190      13.025      17.741      23.251      28.173      31.084    
  17.676      16.936      14.984      12.492      10.226      8.6791      7.8208      7.2070      6.7459      6.4744    
  6.3867      6.4744      6.7459      7.2070      7.8208      8.6791      10.226      12.492      14.984      16.936    
  16.936      16.936      15.564      13.309      10.923      9.0538      7.9324      7.2497      6.7107      6.3522    
  6.1795      6.1795      6.3521      6.7108      7.2498      7.9326      9.0538      10.923      13.309      15.564    
  14.984      15.621      14.984      13.309      11.195      9.3035      8.0266      7.2682      6.6788      6.2522    