unknown system                          
   1.00000000000000     
     2.260100    0.000000    0.000000
    -1.130050    1.957304    0.000000
     0.000000    0.000000    3.937230
   Fe
     2
Direct
  0.000000  0.000000  0.000000
  0.333333  0.666667  0.500000
 
   20   20   32
 0.14604761626E+03 0.13883005779E+03 0.11931309390E+03 0.92804055181E+02 0.65363117997E+02
 0.41755612702E+02 0.24625843138E+02 0.14518901477E+02 0.10159805192E+02 0.89892466201E+01
 0.86996002912E+01 0.89892812647E+01 0.10159836462E+02 0.14518903772E+02 0.24625835660E+02
 0.41755630484E+02 0.65363162162E+02 0.92804090472E+02 0.11931309566E+03 0.13883004295E+03
 0.13883327337E+03 0.13883005381E+03 0.12549592478E+03 0.10263190794E+03 0.75984076154E+02
 0.50945376408E+02 0.31151893735E+02 0.18142920207E+02 0.11510057785E+02 0.92583166856E+01
 0.86868775795E+01 0.86867451993E+01 0.92581894943E+01 0.11510104747E+02 0.18142531378E+02
 0.31150624369E+02 0.50944544330E+02 0.75986289490E+02 0.10263808602E+03 0.12550311578E+03
 0.11931786217E+03 0.12546996793E+03 0.11931309522E+03 0.10263191230E+03 0.79893657215E+02
 0.56289533188E+02 0.36012866029E+02 0.21453732631E+02 0.13080351102E+02 0.96342644327E+01
 0.86898403597E+01 0.84116673116E+01 0.86895663041E+01 0.96343370518E+01 0.13080593668E+02
 0.21452931658E+02 0.36010720056E+02 0.56288143043E+02 0.79895761565E+02 0.10263732635E+03
 0.92801874004E+02 0.10256278099E+03 0.10256352142E+03 0.92804063619E+02 0.75984073989E+02
 0.56289528857E+02 0.37811904080E+02 0.23431391449E+02 0.14349918698E+02 0.10062073548E+02
 0.87022010698E+01 0.82025309944E+01 0.82023801051E+01 0.87021366009E+01 0.10062632385E+02
 0.14350766820E+02 0.23431348691E+02 0.37810108379E+02 0.56286369419E+02 0.75980842606E+02
 0.65356244658E+02 0.75887494278E+02 0.79760687435E+02 0.75892896749E+02 0.65363117989E+02
 0.50945367906E+02 0.36012869332E+02 0.23431395494E+02 0.14837370515E+02 0.10352792271E+02
 0.87206493611E+01 0.80720806017E+01 0.78391324091E+01 0.80719824874E+01 0.87206567567E+01
 0.10353515343E+02 0.14839272794E+02 0.23433565158E+02 0.36012871052E+02 0.50941313913E+02
 0.41754780020E+02 0.50865761469E+02 0.56148610494E+02 0.56150378260E+02 0.50868976216E+02
 0.41755608478E+02 0.31151895196E+02 0.21453740693E+02 0.14349914130E+02 0.10352788644E+02
 0.87317558135E+01 0.80124603383E+01 0.76259013126E+01 0.76259451478E+01 0.80121762103E+01
 0.87309253823E+01 0.10352664880E+02 0.14352132824E+02 0.21457772212E+02 0.31154705250E+02
 0.24630602166E+02 0.31122202237E+02 0.35931459390E+02 0.37705652219E+02 0.35929349781E+02
 0.31118159538E+02 0.24625839999E+02 0.18142924504E+02 0.13080348094E+02 0.10062066244E+02
 0.87206551156E+01 0.80124634356E+01 0.75570558341E+01 0.74034941237E+01 0.75573134578E+01
 0.80117587460E+01 0.87185057600E+01 0.10059982919E+02 0.13080593668E+02 0.18146194794E+02
 0.14518857978E+02 0.18156873015E+02 0.21454819048E+02 0.23413311335E+02 0.23411125654E+02
 0.21450035890E+02 0.18153236625E+02 0.14518898660E+02 0.11510060323E+02 0.96342603423E+01
 0.87022054508E+01 0.80720868029E+01 0.76258945001E+01 0.74034916179E+01 0.74039729170E+01
 0.76267498169E+01 0.80719366932E+01 0.86999659277E+01 0.96303927552E+01 0.11506828535E+02
 0.10154804552E+02 0.11542484654E+02 0.13136433103E+02 0.14413641726E+02 0.14900926405E+02
 0.14412285348E+02 0.13136432134E+02 0.11545738839E+02 0.10159809820E+02 0.92583189481E+01
 0.86898382085E+01 0.82025343996E+01 0.78391268612E+01 0.76259402944E+01 0.75573212378E+01
 0.76267517759E+01 0.78410180020E+01 0.82045965725E+01 0.86898317079E+01 0.92549590770E+01
 0.89891288722E+01 0.92973816015E+01 0.97102591352E+01 0.10166298191E+02 0.10471935930E+02
 0.10472764694E+02 0.10168904422E+02 0.97141743458E+01 0.93005986656E+01 0.89892521173E+01
 0.86868719698E+01 0.84116653340E+01 0.82023820071E+01 0.80719802046E+01 0.80121828290E+01
 0.80117622675E+01 0.80719282092E+01 0.82045950693E+01 0.84158097950E+01 0.86901280090E+01
 0.87043667980E+01 0.87330580292E+01 0.87737814933E+01 0.88192739802E+01 0.88621534220E+01
 0.88832349049E+01 0.88642601800E+01 0.88214176882E+01 0.87735438327E+01 0.87297187057E+01
 0.86995980679E+01 0.86867406236E+01 0.86895728047E+01 0.87021386104E+01 0.87206551156E+01
 0.87309263964E+01 0.87184983644E+01 0.86999635562E+01 0.86898403597E+01 0.86901290429E+01
 0.89891206589E+01 0.87330575714E+01 0.85006626027E+01 0.83281728421E+01 0.82265233748E+01
 0.81838988927E+01 0.81843074940E+01 0.82265624619E+01 0.83259839726E+01 0.84965812997E+01
 0.87298657130E+01 0.89892785487E+01 0.92581929870E+01 0.96343405092E+01 0.10062625205E+02
 0.10353513146E+02 0.10352666310E+02 0.10059983041E+02 0.96304003030E+01 0.92549603072E+01
 0.10154797553E+02 0.92973816760E+01 0.87737888491E+01 0.83281726807E+01 0.79997264612E+01
 0.78105750663E+01 0.77503733524E+01 0.78097922577E+01 0.79978603796E+01 0.83261099337E+01
 0.87737849650E+01 0.93007510581E+01 0.10159834092E+02 0.11510106117E+02 0.13080589226E+02
 0.14350764594E+02 0.14839280380E+02 0.14352135165E+02 0.13080592234E+02 0.11506827368E+02
 0.14518859667E+02 0.11542486859E+02 0.97102651412E+01 0.88192725941E+01 0.82265171303E+01
 0.78105757373E+01 0.76048111803E+01 0.76043517862E+01 0.78097504477E+01 0.82266466130E+01
 0.88214384519E+01 0.97140637632E+01 0.11545697029E+02 0.14518902645E+02 0.18142533315E+02
 0.21452932040E+02 0.23431353684E+02 0.23433566107E+02 0.21457764532E+02 0.18146192434E+02
 0.24630609644E+02 0.18156875277E+02 0.13136431078E+02 0.10166295105E+02 0.88621486367E+01
 0.81839012644E+01 0.77503782750E+01 0.76043508246E+01 0.77501322200E+01 0.81846000786E+01
 0.88642601800E+01 0.10168333483E+02 0.13136166731E+02 0.18153609377E+02 0.24625839999E+02
 0.31150626187E+02 0.36010718336E+02 0.37810106159E+02 0.36012866029E+02 0.31154705607E+02
 0.41754784579E+02 0.31122200621E+02 0.21454812075E+02 0.14413639687E+02 0.10471938227E+02
 0.88832384605E+01 0.81843108423E+01 0.78097894236E+01 0.78097469427E+01 0.81846010552E+01
 0.88840840748E+01 0.10472088963E+02 0.14411457224E+02 0.21450818219E+02 0.31119420661E+02
 0.41755630818E+02 0.50944539782E+02 0.56288140514E+02 0.56286371221E+02 0.50941317867E+02
 0.65356242517E+02 0.50865756061E+02 0.35931455661E+02 0.23413313972E+02 0.14900932536E+02
 0.10472766351E+02 0.88642576107E+01 0.82265589403E+01 0.79978586195E+01 0.82266493359E+01
 0.88642623960E+01 0.10472088322E+02 0.14899082835E+02 0.23411171448E+02 0.35931458755E+02
 0.50869826680E+02 0.65363160012E+02 0.75986290456E+02 0.79895766189E+02 0.75980845736E+02
 0.92801869430E+02 0.75887490731E+02 0.56148613083E+02 0.37705658538E+02 0.23411128221E+02
 0.14412282059E+02 0.10168899402E+02 0.88214165356E+01 0.83259869292E+01 0.83261130518E+01
 0.88214386854E+01 0.10168331550E+02 0.14411455974E+02 0.23411171378E+02 0.37707404972E+02
 0.56151713548E+02 0.75890710998E+02 0.92804094335E+02 0.10263808814E+03 0.10263732411E+03
 0.11931786040E+03 0.10256278426E+03 0.79760691758E+02 0.56150381923E+02 0.35929346687E+02
 0.21450029360E+02 0.13136431078E+02 0.97141779225E+01 0.87735477168E+01 0.84965820503E+01
 0.87737814933E+01 0.97140613339E+01 0.13136167699E+02 0.21450818662E+02 0.35931459390E+02
 0.56151714622E+02 0.79758536438E+02 0.10255735036E+03 0.11931309522E+03 0.12550310979E+03
 0.13883327414E+03 0.12546997553E+03 0.10256352250E+03 0.75892892828E+02 0.50868972407E+02
 0.31118156151E+02 0.18153240385E+02 0.11545745015E+02 0.93005980224E+01 0.87297152638E+01
 0.87298627290E+01 0.93007503405E+01 0.11545701001E+02 0.18153610875E+02 0.31119418890E+02
 0.50869828278E+02 0.75890710625E+02 0.10255734818E+03 0.12546276150E+03 0.13883003973E+03
 0.13750985609E+03 0.13072124798E+03 0.11235164066E+03 0.87376230384E+02 0.61510489469E+02
 0.39287721962E+02 0.23240231850E+02 0.13870665198E+02 0.99052442640E+01 0.88395203009E+01
 0.85556675988E+01 0.88395548866E+01 0.99052762327E+01 0.13870668785E+02 0.23240224468E+02
 0.39287737219E+02 0.61510529594E+02 0.87376262944E+02 0.11235164240E+03 0.13072123428E+03
 0.13072424303E+03 0.13072124403E+03 0.11817028011E+03 0.96631197768E+02 0.71509466349E+02
 0.47915682624E+02 0.29322984762E+02 0.17197122852E+02 0.11106196744E+02 0.90796850439E+01
 0.85320211132E+01 0.85318906899E+01 0.90795599678E+01 0.11106258924E+02 0.17196804937E+02
 0.29321845336E+02 0.47914923797E+02 0.71511519264E+02 0.96636939280E+02 0.11817697356E+03
 0.11235608370E+03 0.11815107632E+03 0.11235164196E+03 0.96631202069E+02 0.75190482909E+02
 0.52938152190E+02 0.33866420214E+02 0.20254903442E+02 0.12520506632E+02 0.94006041691E+01
 0.85282305329E+01 0.82573821478E+01 0.85279542216E+01 0.94006596060E+01 0.12520750777E+02
 0.20254192098E+02 0.33864440769E+02 0.52936849332E+02 0.75192424746E+02 0.96636236689E+02
 0.87374206941E+02 0.96580074096E+02 0.96580759218E+02 0.87376238711E+02 0.71509464214E+02
 0.52938147920E+02 0.35549916437E+02 0.22087171927E+02 0.13672668732E+02 0.97699884896E+01
 0.85369344117E+01 0.80514914147E+01 0.80513425361E+01 0.85368547861E+01 0.97704882507E+01
 0.13673441092E+02 0.22087115236E+02 0.35548227023E+02 0.52935193999E+02 0.71506454516E+02
 0.61504103901E+02 0.71441699693E+02 0.75097101327E+02 0.71446723828E+02 0.61510489467E+02
 0.47915674241E+02 0.33866423480E+02 0.22087175920E+02 0.14116560337E+02 0.10023666905E+02
 0.85500144831E+01 0.79242496778E+01 0.76999480541E+01 0.79241686865E+01 0.85500217682E+01
 0.10024316286E+02 0.14118294528E+02 0.22089171239E+02 0.33866425167E+02 0.47911915052E+02
 0.39286962545E+02 0.47870656315E+02 0.52853234220E+02 0.52854883979E+02 0.47873650554E+02
 0.39287717801E+02 0.29322986208E+02 0.20254911401E+02 0.13672664226E+02 0.10023663325E+02
 0.85579284858E+01 0.78664126215E+01 0.74950932843E+01 0.74951523608E+01 0.78661834988E+01
 0.85571737608E+01 0.10023541612E+02 0.13674722421E+02 0.20258678108E+02 0.29325628756E+02
 0.23244665763E+02 0.29327907540E+02 0.33847405699E+02 0.35516736573E+02 0.33845458697E+02
 0.29324158568E+02 0.23240228747E+02 0.17197127093E+02 0.12520503664E+02 0.97699812809E+01
 0.85500201513E+01 0.78664156737E+01 0.74291691919E+01 0.72824387056E+01 0.74294293091E+01
 0.78657848333E+01 0.85480373700E+01 0.97680562392E+01 0.12520750777E+02 0.17200189691E+02
 0.13870607776E+02 0.17242848841E+02 0.20316594876E+02 0.22147205914E+02 0.22145178031E+02
 0.20312160758E+02 0.17239487160E+02 0.13870662408E+02 0.11106199248E+02 0.94006001337E+01
 0.85369387239E+01 0.79242557887E+01 0.74950865704E+01 0.72824362363E+01 0.72828757240E+01
 0.74958660249E+01 0.79241076765E+01 0.85348597930E+01 0.93970092799E+01 0.11103189168E+02
 0.99005671510E+01 0.11167507923E+02 0.12632470212E+02 0.13812206239E+02 0.14263387116E+02
 0.13810934433E+02 0.12632469254E+02 0.11170555566E+02 0.99052488270E+01 0.90796872824E+01
 0.85282284088E+01 0.80514947699E+01 0.76999425866E+01 0.74951475804E+01 0.74294369791E+01
 0.74958679582E+01 0.77016646651E+01 0.80533985391E+01 0.85282220088E+01 0.90765512227E+01
 0.88394045272E+01 0.91455885654E+01 0.95285953151E+01 0.99463533168E+01 0.10226292285E+02
 0.10227047829E+02 0.99487475634E+01 0.95322207218E+01 0.91485850858E+01 0.88395257349E+01
 0.85320155943E+01 0.82573802009E+01 0.80513444104E+01 0.79241664392E+01 0.78661900246E+01
 0.78657883069E+01 0.79240993183E+01 0.80533970583E+01 0.82612438433E+01 0.85350497945E+01
 0.85601088934E+01 0.86039035861E+01 0.86621355985E+01 0.87240521976E+01 0.87749520003E+01
 0.87975043897E+01 0.87768961799E+01 0.87260241490E+01 0.86618962957E+01 0.86007868608E+01
 0.85556654332E+01 0.85318861832E+01 0.85279606217E+01 0.85368567656E+01 0.85500201513E+01
 0.85571747602E+01 0.85480300850E+01 0.85348574604E+01 0.85282305329E+01 0.85350508067E+01
 0.88393964191E+01 0.86039031411E+01 0.83955644741E+01 0.82461835374E+01 0.81623545987E+01
 0.81292860378E+01 0.81296755937E+01 0.81624076634E+01 0.82441525059E+01 0.83917610923E+01
 0.86009316910E+01 0.88395522125E+01 0.90795634006E+01 0.94006630056E+01 0.97704811712E+01
 0.10024314117E+02 0.10023543023E+02 0.97680563684E+01 0.93970167149E+01 0.90765524170E+01
 0.99005602400E+01 0.91455886558E+01 0.86621428729E+01 0.82461833769E+01 0.79440827329E+01
 0.77725317583E+01 0.77184628527E+01 0.77718360767E+01 0.79423808325E+01 0.82442763877E+01
 0.86621390251E+01 0.91487354453E+01 0.99052738847E+01 0.11106260258E+02 0.12520746394E+02
 0.13673438900E+02 0.14118302006E+02 0.13674724735E+02 0.12520749362E+02 0.11103187999E+02
 0.13870609440E+02 0.11167510114E+02 0.95286012592E+01 0.87240508258E+01 0.81623484241E+01
 0.77725324220E+01 0.75812003469E+01 0.75807811535E+01 0.77717803182E+01 0.81624757866E+01
 0.87260589592E+01 0.95321261209E+01 0.11170499808E+02 0.13870667659E+02 0.17196806843E+02
 0.20254192486E+02 0.22087120162E+02 0.22089172172E+02 0.20258670536E+02 0.17200187356E+02
 0.23244673144E+02 0.17242851079E+02 0.12632468219E+02 0.99463502656E+01 0.87749472657E+01
 0.81292883825E+01 0.77184677197E+01 0.75807801986E+01 0.77182201233E+01 0.81299161016E+01
 0.87768961799E+01 0.99482328142E+01 0.12632201467E+02 0.17239790540E+02 0.23240228747E+02
 0.29321847144E+02 0.33864439082E+02 0.35548224823E+02 0.33866420214E+02 0.29325629118E+02
 0.39286967049E+02 0.29327905941E+02 0.20316587988E+02 0.13812204222E+02 0.10226294549E+02
 0.87975079002E+01 0.81296789062E+01 0.77718332672E+01 0.77717768450E+01 0.81299170694E+01
 0.87982802514E+01 0.10226443275E+02 0.13810179520E+02 0.20312854661E+02 0.29325289490E+02
 0.39287737561E+02 0.47914919327E+02 0.52936846830E+02 0.52935195767E+02 0.47911918966E+02
 0.61504101794E+02 0.47870650973E+02 0.33847402011E+02 0.22147208513E+02 0.14263393167E+02
 0.10227049463E+02 0.87768936454E+01 0.81624041827E+01 0.79423790825E+01 0.81624784805E+01
 0.87768983801E+01 0.10226442645E+02 0.14261708523E+02 0.22145239041E+02 0.33847405076E+02
 0.47874425228E+02 0.61510527486E+02 0.71511520217E+02 0.75192429288E+02 0.71506457604E+02
 0.87374202431E+02 0.71441696197E+02 0.52853236776E+02 0.35516742806E+02 0.22145180560E+02
 0.13810931182E+02 0.99487426084E+01 0.87260230204E+01 0.82441554238E+01 0.82442794661E+01
 0.87260592024E+01 0.99482309105E+01 0.13810178286E+02 0.22145238971E+02 0.35518388518E+02
 0.52856137258E+02 0.71444695875E+02 0.87376266761E+02 0.96636941358E+02 0.96636234466E+02
 0.11235608196E+03 0.96580077338E+02 0.75097105607E+02 0.52854887592E+02 0.33845455631E+02
 0.20312154306E+02 0.12632468219E+02 0.95322242695E+01 0.86619001434E+01 0.83917618236E+01
 0.86621355985E+01 0.95321237244E+01 0.12632202425E+02 0.20312855098E+02 0.33847405699E+02
 0.52856138315E+02 0.75095116929E+02 0.96575024446E+02 0.11235164196E+03 0.11817696763E+03
 0.13072424378E+03 0.11815108384E+03 0.96580760299E+02 0.71446719958E+02 0.47873646781E+02
 0.29324155219E+02 0.17239490881E+02 0.11170561681E+02 0.91485844639E+01 0.86007834512E+01
 0.86009287263E+01 0.91487347330E+01 0.11170503732E+02 0.17239792023E+02 0.29325287741E+02
 0.47874426797E+02 0.71444695501E+02 0.96575022285E+02 0.11814436917E+03 0.13072123109E+03
 0.11482502718E+03 0.10916334835E+03 0.93818158941E+02 0.72911350018E+02 0.51258854181E+02
 0.32765168983E+02 0.19633336241E+02 0.12226141278E+02 0.92683509560E+01 0.84316609585E+01
 0.81665924924E+01 0.84316944039E+01 0.92683834241E+01 0.12226147388E+02 0.19633329138E+02
 0.32765178330E+02 0.51258884530E+02 0.72911375856E+02 0.93818160618E+02 0.10916333751E+03
 0.10916575502E+03 0.10916334453E+03 0.98674855592E+02 0.80642378378E+02 0.59589985707E+02
 0.39878947519E+02 0.24524965024E+02 0.14767222653E+02 0.10095808626E+02 0.86137890275E+01
 0.81152497263E+01 0.81151260836E+01 0.86136708753E+01 0.10095906810E+02 0.14767083425E+02
 0.24524162287E+02 0.39878380538E+02 0.59591612880E+02 0.80646958337E+02 0.98680222701E+02
 0.93821733965E+02 0.98673991203E+02 0.93818160167E+02 0.80642382516E+02 0.62659316079E+02
 0.44035096963E+02 0.28212791385E+02 0.17150368716E+02 0.11107441555E+02 0.88104020408E+01
 0.80917511670E+01 0.78433464569E+01 0.80914740764E+01 0.88104149751E+01 0.11107686037E+02
 0.17149888405E+02 0.28211251320E+02 0.44034028327E+02 0.62660828240E+02 0.80646406711E+02
 0.72909745711E+02 0.80639824115E+02 0.80640362633E+02 0.72911358030E+02 0.59589983649E+02
 0.44035092862E+02 0.29584703745E+02 0.18593237499E+02 0.11952193982E+02 0.90375696577E+01
 0.80877644689E+01 0.76448826885E+01 0.76447414082E+01 0.80876496791E+01 0.90379173621E+01
 0.11952768621E+02 0.18593147308E+02 0.29583301226E+02 0.44032689331E+02 0.59587565219E+02
 0.51253766361E+02 0.59599269957E+02 0.62671950304E+02 0.59603286357E+02 0.51258854192E+02
 0.39878939468E+02 0.28212794548E+02 0.18593241345E+02 0.12281376879E+02 0.91986718934E+01
 0.80918663085E+01 0.75241904382E+01 0.73244423145E+01 0.75241527491E+01 0.80918732788E+01
 0.91991303575E+01 0.12282671413E+02 0.18594777454E+02 0.28212796142E+02 0.39875963023E+02
 0.32764601452E+02 0.39925313543E+02 0.44098592388E+02 0.44099926571E+02 0.39927719446E+02
 0.32765164996E+02 0.24524966426E+02 0.17150376383E+02 0.11952189647E+02 0.91986684480E+01
 0.80944766316E+01 0.74697312959E+01 0.71408692497E+01 0.71409643979E+01 0.74696398617E+01
 0.80939188031E+01 0.91985534794E+01 0.11953821889E+02 0.17153434424E+02 0.24527156680E+02
 0.19636902486E+02 0.24619866593E+02 0.28356726540E+02 0.29742652693E+02 0.28355209474E+02
 0.24616897703E+02 0.19633333238E+02 0.14767226731E+02 0.11107438704E+02 0.90375627199E+01
 0.80918717335E+01 0.74697342199E+01 0.70822609411E+01 0.69539728116E+01 0.70825225127E+01
 0.74692937778E+01 0.80903284575E+01 0.90360564223E+01 0.11107686037E+02 0.14769731734E+02
 0.12226050380E+02 0.14893844236E+02 0.17367270015E+02 0.18853891236E+02 0.18852282671E+02
 0.17363762589E+02 0.14891209918E+02 0.12226138567E+02 0.10095811038E+02 0.88103981629E+01
 0.80877685879E+01 0.75241962919E+01 0.71408628157E+01 0.69539704453E+01 0.69543006137E+01
 0.71414442680E+01 0.75240557411E+01 0.80861165414E+01 0.88075428421E+01 0.10093392287E+02
 0.92645411483E+01 0.10229039222E+02 0.11359177803E+02 0.12281874715E+02 0.12637242274E+02
 0.12280830452E+02 0.11359176883E+02 0.10231532139E+02 0.92683553339E+01 0.86137911977E+01
 0.80917491208E+01 0.76448859000E+01 0.73244370738E+01 0.71409598237E+01 0.70825298693E+01
 0.71414461278E+01 0.73257182076E+01 0.76463715539E+01 0.80917430047E+01 0.86112533602E+01
 0.84315517065E+01 0.87452080007E+01 0.90654334564E+01 0.93901577064E+01 0.96051612064E+01
 0.96057249913E+01 0.93919936480E+01 0.90682902819E+01 0.87476160927E+01 0.84316662103E+01
 0.81152444624E+01 0.78433445930E+01 0.76447432026E+01 0.75241506026E+01 0.74696461232E+01
 0.74692971151E+01 0.75240477408E+01 0.76463701369E+01 0.78464582952E+01 0.81176862961E+01
 0.81701658400E+01 0.82489197490E+01 0.83454198244E+01 0.84420453613E+01 0.85150906116E+01
 0.85430546545E+01 0.85166049358E+01 0.84435644200E+01 0.83451800024E+01 0.82463982011E+01
 0.81665904847E+01 0.81151217704E+01 0.80914801925E+01 0.80876515746E+01 0.80918717335E+01
 0.80939197588E+01 0.80903214872E+01 0.80861143179E+01 0.80917511670E+01 0.81176872467E+01
 0.84315439007E+01 0.82489193411E+01 0.80983766821E+01 0.80015550059E+01 0.79564627487E+01
 0.79434971896E+01 0.79438339458E+01 0.79565494421E+01 0.79999434034E+01 0.80953151157E+01
 0.82465352642E+01 0.84316918499E+01 0.86136741400E+01 0.88104182127E+01 0.90379105717E+01
 0.91991282684E+01 0.91985548357E+01 0.90360565698E+01 0.88075499575E+01 0.86112544546E+01
 0.92645344904E+01 0.87452081349E+01 0.83454268635E+01 0.80015548453E+01 0.77606388480E+01
 0.76285278727E+01 0.75879245087E+01 0.76280573785E+01 0.77593672098E+01 0.80000604611E+01
 0.83454231205E+01 0.87477587900E+01 0.92683811440E+01 0.10095908046E+02 0.11107681822E+02
 0.11952766525E+02 0.12282678582E+02 0.11953824127E+02 0.11107684673E+02 0.10093391111E+02
 0.12226051974E+02 0.10229041374E+02 0.90654392211E+01 0.84420440257E+01 0.79564567731E+01
 0.76285285181E+01 0.74705511276E+01 0.74702372722E+01 0.76279680741E+01 0.79565771955E+01
 0.84436337190E+01 0.90682368889E+01 0.10231442834E+02 0.12226146270E+02 0.14767085242E+02
 0.17149888809E+02 0.18593152041E+02 0.18594778341E+02 0.17153427161E+02 0.14769729472E+02
 0.19636909589E+02 0.14893846407E+02 0.11359175901E+02 0.93901547543E+01 0.85150860196E+01
 0.79434994618E+01 0.75879292196E+01 0.74702363377E+01 0.75876813906E+01 0.79439423737E+01
 0.85166049358E+01 0.93916254650E+01 0.11358907955E+02 0.14891338396E+02 0.19633333238E+02
 0.24524164063E+02 0.28211249727E+02 0.29583299085E+02 0.28212791385E+02 0.24527157053E+02
 0.32764605800E+02 0.24619865042E+02 0.17367263373E+02 0.12281872760E+02 0.96051633749E+01
 0.85430580404E+01 0.79438371596E+01 0.76280546390E+01 0.76279646893E+01 0.79439433153E+01
 0.85436378432E+01 0.96053045052E+01 0.12280267268E+02 0.17364228764E+02 0.24617691680E+02
 0.32765178691E+02 0.39878376284E+02 0.44034025899E+02 0.44032691005E+02 0.39875966821E+02
 0.51253764354E+02 0.39925308387E+02 0.28356722973E+02 0.18853893729E+02 0.12637248100E+02
 0.96057265583E+01 0.85166024995E+01 0.79565460775E+01 0.77593654861E+01 0.79565798064E+01
 0.85166070915E+01 0.96053039038E+01 0.12635994722E+02 0.18852379679E+02 0.28356725954E+02
 0.39928296324E+02 0.51258882534E+02 0.59591613795E+02 0.62660832559E+02 0.59587568192E+02
 0.72909741383E+02 0.59599266603E+02 0.44098594852E+02 0.29742658685E+02 0.18852285094E+02
 0.12280827308E+02 0.93919888752E+01 0.84435633567E+01 0.79999462100E+01 0.80000634283E+01
 0.84436339913E+01 0.93916236444E+01 0.12280266079E+02 0.18852379608E+02 0.29744030534E+02
 0.44100958328E+02 0.59601677721E+02 0.72911379540E+02 0.80646960292E+02 0.80646404529E+02
 0.93821732288E+02 0.80639827276E+02 0.62671954450E+02 0.44099930043E+02 0.28355206493E+02
 0.17363756362E+02 0.11359175901E+02 0.90682937440E+01 0.83451837454E+01 0.80953157973E+01
 0.83454198244E+01 0.90682345862E+01 0.11358908875E+02 0.17364229180E+02 0.28356726540E+02
 0.44100959337E+02 0.62670405482E+02 0.80635788660E+02 0.93818160167E+02 0.98680216934E+02
 0.10916575575E+03 0.98673998492E+02 0.80640363708E+02 0.59603282633E+02 0.39927715782E+02
 0.24616894464E+02 0.14891213526E+02 0.10231538074E+02 0.87476155297E+01 0.82463948886E+01
 0.82465323596E+01 0.87477580928E+01 0.10231446617E+02 0.14891339833E+02 0.24617689992E+02
 0.39928297816E+02 0.59601677352E+02 0.80635786575E+02 0.98668614667E+02 0.10916333441E+03
 0.85080397515E+02 0.80874407158E+02 0.69460912717E+02 0.53905408217E+02 0.37871136871E+02
 0.24395259300E+02 0.15165517071E+02 0.10299211040E+02 0.85203696748E+01 0.78734058003E+01
 0.76419940556E+01 0.78734343929E+01 0.85203981755E+01 0.10299217360E+02 0.15165510388E+02
 0.24395263580E+02 0.37871157606E+02 0.53905427020E+02 0.69460914294E+02 0.80874399408E+02
 0.80876042391E+02 0.80874403539E+02 0.73062891455E+02 0.59623714400E+02 0.43971330118E+02
 0.29473046136E+02 0.18475218482E+02 0.11843186242E+02 0.89359413293E+01 0.79931521794E+01
 0.75555092960E+01 0.75553989666E+01 0.79930465824E+01 0.89360731306E+01 0.11843250660E+02
 0.18474828183E+02 0.29472720368E+02 0.43972405801E+02 0.59626780845E+02 0.73066522948E+02
 0.69463348934E+02 0.73086143185E+02 0.69460913859E+02 0.59623718291E+02 0.46224954899E+02
 0.32464569244E+02 0.21018332406E+02 0.13349522630E+02 0.94657205807E+01 0.80919170401E+01
 0.75011709982E+01 0.72897381977E+01 0.75009084612E+01 0.80918844271E+01 0.94659545554E+01
 0.13349321711E+02 0.21017353917E+02 0.32463811359E+02 0.46225914977E+02 0.59626423219E+02
 0.53904348527E+02 0.59684453595E+02 0.59684802679E+02 0.53905415752E+02 0.43971328161E+02
 0.32464565391E+02 0.21972331197E+02 0.14280891082E+02 0.99296342434E+01 0.81769135950E+01
 0.74727991467E+01 0.70981122610E+01 0.70979876923E+01 0.74726541627E+01 0.81770786176E+01
 0.99299626510E+01 0.14280767450E+02 0.21971314143E+02 0.32462889245E+02 0.43969684326E+02
 0.37867740010E+02 0.44079758014E+02 0.46374274494E+02 0.44082458011E+02 0.37871136884E+02
 0.29473038572E+02 0.21018335416E+02 0.14280894708E+02 0.10114742748E+02 0.82376655316E+01
 0.74610496723E+01 0.69812950988E+01 0.68175549723E+01 0.69813072932E+01 0.74610561759E+01
 0.82378901474E+01 0.10115486310E+02 0.14281845943E+02 0.21018336872E+02 0.29471077386E+02
 0.24394933046E+02 0.29635048942E+02 0.32716610010E+02 0.32717528336E+02 0.29636683457E+02
 0.24395255560E+02 0.18475219819E+02 0.13349529857E+02 0.99296301633E+01 0.82376622923E+01
 0.74581299902E+01 0.69280039697E+01 0.66594503017E+01 0.66595791716E+01 0.69280661765E+01
 0.74578149904E+01 0.82375596137E+01 0.99307106106E+01 0.13351652852E+02 0.18476801699E+02
 0.15167945028E+02 0.18681600310E+02 0.21365391899E+02 0.22369014414E+02 0.21364427285E+02
 0.18679643850E+02 0.15165514223E+02 0.11843190081E+02 0.94657179060E+01 0.81769070710E+01
 0.74610547393E+01 0.69280067036E+01 0.66093032936E+01 0.65057804260E+01 0.66095513234E+01
 0.69277961938E+01 0.74600732200E+01 0.81759395733E+01 0.94659545554E+01 0.11844954193E+02
 0.10299086740E+02 0.12067812492E+02 0.13755647464E+02 0.14786954908E+02 0.14785891239E+02
 0.13753341922E+02 0.12066115841E+02 0.10299208448E+02 0.89359436106E+01 0.80919134046E+01
 0.74728029809E+01 0.69813005725E+01 0.66594442807E+01 0.65057782145E+01 0.65059715969E+01
 0.66597790854E+01 0.69811766733E+01 0.74717062893E+01 0.80900144393E+01 0.89342995286E+01
 0.85177086213E+01 0.91546722955E+01 0.98841197850E+01 0.10486557815E+02 0.10720662358E+02
 0.10485817343E+02 0.98841189307E+01 0.91564274585E+01 0.85203737874E+01 0.79931542443E+01
 0.75011690716E+01 0.70981152542E+01 0.68175500628E+01 0.66595749006E+01 0.66095582076E+01
 0.66597808355E+01 0.68182830141E+01 0.70990661856E+01 0.75011633753E+01 0.79914036003E+01
 0.78733085018E+01 0.82013309975E+01 0.84956442042E+01 0.87354315477E+01 0.88821530421E+01
 0.88824757484E+01 0.87365563769E+01 0.84975065760E+01 0.82029675775E+01 0.78734107735E+01
 0.75555044046E+01 0.72897364435E+01 0.70979893631E+01 0.69813053012E+01 0.69280720437E+01
 0.69277993271E+01 0.69811692077E+01 0.70990648632E+01 0.72918646964E+01 0.75571678398E+01
 0.76444286958E+01 0.77603135875E+01 0.78923603110E+01 0.80181862402E+01 0.81100701947E+01
 0.81442787818E+01 0.81110321851E+01 0.80191268503E+01 0.78921307205E+01 0.77585758383E+01
 0.76419922657E+01 0.75553949372E+01 0.75009141576E+01 0.74726559374E+01 0.74610547393E+01
 0.74578158801E+01 0.74600667164E+01 0.74717042298E+01 0.75011709982E+01 0.75571687017E+01
 0.78733011535E+01 0.77603132349E+01 0.76775754820E+01 0.76363448503E+01 0.76285565772E+01
 0.76335720437E+01 0.76338339036E+01 0.76286769075E+01 0.76352783006E+01 0.76754871921E+01
 0.77586969087E+01 0.78734320179E+01 0.79930495975E+01 0.80918874315E+01 0.81770722688E+01
 0.82378881793E+01 0.82375608849E+01 0.81759397485E+01 0.80900210792E+01 0.79914045506E+01
 0.85177023470E+01 0.82013311994E+01 0.78923669898E+01 0.76363446843E+01 0.74640055408E+01
 0.73732090405E+01 0.73461530588E+01 0.73730129624E+01 0.74632758326E+01 0.76353829474E+01
 0.78923634081E+01 0.82030934686E+01 0.85203960138E+01 0.89360742305E+01 0.94659505936E+01
 0.99299606971E+01 0.10115493016E+02 0.99307127367E+01 0.94659532683E+01 0.89342983471E+01
 0.10299088228E+02 0.91546743914E+01 0.84956496916E+01 0.80181849457E+01 0.76285508968E+01
 0.73732096632E+01 0.72525602427E+01 0.72523789523E+01 0.73728901501E+01 0.76286587419E+01
 0.80192332390E+01 0.84975034973E+01 0.91563046461E+01 0.10299216255E+02 0.11843252343E+02
 0.13349322136E+02 0.14280771896E+02 0.14281846763E+02 0.13351646050E+02 0.11844952036E+02
 0.15167951711E+02 0.12067814565E+02 0.98841180200E+01 0.87354287344E+01 0.81100658159E+01
 0.76335742172E+01 0.73461575480E+01 0.72523780450E+01 0.73459203712E+01 0.76337886422E+01
 0.81110321851E+01 0.87363711005E+01 0.98838640166E+01 0.12066044606E+02 0.15165514223E+02
 0.18474829900E+02 0.21017352460E+02 0.21971312089E+02 0.21018332406E+02 0.18476802078E+02
 0.24394937154E+02 0.18681598836E+02 0.13755641197E+02 0.10486555957E+02 0.88821550681E+01
 0.81442819888E+01 0.76338369781E+01 0.73730103293E+01 0.73728868943E+01 0.76337895432E+01
 0.81446173516E+01 0.88822794933E+01 0.10485495197E+02 0.13753533449E+02 0.18680026547E+02
 0.24395263948E+02 0.29472716426E+02 0.32463809044E+02 0.32462890782E+02 0.29471081007E+02
 0.37867738148E+02 0.29635044064E+02 0.21365388521E+02 0.14786957250E+02 0.10720667852E+02
 0.88824772143E+01 0.81110298986E+01 0.76286737092E+01 0.74632741458E+01 0.76286612239E+01
 0.81110342773E+01 0.88822789332E+01 0.10719953189E+02 0.14786021859E+02 0.21365391368E+02
 0.29637013991E+02 0.37871155757E+02 0.43972406655E+02 0.46225918981E+02 0.43969687136E+02
 0.53904344472E+02 0.44079754859E+02 0.32716612331E+02 0.22369020056E+02 0.14785893505E+02
 0.10485814358E+02 0.87365518647E+01 0.80191258783E+01 0.76352809393E+01 0.76353857521E+01
 0.80192335615E+01 0.87363694016E+01 0.10485494070E+02 0.14786021783E+02 0.22370017608E+02
 0.32718261547E+02 0.44081394266E+02 0.53905430500E+02 0.59626782644E+02 0.59626421127E+02
 0.69463347357E+02 0.59684456606E+02 0.46374278423E+02 0.32717531604E+02 0.21364424439E+02
 0.13753336032E+02 0.98841180200E+01 0.84975098976E+01 0.78921343021E+01 0.76754878170E+01
 0.78923603110E+01 0.84975013313E+01 0.98838648710E+01 0.13753533825E+02 0.21365391899E+02
 0.32718262494E+02 0.46373291538E+02 0.59681741168E+02 0.69460913859E+02 0.73066517455E+02
 0.80876043064E+02 0.73086150096E+02 0.59684803718E+02 0.44082454510E+02 0.29636679970E+02
 0.18679640784E+02 0.12066119274E+02 0.91564331099E+01 0.82029671055E+01 0.77585726820E+01
 0.77586941050E+01 0.82030927948E+01 0.91563082017E+01 0.12066045966E+02 0.18680024955E+02
 0.29637015382E+02 0.44081393920E+02 0.59681739196E+02 0.73082506671E+02 0.80874396463E+02
 0.55907010226E+02 0.53127734195E+02 0.45598078050E+02 0.35398973763E+02 0.25058529802E+02
 0.16673951832E+02 0.11307071544E+02 0.87701228652E+01 0.78278612593E+01 0.72962400638E+01
 0.71111990692E+01 0.72962580911E+01 0.78278778946E+01 0.87701240628E+01 0.11307065367E+02
 0.16673955703E+02 0.25058546539E+02 0.35398988668E+02 0.45598079508E+02 0.53127728400E+02
 0.53128627647E+02 0.53127730834E+02 0.47956979319E+02 0.39097262168E+02 0.28898471055E+02
 0.19700206994E+02 0.13078950035E+02 0.94372419839E+01 0.79974635859E+01 0.73397062327E+01