    2    2    1    1
  0.8708568E+01  0.2260100E-09  0.2260100E-09  0.3937230E-09  0.5000000E-15
  1.000000000000000E-004
  CAR 
 unknown system                          
     16     96     40
 
  0.0000000E+00  0.0000000E+00  0.0000000E+00  0.7513148E-03
    1       -0.982163   1.000000
    2        2.898452   1.000000
    3        6.165859   1.000000
    4        6.838181   1.000000
    5        6.838213   1.000000
    6        7.254159   1.000000
    7        7.254184   1.000000
    8        8.155519   1.000016
    9        8.366335   1.003420
   10        8.366347   1.003421
   11        9.759741  -0.000000
   12        9.759755  -0.000000
   13       17.913188   0.000000
   14       33.459011   0.000000
   15       34.335565   0.000000
   16       36.948525   0.000000
   17       40.493252   0.000000
   18       40.493267   0.000000
   19       41.128797   0.000000
   20       41.128903   0.000000
   21       43.017659   0.000000
   22       43.487501   0.000000
   23       43.487514   0.000000
   24       44.609378   0.000000
   25       48.102905   0.000000
   26       48.102915   0.000000
   27       49.581040   0.000000
   28       52.969954   0.000000
   29       52.970085   0.000000
   30       54.548337   0.000000
   31       54.548433   0.000000
   32       57.998659   0.000000
   33       64.936647   0.000000
   34       65.717019   0.000000
   35       65.717354   0.000000
   36       65.794247   0.000000
   37       67.072671   0.000000
   38       69.652793   0.000000
   39       69.652948   0.000000
   40       72.842872   0.000000
 
  0.9090909E-01  0.1468447E-17  0.0000000E+00  0.4507889E-02
    1       -0.610010   1.000000
    2        3.178532   1.000000
    3        6.136930   1.000000
    4        6.795960   1.000000
    5        7.074534   1.000000
    6        7.074909   1.000000
    7        7.114950   1.000000
    8        7.470073   1.000000
    9        8.193930   1.000052
   10        8.221108   1.000113
   11        9.806250  -0.000000
   12       11.111692  -0.000000
   13       17.920490   0.000000
   14       32.522778   0.000000
   15       34.685083   0.000000
   16       35.577028   0.000000
   17       37.368193   0.000000
   18       39.196630   0.000000
   19       39.383535   0.000000
   20       42.608358   0.000000
   21       43.044489   0.000000
   22       44.312376   0.000000
   23       44.838802   0.000000
   24       44.989961   0.000000
   25       49.192377   0.000000
   26       49.324293   0.000000
   27       50.215852   0.000000
   28       50.429537   0.000000
   29       53.653818   0.000000
   30       56.315670   0.000000
   31       56.960846   0.000000
   32       59.356507   0.000000
   33       63.943514   0.000000
   34       64.652376   0.000000
   35       64.901614   0.000000
   36       65.985383   0.000000
   37       66.198810   0.000000
   38       69.968088   0.000000
   39       71.825476   0.000000
   40       72.827123   0.000000
 
  0.1818182E+00 -0.1938830E-16  0.0000000E+00  0.4507889E-02
    1        0.429436   1.000000
    2        3.819100   1.000000
    3        5.732227   1.000000
    4        5.853567   1.000000
    5        6.597974   1.000000
    6        7.313544   1.000000
    7        7.737995   1.000000
    8        7.768388   1.000000
    9        7.881450   1.000000
   10        8.077853   1.000001
   11        9.886642  -0.000000
   12       13.235397  -0.000000
   13       17.985639   0.000000
   14       29.048013   0.000000
   15       34.259946   0.000000
   16       34.264299   0.000000
   17       34.600808   0.000000
   18       35.609719   0.000000
   19       40.347275   0.000000
   20       41.764459   0.000000
   21       42.315838   0.000000
   22       42.400860   0.000000
   23       45.658741   0.000000
   24       47.153647   0.000000
   25       49.712513   0.000000
   26       50.350749   0.000000
   27       51.855205   0.000000
   28       54.312941   0.000000
   29       57.248722   0.000000
   30       58.791949   0.000000
   31       59.689939   0.000000
   32       61.504177   0.000000
   33       62.494525   0.000000
   34       63.315402   0.000000
   35       63.714134   0.000000
   36       64.222600   0.000000
   37       67.486969   0.000000
   38       70.563031   0.000000
   39       72.827940   0.000000
   40       72.952327   0.000000
 
  0.2727273E+00 -0.3270005E-16  0.0000000E+00  0.4507889E-02
    1        1.848280   1.000000
    2        4.052441   1.000000
    3        4.668439   1.000000
    4        5.812395   1.000000
    5        6.416569   1.000000
    6        7.240438   1.000000
    7        7.499380   1.000000
    8        8.254065   1.000272
    9        8.680215   0.949061
   10        8.930385   0.088890
   11        9.935567  -0.000000
   12       15.574260   0.000000
   13       18.133106   0.000000
   14       24.968970   0.000000
   15       30.859026   0.000000
   16       31.565569   0.000000
   17       32.808877   0.000000
   18       35.378409   0.000000
   19       38.966911   0.000000
   20       41.763095   0.000000
   21       42.300629   0.000000
   22       42.511095   0.000000
   23       43.259662   0.000000
   24       47.187707   0.000000
   25       53.159800   0.000000
   26       54.767566   0.000000
   27       55.527187   0.000000
   28       57.276056   0.000000
   29       58.461095   0.000000
   30       59.245081   0.000000
   31       61.108826   0.000000
   32       62.360951   0.000000
   33       62.818670   0.000000
   34       63.228854   0.000000
   35       64.039068   0.000000
   36       67.163547   0.000000
   37       67.328327   0.000000
   38       71.171823   0.000000
   39       72.435806   0.000000
   40       72.670987   0.000000
 
  0.3636364E+00 -0.2573622E-17  0.0000000E+00  0.4507889E-02
    1        2.967309   1.000000
    2        3.715400   1.000000
    3        3.943427   1.000000
    4        6.107344   1.000000
    5        6.779137   1.000000
    6        6.885303   1.000000
    7        7.185240   1.000000
    8        9.634359  -0.000000
    9        9.762522  -0.000000
   10        9.795591  -0.000000
   11        9.950836  -0.000000
   12       17.797671   0.000000
   13       18.026301   0.000000
   14       22.079528   0.000000
   15       27.487766   0.000000
   16       29.492892   0.000000
   17       30.124380   0.000000
   18       34.425954   0.000000
   19       37.737994   0.000000
   20       41.038437   0.000000
   21       41.432212   0.000000
   22       43.575449   0.000000
   23       44.446470   0.000000
   24       47.380975   0.000000
   25       55.318983   0.000000
   26       56.439014   0.000000
   27       56.714597   0.000000
   28       59.975600   0.000000
   29       60.417309   0.000000
   30       60.472410   0.000000
   31       62.239887   0.000000
   32       63.432390   0.000000
   33       63.679573   0.000000
   34       64.711571   0.000000
   35       65.250623   0.000000
   36       67.043134   0.000000
   37       71.283787   0.000000
   38       71.815742   0.000000
   39       72.108903   0.000000
   40       72.172041   0.000000
 
  0.4545455E+00 -0.4001537E-16  0.0000000E+00  0.4507889E-02
    1        3.203430   1.000000
    2        3.551432   1.000000
    3        3.577620   1.000000
    4        6.515236   1.000000
    5        6.774359   1.000000
    6        7.013467   1.000000
    7        7.177796   1.000000
    8        9.952474  -0.000000
    9       10.230167  -0.000000
   10       10.383627  -0.000000
   11       11.737131  -0.000000
   12       15.657571   0.000000
   13       20.305019   0.000000
   14       22.105314   0.000000
   15       24.789675   0.000000
   16       27.438548   0.000000
   17       28.319994   0.000000
   18       33.740542   0.000000
   19       37.332306   0.000000
   20       39.780710   0.000000
   21       41.408708   0.000000
   22       44.529948   0.000000
   23       46.679555   0.000000
   24       47.398090   0.000000
   25       52.016930   0.000000
   26       57.621938   0.000000
   27       58.189222   0.000000
   28       61.416074   0.000000
   29       61.728034   0.000000
   30       62.674287   0.000000
   31       63.735855   0.000000
   32       64.060931   0.000000
   33       64.771925   0.000000
   34       67.157006   0.000000
   35       67.421793   0.000000
   36       69.937564   0.000000
   37       70.181486   0.000000
   38       70.324224   0.000000
   39       72.945439   0.000000
   40       73.167724   0.000000
 
  0.9090909E-01  0.9090909E-01  0.0000000E+00  0.4507889E-02
    1        0.099946   1.000000
    2        3.664451   1.000000
    3        5.899596   1.000000
    4        6.090260   1.000000
    5        6.851994   1.000000
    6        6.927771   1.000000
    7        7.561109   1.000000
    8        7.693420   1.000000
    9        7.945687   1.000000
   10        8.194684   1.000053
   11        9.829929  -0.000000
   12       12.651919  -0.000000
   13       17.965966   0.000000
   14       30.684863   0.000000
   15       32.442293   0.000000
   16       35.156437   0.000000
   17       36.197205   0.000000
   18       38.090376   0.000000
   19       38.344170   0.000000
   20       40.635097   0.000000
   21       42.116499   0.000000
   22       46.183995   0.000000
   23       46.607281   0.000000
   24       47.602376   0.000000
   25       48.167083   0.000000
   26       48.730465   0.000000
   27       48.948726   0.000000
   28       54.672423   0.000000
   29       57.210639   0.000000
   30       58.051325   0.000000
   31       58.225731   0.000000
   32       61.129322   0.000000
   33       62.099702   0.000000
   34       64.153195   0.000000
   35       64.383782   0.000000
   36       65.187310   0.000000
   37       65.954941   0.000000
   38       70.990328   0.000000
   39       72.640585   0.000000
   40       73.155423   0.000000
 
  0.1818182E+00  0.9090909E-01  0.0000000E+00  0.9015778E-02
    1        1.366810   1.000000
    2        4.249601   1.000000
    3        5.059463   1.000000
    4        5.516529   1.000000
    5        6.517035   1.000000
    6        7.165806   1.000000
    7        7.471912   1.000000
    8        7.883375   1.000000
    9        8.428814   1.010040
   10        8.833945   0.417188
   11        9.841112  -0.000000
   12       14.762587   0.000000
   13       18.127031   0.000000
   14       27.045170   0.000000
   15       29.866247   0.000000
   16       32.655403   0.000000
   17       34.985545   0.000000
   18       35.874415   0.000000
   19       39.270904   0.000000
   20       39.875783   0.000000
   21       41.023937   0.000000
   22       45.687785   0.000000
   23       46.061352   0.000000
   24       47.286910   0.000000
   25       50.269203   0.000000
   26       50.993157   0.000000
   27       53.071082   0.000000
   28       57.902557   0.000000
   29       59.487061   0.000000
   30       59.792240   0.000000
   31       60.482248   0.000000
   32       62.038965   0.000000
   33       62.247243   0.000000
   34       63.487215   0.000000
   35       64.632931   0.000000
   36       64.662297   0.000000
   37       66.690560   0.000000
   38       71.609621   0.000000
   39       71.936298   0.000000
   40       73.054683   0.000000
 
  0.2727273E+00  0.9090909E-01  0.0000000E+00  0.9015778E-02
    1        2.756271   1.000000
    2        4.103756   1.000000
    3        4.262842   1.000000
    4        5.658408   1.000000
    5        6.621021   1.000000
    6        6.753127   1.000000
    7        7.427261   1.000000
    8        8.413939   1.007952
    9        9.386610  -0.000198
   10        9.839934  -0.000000
   11        9.994993  -0.000000
   12       17.127557   0.000000
   13       18.351576   0.000000
   14       23.277272   0.000000
   15       27.997545   0.000000
   16       29.234789   0.000000
   17       32.641579   0.000000
   18       33.798880   0.000000
   19       38.776954   0.000000
   20       40.026060   0.000000
   21       41.226303   0.000000
   22       45.410803   0.000000
   23       45.427954   0.000000
   24       48.319950   0.000000
   25       52.447269   0.000000
   26       54.950981   0.000000
   27       56.690911   0.000000
   28       57.339634   0.000000
   29       58.610914   0.000000
   30       61.243698   0.000000
   31       61.596625   0.000000
   32       63.497799   0.000000
   33       64.143362   0.000000
   34       64.886177   0.000000
   35       64.896540   0.000000
   36       66.458365   0.000000
   37       70.353938   0.000000
   38       70.992834   0.000000
   39       71.295926   0.000000
   40       73.453745   0.000000
 
  0.3636364E+00  0.9090909E-01  0.0000000E+00  0.9015778E-02
    1        3.429513   1.000000
    2        3.771902   1.000000
    3        3.786780   1.000000
    4        6.224027   1.000000
    5        6.524743   1.000000
    6        7.019275   1.000000
    7        7.058470   1.000000
    8        9.520355  -0.000004
    9        9.827546  -0.000000
   10       10.059314  -0.000000
   11       11.448535  -0.000000
   12       17.212188   0.000000
   13       19.569237   0.000000
   14       21.895993   0.000000
   15       26.186427   0.000000
   16       26.523905   0.000000
   17       29.340477   0.000000
   18       32.798491   0.000000
   19       37.793178   0.000000
   20       39.482733   0.000000
   21       42.314330   0.000000
   22       45.745671   0.000000
   23       46.668063   0.000000
   24       47.977205   0.000000
   25       53.936375   0.000000
   26       55.207497   0.000000
   27       57.390811   0.000000
   28       58.878839   0.000000
   29       60.818766   0.000000
   30       61.914859   0.000000
   31       62.611827   0.000000
   32       63.710940   0.000000
   33       64.190233   0.000000
   34       66.925703   0.000000
   35       68.468171   0.000000
   36       68.530441   0.000000
   37       69.142569   0.000000
   38       72.102947   0.000000
   39       72.797534   0.000000
   40       73.641147   0.000000
 
  0.4545455E+00  0.9090909E-01  0.0000000E+00  0.4507889E-02
    1        3.412139   1.000000
    2        3.606716   1.000000
    3        3.767786   1.000000
    4        6.470658   1.000000
    5        6.675398   1.000000
    6        6.843202   1.000000
    7        7.199820   1.000000
    8        9.820536  -0.000000
    9       10.144636  -0.000000
   10       10.171849  -0.000000
   11       12.826745  -0.000000
   12       15.362633   0.000000
   13       21.212286   0.000000
   14       22.558205   0.000000
   15       24.341981   0.000000
   16       25.704919   0.000000
   17       27.765377   0.000000
   18       32.437614   0.000000
   19       37.368767   0.000000
   20       39.310008   0.000000
   21       42.550659   0.000000
   22       46.612855   0.000000
   23       46.870698   0.000000
   24       48.400244   0.000000
   25       51.782308   0.000000
   26       56.863566   0.000000
   27       57.681486   0.000000
   28       59.720191   0.000000
   29       61.719922   0.000000
   30       62.026026   0.000000
   31       64.016903   0.000000
   32       64.071819   0.000000
   33       64.736561   0.000000
   34       66.000393   0.000000
   35       69.211794   0.000000
   36       70.818162   0.000000
   37       71.042367   0.000000
   38       71.065754   0.000000
   39       71.884030   0.000000
   40       74.775128   0.000000
 
  0.1818182E+00  0.1818182E+00  0.0000000E+00  0.4507889E-02
    1        2.714267   1.000000
    2        4.450373   1.000000
    3        4.737020   1.000000
    4        4.966445   1.000000
    5        6.610542   1.000000
    6        6.621228   1.000000
    7        7.614603   1.000000
    8        7.770920   1.000000
    9        9.359760  -0.000395
   10        9.718139  -0.000000
   11       10.073945  -0.000000
   12       16.842572   0.000000
   13       18.564940   0.000000
   14       24.883063   0.000000
   15       25.940849   0.000000
   16       30.612217   0.000000
   17       32.602708   0.000000
   18       35.112729   0.000000
   19       35.932139   0.000000
   20       40.773916   0.000000
   21       42.452127   0.000000
   22       47.080688   0.000000
   23       47.251460   0.000000
   24       49.192271   0.000000
   25       50.059781   0.000000
   26       52.231630   0.000000
   27       53.712987   0.000000
   28       58.699732   0.000000
   29       59.619239   0.000000
   30       60.543596   0.000000
   31       60.852105   0.000000
   32       63.607059   0.000000
   33       63.701288   0.000000
   34       65.235203   0.000000
   35       66.227376   0.000000
   36       67.437425   0.000000
   37       67.668850   0.000000
   38       70.709530   0.000000
   39       71.158365   0.000000
   40       74.338244   0.000000
 
  0.2727273E+00  0.1818182E+00  0.0000000E+00  0.9015778E-02
    1        3.905500   1.000000
    2        4.030369   1.000000
    3        4.368238   1.000000
    4        5.286575   1.000000
    5        6.326984   1.000000
    6        6.951360   1.000000
    7        7.132206   1.000000
    8        8.463346   1.016235
    9        9.613590  -0.000000
   10        9.991789  -0.000000
   11       11.611900  -0.000000
   12       18.926352   0.000000
   13       19.226962   0.000000
   14       22.017778   0.000000
   15       24.141692   0.000000
   16       28.071840   0.000000
   17       30.793434   0.000000
   18       31.558068   0.000000
   19       34.584012   0.000000
   20       42.957924   0.000000
   21       43.003207   0.000000
   22       46.962972   0.000000
   23       48.894833   0.000000
   24       50.331875   0.000000
   25       51.576289   0.000000
   26       53.354660   0.000000
   27       54.974556   0.000000
   28       56.641825   0.000000
   29       59.601264   0.000000
   30       61.030133   0.000000
   31       62.651592   0.000000
   32       63.508785   0.000000
   33       64.398014   0.000000
   34       66.539224   0.000000
   35       68.139923   0.000000
   36       68.634512   0.000000
   37       70.483412   0.000000
   38       71.575369   0.000000
   39       73.231469   0.000000
   40       74.808322   0.000000
 
  0.3636364E+00  0.1818182E+00  0.0000000E+00  0.9015778E-02
    1        3.822598   1.000000
    2        4.026038   1.000000
    3        4.291961   1.000000
    4        5.933524   1.000000
    5        6.337697   1.000000
    6        6.651226   1.000000
    7        7.271984   1.000000
    8        9.318893  -0.001044
    9        9.553555  -0.000001
   10       10.023260  -0.000000
   11       13.425464  -0.000000
   12       16.890009   0.000000
   13       21.628628   0.000000
   14       22.295939   0.000000
   15       23.320421   0.000000
   16       25.400672   0.000000
   17       28.522898   0.000000
   18       30.040973   0.000000
   19       33.897599   0.000000
   20       42.946830   0.000000
   21       44.832986   0.000000
   22       47.238515   0.000000
   23       48.769497   0.000000
   24       49.813579   0.000000
   25       53.987100   0.000000
   26       54.020925   0.000000
   27       55.893554   0.000000
   28       56.498756   0.000000
   29       60.434657   0.000000
   30       61.213941   0.000000
   31       62.011785   0.000000
   32       64.093649   0.000000
   33       64.286954   0.000000
   34       65.066930   0.000000
   35       69.006876   0.000000
   36       70.292766   0.000000
   37       71.906200   0.000000
   38       72.401206   0.000000
   39       73.515027   0.000000
   40       74.195042   0.000000
 
  0.2727273E+00  0.2727273E+00  0.0000000E+00  0.4507889E-02
    1        3.973392   1.000000
    2        4.567009   1.000000
    3        4.929030   1.000000
    4        5.006559   1.000000
    5        6.143264   1.000000
    6        6.667100   1.000000
    7        7.325006   1.000000
    8        8.786734   0.615295
    9        9.416281  -0.000088
   10        9.985920  -0.000000
   11       13.592497  -0.000000
   12       19.156862   0.000000
   13       19.700376   0.000000
   14       21.676345   0.000000
   15       23.286295   0.000000
   16       27.255401   0.000000
   17       27.812172   0.000000
   18       30.290807   0.000000
   19       31.226596   0.000000
   20       44.628157   0.000000
   21       45.663263   0.000000
   22       49.580838   0.000000
   23       50.610645   0.000000
   24       51.206674   0.000000
   25       51.576227   0.000000
   26       51.773163   0.000000
   27       54.864961   0.000000
   28       57.378730   0.000000
   29       57.598666   0.000000
   30       60.582109   0.000000
   31       61.616532   0.000000
   32       64.397921   0.000000
   33       64.416284   0.000000
   34       64.961250   0.000000
   35       69.208800   0.000000
   36       70.344293   0.000000
   37       70.442573   0.000000
   38       72.184705   0.000000
   39       73.914353   0.000000
   40       75.047235   0.000000
 
  0.3636364E+00  0.2727273E+00  0.0000000E+00  0.4507889E-02
    1        3.981110   1.000000
    2        4.678479   1.000000
    3        4.808913   1.000000
    4        5.391819   1.000000
    5        6.228810   1.000000
    6        6.313882   1.000000
    7        7.503269   1.000000
    8        9.241550  -0.005020
    9        9.341173  -0.000622
   10        9.613436  -0.000000
   11       15.464548   0.000000
   12       17.076572   0.000000
   13       19.315249   0.000000
   14       23.816208   0.000000
   15       24.259051   0.000000
   16       25.249231   0.000000
   17       27.247085   0.000000
   18       28.593331   0.000000
   19       30.590361   0.000000
   20       44.995294   0.000000
   21       47.993140   0.000000
   22       49.593170   0.000000
   23       49.772507   0.000000
   24       50.827697   0.000000
   25       52.270034   0.000000
   26       53.160940   0.000000
   27       56.493286   0.000000
   28       56.514414   0.000000
   29       56.980225   0.000000
   30       60.325209   0.000000
   31       61.282809   0.000000
   32       61.937227   0.000000
   33       64.588800   0.000000
   34       64.882696   0.000000
   35       68.838339   0.000000
   36       70.508803   0.000000
   37       72.672646   0.000000
   38       73.316574   0.000000
   39       73.401087   0.000000
   40       73.727777   0.000000
 
  0.0000000E+00  0.0000000E+00  0.9090909E-01  0.1502630E-02
    1       -0.889628   1.000000
    2        2.883032   1.000000
    3        6.134105   1.000000
    4        6.825418   1.000000
    5        6.825449   1.000000
    6        7.231061   1.000000
    7        7.231085   1.000000
    8        7.907102   1.000000
    9        8.419069   1.008633
   10        8.419082   1.008634
   11        9.748548  -0.000000
   12        9.748562  -0.000000
   13       18.305984   0.000000
   14       33.058595   0.000000
   15       34.287495   0.000000
   16       36.745018   0.000000
   17       40.521256   0.000000
   18       40.521271   0.000000
   19       41.128168   0.000000
   20       41.128269   0.000000
   21       43.207568   0.000000
   22       43.472597   0.000000
   23       43.472609   0.000000
   24       44.918513   0.000000
   25       47.815498   0.000000
   26       47.815509   0.000000
   27       49.878205   0.000000
   28       53.220917   0.000000
   29       53.221045   0.000000
   30       54.921953   0.000000
   31       54.922038   0.000000
   32       57.700996   0.000000
   33       64.350341   0.000000
   34       65.090855   0.000000
   35       65.586236   0.000000
   36       65.586558   0.000000
   37       68.534985   0.000000
   38       68.839676   0.000000
   39       68.839807   0.000000
   40       71.779802   0.000000
 
  0.9090909E-01  0.1468447E-17  0.9090909E-01  0.9015778E-02
    1       -0.520091   1.000000
    2        3.168088   1.000000
    3        6.127527   1.000000
    4        6.747378   1.000000
    5        6.839685   1.000000
    6        7.056807   1.000000
    7        7.208940   1.000000
    8        7.443511   1.000000
    9        8.252218   1.000259
   10        8.283598   1.000568
   11        9.791173  -0.000000
   12       10.940135  -0.000000
   13       18.353049   0.000000
   14       32.443382   0.000000
   15       34.253029   0.000000
   16       35.543014   0.000000
   17       37.436051   0.000000
   18       38.530679   0.000000
   19       40.058883   0.000000
   20       42.627514   0.000000
   21       42.795350   0.000000
   22       44.394395   0.000000
   23       44.847891   0.000000
   24       45.387073   0.000000
   25       48.872086   0.000000
   26       49.213213   0.000000
   27       50.687264   0.000000
   28       50.885553   0.000000
   29       53.570672   0.000000
   30       56.515435   0.000000
   31       57.212714   0.000000
   32       59.144045   0.000000
   33       62.746613   0.000000
   34       64.685348   0.000000
   35       64.861978   0.000000
   36       65.698381   0.000000
   37       67.376079   0.000000
   38       69.264184   0.000000
   39       70.682242   0.000000
   40       71.696970   0.000000
 
  0.1818182E+00 -0.1938830E-16  0.9090909E-01  0.9015778E-02
    1        0.508627   1.000000
    2        3.824292   1.000000
    3        5.629002   1.000000
    4        5.878479   1.000000
    5        6.557013   1.000000
    6        7.209477   1.000000
    7        7.653396   1.000000
    8        7.924190   1.000000
    9        7.955074   1.000000
   10        8.113067   1.000004
   11        9.864017  -0.000000
   12       12.863920  -0.000000
   13       18.543081   0.000000
   14       29.114257   0.000000
   15       33.629328   0.000000
   16       34.360572   0.000000
   17       35.037048   0.000000
   18       35.192369   0.000000
   19       40.135618   0.000000
   20       41.487817   0.000000
   21       41.910793   0.000000
   22       43.199610   0.000000
   23       45.955258   0.000000
   24       47.761847   0.000000
   25       49.998592   0.000000
   26       50.329515   0.000000
   27       51.693639   0.000000
   28       54.388789   0.000000
   29       56.908192   0.000000
   30       59.113886   0.000000
   31       59.944896   0.000000
   32       60.858960   0.000000
   33       61.836493   0.000000
   34       63.065268   0.000000
   35       64.156705   0.000000
   36       65.089825   0.000000
   37       67.448074   0.000000
   38       70.118109   0.000000
   39       71.464429   0.000000
   40       72.479025   0.000000
 
  0.2727273E+00 -0.3270005E-16  0.9090909E-01  0.9015778E-02
    1        1.895178   1.000000
    2        4.066865   1.000000
    3        4.639443   1.000000
    4        5.815168   1.000000
    5        6.358476   1.000000
    6        7.281500   1.000000
    7        7.527345   1.000000
    8        8.295664   1.000757
    9        8.693884   0.920876
   10        8.909629   0.142909
   11        9.907965  -0.000000
   12       14.851606   0.000000
   13       18.985043   0.000000
   14       25.040610   0.000000
   15       30.459130   0.000000
   16       31.688184   0.000000
   17       33.073252   0.000000
   18       35.253611   0.000000
   19       38.792433   0.000000
   20       40.878133   0.000000
   21       41.227606   0.000000
   22       43.567578   0.000000
   23       44.179868   0.000000
   24       48.018069   0.000000
   25       53.286137   0.000000
   26       54.592125   0.000000
   27       55.169197   0.000000
   28       55.685995   0.000000
   29       59.331894   0.000000
   30       59.934366   0.000000
   31       61.413366   0.000000
   32       62.213083   0.000000
   33       62.520671   0.000000
   34       62.975394   0.000000
   35       64.610655   0.000000
   36       66.624204   0.000000
   37       67.622045   0.000000
   38       70.753352   0.000000
   39       71.206755   0.000000
   40       73.342654   0.000000
 
  0.3636364E+00 -0.2573622E-17  0.9090909E-01  0.9015778E-02
    1        2.928658   1.000000
    2        3.666540   1.000000
    3        4.089274   1.000000
    4        5.815136   1.000000
    5        6.889396   1.000000
    6        7.139179   1.000000
    7        7.230919   1.000000
    8        9.638748  -0.000000
    9        9.713078  -0.000000
   10        9.716860  -0.000000
   11        9.970034  -0.000000
   12       16.389036   0.000000
   13       19.428016   0.000000
   14       22.210611   0.000000
   15       27.140892   0.000000
   16       29.632999   0.000000
   17       30.495060   0.000000
   18       34.428669   0.000000
   19       37.702127   0.000000
   20       39.686865   0.000000
   21       42.242216   0.000000
   22       42.884680   0.000000
   23       45.044489   0.000000
   24       48.403685   0.000000
   25       53.911439   0.000000
   26       56.591475   0.000000
   27       57.735228   0.000000
   28       58.825131   0.000000
   29       59.985048   0.000000
   30       61.545446   0.000000
   31       62.390671   0.000000
   32       63.530194   0.000000
   33       63.822141   0.000000
   34       64.908123   0.000000
   35       65.249922   0.000000
   36       67.024689   0.000000
   37       70.434966   0.000000
   38       71.351788   0.000000
   39       71.976592   0.000000
   40       72.999955   0.000000
 
  0.4545455E+00 -0.4001537E-16  0.9090909E-01  0.9015778E-02
    1        3.154085   1.000000
    2        3.297124   1.000000
    3        3.955062   1.000000
    4        5.905263   1.000000
    5        7.060612   1.000000
    6        7.135520   1.000000
    7        7.524296   1.000000
    8        9.869112  -0.000000
    9       10.237211  -0.000000
   10       10.384821  -0.000000
   11       11.626256  -0.000000
   12       15.438979   0.000000
   13       20.206307   0.000000
   14       22.111980   0.000000
   15       24.943021   0.000000
   16       27.791855   0.000000
   17       28.470574   0.000000
   18       33.769550   0.000000
   19       37.305997   0.000000
   20       38.762795   0.000000
   21       42.394636   0.000000