<?xml version="1.0" encoding="ISO-8859-1"?>
<modeling>
 <generator>
  <i name="program" type="string">vasp </i>
  <i name="version" type="string">6.2.0  </i>
  <i name="subversion" type="string">18Jan21 (build Mar 17 2021 09:06:54) complex                          serial </i>
  <i name="platform" type="string">LinuxIFC </i>
  <i name="date" type="string">2021 09 09 </i>
  <i name="time" type="string">11:59:41 </i>
 </generator>
 <incar>
  <i type="string" name="PREC">normal</i>
  <i type="int" name="ICHARG">     1</i>
  <i type="int" name="IBRION">     1</i>
  <i name="EDIFF">      0.00000100</i>
  <i type="int" name="NSW">     0</i>
  <i type="int" name="ISIF">     2</i>
  <i name="ENCUT">    280.00000000</i>
  <i type="int" name="NBANDS">    40</i>
  <i type="int" name="ISMEAR">     1</i>
  <i name="SIGMA">      0.20000000</i>
  <i type="logical" name="LCHARG"> T  </i>
  <i type="int" name="KPAR">     1</i>
  <i type="int" name="NCORE">     1</i>
  <i type="string" name="GGA">PE</i>
 </incar>
 <primitive_cell>
  <structure name="primitive_cell" >
   <crystal>
    <varray name="basis" >
     <v>       2.26010000       0.00000000       0.00000000 </v>
     <v>      -1.13005000       1.95730402       0.00000000 </v>
     <v>       0.00000000       0.00000000       3.93723000 </v>
    </varray>
    <i name="volume">     17.41713539 </i>
    <varray name="rec_basis" >
     <v>       0.44245830       0.25545342       0.00000000 </v>
     <v>       0.00000000       0.51090684       0.00000000 </v>
     <v>       0.00000000       0.00000000       0.25398567 </v>
    </varray>
   </crystal>
   <varray name="positions" >
    <v>       0.00000000       0.00000000       0.00000000 </v>
    <v>       0.33333333       0.66666667       0.50000000 </v>
   </varray>
  </structure>
  <varray name="primitive_index" >
   <v type="int" >        1 </v>
   <v type="int" >        2 </v>
  </varray>
 </primitive_cell>
 <kpoints>
  <generation param="Monkhorst-Pack">
   <v type="int" name="divisions">      11       11       11 </v>
   <v name="usershift">      0.00000000       0.00000000       0.00000000 </v>
   <v name="genvec1">      0.09090909       0.00000000       0.00000000 </v>
   <v name="genvec2">      0.00000000       0.09090909       0.00000000 </v>
   <v name="genvec3">      0.00000000       0.00000000       0.09090909 </v>
   <v name="shift">      0.00000000       0.00000000       0.00000000 </v>
  </generation>
  <varray name="kpointlist" >
   <v>       0.00000000       0.00000000       0.00000000 </v>
   <v>       0.09090909       0.00000000       0.00000000 </v>
   <v>       0.18181818      -0.00000000       0.00000000 </v>
   <v>       0.27272727      -0.00000000       0.00000000 </v>
   <v>       0.36363636      -0.00000000       0.00000000 </v>
   <v>       0.45454545      -0.00000000       0.00000000 </v>
   <v>       0.09090909       0.09090909       0.00000000 </v>
   <v>       0.18181818       0.09090909       0.00000000 </v>
   <v>       0.27272727       0.09090909       0.00000000 </v>
   <v>       0.36363636       0.09090909       0.00000000 </v>
   <v>       0.45454545       0.09090909       0.00000000 </v>
   <v>       0.18181818       0.18181818       0.00000000 </v>
   <v>       0.27272727       0.18181818       0.00000000 </v>
   <v>       0.36363636       0.18181818       0.00000000 </v>
   <v>       0.27272727       0.27272727       0.00000000 </v>
   <v>       0.36363636       0.27272727       0.00000000 </v>
   <v>       0.00000000       0.00000000       0.09090909 </v>
   <v>       0.09090909       0.00000000       0.09090909 </v>
   <v>       0.18181818      -0.00000000       0.09090909 </v>
   <v>       0.27272727      -0.00000000       0.09090909 </v>
   <v>       0.36363636      -0.00000000       0.09090909 </v>
   <v>       0.45454545      -0.00000000       0.09090909 </v>
   <v>       0.09090909       0.09090909       0.09090909 </v>
   <v>       0.18181818       0.09090909       0.09090909 </v>
   <v>       0.27272727       0.09090909       0.09090909 </v>
   <v>       0.36363636       0.09090909       0.09090909 </v>
   <v>       0.45454545       0.09090909       0.09090909 </v>
   <v>       0.18181818       0.18181818       0.09090909 </v>
   <v>       0.27272727       0.18181818       0.09090909 </v>
   <v>       0.36363636       0.18181818       0.09090909 </v>
   <v>       0.27272727       0.27272727       0.09090909 </v>
   <v>       0.36363636       0.27272727       0.09090909 </v>
   <v>       0.00000000       0.00000000       0.18181818 </v>
   <v>       0.09090909       0.00000000       0.18181818 </v>
   <v>       0.18181818      -0.00000000       0.18181818 </v>
   <v>       0.27272727      -0.00000000       0.18181818 </v>
   <v>       0.36363636      -0.00000000       0.18181818 </v>
   <v>       0.45454545      -0.00000000       0.18181818 </v>
   <v>       0.09090909       0.09090909       0.18181818 </v>
   <v>       0.18181818       0.09090909       0.18181818 </v>
   <v>       0.27272727       0.09090909       0.18181818 </v>
   <v>       0.36363636       0.09090909       0.18181818 </v>
   <v>       0.45454545       0.09090909       0.18181818 </v>
   <v>       0.18181818       0.18181818       0.18181818 </v>
   <v>       0.27272727       0.18181818       0.18181818 </v>
   <v>       0.36363636       0.18181818       0.18181818 </v>
   <v>       0.27272727       0.27272727       0.18181818 </v>
   <v>       0.36363636       0.27272727       0.18181818 </v>
   <v>       0.00000000       0.00000000       0.27272727 </v>
   <v>       0.09090909       0.00000000       0.27272727 </v>
   <v>       0.18181818      -0.00000000       0.27272727 </v>
   <v>       0.27272727      -0.00000000       0.27272727 </v>
   <v>       0.36363636      -0.00000000       0.27272727 </v>
   <v>       0.45454545      -0.00000000       0.27272727 </v>
   <v>       0.09090909       0.09090909       0.27272727 </v>
   <v>       0.18181818       0.09090909       0.27272727 </v>
   <v>       0.27272727       0.09090909       0.27272727 </v>
   <v>       0.36363636       0.09090909       0.27272727 </v>
   <v>       0.45454545       0.09090909       0.27272727 </v>
   <v>       0.18181818       0.18181818       0.27272727 </v>
   <v>       0.27272727       0.18181818       0.27272727 </v>
   <v>       0.36363636       0.18181818       0.27272727 </v>
   <v>       0.27272727       0.27272727       0.27272727 </v>
   <v>       0.36363636       0.27272727       0.27272727 </v>
   <v>       0.00000000       0.00000000       0.36363636 </v>
   <v>       0.09090909       0.00000000       0.36363636 </v>
   <v>       0.18181818      -0.00000000       0.36363636 </v>
   <v>       0.27272727      -0.00000000       0.36363636 </v>
   <v>       0.36363636      -0.00000000       0.36363636 </v>
   <v>       0.45454545      -0.00000000       0.36363636 </v>
   <v>       0.09090909       0.09090909       0.36363636 </v>
   <v>       0.18181818       0.09090909       0.36363636 </v>
   <v>       0.27272727       0.09090909       0.36363636 </v>
   <v>       0.36363636       0.09090909       0.36363636 </v>
   <v>       0.45454545       0.09090909       0.36363636 </v>
   <v>       0.18181818       0.18181818       0.36363636 </v>
   <v>       0.27272727       0.18181818       0.36363636 </v>
   <v>       0.36363636       0.18181818       0.36363636 </v>
   <v>       0.27272727       0.27272727       0.36363636 </v>
   <v>       0.36363636       0.27272727       0.36363636 </v>
   <v>       0.00000000       0.00000000       0.45454545 </v>
   <v>       0.09090909       0.00000000       0.45454545 </v>
   <v>       0.18181818      -0.00000000       0.45454545 </v>
   <v>       0.27272727      -0.00000000       0.45454545 </v>
   <v>       0.36363636      -0.00000000       0.45454545 </v>
   <v>       0.45454545      -0.00000000       0.45454545 </v>
   <v>       0.09090909       0.09090909       0.45454545 </v>
   <v>       0.18181818       0.09090909       0.45454545 </v>
   <v>       0.27272727       0.09090909       0.45454545 </v>
   <v>       0.36363636       0.09090909       0.45454545 </v>
   <v>       0.45454545       0.09090909       0.45454545 </v>
   <v>       0.18181818       0.18181818       0.45454545 </v>
   <v>       0.27272727       0.18181818       0.45454545 </v>
   <v>       0.36363636       0.18181818       0.45454545 </v>
   <v>       0.27272727       0.27272727       0.45454545 </v>
   <v>       0.36363636       0.27272727       0.45454545 </v>
  </varray>
  <varray name="weights" >
   <v>       0.00075131 </v>
   <v>       0.00450789 </v>
   <v>       0.00450789 </v>
   <v>       0.00450789 </v>
   <v>       0.00450789 </v>
   <v>       0.00450789 </v>
   <v>       0.00450789 </v>
   <v>       0.00901578 </v>
   <v>       0.00901578 </v>
   <v>       0.00901578 </v>
   <v>       0.00450789 </v>
   <v>       0.00450789 </v>
   <v>       0.00901578 </v>
   <v>       0.00901578 </v>
   <v>       0.00450789 </v>
   <v>       0.00450789 </v>
   <v>       0.00150263 </v>
   <v>       0.00901578 </v>
   <v>       0.00901578 </v>
   <v>       0.00901578 </v>
   <v>       0.00901578 </v>
   <v>       0.00901578 </v>
   <v>       0.00901578 </v>
   <v>       0.01803156 </v>
   <v>       0.01803156 </v>
   <v>       0.01803156 </v>
   <v>       0.00901578 </v>
   <v>       0.00901578 </v>
   <v>       0.01803156 </v>
   <v>       0.01803156 </v>
   <v>       0.00901578 </v>
   <v>       0.00901578 </v>
   <v>       0.00150263 </v>
   <v>       0.00901578 </v>
   <v>       0.00901578 </v>
   <v>       0.00901578 </v>
   <v>       0.00901578 </v>
   <v>       0.00901578 </v>
   <v>       0.00901578 </v>
   <v>       0.01803156 </v>
   <v>       0.01803156 </v>
   <v>       0.01803156 </v>
   <v>       0.00901578 </v>
   <v>       0.00901578 </v>
   <v>       0.01803156 </v>
   <v>       0.01803156 </v>
   <v>       0.00901578 </v>
   <v>       0.00901578 </v>
   <v>       0.00150263 </v>
   <v>       0.00901578 </v>
   <v>       0.00901578 </v>
   <v>       0.00901578 </v>
   <v>       0.00901578 </v>
   <v>       0.00901578 </v>
   <v>       0.00901578 </v>
   <v>       0.01803156 </v>
   <v>       0.01803156 </v>
   <v>       0.01803156 </v>
   <v>       0.00901578 </v>
   <v>       0.00901578 </v>
   <v>       0.01803156 </v>
   <v>       0.01803156 </v>
   <v>       0.00901578 </v>
   <v>       0.00901578 </v>
   <v>       0.00150263 </v>
   <v>       0.00901578 </v>
   <v>       0.00901578 </v>
   <v>       0.00901578 </v>
   <v>       0.00901578 </v>
   <v>       0.00901578 </v>
   <v>       0.00901578 </v>
   <v>       0.01803156 </v>
   <v>       0.01803156 </v>
   <v>       0.01803156 </v>
   <v>       0.00901578 </v>
   <v>       0.00901578 </v>
   <v>       0.01803156 </v>
   <v>       0.01803156 </v>
   <v>       0.00901578 </v>
   <v>       0.00901578 </v>
   <v>       0.00150263 </v>
   <v>       0.00901578 </v>
   <v>       0.00901578 </v>
   <v>       0.00901578 </v>
   <v>       0.00901578 </v>
   <v>       0.00901578 </v>
   <v>       0.00901578 </v>
   <v>       0.01803156 </v>
   <v>       0.01803156 </v>
   <v>       0.01803156 </v>
   <v>       0.00901578 </v>
   <v>       0.00901578 </v>
   <v>       0.01803156 </v>
   <v>       0.01803156 </v>
   <v>       0.00901578 </v>
   <v>       0.00901578 </v>
  </varray>
 </kpoints>
 <parameters>
  <separator name="general" >
   <i type="string" name="SYSTEM">unknown system</i>
   <i type="logical" name="LCOMPAT"> F  </i>
  </separator>
  <separator name="electronic" >
   <i type="string" name="PREC">normal</i>
   <i name="ENMAX">    280.00000000</i>
   <i name="ENAUG">    511.36800000</i>
   <i name="EDIFF">      0.00000100</i>
   <i type="int" name="IALGO">    38</i>
   <i type="int" name="IWAVPR">     0</i>
   <i type="int" name="NBANDS">    40</i>
   <i type="int" name="NBANDSLOW">    -1</i>
   <i type="int" name="NBANDSHIGH">    -1</i>
   <i name="NELECT">     16.00000000</i>
   <i type="int" name="TURBO">     0</i>
   <i type="int" name="IRESTART">     0</i>
   <i type="int" name="NREBOOT">     0</i>
   <i type="int" name="NMIN">     0</i>
   <i name="EREF">      0.00000000</i>
   <separator name="electronic smearing" >
    <i type="int" name="ISMEAR">     1</i>
    <i name="SIGMA">      0.20000000</i>
    <i name="KSPACING">      0.50000000</i>
    <i type="logical" name="KGAMMA"> T  </i>
    <i type="logical" name="KBLOWUP"> T  </i>
   </separator>
   <separator name="electronic projectors" >
    <i type="logical" name="LREAL"> F  </i>
    <v name="ROPT">      0.00000000</v>
    <i type="int" name="LMAXPAW">  -100</i>
    <i type="int" name="LMAXMIX">     2</i>
    <i type="logical" name="NLSPLINE"> F  </i>
   </separator>
   <separator name="electronic startup" >
    <i type="int" name="ISTART">     0</i>
    <i type="int" name="ICHARG">     1</i>
    <i type="int" name="INIWAV">     1</i>
   </separator>
   <separator name="electronic spin" >
    <i type="int" name="ISPIN">     1</i>
    <i type="logical" name="LNONCOLLINEAR"> F  </i>
    <v name="MAGMOM">      1.00000000      1.00000000</v>
    <i name="NUPDOWN">     -1.00000000</i>
    <i type="logical" name="LSORBIT"> F  </i>
    <v name="SAXIS">      0.00000000      0.00000000      1.00000000</v>
    <i type="logical" name="LSPIRAL"> F  </i>
    <v name="QSPIRAL">      0.00000000      0.00000000      0.00000000</v>
    <i type="logical" name="LZEROZ"> F  </i>
   </separator>
   <separator name="electronic exchange-correlation" >
    <i type="logical" name="LASPH"> F  </i>
    <i type="logical" name="LMETAGGA"> F  </i>
   </separator>
   <separator name="electronic convergence" >
    <i type="int" name="NELM">    60</i>
    <i type="int" name="NELMDL">    -5</i>
    <i type="int" name="NELMIN">     2</i>
    <i name="ENINI">    280.00000000</i>
    <separator name="electronic convergence detail" >
     <i type="logical" name="LDIAG"> T  </i>
     <i type="logical" name="LSUBROT"> F  </i>
     <i name="WEIMIN">      0.00000000</i>
     <i name="EBREAK">      0.00000001</i>
     <i name="DEPER">      0.30000000</i>
     <i type="int" name="NRMM">     4</i>
     <i name="TIME">      0.40000000</i>
    </separator>
   </separator>
   <separator name="electronic mixer" >
    <i name="AMIX">      0.40000000</i>
    <i name="BMIX">      1.00000000</i>
    <i name="AMIN">      0.10000000</i>
    <i name="AMIX_MAG">      1.60000000</i>
    <i name="BMIX_MAG">      1.00000000</i>
    <separator name="electronic mixer details" >
     <i type="int" name="IMIX">     4</i>
     <i type="logical" name="MIXFIRST"> F  </i>
     <i type="int" name="MAXMIX">   -45</i>
     <i name="WC">    100.00000000</i>
     <i type="int" name="INIMIX">     1</i>
     <i type="int" name="MIXPRE">     1</i>
     <i type="int" name="MREMOVE">     5</i>
    </separator>
   </separator>
   <separator name="electronic dipolcorrection" >
    <i type="logical" name="LDIPOL"> F  </i>
    <i type="logical" name="LMONO"> F  </i>
    <i type="int" name="IDIPOL">     0</i>
    <i name="EPSILON">      1.00000000</i>
    <v name="DIPOL">   -100.00000000   -100.00000000   -100.00000000</v>
    <i name="EFIELD">      0.00000000</i>
   </separator>
  </separator>
  <separator name="grids" >
   <i type="int" name="NGX">    10</i>
   <i type="int" name="NGY">    10</i>
   <i type="int" name="NGZ">    16</i>
   <i type="int" name="NGXF">    20</i>
   <i type="int" name="NGYF">    20</i>
   <i type="int" name="NGZF">    32</i>
   <i type="logical" name="ADDGRID"> F  </i>
  </separator>
  <separator name="ionic" >
   <i type="int" name="NSW">     0</i>
   <i type="int" name="IBRION">    -1</i>
   <i type="int" name="MDALGO">     0</i>
   <i type="int" name="ISIF">     2</i>
   <i name="PSTRESS">      0.00000000</i>
   <i name="EDIFFG">      0.00001000</i>
   <i type="int" name="NFREE">     0</i>
   <i name="POTIM">      0.50000000</i>
   <i name="SMASS">     -3.00000000</i>
   <i name="SCALEE">      1.00000000</i>
  </separator>
  <separator name="ionic md" >
   <i name="TEBEG">      0.00010000</i>
   <i name="TEEND">      0.00010000</i>
   <i type="int" name="NBLOCK">     1</i>
   <i type="int" name="KBLOCK">     1</i>
   <i type="int" name="NPACO">   256</i>
   <i name="APACO">     16.00000000</i>
  </separator>
  <separator name="symmetry" >
   <i type="int" name="ISYM">     2</i>
   <i name="SYMPREC">      0.00001000</i>
  </separator>
  <separator name="dos" >
   <i type="int" name="LORBIT">     0</i>
   <v name="RWIGS">     -1.00000000</v>
   <i type="int" name="NEDOS">   301</i>
   <i name="EMIN">     10.00000000</i>
   <i name="EMAX">    -10.00000000</i>
   <i name="EFERMI">      0.00000000</i>
  </separator>
  <separator name="writing" >
   <i type="int" name="NWRITE">     2</i>
   <i type="logical" name="LWAVE"> T  </i>
   <i type="logical" name="LDOWNSAMPLE"> F  </i>
   <i type="logical" name="LCHARG"> T  </i>
   <i type="logical" name="LPARD"> F  </i>
   <i type="logical" name="LVTOT"> F  </i>
   <i type="logical" name="LVHAR"> F  </i>
   <i type="logical" name="LELF"> F  </i>
   <i type="logical" name="LOPTICS"> F  </i>
   <v name="STM">      0.00000000      0.00000000      0.00000000      0.00000000      0.00000000      0.00000000      0.00000000</v>
  </separator>
  <separator name="performance" >
   <i type="int" name="NPAR">     1</i>
   <i type="int" name="NSIM">     4</i>
   <i type="int" name="NBLK">    -1</i>
   <i type="logical" name="LPLANE"> T  </i>
   <i type="logical" name="LSCALAPACK"> F  </i>
   <i type="logical" name="LSCAAWARE"> F  </i>
   <i type="logical" name="LSCALU"> F  </i>
   <i type="logical" name="LASYNC"> F  </i>
   <i type="logical" name="LORBITALREAL"> F  </i>
  </separator>
  <separator name="miscellaneous" >
   <i type="int" name="IDIOT">     3</i>
   <i type="int" name="PHON_NSTRUCT">    -1</i>
   <i type="logical" name="LMUSIC"> F  </i>
   <v name="POMASS">     55.84700000</v>
   <v name="DARWINR">      0.00000000</v>
   <v name="DARWINV">      1.00000000</v>
   <i type="logical" name="LCORR"> T  </i>
  </separator>
  <i type="logical" name="GGA_COMPAT"> T  </i>
  <i type="logical" name="LBERRY"> F  </i>
  <i type="int" name="ICORELEVEL">     0</i>
  <i type="logical" name="LDAU"> F  </i>
  <i type="int" name="I_CONSTRAINED_M">     0</i>
  <separator name="electronic exchange-correlation" >
   <i type="string" name="GGA">PE</i>
   <i type="int" name="VOSKOWN">     0</i>
   <i type="logical" name="LHFCALC"> F  </i>
   <i type="string" name="PRECFOCK"></i>
   <i type="logical" name="LSYMGRAD"> F  </i>
   <i type="logical" name="LHFONE"> F  </i>
   <i type="logical" name="LRHFCALC"> F  </i>
   <i type="logical" name="LTHOMAS"> F  </i>
   <i type="logical" name="LMODELHF"> F  </i>
   <i type="logical" name="LFOCKACE"> F  </i>
   <i name="ENCUT4O">     -1.00000000</i>
   <i type="int" name="EXXOEP">     0</i>
   <i type="int" name="FOURORBIT">     0</i>
   <i name="AEXX">      0.00000000</i>
   <i name="HFALPHA">      0.00000000</i>
   <i name="MCALPHA">      0.00000000</i>
   <i name="ALDAX">      1.00000000</i>
   <i name="AGGAX">      1.00000000</i>
   <i name="ALDAC">      1.00000000</i>
   <i name="AGGAC">      1.00000000</i>
   <i type="int" name="NKREDX">     1</i>
   <i type="int" name="NKREDY">     1</i>
   <i type="int" name="NKREDZ">     1</i>
   <i type="logical" name="SHIFTRED"> F  </i>
   <i type="logical" name="ODDONLY"> F  </i>
   <i type="logical" name="EVENONLY"> F  </i>
   <i type="int" name="LMAXFOCK">     0</i>
   <i type="int" name="NMAXFOCKAE">     0</i>
   <i type="logical" name="LFOCKAEDFT"> F  </i>
   <i name="HFSCREEN">      0.00000000</i>
   <i name="HFSCREENC">      0.00000000</i>
   <i type="int" name="NBANDSGWLOW">     0</i>
  </separator>
  <separator name="vdW DFT" >
   <i type="logical" name="LUSE_VDW"> F  </i>
   <i name="Zab_VDW">     -0.84910000</i>
   <i name="PARAM1">      0.12340000</i>
   <i name="PARAM2">      1.00000000</i>
   <i name="PARAM3">      0.00000000</i>
  </separator>
  <separator name="model GW" >
   <i type="int" name="MODEL_GW">     0</i>
   <i name="MODEL_EPS0">      5.22514062</i>
   <i name="MODEL_ALPHA">      1.00000000</i>
  </separator>
  <separator name="linear response parameters" >
   <i type="logical" name="LEPSILON"> F  </i>
   <i type="logical" name="LRPA"> F  </i>
   <i type="logical" name="LNABLA"> F  </i>
   <i type="logical" name="LVEL"> F  </i>
   <i type="int" name="KINTER">     0</i>
   <i name="CSHIFT">      0.10000000</i>
   <i name="OMEGAMAX">     -1.00000000</i>
   <i name="DEG_THRESHOLD">      0.00200000</i>
   <i name="RTIME">     -0.10000000</i>
   <i name="WPLASMAI">      0.00000000</i>
   <v name="DFIELD">      0.00000000      0.00000000      0.00000000</v>
   <v name="WPLASMA">      0.00000000      0.00000000      0.00000000      0.00000000      0.00000000      0.00000000      0.00000000      0.00000000      0.00000000</v>
  </separator>
  <separator name="orbital magnetization" >
   <i type="logical" name="NUCIND"> F  </i>
   <v name="MAGPOS">      0.00000000      0.00000000      0.00000000</v>
   <i type="logical" name="LNICSALL"> T  </i>
   <i type="logical" name="ORBITALMAG"> F  </i>
   <i type="logical" name="LMAGBLOCH"> F  </i>
   <i type="logical" name="LCHIMAG"> F  </i>
   <i type="logical" name="LGAUGE"> T  </i>
   <i type="int" name="MAGATOM">     0</i>
   <v name="MAGDIPOL">      0.00000000      0.00000000      0.00000000</v>
   <v name="AVECCONST">      0.00000000      0.00000000      0.00000000</v>
  </separator>
  <separator name="response functions" >
   <i type="logical" name="LFINITE_TEMPERATURE"> F  </i>
   <i type="logical" name="LADDER"> F  </i>
   <i type="logical" name="LRPAFORCE"> F  </i>
   <i type="logical" name="LFXC"> F  </i>
   <i type="logical" name="LHARTREE"> T  </i>
   <i type="int" name="IBSE">     0</i>
   <v type="int" name="KPOINT">    -1     0     0     0</v>
   <i type="logical" name="LTCTC"> F  </i>
   <i type="logical" name="LTCTE"> F  </i>
   <i type="logical" name="LTETE"> F  </i>
   <i type="logical" name="LTRIPLET"> F  </i>
   <i type="logical" name="LFXCEPS"> F  </i>
   <i type="logical" name="LFXHEG"> F  </i>
   <i type="int" name="NATURALO">     2</i>
   <i type="logical" name="LHOLEGF"> F  </i>
   <i type="logical" name="L2ORDER"> F  </i>
   <i type="logical" name="LDMP1"> F  </i>
   <i type="logical" name="LMP2LT"> F  </i>
   <i type="logical" name="LSMP2LT"> F  </i>
   <i type="logical" name="LGWLF"> F  </i>
   <i name="ENCUTGW">     -2.00000000</i>
   <i name="ENCUTGWSOFT">     -2.00000000</i>
   <i name="ENCUTLF">     -1.00000000</i>
   <i type="logical" name="LESF_SPLINES"> F  </i>
   <i type="int" name="LMAXMP2">    -1</i>
   <i name="SCISSOR">      0.00000000</i>
   <i type="int" name="NOMEGA">     0</i>
   <i type="int" name="NOMEGAR">     0</i>
   <i type="int" name="NBANDSGW">    -1</i>
   <i type="int" name="NBANDSO">    -1</i>
   <i type="int" name="NBANDSV">    -1</i>
   <i type="int" name="NELM">     1</i>
   <i type="int" name="NELMHF">     1</i>
   <i type="int" name="DIM">     3</i>
   <i type="int" name="IESPILON">     4</i>
   <i type="int" name="ANTIRES">     0</i>
   <i name="OMEGAMAX">    -30.00000000</i>
   <i name="OMEGAMIN">    -30.00000000</i>
   <i name="OMEGATL">   -200.00000000</i>
   <i type="int" name="OMEGAGRID">     0</i>
   <i name="CSHIFT">     -0.10000000</i>
   <i type="logical" name="LSELFENERGY"> F  </i>
   <i type="logical" name="LSPECTRAL"> F  </i>
   <i type="logical" name="LSPECTRALGW"> F  </i>
   <i type="logical" name="LSINGLES"> F  </i>
   <i type="logical" name="LFERMIGW"> F  </i>
   <i type="logical" name="ODDONLYGW"> F  </i>
   <i type="logical" name="EVENONLYGW"> F  </i>
   <i type="int" name="NKREDLFX">     1</i>
   <i type="int" name="NKREDLFY">     1</i>
   <i type="int" name="NKREDLFZ">     1</i>
   <i type="int" name="MAXMEM">  2800</i>
   <i type="int" name="TELESCOPE">     0</i>
   <i type="int" name="NTAUPAR">    -1</i>
   <i type="int" name="NOMEGAPAR">    -1</i>
   <i name="DAMP_NEWTON">      0.80000001</i>
   <i name="LAMBDA">      1.00000000</i>
  </separator>
  <separator name="External order field" >
   <i name="OFIELD_KAPPA">      0.00000000</i>
   <v name="OFIELD_K">      0.00000000      0.00000000      0.00000000</v>
   <i name="OFIELD_Q6_NEAR">      0.00000000</i>
   <i name="OFIELD_Q6_FAR">      0.00000000</i>
   <i name="OFIELD_A">      0.00000000</i>
  </separator>
 </parameters>
 <atominfo>
  <atoms>       2 </atoms>
  <types>       1 </types>
  <array name="atoms" >
   <dimension dim="1">ion</dimension>
   <field type="string">element</field>
   <field type="int">atomtype</field>
   <set>
    <rc><c>Fe</c><c>   1</c></rc>
    <rc><c>Fe</c><c>   1</c></rc>
   </set>
  </array>
  <array name="atomtypes" >
   <dimension dim="1">type</dimension>
   <field type="int">atomspertype</field>
   <field type="string">element</field>
   <field>mass</field>
   <field>valence</field>
   <field type="string">pseudopotential</field>
   <set>
    <rc><c>   2</c><c>Fe</c><c>     55.84700000</c><c>      8.00000000</c><c>  PAW_PBE Fe 06Sep2000                  </c></rc>
   </set>
  </array>
 </atominfo>
 <structure name="initialpos" >
  <crystal>
   <varray name="basis" >
    <v>       2.26010000       0.00000000       0.00000000 </v>
    <v>      -1.13005000       1.95730402       0.00000000 </v>
    <v>       0.00000000       0.00000000       3.93723000 </v>
   </varray>
   <i name="volume">     17.41713539 </i>
   <varray name="rec_basis" >
    <v>       0.44245830       0.25545342       0.00000000 </v>
    <v>       0.00000000       0.51090684       0.00000000 </v>
    <v>       0.00000000       0.00000000       0.25398567 </v>
   </varray>
  </crystal>
  <varray name="positions" >
   <v>       0.00000000       0.00000000       0.00000000 </v>
   <v>       0.33333333       0.66666667       0.50000000 </v>
  </varray>
 </structure>
 <calculation>
  <scstep>
   <time name="dav">    0.75    0.77</time>
   <time name="total">    0.76    0.79</time>
   <energy>
    <i name="alphaZ">    158.72593154 </i>
    <i name="ewald">  -1292.94791000 </i>
    <i name="hartreedc">   -184.35153482 </i>
    <i name="XCdc">      9.54499796 </i>
    <i name="pawpsdc">   1109.69170683 </i>
    <i name="pawaedc">  -1125.09647265 </i>
    <i name="eentropy">     -0.00016647 </i>
    <i name="bandstr">    195.94275747 </i>
    <i name="atom">   1188.57490811 </i>
    <i name="e_fr_energy">     60.08421797 </i>
    <i name="e_wo_entrp">     60.08438444 </i>
    <i name="e_0_energy">     60.08427346 </i>
   </energy>
  </scstep>
  <scstep>
   <time name="dav">    0.65    0.65</time>
   <time name="total">    0.65    0.65</time>
   <energy>
    <i name="e_fr_energy">    -14.25386036 </i>
    <i name="e_wo_entrp">    -14.25644094 </i>
    <i name="e_0_energy">    -14.25472055 </i>
   </energy>
  </scstep>
  <scstep>
   <time name="dav">    0.73    0.73</time>
   <time name="total">    0.74    0.74</time>
   <energy>
    <i name="e_fr_energy">    -18.28852009 </i>
    <i name="e_wo_entrp">    -18.28897065 </i>
    <i name="e_0_energy">    -18.28867028 </i>
   </energy>
  </scstep>
  <scstep>
   <time name="dav">    0.67    0.67</time>
   <time name="total">    0.67    0.67</time>
   <energy>
    <i name="e_fr_energy">    -18.30168883 </i>
    <i name="e_wo_entrp">    -18.30214003 </i>
    <i name="e_0_energy">    -18.30183923 </i>
   </energy>
  </scstep>
  <scstep>
   <time name="dav">    0.70    0.70</time>
   <time name="total">    0.72    0.72</time>
   <energy>
    <i name="e_fr_energy">    -18.30169668 </i>
    <i name="e_wo_entrp">    -18.30214786 </i>
    <i name="e_0_energy">    -18.30184707 </i>
   </energy>
  </scstep>
  <scstep>
   <time name="dav">    0.83    0.83</time>
   <time name="total">    0.86    0.86</time>
   <energy>
    <i name="e_fr_energy">    -15.74189684 </i>
    <i name="e_wo_entrp">    -15.74262519 </i>
    <i name="e_0_energy">    -15.74213963 </i>
   </energy>
  </scstep>
  <scstep>
   <time name="dav">    0.73    0.73</time>
   <time name="total">    0.76    0.76</time>
   <energy>
    <i name="e_fr_energy">    -15.63073668 </i>
    <i name="e_wo_entrp">    -15.63136859 </i>
    <i name="e_0_energy">    -15.63094732 </i>
   </energy>
  </scstep>
  <scstep>
   <time name="dav">    0.78    0.78</time>
   <time name="total">    0.81    0.81</time>
   <energy>
    <i name="e_fr_energy">    -15.59137980 </i>
    <i name="e_wo_entrp">    -15.59203846 </i>
    <i name="e_0_energy">    -15.59159935 </i>
   </energy>
  </scstep>
  <scstep>
   <time name="dav">    0.77    0.77</time>
   <time name="total">    0.80    0.80</time>
   <energy>
    <i name="e_fr_energy">    -15.58640850 </i>
    <i name="e_wo_entrp">    -15.58706646 </i>
    <i name="e_0_energy">    -15.58662782 </i>
   </energy>
  </scstep>
  <scstep>
   <time name="dav">    0.64    0.64</time>
   <time name="total">    0.67    0.67</time>
   <energy>
    <i name="e_fr_energy">    -15.58637555 </i>
    <i name="e_wo_entrp">    -15.58703152 </i>
    <i name="e_0_energy">    -15.58659421 </i>
   </energy>
  </scstep>
  <scstep>
   <time name="dav">    0.65    0.65</time>
   <time name="total">    0.68    0.68</time>
   <energy>
    <i name="e_fr_energy">    -15.58635615 </i>
    <i name="e_wo_entrp">    -15.58701226 </i>
    <i name="e_0_energy">    -15.58657485 </i>
   </energy>
  </scstep>
  <scstep>
   <time name="dav">    0.53    0.53</time>
   <time name="total">    0.56    0.56</time>
   <energy>
    <i name="e_fr_energy">    -15.58635474 </i>
    <i name="e_wo_entrp">    -15.58701093 </i>
    <i name="e_0_energy">    -15.58657347 </i>
   </energy>
  </scstep>
  <scstep>
   <time name="dav">    0.47    0.47</time>
   <time name="total">    0.48    0.48</time>
   <energy>
    <i name="alphaZ">    158.72593154 </i>
    <i name="ewald">  -1292.94791000 </i>
    <i name="hartreedc">   -151.36906640 </i>
    <i name="XCdc">      7.98337556 </i>
    <i name="pawpsdc">   1693.76490451 </i>
    <i name="pawaedc">  -1713.08356028 </i>
    <i name="eentropy">      0.00065620 </i>
    <i name="bandstr">     92.76440561 </i>
    <i name="atom">   1188.57490811 </i>
    <i name="e_fr_energy">    -15.58635516 </i>
    <i name="e_wo_entrp">    -15.58701135 </i>
    <i name="e_0_energy">    -15.58657389 </i>
   </energy>
  </scstep>
  <structure>
   <crystal>
    <varray name="basis" >
     <v>       2.26010000       0.00000000       0.00000000 </v>
     <v>      -1.13005000       1.95730402       0.00000000 </v>
     <v>       0.00000000       0.00000000       3.93723000 </v>
    </varray>
    <i name="volume">     17.41713539 </i>
    <varray name="rec_basis" >
     <v>       0.44245830       0.25545342       0.00000000 </v>
     <v>       0.00000000       0.51090684       0.00000000 </v>
     <v>       0.00000000       0.00000000       0.25398567 </v>
    </varray>
   </crystal>
   <varray name="positions" >
    <v>       0.00000000       0.00000000       0.00000000 </v>
    <v>       0.33333333       0.66666667       0.50000000 </v>
   </varray>
  </structure>
  <varray name="forces" >
   <v>      -0.00000000      -0.00000000       0.00000000 </v>
   <v>       0.00000000       0.00000000      -0.00000000 </v>
  </varray>
  <varray name="stress" >
   <v>     880.69056422      -0.00000000       0.00000000 </v>
   <v>      -0.00000000     880.69056422       0.00000000 </v>
   <v>       0.00000000      -0.00000000     201.26667639 </v>
  </varray>
  <energy>
   <i name="e_fr_energy">    -15.58635516 </i>
   <i name="e_wo_entrp">    -15.58701135 </i>
   <i name="e_0_energy">    -15.58657389 </i>
  </energy>
  <time name="totalsc">    9.44    9.46</time>
  <eigenvalues>
   <array>
    <dimension dim="1">band</dimension>
    <dimension dim="2">kpoint</dimension>
    <dimension dim="3">spin</dimension>
    <field>eigene</field>
    <field>occ</field>
    <set>
     <set comment="spin 1">
      <set comment="kpoint 1">
       <r>   -0.9822    1.0000 </r>
       <r>    2.8985    1.0000 </r>
       <r>    6.1659    1.0000 </r>
       <r>    6.8382    1.0000 </r>
       <r>    6.8382    1.0000 </r>
       <r>    7.2542    1.0000 </r>
       <r>    7.2542    1.0000 </r>
       <r>    8.1555    1.0000 </r>
       <r>    8.3663    1.0034 </r>
       <r>    8.3663    1.0034 </r>
       <r>    9.7597   -0.0000 </r>
       <r>    9.7598   -0.0000 </r>
       <r>   17.9132    0.0000 </r>
       <r>   33.4590    0.0000 </r>
       <r>   34.3356    0.0000 </r>
       <r>   36.9485    0.0000 </r>
       <r>   40.4933    0.0000 </r>
       <r>   40.4933    0.0000 </r>
       <r>   41.1288    0.0000 </r>
       <r>   41.1289    0.0000 </r>
       <r>   43.0177    0.0000 </r>
       <r>   43.4875    0.0000 </r>
       <r>   43.4875    0.0000 </r>
       <r>   44.6094    0.0000 </r>
       <r>   48.1029    0.0000 </r>
       <r>   48.1029    0.0000 </r>
       <r>   49.5810    0.0000 </r>
       <r>   52.9700    0.0000 </r>
       <r>   52.9701    0.0000 </r>
       <r>   54.5483    0.0000 </r>
       <r>   54.5484    0.0000 </r>
       <r>   57.9987    0.0000 </r>
       <r>   64.9366    0.0000 </r>
       <r>   65.7170    0.0000 </r>
       <r>   65.7174    0.0000 </r>
       <r>   65.7942    0.0000 </r>
       <r>   67.0727    0.0000 </r>
       <r>   69.6528    0.0000 </r>
       <r>   69.6529    0.0000 </r>
       <r>   72.8429    0.0000 </r>
      </set>
      <set comment="kpoint 2">
       <r>   -0.6100    1.0000 </r>
       <r>    3.1785    1.0000 </r>
       <r>    6.1369    1.0000 </r>
       <r>    6.7960    1.0000 </r>
       <r>    7.0745    1.0000 </r>
       <r>    7.0749    1.0000 </r>
       <r>    7.1150    1.0000 </r>
       <r>    7.4701    1.0000 </r>
       <r>    8.1939    1.0001 </r>
       <r>    8.2211    1.0001 </r>
       <r>    9.8063   -0.0000 </r>
       <r>   11.1117   -0.0000 </r>
       <r>   17.9205    0.0000 </r>
       <r>   32.5228    0.0000 </r>
       <r>   34.6851    0.0000 </r>
       <r>   35.5770    0.0000 </r>
       <r>   37.3682    0.0000 </r>
       <r>   39.1966    0.0000 </r>
       <r>   39.3835    0.0000 </r>
       <r>   42.6084    0.0000 </r>
       <r>   43.0445    0.0000 </r>
       <r>   44.3124    0.0000 </r>
       <r>   44.8388    0.0000 </r>
       <r>   44.9900    0.0000 </r>
       <r>   49.1924    0.0000 </r>
       <r>   49.3243    0.0000 </r>
       <r>   50.2159    0.0000 </r>
       <r>   50.4295    0.0000 </r>
       <r>   53.6538    0.0000 </r>
       <r>   56.3157    0.0000 </r>
       <r>   56.9608    0.0000 </r>
       <r>   59.3565    0.0000 </r>
       <r>   63.9435    0.0000 </r>
       <r>   64.6524    0.0000 </r>
       <r>   64.9016    0.0000 </r>
       <r>   65.9854    0.0000 </r>
       <r>   66.1988    0.0000 </r>
       <r>   69.9681    0.0000 </r>
       <r>   71.8255    0.0000 </r>
       <r>   72.8271    0.0000 </r>
      </set>
      <set comment="kpoint 3">
       <r>    0.4294    1.0000 </r>
       <r>    3.8191    1.0000 </r>
       <r>    5.7322    1.0000 </r>
       <r>    5.8536    1.0000 </r>
       <r>    6.5980    1.0000 </r>
       <r>    7.3135    1.0000 </r>
       <r>    7.7380    1.0000 </r>
       <r>    7.7684    1.0000 </r>
       <r>    7.8814    1.0000 </r>
       <r>    8.0779    1.0000 </r>
       <r>    9.8866   -0.0000 </r>
       <r>   13.2354   -0.0000 </r>
       <r>   17.9856    0.0000 </r>
       <r>   29.0480    0.0000 </r>
       <r>   34.2599    0.0000 </r>
       <r>   34.2643    0.0000 </r>
       <r>   34.6008    0.0000 </r>
       <r>   35.6097    0.0000 </r>
       <r>   40.3473    0.0000 </r>
       <r>   41.7645    0.0000 </r>
       <r>   42.3158    0.0000 </r>
       <r>   42.4009    0.0000 </r>
       <r>   45.6587    0.0000 </r>
       <r>   47.1536    0.0000 </r>
       <r>   49.7125    0.0000 </r>
       <r>   50.3507    0.0000 </r>
       <r>   51.8552    0.0000 </r>
       <r>   54.3129    0.0000 </r>
       <r>   57.2487    0.0000 </r>
       <r>   58.7919    0.0000 </r>
       <r>   59.6899    0.0000 </r>
       <r>   61.5042    0.0000 </r>
       <r>   62.4945    0.0000 </r>
       <r>   63.3154    0.0000 </r>
       <r>   63.7141    0.0000 </r>
       <r>   64.2226    0.0000 </r>
       <r>   67.4870    0.0000 </r>
       <r>   70.5630    0.0000 </r>
       <r>   72.8279    0.0000 </r>
       <r>   72.9523    0.0000 </r>
      </set>
      <set comment="kpoint 4">
       <r>    1.8483    1.0000 </r>
       <r>    4.0524    1.0000 </r>
       <r>    4.6684    1.0000 </r>
       <r>    5.8124    1.0000 </r>
       <r>    6.4166    1.0000 </r>
       <r>    7.2404    1.0000 </r>
       <r>    7.4994    1.0000 </r>
       <r>    8.2541    1.0003 </r>
       <r>    8.6802    0.9491 </r>
       <r>    8.9304    0.0889 </r>
       <r>    9.9356   -0.0000 </r>
       <r>   15.5743    0.0000 </r>
       <r>   18.1331    0.0000 </r>
       <r>   24.9690    0.0000 </r>
       <r>   30.8590    0.0000 </r>
       <r>   31.5656    0.0000 </r>
       <r>   32.8089    0.0000 </r>
       <r>   35.3784    0.0000 </r>
       <r>   38.9669    0.0000 </r>
       <r>   41.7631    0.0000 </r>
       <r>   42.3006    0.0000 </r>
       <r>   42.5111    0.0000 </r>
       <r>   43.2597    0.0000 </r>
       <r>   47.1877    0.0000 </r>
       <r>   53.1598    0.0000 </r>
       <r>   54.7676    0.0000 </r>
       <r>   55.5272    0.0000 </r>
       <r>   57.2761    0.0000 </r>
       <r>   58.4611    0.0000 </r>
       <r>   59.2451    0.0000 </r>
       <r>   61.1088    0.0000 </r>
       <r>   62.3610    0.0000 </r>
       <r>   62.8187    0.0000 </r>
       <r>   63.2289    0.0000 </r>
       <r>   64.0391    0.0000 </r>
       <r>   67.1635    0.0000 </r>
       <r>   67.3283    0.0000 </r>
       <r>   71.1718    0.0000 </r>
       <r>   72.4358    0.0000 </r>
       <r>   72.6710    0.0000 </r>
      </set>
      <set comment="kpoint 5">
       <r>    2.9673    1.0000 </r>
       <r>    3.7154    1.0000 </r>
       <r>    3.9434    1.0000 </r>
       <r>    6.1073    1.0000 </r>
       <r>    6.7791    1.0000 </r>
       <r>    6.8853    1.0000 </r>
       <r>    7.1852    1.0000 </r>
       <r>    9.6344   -0.0000 </r>
       <r>    9.7625   -0.0000 </r>
       <r>    9.7956   -0.0000 </r>
       <r>    9.9508   -0.0000 </r>
       <r>   17.7977    0.0000 </r>
       <r>   18.0263    0.0000 </r>
       <r>   22.0795    0.0000 </r>
       <r>   27.4878    0.0000 </r>
       <r>   29.4929    0.0000 </r>
       <r>   30.1244    0.0000 </r>
       <r>   34.4260    0.0000 </r>
       <r>   37.7380    0.0000 </r>
       <r>   41.0384    0.0000 </r>
       <r>   41.4322    0.0000 </r>
       <r>   43.5754    0.0000 </r>
       <r>   44.4465    0.0000 </r>
       <r>   47.3810    0.0000 </r>
       <r>   55.3190    0.0000 </r>
       <r>   56.4390    0.0000 </r>
       <r>   56.7146    0.0000 </r>
       <r>   59.9756    0.0000 </r>
       <r>   60.4173    0.0000 </r>
       <r>   60.4724    0.0000 </r>
       <r>   62.2399    0.0000 </r>
       <r>   63.4324    0.0000 </r>
       <r>   63.6796    0.0000 </r>
       <r>   64.7116    0.0000 </r>
       <r>   65.2506    0.0000 </r>
       <r>   67.0431    0.0000 </r>
       <r>   71.2838    0.0000 </r>
       <r>   71.8157    0.0000 </r>
       <r>   72.1089    0.0000 </r>
       <r>   72.1720    0.0000 </r>
      </set>
      <set comment="kpoint 6">
       <r>    3.2034    1.0000 </r>
       <r>    3.5514    1.0000 </r>
       <r>    3.5776    1.0000 </r>
       <r>    6.5152    1.0000 </r>
       <r>    6.7744    1.0000 </r>
       <r>    7.0135    1.0000 </r>
       <r>    7.1778    1.0000 </r>
       <r>    9.9525   -0.0000 </r>
       <r>   10.2302   -0.0000 </r>
       <r>   10.3836   -0.0000 </r>
       <r>   11.7371   -0.0000 </r>
       <r>   15.6576    0.0000 </r>
       <r>   20.3050    0.0000 </r>
       <r>   22.1053    0.0000 </r>
       <r>   24.7897    0.0000 </r>
       <r>   27.4385    0.0000 </r>
       <r>   28.3200    0.0000 </r>
       <r>   33.7405    0.0000 </r>
       <r>   37.3323    0.0000 </r>
       <r>   39.7807    0.0000 </r>
       <r>   41.4087    0.0000 </r>
       <r>   44.5299    0.0000 </r>
       <r>   46.6796    0.0000 </r>
       <r>   47.3981    0.0000 </r>
       <r>   52.0169    0.0000 </r>
       <r>   57.6219    0.0000 </r>
       <r>   58.1892    0.0000 </r>
       <r>   61.4161    0.0000 </r>
       <r>   61.7280    0.0000 </r>
       <r>   62.6743    0.0000 </r>
       <r>   63.7359    0.0000 </r>
       <r>   64.0609    0.0000 </r>
       <r>   64.7719    0.0000 </r>
       <r>   67.1570    0.0000 </r>
       <r>   67.4218    0.0000 </r>
       <r>   69.9376    0.0000 </r>
       <r>   70.1815    0.0000 </r>
       <r>   70.3242    0.0000 </r>
       <r>   72.9454    0.0000 </r>
       <r>   73.1677    0.0000 </r>
      </set>
      <set comment="kpoint 7">
       <r>    0.0999    1.0000 </r>
       <r>    3.6645    1.0000 </r>
       <r>    5.8996    1.0000 </r>
       <r>    6.0903    1.0000 </r>
       <r>    6.8520    1.0000 </r>
       <r>    6.9278    1.0000 </r>
       <r>    7.5611    1.0000 </r>
       <r>    7.6934    1.0000 </r>
       <r>    7.9457    1.0000 </r>
       <r>    8.1947    1.0001 </r>
       <r>    9.8299   -0.0000 </r>
       <r>   12.6519   -0.0000 </r>
       <r>   17.9660    0.0000 </r>
       <r>   30.6849    0.0000 </r>
       <r>   32.4423    0.0000 </r>
       <r>   35.1564    0.0000 </r>
       <r>   36.1972    0.0000 </r>
       <r>   38.0904    0.0000 </r>
       <r>   38.3442    0.0000 </r>
       <r>   40.6351    0.0000 </r>
       <r>   42.1165    0.0000 </r>
       <r>   46.1840    0.0000 </r>
       <r>   46.6073    0.0000 </r>
       <r>   47.6024    0.0000 </r>
       <r>   48.1671    0.0000 </r>
       <r>   48.7305    0.0000 </r>
       <r>   48.9487    0.0000 </r>
       <r>   54.6724    0.0000 </r>
       <r>   57.2106    0.0000 </r>
       <r>   58.0513    0.0000 </r>
       <r>   58.2257    0.0000 </r>
       <r>   61.1293    0.0000 </r>
       <r>   62.0997    0.0000 </r>
       <r>   64.1532    0.0000 </r>
       <r>   64.3838    0.0000 </r>
       <r>   65.1873    0.0000 </r>
       <r>   65.9549    0.0000 </r>
       <r>   70.9903    0.0000 </r>
       <r>   72.6406    0.0000 </r>
       <r>   73.1554    0.0000 </r>
      </set>
      <set comment="kpoint 8">
       <r>    1.3668    1.0000 </r>
       <r>    4.2496    1.0000 </r>
       <r>    5.0595    1.0000 </r>
       <r>    5.5165    1.0000 </r>
       <r>    6.5170    1.0000 </r>
       <r>    7.1658    1.0000 </r>
       <r>    7.4719    1.0000 </r>
       <r>    7.8834    1.0000 </r>
       <r>    8.4288    1.0100 </r>
       <r>    8.8339    0.4172 </r>
       <r>    9.8411   -0.0000 </r>
       <r>   14.7626    0.0000 </r>
       <r>   18.1270    0.0000 </r>
       <r>   27.0452    0.0000 </r>
       <r>   29.8662    0.0000 </r>
       <r>   32.6554    0.0000 </r>
       <r>   34.9855    0.0000 </r>
       <r>   35.8744    0.0000 </r>
       <r>   39.2709    0.0000 </r>
       <r>   39.8758    0.0000 </r>
       <r>   41.0239    0.0000 </r>
       <r>   45.6878    0.0000 </r>
       <r>   46.0614    0.0000 </r>
       <r>   47.2869    0.0000 </r>
       <r>   50.2692    0.0000 </r>
       <r>   50.9932    0.0000 </r>
       <r>   53.0711    0.0000 </r>
       <r>   57.9026    0.0000 </r>
       <r>   59.4871    0.0000 </r>
       <r>   59.7922    0.0000 </r>
       <r>   60.4822    0.0000 </r>
       <r>   62.0390    0.0000 </r>
       <r>   62.2472    0.0000 </r>
       <r>   63.4872    0.0000 </r>
       <r>   64.6329    0.0000 </r>
       <r>   64.6623    0.0000 </r>
       <r>   66.6906    0.0000 </r>
       <r>   71.6096    0.0000 </r>
       <r>   71.9363    0.0000 </r>
       <r>   73.0547    0.0000 </r>
      </set>
      <set comment="kpoint 9">
       <r>    2.7563    1.0000 </r>
       <r>    4.1038    1.0000 </r>
       <r>    4.2628    1.0000 </r>
       <r>    5.6584    1.0000 </r>
       <r>    6.6210    1.0000 </r>
       <r>    6.7531    1.0000 </r>
       <r>    7.4273    1.0000 </r>
       <r>    8.4139    1.0080 </r>
       <r>    9.3866   -0.0002 </r>
       <r>    9.8399   -0.0000 </r>
       <r>    9.9950   -0.0000 </r>
       <r>   17.1276    0.0000 </r>
       <r>   18.3516    0.0000 </r>
       <r>   23.2773    0.0000 </r>
       <r>   27.9975    0.0000 </r>
       <r>   29.2348    0.0000 </r>
       <r>   32.6416    0.0000 </r>
       <r>   33.7989    0.0000 </r>
       <r>   38.7770    0.0000 </r>
       <r>   40.0261    0.0000 </r>
       <r>   41.2263    0.0000 </r>
       <r>   45.4108    0.0000 </r>
       <r>   45.4280    0.0000 </r>
       <r>   48.3199    0.0000 </r>
       <r>   52.4473    0.0000 </r>
       <r>   54.9510    0.0000 </r>
       <r>   56.6909    0.0000 </r>
       <r>   57.3396    0.0000 </r>
       <r>   58.6109    0.0000 </r>
       <r>   61.2437    0.0000 </r>
       <r>   61.5966    0.0000 </r>
       <r>   63.4978    0.0000 </r>
       <r>   64.1434    0.0000 </r>
       <r>   64.8862    0.0000 </r>
       <r>   64.8965    0.0000 </r>
       <r>   66.4584    0.0000 </r>
       <r>   70.3539    0.0000 </r>
       <r>   70.9928    0.0000 </r>
       <r>   71.2959    0.0000 </r>
       <r>   73.4537    0.0000 </r>
      </set>
      <set comment="kpoint 10">
       <r>    3.4295    1.0000 </r>
       <r>    3.7719    1.0000 </r>
       <r>    3.7868    1.0000 </r>
       <r>    6.2240    1.0000 </r>
       <r>    6.5247    1.0000 </r>
       <r>    7.0193    1.0000 </r>
       <r>    7.0585    1.0000 </r>
       <r>    9.5204   -0.0000 </r>
       <r>    9.8275   -0.0000 </r>
       <r>   10.0593   -0.0000 </r>
       <r>   11.4485   -0.0000 </r>
       <r>   17.2122    0.0000 </r>
       <r>   19.5692    0.0000 </r>
       <r>   21.8960    0.0000 </r>
       <r>   26.1864    0.0000 </r>
       <r>   26.5239    0.0000 </r>
       <r>   29.3405    0.0000 </r>
       <r>   32.7985    0.0000 </r>
       <r>   37.7932    0.0000 </r>
       <r>   39.4827    0.0000 </r>
       <r>   42.3143    0.0000 </r>
       <r>   45.7457    0.0000 </r>
       <r>   46.6681    0.0000 </r>
       <r>   47.9772    0.0000 </r>
       <r>   53.9364    0.0000 </r>
       <r>   55.2075    0.0000 </r>
       <r>   57.3908    0.0000 </r>
       <r>   58.8788    0.0000 </r>
       <r>   60.8188    0.0000 </r>
       <r>   61.9149    0.0000 </r>
       <r>   62.6118    0.0000 </r>
       <r>   63.7109    0.0000 </r>
       <r>   64.1902    0.0000 </r>
       <r>   66.9257    0.0000 </r>
       <r>   68.4682    0.0000 </r>
       <r>   68.5304    0.0000 </r>
       <r>   69.1426    0.0000 </r>
       <r>   72.1029    0.0000 </r>
       <r>   72.7975    0.0000 </r>
       <r>   73.6411    0.0000 </r>
      </set>
      <set comment="kpoint 11">
       <r>    3.4121    1.0000 </r>
       <r>    3.6067    1.0000 </r>
       <r>    3.7678    1.0000 </r>
       <r>    6.4707    1.0000 </r>
       <r>    6.6754    1.0000 </r>
       <r>    6.8432    1.0000 </r>
       <r>    7.1998    1.0000 </r>
       <r>    9.8205   -0.0000 </r>
       <r>   10.1446   -0.0000 </r>
       <r>   10.1718   -0.0000 </r>
       <r>   12.8267   -0.0000 </r>
       <r>   15.3626    0.0000 </r>
       <r>   21.2123    0.0000 </r>
       <r>   22.5582    0.0000 </r>
       <r>   24.3420    0.0000 </r>
       <r>   25.7049    0.0000 </r>
       <r>   27.7654    0.0000 </r>
       <r>   32.4376    0.0000 </r>
       <r>   37.3688    0.0000 </r>
       <r>   39.3100    0.0000 </r>
       <r>   42.5507    0.0000 </r>
       <r>   46.6129    0.0000 </r>
       <r>   46.8707    0.0000 </r>
       <r>   48.4002    0.0000 </r>
       <r>   51.7823    0.0000 </r>
       <r>   56.8636    0.0000 </r>
       <r>   57.6815    0.0000 </r>
       <r>   59.7202    0.0000 </r>
       <r>   61.7199    0.0000 </r>
       <r>   62.0260    0.0000 </r>
       <r>   64.0169    0.0000 </r>
       <r>   64.0718    0.0000 </r>
       <r>   64.7366    0.0000 </r>
       <r>   66.0004    0.0000 </r>
       <r>   69.2118    0.0000 </r>
       <r>   70.8182    0.0000 </r>
       <r>   71.0424    0.0000 </r>
       <r>   71.0658    0.0000 </r>
       <r>   71.8840    0.0000 </r>
       <r>   74.7751    0.0000 </r>
      </set>
      <set comment="kpoint 12">
       <r>    2.7143    1.0000 </r>
       <r>    4.4504    1.0000 </r>
       <r>    4.7370    1.0000 </r>
       <r>    4.9664    1.0000 </r>
       <r>    6.6105    1.0000 </r>
       <r>    6.6212    1.0000 </r>
       <r>    7.6146    1.0000 </r>
       <r>    7.7709    1.0000 </r>
       <r>    9.3598   -0.0004 </r>
       <r>    9.7181   -0.0000 </r>
       <r>   10.0739   -0.0000 </r>
       <r>   16.8426    0.0000 </r>
       <r>   18.5649    0.0000 </r>
       <r>   24.8831    0.0000 </r>
       <r>   25.9408    0.0000 </r>
       <r>   30.6122    0.0000 </r>
       <r>   32.6027    0.0000 </r>
       <r>   35.1127    0.0000 </r>
       <r>   35.9321    0.0000 </r>
       <r>   40.7739    0.0000 </r>
       <r>   42.4521    0.0000 </r>
       <r>   47.0807    0.0000 </r>
       <r>   47.2515    0.0000 </r>
       <r>   49.1923    0.0000 </r>
       <r>   50.0598    0.0000 </r>
       <r>   52.2316    0.0000 </r>
       <r>   53.7130    0.0000 </r>
       <r>   58.6997    0.0000 </r>
       <r>   59.6192    0.0000 </r>
       <r>   60.5436    0.0000 </r>
       <r>   60.8521    0.0000 </r>
       <r>   63.6071    0.0000 </r>
       <r>   63.7013    0.0000 </r>
       <r>   65.2352    0.0000 </r>
       <r>   66.2274    0.0000 </r>
       <r>   67.4374    0.0000 </r>
       <r>   67.6688    0.0000 </r>
       <r>   70.7095    0.0000 </r>
       <r>   71.1584    0.0000 </r>
       <r>   74.3382    0.0000 </r>
      </set>
      <set comment="kpoint 13">
       <r>    3.9055    1.0000 </r>
       <r>    4.0304    1.0000 </r>
       <r>    4.3682    1.0000 </r>
       <r>    5.2866    1.0000 </r>
       <r>    6.3270    1.0000 </r>
       <r>    6.9514    1.0000 </r>
       <r>    7.1322    1.0000 </r>
       <r>    8.4633    1.0162 </r>
       <r>    9.6136   -0.0000 </r>
       <r>    9.9918   -0.0000 </r>
       <r>   11.6119   -0.0000 </r>
       <r>   18.9264    0.0000 </r>
       <r>   19.2270    0.0000 </r>
       <r>   22.0178    0.0000 </r>
       <r>   24.1417    0.0000 </r>
       <r>   28.0718    0.0000 </r>
       <r>   30.7934    0.0000 </r>
       <r>   31.5581    0.0000 </r>
       <r>   34.5840    0.0000 </r>
       <r>   42.9579    0.0000 </r>
       <r>   43.0032    0.0000 </r>
       <r>   46.9630    0.0000 </r>
       <r>   48.8948    0.0000 </r>
       <r>   50.3319    0.0000 </r>
       <r>   51.5763    0.0000 </r>
       <r>   53.3547    0.0000 </r>
       <r>   54.9746    0.0000 </r>
       <r>   56.6418    0.0000 </r>
       <r>   59.6013    0.0000 </r>
       <r>   61.0301    0.0000 </r>
       <r>   62.6516    0.0000 </r>
       <r>   63.5088    0.0000 </r>
       <r>   64.3980    0.0000 </r>
       <r>   66.5392    0.0000 </r>
       <r>   68.1399    0.0000 </r>
       <r>   68.6345    0.0000 </r>
       <r>   70.4834    0.0000 </r>
       <r>   71.5754    0.0000 </r>
       <r>   73.2315    0.0000 </r>
       <r>   74.8083    0.0000 </r>
      </set>
      <set comment="kpoint 14">
       <r>    3.8226    1.0000 </r>
       <r>    4.0260    1.0000 </r>
       <r>    4.2920    1.0000 </r>
       <r>    5.9335    1.0000 </r>
       <r>    6.3377    1.0000 </r>
       <r>    6.6512    1.0000 </r>
       <r>    7.2720    1.0000 </r>
       <r>    9.3189   -0.0010 </r>
       <r>    9.5536   -0.0000 </r>
       <r>   10.0233   -0.0000 </r>
       <r>   13.4255   -0.0000 </r>
       <r>   16.8900    0.0000 </r>
       <r>   21.6286    0.0000 </r>
       <r>   22.2959    0.0000 </r>
       <r>   23.3204    0.0000 </r>
       <r>   25.4007    0.0000 </r>
       <r>   28.5229    0.0000 </r>
       <r>   30.0410    0.0000 </r>
       <r>   33.8976    0.0000 </r>
       <r>   42.9468    0.0000 </r>
       <r>   44.8330    0.0000 </r>
       <r>   47.2385    0.0000 </r>
       <r>   48.7695    0.0000 </r>
       <r>   49.8136    0.0000 </r>
       <r>   53.9871    0.0000 </r>
       <r>   54.0209    0.0000 </r>
       <r>   55.8936    0.0000 </r>
       <r>   56.4988    0.0000 </r>
       <r>   60.4347    0.0000 </r>
       <r>   61.2139    0.0000 </r>
       <r>   62.0118    0.0000 </r>
       <r>   64.0936    0.0000 </r>
       <r>   64.2870    0.0000 </r>
       <r>   65.0669    0.0000 </r>
       <r>   69.0069    0.0000 </r>
       <r>   70.2928    0.0000 </r>
       <r>   71.9062    0.0000 </r>
       <r>   72.4012    0.0000 </r>
       <r>   73.5150    0.0000 </r>
       <r>   74.1950    0.0000 </r>
      </set>
      <set comment="kpoint 15">
       <r>    3.9734    1.0000 </r>
       <r>    4.5670    1.0000 </r>
       <r>    4.9290    1.0000 </r>
       <r>    5.0066    1.0000 </r>
       <r>    6.1433    1.0000 </r>
       <r>    6.6671    1.0000 </r>
       <r>    7.3250    1.0000 </r>
       <r>    8.7867    0.6153 </r>
       <r>    9.4163   -0.0001 </r>
       <r>    9.9859   -0.0000 </r>
       <r>   13.5925   -0.0000 </r>
       <r>   19.1569    0.0000 </r>
       <r>   19.7004    0.0000 </r>
       <r>   21.6763    0.0000 </r>
       <r>   23.2863    0.0000 </r>
       <r>   27.2554    0.0000 </r>
       <r>   27.8122    0.0000 </r>
       <r>   30.2908    0.0000 </r>
       <r>   31.2266    0.0000 </r>
       <r>   44.6282    0.0000 </r>
       <r>   45.6633    0.0000 </r>
       <r>   49.5808    0.0000 </r>
       <r>   50.6106    0.0000 </r>
       <r>   51.2067    0.0000 </r>
       <r>   51.5762    0.0000 </r>
       <r>   51.7732    0.0000 </r>
       <r>   54.8650    0.0000 </r>
       <r>   57.3787    0.0000 </r>
       <r>   57.5987    0.0000 </r>
       <r>   60.5821    0.0000 </r>
       <r>   61.6165    0.0000 </r>
       <r>   64.3979    0.0000 </r>
       <r>   64.4163    0.0000 </r>
       <r>   64.9613    0.0000 </r>
       <r>   69.2088    0.0000 </r>
       <r>   70.3443    0.0000 </r>
       <r>   70.4426    0.0000 </r>
       <r>   72.1847    0.0000 </r>
       <r>   73.9144    0.0000 </r>
       <r>   75.0472    0.0000 </r>
      </set>
      <set comment="kpoint 16">
       <r>    3.9811    1.0000 </r>
       <r>    4.6785    1.0000 </r>
       <r>    4.8089    1.0000 </r>
       <r>    5.3918    1.0000 </r>
       <r>    6.2288    1.0000 </r>
       <r>    6.3139    1.0000 </r>
       <r>    7.5033    1.0000 </r>
       <r>    9.2415   -0.0050 </r>
       <r>    9.3412   -0.0006 </r>
       <r>    9.6134   -0.0000 </r>
       <r>   15.4645    0.0000 </r>
       <r>   17.0766    0.0000 </r>
       <r>   19.3152    0.0000 </r>
       <r>   23.8162    0.0000 </r>
       <r>   24.2591    0.0000 </r>
       <r>   25.2492    0.0000 </r>
       <r>   27.2471    0.0000 </r>
       <r>   28.5933    0.0000 </r>
       <r>   30.5904    0.0000 </r>
       <r>   44.9953    0.0000 </r>
       <r>   47.9931    0.0000 </r>
       <r>   49.5932    0.0000 </r>
       <r>   49.7725    0.0000 </r>
       <r>   50.8277    0.0000 </r>
       <r>   52.2700    0.0000 </r>
       <r>   53.1609    0.0000 </r>
       <r>   56.4933    0.0000 </r>
       <r>   56.5144    0.0000 </r>
       <r>   56.9802    0.0000 </r>
       <r>   60.3252    0.0000 </r>
       <r>   61.2828    0.0000 </r>
       <r>   61.9372    0.0000 </r>
       <r>   64.5888    0.0000 </r>
       <r>   64.8827    0.0000 </r>
       <r>   68.8383    0.0000 </r>
       <r>   70.5088    0.0000 </r>
       <r>   72.6726    0.0000 </r>
       <r>   73.3166    0.0000 </r>
       <r>   73.4011    0.0000 </r>
       <r>   73.7278    0.0000 </r>
      </set>
      <set comment="kpoint 17">
       <r>   -0.8896    1.0000 </r>
       <r>    2.8830    1.0000 </r>
       <r>    6.1341    1.0000 </r>
       <r>    6.8254    1.0000 </r>
       <r>    6.8254    1.0000 </r>
       <r>    7.2311    1.0000 </r>
       <r>    7.2311    1.0000 </r>
       <r>    7.9071    1.0000 </r>
       <r>    8.4191    1.0086 </r>
       <r>    8.4191    1.0086 </r>
       <r>    9.7485   -0.0000 </r>
       <r>    9.7486   -0.0000 </r>
       <r>   18.3060    0.0000 </r>
       <r>   33.0586    0.0000 </r>
       <r>   34.2875    0.0000 </r>
       <r>   36.7450    0.0000 </r>
       <r>   40.5213    0.0000 </r>
       <r>   40.5213    0.0000 </r>
       <r>   41.1282    0.0000 </r>
       <r>   41.1283    0.0000 </r>
       <r>   43.2076    0.0000 </r>
       <r>   43.4726    0.0000 </r>
       <r>   43.4726    0.0000 </r>
       <r>   44.9185    0.0000 </r>
       <r>   47.8155    0.0000 </r>
       <r>   47.8155    0.0000 </r>
       <r>   49.8782    0.0000 </r>
       <r>   53.2209    0.0000 </r>
       <r>   53.2210    0.0000 </r>
       <r>   54.9220    0.0000 </r>
       <r>   54.9220    0.0000 </r>
       <r>   57.7010    0.0000 </r>
       <r>   64.3503    0.0000 </r>
       <r>   65.0909    0.0000 </r>
       <r>   65.5862    0.0000 </r>
       <r>   65.5866    0.0000 </r>
       <r>   68.5350    0.0000 </r>
       <r>   68.8397    0.0000 </r>
       <r>   68.8398    0.0000 </r>
       <r>   71.7798    0.0000 </r>
      </set>
      <set comment="kpoint 18">
       <r>   -0.5201    1.0000 </r>
       <r>    3.1681    1.0000 </r>
       <r>    6.1275    1.0000 </r>
       <r>    6.7474    1.0000 </r>
       <r>    6.8397    1.0000 </r>
       <r>    7.0568    1.0000 </r>
       <r>    7.2089    1.0000 </r>
       <r>    7.4435    1.0000 </r>
       <r>    8.2522    1.0003 </r>
       <r>    8.2836    1.0006 </r>
       <r>    9.7912   -0.0000 </r>
       <r>   10.9401   -0.0000 </r>
       <r>   18.3530    0.0000 </r>
       <r>   32.4434    0.0000 </r>
       <r>   34.2530    0.0000 </r>
       <r>   35.5430    0.0000 </r>
       <r>   37.4361    0.0000 </r>
       <r>   38.5307    0.0000 </r>
       <r>   40.0589    0.0000 </r>
       <r>   42.6275    0.0000 </r>
       <r>   42.7953    0.0000 </r>
       <r>   44.3944    0.0000 </r>
       <r>   44.8479    0.0000 </r>
       <r>   45.3871    0.0000 </r>
       <r>   48.8721    0.0000 </r>
       <r>   49.2132    0.0000 </r>
       <r>   50.6873    0.0000 </r>
       <r>   50.8856    0.0000 </r>
       <r>   53.5707    0.0000 </r>
       <r>   56.5154    0.0000 </r>
       <r>   57.2127    0.0000 </r>
       <r>   59.1440    0.0000 </r>
       <r>   62.7466    0.0000 </r>
       <r>   64.6853    0.0000 </r>
       <r>   64.8620    0.0000 </r>
       <r>   65.6984    0.0000 </r>
       <r>   67.3761    0.0000 </r>
       <r>   69.2642    0.0000 </r>
       <r>   70.6822    0.0000 </r>
       <r>   71.6970    0.0000 </r>
      </set>
      <set comment="kpoint 19">
       <r>    0.5086    1.0000 </r>
       <r>    3.8243    1.0000 </r>
       <r>    5.6290    1.0000 </r>
       <r>    5.8785    1.0000 </r>
       <r>    6.5570    1.0000 </r>
       <r>    7.2095    1.0000 </r>
       <r>    7.6534    1.0000 </r>
       <r>    7.9242    1.0000 </r>
       <r>    7.9551    1.0000 </r>
       <r>    8.1131    1.0000 </r>
       <r>    9.8640   -0.0000 </r>
       <r>   12.8639   -0.0000 </r>
       <r>   18.5431    0.0000 </r>
       <r>   29.1143    0.0000 </r>
       <r>   33.6293    0.0000 </r>
       <r>   34.3606    0.0000 </r>
       <r>   35.0370    0.0000 </r>
       <r>   35.1924    0.0000 </r>
       <r>   40.1356    0.0000 </r>
       <r>   41.4878    0.0000 </r>
       <r>   41.9108    0.0000 </r>
       <r>   43.1996    0.0000 </r>
       <r>   45.9553    0.0000 </r>
       <r>   47.7618    0.0000 </r>
       <r>   49.9986    0.0000 </r>
       <r>   50.3295    0.0000 </r>
       <r>   51.6936    0.0000 </r>
       <r>   54.3888    0.0000 </r>
       <r>   56.9082    0.0000 </r>
       <r>   59.1139    0.0000 </r>
       <r>   59.9449    0.0000 </r>
       <r>   60.8590    0.0000 </r>
       <r>   61.8365    0.0000 </r>
       <r>   63.0653    0.0000 </r>
       <r>   64.1567    0.0000 </r>
       <r>   65.0898    0.0000 </r>
       <r>   67.4481    0.0000 </r>
       <r>   70.1181    0.0000 </r>
       <r>   71.4644    0.0000 </r>
       <r>   72.4790    0.0000 </r>
      </set>
      <set comment="kpoint 20">
       <r>    1.8952    1.0000 </r>
       <r>    4.0669    1.0000 </r>
       <r>    4.6394    1.0000 </r>
       <r>    5.8152    1.0000 </r>
       <r>    6.3585    1.0000 </r>
       <r>    7.2815    1.0000 </r>
       <r>    7.5273    1.0000 </r>
       <r>    8.2957    1.0008 </r>
       <r>    8.6939    0.9209 </r>
       <r>    8.9096    0.1429 </r>
       <r>    9.9080   -0.0000 </r>
       <r>   14.8516    0.0000 </r>
       <r>   18.9850    0.0000 </r>
       <r>   25.0406    0.0000 </r>
       <r>   30.4591    0.0000 </r>
       <r>   31.6882    0.0000 </r>
       <r>   33.0733    0.0000 </r>
       <r>   35.2536    0.0000 </r>
       <r>   38.7924    0.0000 </r>
       <r>   40.8781    0.0000 </r>
       <r>   41.2276    0.0000 </r>
       <r>   43.5676    0.0000 </r>
       <r>   44.1799    0.0000 </r>
       <r>   48.0181    0.0000 </r>
       <r>   53.2861    0.0000 </r>
       <r>   54.5921    0.0000 </r>
       <r>   55.1692    0.0000 </r>
       <r>   55.6860    0.0000 </r>
       <r>   59.3319    0.0000 </r>
       <r>   59.9344    0.0000 </r>
       <r>   61.4134    0.0000 </r>
       <r>   62.2131    0.0000 </r>
       <r>   62.5207    0.0000 </r>
       <r>   62.9754    0.0000 </r>
       <r>   64.6107    0.0000 </r>
       <r>   66.6242    0.0000 </r>
       <r>   67.6220    0.0000 </r>
       <r>   70.7534    0.0000 </r>
       <r>   71.2068    0.0000 </r>
       <r>   73.3427    0.0000 </r>
      </set>
      <set comment="kpoint 21">
       <r>    2.9287    1.0000 </r>
       <r>    3.6665    1.0000 </r>
       <r>    4.0893    1.0000 </r>
       <r>    5.8151    1.0000 </r>
       <r>    6.8894    1.0000 </r>
       <r>    7.1392    1.0000 </r>
       <r>    7.2309    1.0000 </r>
       <r>    9.6387   -0.0000 </r>
       <r>    9.7131   -0.0000 </r>
       <r>    9.7169   -0.0000 </r>
       <r>    9.9700   -0.0000 </r>
       <r>   16.3890    0.0000 </r>
       <r>   19.4280    0.0000 </r>
       <r>   22.2106    0.0000 </r>
       <r>   27.1409    0.0000 </r>
       <r>   29.6330    0.0000 </r>
       <r>   30.4951    0.0000 </r>
       <r>   34.4287    0.0000 </r>
       <r>   37.7021    0.0000 </r>
       <r>   39.6869    0.0000 </r>
       <r>   42.2422    0.0000 </r>
       <r>   42.8847    0.0000 </r>
       <r>   45.0445    0.0000 </r>
       <r>   48.4037    0.0000 </r>
       <r>   53.9114    0.0000 </r>
       <r>   56.5915    0.0000 </r>
       <r>   57.7352    0.0000 </r>
       <r>   58.8251    0.0000 </r>
       <r>   59.9850    0.0000 </r>
       <r>   61.5454    0.0000 </r>
       <r>   62.3907    0.0000 </r>
       <r>   63.5302    0.0000 </r>
       <r>   63.8221    0.0000 </r>
       <r>   64.9081    0.0000 </r>
       <r>   65.2499    0.0000 </r>
       <r>   67.0247    0.0000 </r>
       <r>   70.4350    0.0000 </r>
       <r>   71.3518    0.0000 </r>
       <r>   71.9766    0.0000 </r>
       <r>   73.0000    0.0000 </r>
      </set>
      <set comment="kpoint 22">
       <r>    3.1541    1.0000 </r>
       <r>    3.2971    1.0000 </r>
       <r>    3.9551    1.0000 </r>
       <r>    5.9053    1.0000 </r>
       <r>    7.0606    1.0000 </r>
       <r>    7.1355    1.0000 </r>
       <r>    7.5243    1.0000 </r>
       <r>    9.8691   -0.0000 </r>
       <r>   10.2372   -0.0000 </r>
       <r>   10.3848   -0.0000 </r>
       <r>   11.6263   -0.0000 </r>
       <r>   15.4390    0.0000 </r>
       <r>   20.2063    0.0000 </r>
       <r>   22.1120    0.0000 </r>
       <r>   24.9430    0.0000 </r>
       <r>   27.7919    0.0000 </r>
       <r>   28.4706    0.0000 </r>
       <r>   33.7695    0.0000 </r>
       <r>   37.3060    0.0000 </r>
       <r>   38.7628    0.0000 </r>
       <r>   42.3946    0.0000 </r>
       <r>   43.8701    0.0000 </r>
       <r>   45.2576    0.0000 </r>
       <r>   49.3416    0.0000 </r>
       <r>   51.8081    0.0000 </r>
       <r>   57.6224    0.0000 </r>
       <r>   58.2821    0.0000 </r>
       <r>   61.0055    0.0000 </r>
       <r>   61.3217    0.0000 </r>
       <r>   62.8218    0.0000 </r>
       <r>   63.6343    0.0000 </r>
       <r>   63.9872    0.0000 </r>
       <r>   65.3860    0.0000 </r>
       <r>   66.4695    0.0000 </r>
       <r>   68.2477    0.0000 </r>
       <r>   69.3834    0.0000 </r>
       <r>   70.2113    0.0000 </r>
       <r>   71.3874    0.0000 </r>
       <r>   72.8976    0.0000 </r>
       <r>   73.0488    0.0000 </r>
      </set>
      <set comment="kpoint 23">
       <r>    0.1833    1.0000 </r>
       <r>    3.6647    1.0000 </r>
       <r>    5.9157    1.0000 </r>
       <r>    5.9614    1.0000 </r>
       <r>    6.8016    1.0000 </r>
       <r>    6.8901    1.0000 </r>
       <r>    7.5189    1.0000 </r>
       <r>    7.7631    1.0000 </r>
       <r>    7.9871    1.0000 </r>
       <r>    8.2553    1.0003 </r>
       <r>    9.8105   -0.0000 </r>
       <r>   12.3419   -0.0000 </r>
       <r>   18.4769    0.0000 </r>
       <r>   30.7114    0.0000 </r>
       <r>   32.4879    0.0000 </r>
       <r>   34.6242    0.0000 </r>
       <r>   35.7831    0.0000 </r>
       <r>   38.3084    0.0000 </r>
       <r>   38.7813    0.0000 </r>
       <r>   39.9107    0.0000 </r>
       <r>   42.5775    0.0000 </r>
       <r>   46.4191    0.0000 </r>
       <r>   46.6554    0.0000 </r>
       <r>   47.2480    0.0000 </r>
       <r>   47.8024    0.0000 </r>
       <r>   49.3584    0.0000 </r>
       <r>   49.6239    0.0000 </r>
       <r>   54.5321    0.0000 </r>
       <r>   56.9458    0.0000 </r>
       <r>   58.1604    0.0000 </r>
       <r>   58.6237    0.0000 </r>
       <r>   60.7632    0.0000 </r>
       <r>   61.0268    0.0000 </r>
       <r>   64.3775    0.0000 </r>
       <r>   64.6474    0.0000 </r>
       <r>   65.0432    0.0000 </r>
       <r>   66.4230    0.0000 </r>
       <r>   70.4597    0.0000 </r>
       <r>   71.5556    0.0000 </r>
       <r>   71.8398    0.0000 </r>
      </set>
      <set comment="kpoint 24">
       <r>    1.4310    1.0000 </r>
       <r>    4.2710    1.0000 </r>
       <r>    4.9845    1.0000 </r>
       <r>    5.5456    1.0000 </r>
       <r>    6.4778    1.0000 </r>
       <r>    7.0465    1.0000 </r>
       <r>    7.6333    1.0000 </r>
       <r>    7.8474    1.0000 </r>
       <r>    8.5007    1.0246 </r>
       <r>    8.8088    0.5232 </r>
       <r>    9.8228   -0.0000 </r>
       <r>   14.2007   -0.0000 </r>
       <r>   18.8382    0.0000 </r>
       <r>   27.1129    0.0000 </r>
       <r>   29.9318    0.0000 </r>
       <r>   32.3509    0.0000 </r>
       <r>   34.5522    0.0000 </r>
       <r>   36.2767    0.0000 </r>
       <r>   38.7682    0.0000 </r>
       <r>   39.6549    0.0000 </r>
       <r>   41.4474    0.0000 </r>
       <r>   45.1853    0.0000 </r>
       <r>   46.7628    0.0000 </r>
       <r>   47.8577    0.0000 </r>
       <r>   50.1687    0.0000 </r>
       <r>   51.0117    0.0000 </r>
       <r>   53.2914    0.0000 </r>
       <r>   57.0736    0.0000 </r>
       <r>   58.9415    0.0000 </r>
       <r>   60.4142    0.0000 </r>
       <r>   60.8408    0.0000 </r>
       <r>   61.7553    0.0000 </r>
       <r>   62.0701    0.0000 </r>
       <r>   63.4628    0.0000 </r>
       <r>   64.5853    0.0000 </r>
       <r>   65.0824    0.0000 </r>
       <r>   66.7967    0.0000 </r>
       <r>   71.2463    0.0000 </r>
       <r>   71.4707    0.0000 </r>
       <r>   72.6753    0.0000 </r>
      </set>
      <set comment="kpoint 25">
       <r>    2.7650    1.0000 </r>
       <r>    4.1019    1.0000 </r>
       <r>    4.2920    1.0000 </r>
       <r>    5.6218    1.0000 </r>
       <r>    6.5125    1.0000 </r>
       <r>    6.9425    1.0000 </r>
       <r>    7.4297    1.0000 </r>
       <r>    8.4271    1.0098 </r>
       <r>    9.4152   -0.0001 </r>
       <r>    9.6972   -0.0000 </r>
       <r>   10.0723   -0.0000 </r>
       <r>   16.0527    0.0000 </r>
       <r>   19.5182    0.0000 </r>
       <r>   23.3556    0.0000 </r>
       <r>   28.0407    0.0000 </r>
       <r>   28.9715    0.0000 </r>
       <r>   32.8603    0.0000 </r>
       <r>   33.7167    0.0000 </r>
       <r>   38.9875    0.0000 </r>
       <r>   39.5250    0.0000 </r>
       <r>   40.8404    0.0000 </r>
       <r>   44.6925    0.0000 </r>
       <r>   46.6271    0.0000 </r>
       <r>   49.0204    0.0000 </r>
       <r>   52.2458    0.0000 </r>
       <r>   53.9364    0.0000 </r>
       <r>   56.2790    0.0000 </r>
       <r>   58.0945    0.0000 </r>
       <r>   59.2286    0.0000 </r>
       <r>   60.5386    0.0000 </r>
       <r>   62.1655    0.0000 </r>
       <r>   63.2548    0.0000 </r>
       <r>   64.1101    0.0000 </r>
       <r>   64.5064    0.0000 </r>
       <r>   65.5379    0.0000 </r>
       <r>   66.5175    0.0000 </r>
       <r>   69.8162    0.0000 </r>
       <r>   70.9301    0.0000 </r>
       <r>   71.9173    0.0000 </r>
       <r>   72.4254    0.0000 </r>
      </set>
      <set comment="kpoint 26">
       <r>    3.3223    1.0000 </r>
       <r>    3.6383    1.0000 </r>
       <r>    4.0989    1.0000 </r>
       <r>    5.7826    1.0000 </r>
       <r>    6.8570    1.0000 </r>
       <r>    7.0460    1.0000 </r>
       <r>    7.2280    1.0000 </r>
       <r>    9.5016   -0.0000 </r>
       <r>    9.7462   -0.0000 </r>
       <r>   10.0790   -0.0000 </r>
       <r>   11.4267   -0.0000 </r>
       <r>   16.6758    0.0000 </r>
       <r>   19.8370    0.0000 </r>
       <r>   22.1930    0.0000 </r>
       <r>   25.8345    0.0000 </r>
       <r>   26.7978    0.0000 </r>
       <r>   29.7140    0.0000 </r>
       <r>   32.6406    0.0000 </r>
       <r>   37.9402    0.0000 </r>
       <r>   39.4054    0.0000 </r>
       <r>   41.7689    0.0000 </r>
       <r>   44.6123    0.0000 </r>
       <r>   47.3860    0.0000 </r>
       <r>   49.0642    0.0000 </r>
       <r>   53.1462    0.0000 </r>
       <r>   55.2166    0.0000 </r>
       <r>   57.2200    0.0000 </r>
       <r>   59.6029    0.0000 </r>
       <r>   61.1476    0.0000 </r>
       <r>   61.7984    0.0000 </r>
       <r>   62.5362    0.0000 </r>
       <r>   63.6908    0.0000 </r>
       <r>   64.1469    0.0000 </r>
       <r>   66.6370    0.0000 </r>
       <r>   68.1575    0.0000 </r>
       <r>   69.0373    0.0000 </r>
       <r>   69.5178    0.0000 </r>
       <r>   71.6826    0.0000 </r>
       <r>   72.1560    0.0000 </r>
       <r>   74.2316    0.0000 </r>
      </set>
      <set comment="kpoint 27">
       <r>    3.3433    1.0000 </r>
       <r>    3.4343    1.0000 </r>
       <r>    4.0954    1.0000 </r>
       <r>    5.8758    1.0000 </r>
       <r>    6.7903    1.0000 </r>
       <r>    7.3066    1.0000 </r>
       <r>    7.3069    1.0000 </r>
       <r>    9.7359   -0.0000 </r>
       <r>   10.1395   -0.0000 </r>
       <r>   10.1773   -0.0000 </r>
       <r>   12.7482   -0.0000 </r>
       <r>   15.2650    0.0000 </r>
       <r>   21.0658    0.0000 </r>
       <r>   22.0813    0.0000 </r>
       <r>   24.9941    0.0000 </r>
       <r>   25.9054    0.0000 </r>
       <r>   28.0275    0.0000 </r>
       <r>   32.2777    0.0000 </r>
       <r>   37.4927    0.0000 </r>
       <r>   39.2762    0.0000 </r>
       <r>   42.2800    0.0000 </r>
       <r>   44.7987    0.0000 </r>
       <r>   47.1222    0.0000 </r>
       <r>   50.3943    0.0000 </r>
       <r>   51.4310    0.0000 </r>
       <r>   55.9074    0.0000 </r>
       <r>   58.2137    0.0000 </r>
       <r>   60.2407    0.0000 </r>
       <r>   61.7583    0.0000 </r>
       <r>   62.0820    0.0000 </r>
       <r>   63.9101    0.0000 </r>
       <r>   63.9118    0.0000 </r>
       <r>   65.0521    0.0000 </r>
       <r>   66.2045    0.0000 </r>
       <r>   68.3160    0.0000 </r>
       <r>   70.5163    0.0000 </r>
       <r>   70.9527    0.0000 </r>
       <r>   71.5100    0.0000 </r>
       <r>   72.7768    0.0000 </r>
       <r>   74.8017    0.0000 </r>
      </set>
      <set comment="kpoint 28">
       <r>    2.7451    1.0000 </r>
       <r>    4.3931    1.0000 </r>
       <r>    4.7943    1.0000 </r>
       <r>    4.9901    1.0000 </r>
       <r>    6.5930    1.0000 </r>
       <r>    6.6039    1.0000 </r>
       <r>    7.5777    1.0000 </r>
       <r>    7.8523    1.0000 </r>
       <r>    9.4083   -0.0001 </r>
       <r>    9.5908   -0.0000 </r>
       <r>   10.1425   -0.0000 </r>
       <r>   15.9228    0.0000 </r>
       <r>   19.6006    0.0000 </r>
       <r>   24.9584    0.0000 </r>
       <r>   26.0296    0.0000 </r>
       <r>   30.3309    0.0000 </r>
       <r>   32.2064    0.0000 </r>
       <r>   35.5224    0.0000 </r>
       <r>   36.2492    0.0000 </r>
       <r>   39.7362    0.0000 </r>
       <r>   42.8710    0.0000 </r>
       <r>   47.1709    0.0000 </r>
       <r>   47.7776    0.0000 </r>
       <r>   49.1368    0.0000 </r>
       <r>   49.3932    0.0000 </r>
       <r>   52.9536    0.0000 </r>
       <r>   53.5926    0.0000 </r>
       <r>   58.3870    0.0000 </r>
       <r>   59.1216    0.0000 </r>
       <r>   60.3785    0.0000 </r>
       <r>   62.0458    0.0000 </r>
       <r>   63.5392    0.0000 </r>
       <r>   63.6217    0.0000 </r>
       <r>   65.0941    0.0000 </r>
       <r>   65.5816    0.0000 </r>
       <r>   67.6564    0.0000 </r>
       <r>   68.1362    0.0000 </r>
       <r>   70.9927    0.0000 </r>
       <r>   71.3399    0.0000 </r>
       <r>   72.9526    0.0000 </r>
      </set>
      <set comment="kpoint 29">
       <r>    3.7855    1.0000 </r>
       <r>    4.1299    1.0000 </r>
       <r>    4.4033    1.0000 </r>
       <r>    5.2730    1.0000 </r>
       <r>    6.3814    1.0000 </r>
       <r>    6.9083    1.0000 </r>
       <r>    7.1756    1.0000 </r>
       <r>    8.4916    1.0224 </r>
       <r>    9.5216   -0.0000 </r>
       <r>   10.0303   -0.0000 </r>
       <r>   11.6357   -0.0000 </r>
       <r>   17.5952    0.0000 </r>
       <r>   20.5005    0.0000 </r>
       <r>   22.2214    0.0000 </r>
       <r>   24.2257    0.0000 </r>
       <r>   27.7526    0.0000 </r>
       <r>   30.4085    0.0000 </r>
       <r>   32.0309    0.0000 </r>
       <r>   35.0217    0.0000 </r>
       <r>   41.3870    0.0000 </r>
       <r>   43.6963    0.0000 </r>
       <r>   47.0337    0.0000 </r>
       <r>   48.8960    0.0000 </r>
       <r>   50.5170    0.0000 </r>
       <r>   51.5531    0.0000 </r>
       <r>   52.5896    0.0000 </r>
       <r>   55.8962    0.0000 </r>
       <r>   56.8785    0.0000 </r>
       <r>   59.2895    0.0000 </r>
       <r>   61.5633    0.0000 </r>
       <r>   62.6680    0.0000 </r>
       <r>   63.5175    0.0000 </r>
       <r>   64.3424    0.0000 </r>
       <r>   66.5061    0.0000 </r>
       <r>   67.9808    0.0000 </r>
       <r>   68.9308    0.0000 </r>
       <r>   70.0216    0.0000 </r>
       <r>   71.9910    0.0000 </r>
       <r>   73.1458    0.0000 </r>
       <r>   74.2545    0.0000 </r>
      </set>
      <set comment="kpoint 30">
       <r>    3.7077    1.0000 </r>
       <r>    4.0574    1.0000 </r>
       <r>    4.4674    1.0000 </r>
       <r>    5.6397    1.0000 </r>
       <r>    6.4464    1.0000 </r>
       <r>    6.7337    1.0000 </r>
       <r>    7.3685    1.0000 </r>
       <r>    9.3242   -0.0009 </r>
       <r>    9.4602   -0.0000 </r>
       <r>   10.0484   -0.0000 </r>
       <r>   13.4445   -0.0000 </r>
       <r>   16.7742    0.0000 </r>
       <r>   21.0836    0.0000 </r>
       <r>   22.8460    0.0000 </r>
       <r>   23.1619    0.0000 </r>
       <r>   25.6329    0.0000 </r>
       <r>   28.9404    0.0000 </r>
       <r>   29.6858    0.0000 </r>
       <r>   34.3757    0.0000 </r>
       <r>   42.5088    0.0000 </r>
       <r>   44.1975    0.0000 </r>
       <r>   46.1528    0.0000 </r>
       <r>   49.7502    0.0000 </r>
       <r>   50.5226    0.0000 </r>
       <r>   53.2146    0.0000 </r>
       <r>   53.7586    0.0000 </r>
       <r>   56.0512    0.0000 </r>
       <r>   57.7757    0.0000 </r>
       <r>   60.6614    0.0000 </r>
       <r>   60.9913    0.0000 </r>
       <r>   62.2263    0.0000 </r>
       <r>   64.0219    0.0000 </r>
       <r>   64.1860    0.0000 </r>
       <r>   65.3601    0.0000 </r>
       <r>   68.9930    0.0000 </r>
       <r>   70.1201    0.0000 </r>
       <r>   71.9441    0.0000 </r>
       <r>   72.1817    0.0000 </r>
       <r>   72.7561    0.0000 </r>
       <r>   74.3875    0.0000 </r>
      </set>
      <set comment="kpoint 31">
       <r>    3.9716    1.0000 </r>
       <r>    4.5866    1.0000 </r>
       <r>    4.9211    1.0000 </r>
       <r>    4.9881    1.0000 </r>
       <r>    6.2323    1.0000 </r>
       <r>    6.5859    1.0000 </r>
       <r>    7.3482    1.0000 </r>
       <r>    8.8267    0.4477 </r>
       <r>    9.3193   -0.0010 </r>
       <r>   10.0194   -0.0000 </r>
       <r>   13.6406   -0.0000 </r>
       <r>   18.7660    0.0000 </r>
       <r>   19.7836    0.0000 </r>
       <r>   21.6596    0.0000 </r>
       <r>   23.7118    0.0000 </r>
       <r>   27.0144    0.0000 </r>
       <r>   27.3936    0.0000 </r>
       <r>   30.8287    0.0000 </r>
       <r>   31.7503    0.0000 </r>
       <r>   43.1823    0.0000 </r>
       <r>   46.1791    0.0000 </r>
       <r>   48.9826    0.0000 </r>
       <r>   49.3443    0.0000 </r>
       <r>   51.3949    0.0000 </r>
       <r>   51.7730    0.0000 </r>
       <r>   53.2719    0.0000 </r>
       <r>   55.6450    0.0000 </r>
       <r>   57.2837    0.0000 </r>
       <r>   57.6509    0.0000 </r>
       <r>   60.6892    0.0000 </r>
       <r>   61.8599    0.0000 </r>
       <r>   64.1825    0.0000 </r>
       <r>   64.3673    0.0000 </r>
       <r>   65.2750    0.0000 </r>
       <r>   69.1767    0.0000 </r>
       <r>   70.2160    0.0000 </r>
       <r>   70.3806    0.0000 </r>
       <r>   72.4832    0.0000 </r>
       <r>   73.9633    0.0000 </r>
       <r>   74.8547    0.0000 </r>
      </set>
      <set comment="kpoint 32">
       <r>    3.9948    1.0000 </r>
       <r>    4.7031    1.0000 </r>
       <r>    4.8392    1.0000 </r>
       <r>    5.3191    1.0000 </r>
       <r>    6.2068    1.0000 </r>
       <r>    6.3383    1.0000 </r>
       <r>    7.5194    1.0000 </r>
       <r>    9.2411   -0.0051 </r>
       <r>    9.2738   -0.0027 </r>
       <r>    9.6485   -0.0000 </r>
       <r>   15.5533    0.0000 </r>
       <r>   17.0666    0.0000 </r>
       <r>   19.3235    0.0000 </r>
       <r>   23.4585    0.0000 </r>
       <r>   23.6022    0.0000 </r>
       <r>   25.9303    0.0000 </r>
       <r>   27.0965    0.0000 </r>
       <r>   29.0309    0.0000 </r>
       <r>   31.1385    0.0000 </r>
       <r>   44.0654    0.0000 </r>
       <r>   46.8106    0.0000 </r>
       <r>   48.8479    0.0000 </r>
       <r>   49.6497    0.0000 </r>
       <r>   51.8503    0.0000 </r>
       <r>   52.7840    0.0000 </r>
       <r>   54.2570    0.0000 </r>
       <r>   56.1353    0.0000 </r>
       <r>   56.9089    0.0000 </r>
       <r>   57.4808    0.0000 </r>
       <r>   60.1051    0.0000 </r>
       <r>   61.2280    0.0000 </r>
       <r>   62.3087    0.0000 </r>
       <r>   64.5547    0.0000 </r>
       <r>   64.8379    0.0000 </r>
       <r>   68.8245    0.0000 </r>
       <r>   70.4421    0.0000 </r>
       <r>   72.4810    0.0000 </r>
       <r>   72.8706    0.0000 </r>
       <r>   73.9129    0.0000 </r>
       <r>   74.2956    0.0000 </r>
      </set>
      <set comment="kpoint 33">
       <r>   -0.6166    1.0000 </r>
       <r>    2.8179    1.0000 </r>
       <r>    6.0535    1.0000 </r>
       <r>    6.7979    1.0000 </r>
       <r>    6.7980    1.0000 </r>
       <r>    7.1661    1.0000 </r>
       <r>    7.1662    1.0000 </r>
       <r>    7.2998    1.0000 </r>
       <r>    8.5570    1.0349 </r>
       <r>    8.5570    1.0349 </r>
       <r>    9.7132   -0.0000 </r>
       <r>    9.7132   -0.0000 </r>
       <r>   19.3781    0.0000 </r>
[...]
       <r>   25.4784    0.0000 </r>
       <r>   26.2785    0.0000 </r>
       <r>   30.9640    0.0000 </r>
       <r>   32.1802    0.0000 </r>
       <r>   37.1881    0.0000 </r>
       <r>   38.3119    0.0000 </r>
       <r>   40.5455    0.0000 </r>
       <r>   42.1954    0.0000 </r>
       <r>   47.6372    0.0000 </r>
       <r>   48.0821    0.0000 </r>
       <r>   57.6568    0.0000 </r>
       <r>   58.1538    0.0000 </r>
       <r>   58.8196    0.0000 </r>
       <r>   60.4353    0.0000 </r>
       <r>   61.7490    0.0000 </r>
       <r>   62.2040    0.0000 </r>
       <r>   62.7935    0.0000 </r>
       <r>   63.5078    0.0000 </r>
       <r>   65.7445    0.0000 </r>
       <r>   65.9150    0.0000 </r>
       <r>   68.1466    0.0000 </r>
       <r>   68.9254    0.0000 </r>
       <r>   70.5654    0.0000 </r>
       <r>   71.1700    0.0000 </r>
       <r>   72.0902    0.0000 </r>
       <r>   73.2501    0.0000 </r>
      </set>
      <set comment="kpoint 95">
       <r>    4.0656    1.0000 </r>
       <r>    4.1542    1.0000 </r>
       <r>    5.2768    1.0000 </r>
       <r>    5.5349    1.0000 </r>
       <r>    6.0378    1.0000 </r>
       <r>    6.3044    1.0000 </r>
       <r>    7.7251    1.0000 </r>
       <r>    7.9660    1.0000 </r>
       <r>    9.8392   -0.0000 </r>
       <r>   10.0693   -0.0000 </r>
       <r>   14.6629    0.0000 </r>
       <r>   15.2348    0.0000 </r>
       <r>   21.4614    0.0000 </r>
       <r>   21.9560    0.0000 </r>
       <r>   23.6834    0.0000 </r>
       <r>   24.1413    0.0000 </r>
       <r>   31.2041    0.0000 </r>
       <r>   32.9560    0.0000 </r>
       <r>   37.1638    0.0000 </r>
       <r>   38.7226    0.0000 </r>
       <r>   40.3432    0.0000 </r>
       <r>   41.6080    0.0000 </r>
       <r>   49.6395    0.0000 </r>
       <r>   50.0969    0.0000 </r>
       <r>   54.9251    0.0000 </r>
       <r>   54.9293    0.0000 </r>
       <r>   61.1865    0.0000 </r>
       <r>   61.6823    0.0000 </r>
       <r>   62.0895    0.0000 </r>
       <r>   62.7367    0.0000 </r>
       <r>   63.6575    0.0000 </r>
       <r>   63.7359    0.0000 </r>
       <r>   64.3112    0.0000 </r>
       <r>   64.9924    0.0000 </r>
       <r>   68.3245    0.0000 </r>
       <r>   68.4827    0.0000 </r>
       <r>   70.1455    0.0000 </r>
       <r>   70.4581    0.0000 </r>
       <r>   70.9321    0.0000 </r>
       <r>   72.1029    0.0000 </r>
      </set>
      <set comment="kpoint 96">
       <r>    4.3036    1.0000 </r>
       <r>    4.4696    1.0000 </r>
       <r>    5.1630    1.0000 </r>
       <r>    5.2511    1.0000 </r>
       <r>    6.0784    1.0000 </r>
       <r>    6.2253    1.0000 </r>
       <r>    7.8021    1.0000 </r>
       <r>    7.9832    1.0000 </r>
       <r>    9.8069   -0.0000 </r>
       <r>    9.8924   -0.0000 </r>
       <r>   16.6348    0.0000 </r>
       <r>   16.7981    0.0000 </r>
       <r>   19.6933    0.0000 </r>
       <r>   20.0976    0.0000 </r>
       <r>   23.0187    0.0000 </r>
       <r>   23.4799    0.0000 </r>
       <r>   32.8976    0.0000 </r>
       <r>   33.9129    0.0000 </r>
       <r>   36.3409    0.0000 </r>
       <r>   36.4907    0.0000 </r>
       <r>   40.1435    0.0000 </r>
       <r>   41.0037    0.0000 </r>
       <r>   51.0447    0.0000 </r>
       <r>   51.7246    0.0000 </r>
       <r>   55.8179    0.0000 </r>
       <r>   56.2314    0.0000 </r>
       <r>   59.5193    0.0000 </r>
       <r>   59.8298    0.0000 </r>
       <r>   62.4622    0.0000 </r>
       <r>   63.1627    0.0000 </r>
       <r>   63.7053    0.0000 </r>
       <r>   63.8664    0.0000 </r>
       <r>   65.2382    0.0000 </r>
       <r>   65.5933    0.0000 </r>
       <r>   66.5079    0.0000 </r>
       <r>   67.9183    0.0000 </r>
       <r>   69.8412    0.0000 </r>
       <r>   71.9659    0.0000 </r>
       <r>   73.0410    0.0000 </r>
       <r>   73.5746    0.0000 </r>
      </set>
     </set>
    </set>
   </array>
  </eigenvalues>
  <separator name="orbital magnetization" >
   <v name="MAGDIPOLOUT">      0.00000000      0.00000000      0.00000000</v>
  </separator>
  <dos>
   <i name="efermi">      8.81426852 </i>
   <total>
    <array>
     <dimension dim="1">gridpoints</dimension>
     <dimension dim="2">spin</dimension>
     <field>energy</field>
     <field>total</field>
     <field>integrated</field>
     <set>
      <set comment="spin 1">
       <r>    -4.7960     0.0000     0.0000 </r>
       <r>    -4.5163     0.0000     0.0000 </r>
       <r>    -4.2367     0.0000     0.0000 </r>
       <r>    -3.9570     0.0000     0.0000 </r>
       <r>    -3.6773     0.0000     0.0000 </r>
       <r>    -3.3976     0.0000     0.0000 </r>
       <r>    -3.1179     0.0000     0.0000 </r>
       <r>    -2.8382    -0.0000    -0.0000 </r>
       <r>    -2.5586    -0.0000    -0.0000 </r>
       <r>    -2.2789    -0.0000    -0.0000 </r>
       <r>    -1.9992    -0.0000    -0.0000 </r>
       <r>    -1.7195    -0.0000    -0.0000 </r>
       <r>    -1.4398    -0.0000    -0.0000 </r>
       <r>    -1.1601    -0.0004    -0.0001 </r>
       <r>    -0.8805     0.0085     0.0023 </r>
       <r>    -0.6008     0.0428     0.0142 </r>
       <r>    -0.3211     0.0908     0.0396 </r>
       <r>    -0.0414     0.0555     0.0552 </r>
       <r>     0.2383     0.1244     0.0899 </r>
       <r>     0.5180     0.1607     0.1349 </r>
       <r>     0.7976     0.1714     0.1828 </r>
       <r>     1.0773     0.0963     0.2098 </r>
       <r>     1.3570     0.1630     0.2553 </r>
       <r>     1.6367     0.3249     0.3462 </r>
       <r>     1.9164     0.2463     0.4151 </r>
       <r>     2.1961     0.3306     0.5076 </r>
       <r>     2.4757     0.2020     0.5641 </r>
       <r>     2.7554     0.5254     0.7110 </r>
       <r>     3.0351     1.6405     1.1698 </r>
       <r>     3.3148     1.7293     1.6535 </r>
       <r>     3.5945     2.1167     2.2455 </r>
       <r>     3.8742     2.4297     2.9251 </r>
       <r>     4.1538     2.5423     3.6361 </r>
       <r>     4.4335     2.0030     4.1963 </r>
       <r>     4.7132     2.1509     4.7979 </r>
       <r>     4.9929     2.8168     5.5857 </r>
       <r>     5.2726     2.5043     6.2861 </r>
       <r>     5.5522     2.5881     7.0100 </r>
       <r>     5.8319     1.9319     7.5503 </r>
       <r>     6.1116     1.9025     8.0824 </r>
       <r>     6.3913     2.9093     8.8961 </r>
       <r>     6.6710     3.2342     9.8006 </r>
       <r>     6.9507     3.1465    10.6806 </r>
       <r>     7.2303     3.2571    11.5916 </r>
       <r>     7.5100     3.2341    12.4961 </r>
       <r>     7.7897     3.2016    13.3916 </r>
       <r>     8.0694     2.5454    14.1035 </r>
       <r>     8.3491     2.3291    14.7549 </r>
       <r>     8.6288     2.8513    15.5524 </r>
       <r>     8.9084     2.2909    16.1931 </r>
       <r>     9.1881     1.9225    16.7308 </r>
       <r>     9.4678     3.3416    17.6653 </r>
       <r>     9.7475     4.1211    18.8179 </r>
       <r>    10.0272     3.8247    19.8876 </r>
       <r>    10.3069     3.7230    20.9289 </r>
       <r>    10.5865     1.1012    21.2369 </r>
       <r>    10.8662     0.0770    21.2584 </r>
       <r>    11.1459     0.3557    21.3579 </r>
       <r>    11.4256     0.8110    21.5847 </r>
       <r>    11.7053     0.6342    21.7621 </r>
       <r>    11.9850     0.4598    21.8907 </r>
       <r>    12.2646     0.5681    22.0496 </r>
       <r>    12.5443     0.4888    22.1863 </r>
       <r>    12.8240     0.2740    22.2630 </r>
       <r>    13.1037     0.2200    22.3245 </r>
       <r>    13.3834     0.5020    22.4649 </r>
       <r>    13.6631     0.6553    22.6482 </r>
       <r>    13.9427     0.4589    22.7765 </r>
       <r>    14.2224     0.3221    22.8666 </r>
       <r>    14.5021     0.2756    22.9437 </r>
       <r>    14.7818     0.4977    23.0829 </r>
       <r>    15.0615     0.3674    23.1856 </r>
       <r>    15.3412     0.2527    23.2563 </r>
       <r>    15.6208     0.2983    23.3397 </r>
       <r>    15.9005     0.2823    23.4187 </r>
       <r>    16.1802     0.3766    23.5240 </r>
       <r>    16.4599     0.2688    23.5992 </r>
       <r>    16.7396     0.3005    23.6832 </r>
       <r>    17.0193     0.4901    23.8203 </r>
       <r>    17.2989     0.2503    23.8903 </r>
       <r>    17.5786     0.0581    23.9065 </r>
       <r>    17.8583     0.1402    23.9457 </r>
       <r>    18.1380     0.2137    24.0055 </r>
       <r>    18.4177     0.1817    24.0563 </r>
       <r>    18.6973     0.1863    24.1084 </r>
       <r>    18.9770     0.2430    24.1764 </r>
       <r>    19.2567     0.1625    24.2218 </r>
       <r>    19.5364     0.4941    24.3600 </r>
       <r>    19.8161     0.4386    24.4827 </r>
       <r>    20.0958     0.4108    24.5976 </r>
       <r>    20.3754     0.9310    24.8580 </r>
       <r>    20.6551     0.8263    25.0891 </r>
       <r>    20.9348     0.4870    25.2253 </r>
       <r>    21.2145     0.5497    25.3790 </r>
       <r>    21.4942     0.6486    25.5604 </r>
       <r>    21.7739     0.5220    25.7064 </r>
       <r>    22.0535     0.6566    25.8900 </r>
       <r>    22.3332     0.9236    26.1483 </r>
       <r>    22.6129     0.3776    26.2540 </r>
       <r>    22.8926     0.8216    26.4837 </r>
       <r>    23.1723     0.5995    26.6514 </r>
       <r>    23.4520     0.7255    26.8543 </r>
       <r>    23.7316     0.6338    27.0316 </r>
       <r>    24.0113     0.4294    27.1517 </r>
       <r>    24.2910     0.8970    27.4026 </r>
       <r>    24.5707     0.4481    27.5279 </r>
       <r>    24.8504     0.4790    27.6619 </r>
       <r>    25.1301     0.6302    27.8382 </r>
       <r>    25.4097     0.4877    27.9746 </r>
       <r>    25.6894     0.7010    28.1706 </r>
       <r>    25.9691     0.4562    28.2982 </r>
       <r>    26.2488     0.7891    28.5189 </r>
       <r>    26.5285     0.5210    28.6646 </r>
       <r>    26.8082     0.6119    28.8358 </r>
       <r>    27.0878     0.8816    29.0823 </r>
       <r>    27.3675     0.9928    29.3600 </r>
       <r>    27.6472     0.6482    29.5413 </r>
       <r>    27.9269     0.9873    29.8174 </r>
       <r>    28.2066     0.9877    30.0936 </r>
       <r>    28.4863     0.2687    30.1688 </r>
       <r>    28.7659     0.8727    30.4129 </r>
       <r>    29.0456     0.9582    30.6809 </r>
       <r>    29.3253     0.7011    30.8769 </r>
       <r>    29.6050     1.2590    31.2291 </r>
       <r>    29.8847     0.8877    31.4773 </r>
       <r>    30.1644     0.8101    31.7039 </r>
       <r>    30.4440     0.6759    31.8930 </r>
       <r>    30.7237     1.1242    32.2074 </r>
       <r>    31.0034     0.6644    32.3932 </r>
       <r>    31.2831     0.9728    32.6653 </r>
       <r>    31.5628     0.7464    32.8740 </r>
       <r>    31.8424     0.6614    33.0590 </r>
       <r>    32.1221     0.9439    33.3230 </r>
       <r>    32.4018     1.0187    33.6079 </r>
       <r>    32.6815     0.8114    33.8348 </r>
       <r>    32.9612     1.0714    34.1345 </r>
       <r>    33.2409     0.5470    34.2875 </r>
       <r>    33.5205     0.2950    34.3700 </r>
       <r>    33.8002     0.6671    34.5565 </r>
       <r>    34.0799     0.9285    34.8162 </r>
       <r>    34.3596     0.6684    35.0032 </r>
       <r>    34.6393     0.8738    35.2476 </r>
       <r>    34.9190     0.3730    35.3519 </r>
       <r>    35.1986     0.8307    35.5842 </r>
       <r>    35.4783     0.6519    35.7665 </r>
       <r>    35.7580     0.5901    35.9316 </r>
       <r>    36.0377     0.4988    36.0711 </r>
       <r>    36.3174     0.3927    36.1809 </r>
       <r>    36.5971     0.7074    36.3788 </r>
       <r>    36.8767     0.8037    36.6035 </r>
       <r>    37.1564     0.4326    36.7245 </r>
       <r>    37.4361     1.0646    37.0223 </r>
       <r>    37.7158     0.6622    37.2075 </r>
       <r>    37.9955     0.8434    37.4434 </r>
       <r>    38.2752     0.9049    37.6964 </r>
       <r>    38.5548     0.5770    37.8578 </r>
       <r>    38.8345     0.9394    38.1206 </r>
       <r>    39.1142     0.8165    38.3489 </r>
       <r>    39.3939     0.8008    38.5729 </r>
       <r>    39.6736     1.1163    38.8851 </r>
       <r>    39.9533     0.8644    39.1269 </r>
       <r>    40.2329     0.7743    39.3435 </r>
       <r>    40.5126     0.6608    39.5283 </r>
       <r>    40.7923     0.7234    39.7306 </r>
       <r>    41.0720     1.2713    40.0861 </r>
       <r>    41.3517     0.9072    40.3399 </r>
       <r>    41.6314     0.8297    40.5719 </r>
       <r>    41.9110     0.8579    40.8119 </r>
       <r>    42.1907     0.6006    40.9798 </r>
       <r>    42.4704     0.7880    41.2002 </r>
       <r>    42.7501     0.5995    41.3679 </r>
       <r>    43.0298     0.8133    41.5954 </r>
       <r>    43.3095     0.8015    41.8195 </r>
       <r>    43.5891     0.8309    42.0519 </r>
       <r>    43.8688     0.6218    42.2258 </r>
       <r>    44.1485     0.6595    42.4103 </r>
       <r>    44.4282     0.6730    42.5985 </r>
       <r>    44.7079     1.0763    42.8995 </r>
       <r>    44.9875     1.0463    43.1922 </r>
       <r>    45.2672     0.8114    43.4191 </r>
       <r>    45.5469     0.8183    43.6480 </r>
       <r>    45.8266     0.6097    43.8185 </r>
       <r>    46.1063     0.4705    43.9501 </r>
       <r>    46.3860     0.6319    44.1269 </r>
       <r>    46.6656     0.6305    44.3032 </r>
       <r>    46.9453     1.0320    44.5918 </r>
       <r>    47.2250     1.0754    44.8926 </r>
       <r>    47.5047     1.1288    45.2083 </r>
       <r>    47.7844     1.1359    45.5260 </r>
       <r>    48.0641     0.9071    45.7797 </r>
       <r>    48.3437     1.0735    46.0799 </r>
       <r>    48.6234     0.5792    46.2419 </r>
       <r>    48.9031     0.9703    46.5133 </r>
       <r>    49.1828     1.4146    46.9089 </r>
       <r>    49.4625     1.1280    47.2244 </r>
       <r>    49.7422     0.8826    47.4712 </r>
       <r>    50.0218     0.9794    47.7451 </r>
       <r>    50.3015     1.0396    48.0359 </r>
       <r>    50.5812     1.2396    48.3826 </r>
       <r>    50.8609     0.7468    48.5914 </r>
       <r>    51.1406     0.9050    48.8446 </r>
       <r>    51.4203     0.5812    49.0071 </r>
       <r>    51.6999     0.7814    49.2257 </r>
       <r>    51.9796     0.9255    49.4845 </r>
       <r>    52.2593     0.4716    49.6164 </r>
       <r>    52.5390     0.5810    49.7789 </r>
       <r>    52.8187     0.8317    50.0115 </r>
       <r>    53.0984     0.9529    50.2780 </r>
       <r>    53.3780     1.2941    50.6400 </r>
       <r>    53.6577     0.9953    50.9183 </r>
       <r>    53.9374     0.8804    51.1645 </r>
       <r>    54.2171     0.8214    51.3943 </r>
       <r>    54.4968     1.2706    51.7496 </r>
       <r>    54.7765     1.0186    52.0345 </r>
       <r>    55.0561     0.9325    52.2953 </r>
       <r>    55.3358     1.0232    52.5815 </r>
       <r>    55.6155     0.6580    52.7655 </r>
       <r>    55.8952     0.6350    52.9431 </r>
       <r>    56.1749     1.1755    53.2719 </r>
       <r>    56.4546     1.5295    53.6997 </r>
       <r>    56.7342     1.2537    54.0503 </r>
       <r>    57.0139     1.1760    54.3792 </r>
       <r>    57.2936     1.2773    54.7365 </r>
       <r>    57.5733     0.9651    55.0064 </r>
       <r>    57.8530     0.8218    55.2363 </r>
       <r>    58.1326     1.1481    55.5574 </r>
       <r>    58.4123     1.4845    55.9726 </r>
       <r>    58.6920     0.9356    56.2342 </r>
       <r>    58.9717     0.9703    56.5056 </r>
       <r>    59.2514     1.1269    56.8208 </r>
       <r>    59.5311     1.5097    57.2430 </r>
       <r>    59.8107     1.3377    57.6172 </r>
       <r>    60.0904     1.2175    57.9577 </r>
       <r>    60.3701     1.0546    58.2527 </r>
       <r>    60.6498     1.5394    58.6832 </r>
       <r>    60.9295     1.3520    59.0613 </r>
       <r>    61.2092     1.7797    59.5591 </r>
       <r>    61.4888     1.5945    60.0050 </r>
       <r>    61.7685     1.5714    60.4445 </r>
       <r>    62.0482     1.5891    60.8890 </r>
       <r>    62.3279     2.0566    61.4642 </r>
       <r>    62.6076     2.0772    62.0451 </r>
       <r>    62.8873     2.0611    62.6216 </r>
       <r>    63.1669     2.0160    63.1854 </r>
       <r>    63.4466     2.0377    63.7553 </r>
       <r>    63.7263     3.6069    64.7641 </r>
       <r>    64.0060     2.3462    65.4203 </r>
       <r>    64.2857     2.2942    66.0619 </r>
       <r>    64.5654     1.9101    66.5962 </r>
       <r>    64.8450     1.6672    67.0624 </r>
       <r>    65.1247     1.5530    67.4968 </r>
       <r>    65.4044     1.4268    67.8958 </r>
       <r>    65.6841     1.4198    68.2929 </r>
       <r>    65.9638     1.2226    68.6349 </r>
       <r>    66.2435     1.4733    69.0469 </r>
       <r>    66.5231     1.6968    69.5215 </r>
       <r>    66.8028     1.3869    69.9094 </r>
       <r>    67.0825     1.4931    70.3270 </r>
       <r>    67.3622     1.0268    70.6142 </r>
       <r>    67.6419     1.2416    70.9614 </r>
       <r>    67.9216     1.4368    71.3633 </r>
       <r>    68.2012     1.2146    71.7030 </r>
       <r>    68.4809     0.9761    71.9760 </r>
       <r>    68.7606     1.2202    72.3173 </r>
       <r>    69.0403     1.7564    72.8085 </r>
       <r>    69.3200     1.7136    73.2878 </r>
       <r>    69.5997     1.2726    73.6437 </r>
       <r>    69.8793     0.8349    73.8772 </r>
       <r>    70.1590     1.7444    74.3651 </r>
       <r>    70.4387     1.7384    74.8513 </r>
       <r>    70.7184     1.0859    75.1550 </r>
       <r>    70.9981     1.1726    75.4829 </r>
       <r>    71.2777     1.1684    75.8097 </r>
       <r>    71.5574     1.4913    76.2268 </r>
       <r>    71.8371     1.3788    76.6124 </r>
       <r>    72.1168     1.4959    77.0308 </r>
       <r>    72.3965     1.2364    77.3766 </r>
       <r>    72.6762     0.8833    77.6237 </r>
       <r>    72.9558     1.1079    77.9335 </r>
       <r>    73.2355     1.2551    78.2845 </r>
       <r>    73.5152     1.3855    78.6721 </r>
       <r>    73.7949     0.8161    78.9003 </r>
       <r>    74.0746     0.6156    79.0725 </r>
       <r>    74.3543     1.3701    79.4557 </r>
       <r>    74.6339     0.7332    79.6607 </r>
       <r>    74.9136     0.9967    79.9395 </r>
       <r>    75.1933     0.1702    79.9871 </r>
       <r>    75.4730     0.0471    80.0002 </r>
       <r>    75.7527    -0.0006    80.0001 </r>
       <r>    76.0324    -0.0002    80.0000 </r>
       <r>    76.3120    -0.0000    80.0000 </r>
       <r>    76.5917    -0.0000    80.0000 </r>
       <r>    76.8714     0.0000    80.0000 </r>
       <r>    77.1511     0.0000    80.0000 </r>
       <r>    77.4308     0.0000    80.0000 </r>
       <r>    77.7105     0.0000    80.0000 </r>
       <r>    77.9901     0.0000    80.0000 </r>
       <r>    78.2698     0.0000    80.0000 </r>
       <r>    78.5495     0.0000    80.0000 </r>
       <r>    78.8292     0.0000    80.0000 </r>
       <r>    79.1089     0.0000    80.0000 </r>
      </set>
     </set>
    </array>
   </total>
  </dos>
 </calculation>
 <structure name="finalpos" >
  <crystal>
   <varray name="basis" >
    <v>       2.26010000       0.00000000       0.00000000 </v>
    <v>      -1.13005000       1.95730402       0.00000000 </v>
    <v>       0.00000000       0.00000000       3.93723000 </v>
   </varray>
   <i name="volume">     17.41713539 </i>
   <varray name="rec_basis" >
    <v>       0.44245830       0.25545342       0.00000000 </v>
    <v>       0.00000000       0.51090684       0.00000000 </v>
    <v>       0.00000000       0.00000000       0.25398567 </v>
   </varray>
  </crystal>
  <varray name="positions" >
   <v>       0.00000000       0.00000000       0.00000000 </v>
   <v>       0.33333333       0.66666667       0.50000000 </v>
  </varray>
 </structure>
</modeling>
