 vasp.6.2.0 18Jan21 (build Mar 17 2021 09:06:54) complex                        
  
 POSCAR found type information on POSCAR Fe
 POSCAR found :  1 types and       2 ions
 LDA part: xc-table for Pade appr. of Perdew
 POSCAR, INCAR and KPOINTS ok, starting setup
 FFT: planning ...
 WAVECAR not read
 WARNING: chargedensity file is incomplete
 entering main loop
       N       E                     dE             d eps       ncg     rms          rms(c)
DAV:   1     0.600842179703E+02    0.60084E+02   -0.24183E+03  9424   0.333E+02
DAV:   2    -0.142538603602E+02   -0.74338E+02   -0.63526E+02  7936   0.978E+01
DAV:   3    -0.182885200941E+02   -0.40347E+01   -0.38685E+01  9520   0.236E+01
DAV:   4    -0.183016888342E+02   -0.13169E-01   -0.13163E-01  8720   0.142E+00
DAV:   5    -0.183016966778E+02   -0.78436E-05   -0.78438E-05  9248   0.330E-02    0.204E+01
DAV:   6    -0.157418968444E+02    0.25598E+01   -0.12731E+00 11288   0.211E+01    0.169E+00
DAV:   7    -0.156307366834E+02    0.11116E+00   -0.49293E-02  9648   0.288E+00    0.167E+00
DAV:   8    -0.155913797995E+02    0.39357E-01   -0.21798E-03 10560   0.286E-01    0.531E-01
DAV:   9    -0.155864084972E+02    0.49713E-02   -0.61320E-04 10296   0.139E-01    0.725E-02
DAV:  10    -0.155863755485E+02    0.32949E-04   -0.18842E-05  8440   0.209E-02    0.240E-02
DAV:  11    -0.155863561508E+02    0.19398E-04   -0.32498E-07  8272   0.384E-03    0.173E-03
DAV:  12    -0.155863547355E+02    0.14153E-05   -0.73886E-08  6192   0.124E-03    0.121E-03
DAV:  13    -0.155863551552E+02   -0.41969E-06   -0.88069E-09  5120   0.438E-04
   1 F= -.15586355E+02 E0= -.15586574E+02  d E =0.656199E-03
 writing wavefunctions
