unknown system                          
   1.00000000000000     
     3.635000    0.000000    0.000000
     0.000000    3.635000    0.000000
     0.000000    0.000000    3.635000
   Cu
     4
Direct
  0.000000  0.000000  0.000000
  0.500000  0.500000  0.000000
  0.500000  0.000000  0.500000
  0.000000  0.500000  0.500000
 
   32   32   32
  845.12      796.50      666.03      491.96      317.59      175.90      82.671      36.194      20.754      15.221    
  11.615      9.3741      8.0773      7.4299      7.0290      6.6513      6.4688      6.6513      7.0290      7.4299    
  8.0773      9.3741      11.615      15.221      20.754      36.194      82.671      175.90      317.59      491.96    
  666.03      796.50      796.50      750.47      626.99      462.28      297.52      164.17      77.113      34.347    
  20.362      15.024      11.541      9.3908      8.1541      7.5415      7.1683      6.8197      6.6513      6.8197    
  7.1683      7.5415      8.1541      9.3908      11.541      15.024      20.362      34.347      77.113      164.17    
  297.52      462.28      626.99      750.47      666.03      626.99      522.26      382.81      244.10      133.29    
  62.827      29.800      19.344      14.481      11.343      9.4319      8.3378      7.7909      7.4621      7.1683    
  7.0290      7.1683      7.4621      7.7909      8.3378      9.4319      11.343      14.481      19.344      29.800    
  62.827      133.29      244.10      382.81      522.26      626.99      491.96      462.28      382.81      277.59    
  174.32      94.068      45.618      24.786      17.908      13.727      11.096      9.5090      8.5867      8.0958    
  7.7909      7.5415      7.4299      7.5415      7.7909      8.0958      8.5867      9.5090      11.096      13.727    
  17.908      24.786      45.618      94.068      174.32      277.59      382.81      462.28      317.59      297.52    
  244.10      174.32      107.70      58.531      31.442      21.021      16.249      12.939      10.909      9.6979    
  8.9855      8.5867      8.3378      8.1541      8.0773      8.1541      8.3378      8.5867      8.9855      9.6979    
  10.909      12.939      16.249      21.021      31.442      58.531      107.70      174.32      244.10      297.52    
  175.90      164.17      133.29      94.068      58.531      34.621      23.149      18.217      14.651      12.291    
  10.899      10.115      9.6979      9.5090      9.4319      9.3908      9.3741      9.3908      9.4319      9.5090    
  9.6979      10.115      10.899      12.291      14.651      18.217      23.149      34.621      58.531      94.068    
  133.29      164.17      82.671      77.113      62.827      45.618      31.442      23.149      18.951      15.707    
  13.362      11.927      11.185      10.899      10.909      11.096      11.343      11.541      11.615      11.541    
  11.343      11.096      10.909      10.899      11.185      11.927      13.362      15.707      18.951      23.149    
  31.442      45.618      62.827      77.113      36.194      34.347      29.800      24.786      21.021      18.217    
  15.707      13.774      12.544      11.970      11.927      12.291      12.939      13.727      14.481      15.024    
  15.221      15.024      14.481      13.727      12.939      12.291      11.927      11.970      12.544      13.774    
  15.707      18.217      21.021      24.786      29.800      34.347      20.754      20.362      19.344      17.908    
  16.249      14.651      13.362      12.544      12.266      12.544      13.362      14.651      16.249      17.908    
  19.344      20.362      20.754      20.362      19.344      17.908      16.249      14.651      13.362      12.544    
  12.266      12.544      13.362      14.651      16.249      17.908      19.344      20.362      15.221      15.024    
  14.481      13.727      12.939      12.291      11.927      11.970      12.544      13.774      15.707      18.217    
  21.021      24.786      29.800      34.347      36.194      34.347      29.800      24.786      21.021      18.217    
  15.707      13.774      12.544      11.970      11.927      12.291      12.939      13.727      14.481      15.024    
  11.615      11.541      11.343      11.096      10.909      10.899      11.185      11.927      13.362      15.707    
  18.951      23.149      31.442      45.618      62.827      77.113      82.671      77.113      62.827      45.618    
  31.442      23.149      18.951      15.707      13.362      11.927      11.185      10.899      10.909      11.096    
  11.343      11.541      9.3741      9.3908      9.4319      9.5090      9.6979      10.115      10.899      12.291    
  14.651      18.217      23.149      34.621      58.531      94.068      133.29      164.17      175.90      164.17    
  133.29      94.068      58.531      34.621      23.149      18.217      14.651      12.291      10.899      10.115    
  9.6979      9.5090      9.4319      9.3908      8.0773      8.1541      8.3378      8.5867      8.9855      9.6979    
  10.909      12.939      16.249      21.021      31.442      58.531      107.70      174.32      244.10      297.52    
  317.59      297.52      244.10      174.32      107.70      58.531      31.442      21.021      16.249      12.939    
  10.909      9.6979      8.9855      8.5867      8.3378      8.1541      7.4299      7.5415      7.7909      8.0958    
  8.5867      9.5090      11.096      13.727      17.908      24.786      45.618      94.068      174.32      277.59    
  382.81      462.28      491.96      462.28      382.81      277.59      174.32      94.068      45.618      24.786    
  17.908      13.727      11.096      9.5090      8.5867      8.0958      7.7909      7.5415      7.0290      7.1683    
  7.4621      7.7909      8.3378      9.4319      11.343      14.481      19.344      29.800      62.827      133.29    
  244.10      382.81      522.26      626.99      666.03      626.99      522.26      382.81      244.10      133.29    
  62.827      29.800      19.344      14.481      11.343      9.4319      8.3378      7.7909      7.4621      7.1683    
  6.6513      6.8197      7.1683      7.5415      8.1541      9.3908      11.541      15.024      20.362      34.347    
  77.113      164.17      297.52      462.28      626.99      750.47      796.50      750.47      626.99      462.28    
  297.52      164.17      77.113      34.347      20.362      15.024      11.541      9.3908      8.1541      7.5415    
  7.1683      6.8197      6.4688      6.6513      7.0290      7.4299      8.0773      9.3741      11.615      15.221    
  20.754      36.194      82.671      175.90      317.59      491.96      666.03      796.50      845.12      796.50    
  666.03      491.96      317.59      175.90      82.671      36.194      20.754      15.221      11.615      9.3741    
  8.0773      7.4299      7.0290      6.6513      6.6513      6.8197      7.1683      7.5415      8.1541      9.3908    
  11.541      15.024      20.362      34.347      77.113      164.17      297.52      462.28      626.99      750.47    
  796.50      750.47      626.99      462.28      297.52      164.17      77.113      34.347      20.362      15.024    
  11.541      9.3908      8.1541      7.5415      7.1683      6.8197      7.0290      7.1683      7.4621      7.7909    
  8.3378      9.4319      11.343      14.481      19.344      29.800      62.827      133.29      244.10      382.81    
  522.26      626.99      666.03      626.99      522.26      382.81      244.10      133.29      62.827      29.800    
  19.344      14.481      11.343      9.4319      8.3378      7.7909      7.4621      7.1683      7.4299      7.5415    
  7.7909      8.0958      8.5867      9.5090      11.096      13.727      17.908      24.786      45.618      94.068    
  174.32      277.59      382.81      462.28      491.96      462.28      382.81      277.59      174.32      94.068    
  45.618      24.786      17.908      13.727      11.096      9.5090      8.5867      8.0958      7.7909      7.5415    
  8.0773      8.1541      8.3378      8.5867      8.9855      9.6979      10.909      12.939      16.249      21.021    
  31.442      58.531      107.70      174.32      244.10      297.52      317.59      297.52      244.10      174.32    
  107.70      58.531      31.442      21.021      16.249      12.939      10.909      9.6979      8.9855      8.5867    
  8.3378      8.1541      9.3741      9.3908      9.4319      9.5090      9.6979      10.115      10.899      12.291    
  14.651      18.217      23.149      34.621      58.531      94.068      133.29      164.17      175.90      164.17    
  133.29      94.068      58.531      34.621      23.149      18.217      14.651      12.291      10.899      10.115    
  9.6979      9.5090      9.4319      9.3908      11.615      11.541      11.343      11.096      10.909      10.899    
  11.185      11.927      13.362      15.707      18.951      23.149      31.442      45.618      62.827      77.113    
  82.671      77.113      62.827      45.618      31.442      23.149      18.951      15.707      13.362      11.927    
  11.185      10.899      10.909      11.096      11.343      11.541      15.221      15.024      14.481      13.727    
  12.939      12.291      11.927      11.970      12.544      13.774      15.707      18.217      21.021      24.786    
  29.800      34.347      36.194      34.347      29.800      24.786      21.021      18.217      15.707      13.774    
  12.544      11.970      11.927      12.291      12.939      13.727      14.481      15.024      20.754      20.362    
  19.344      17.908      16.249      14.651      13.362      12.544      12.266      12.544      13.362      14.651    
  16.249      17.908      19.344      20.362      20.754      20.362      19.344      17.908      16.249      14.651    
  13.362      12.544      12.266      12.544      13.362      14.651      16.249      17.908      19.344      20.362    
  36.194      34.347      29.800      24.786      21.021      18.217      15.707      13.774      12.544      11.970    
  11.927      12.291      12.939      13.727      14.481      15.024      15.221      15.024      14.481      13.727    
  12.939      12.291      11.927      11.970      12.544      13.774      15.707      18.217      21.021      24.786    
  29.800      34.347      82.671      77.113      62.827      45.618      31.442      23.149      18.951      15.707    
  13.362      11.927      11.185      10.899      10.909      11.096      11.343      11.541      11.615      11.541    
  11.343      11.096      10.909      10.899      11.185      11.927      13.362      15.707      18.951      23.149    
  31.442      45.618      62.827      77.113      175.90      164.17      133.29      94.068      58.531      34.621    
  23.149      18.217      14.651      12.291      10.899      10.115      9.6979      9.5090      9.4319      9.3908    
  9.3741      9.3908      9.4319      9.5090      9.6979      10.115      10.899      12.291      14.651      18.217    
  23.149      34.621      58.531      94.068      133.29      164.17      317.59      297.52      244.10      174.32    
  107.70      58.531      31.442      21.021      16.249      12.939      10.909      9.6979      8.9855      8.5867    
  8.3378      8.1541      8.0773      8.1541      8.3378      8.5867      8.9855      9.6979      10.909      12.939    
  16.249      21.021      31.442      58.531      107.70      174.32      244.10      297.52      491.96      462.28    
  382.81      277.59      174.32      94.068      45.618      24.786      17.908      13.727      11.096      9.5090    
  8.5867      8.0958      7.7909      7.5415      7.4299      7.5415      7.7909      8.0958      8.5867      9.5090    
  11.096      13.727      17.908      24.786      45.618      94.068      174.32      277.59      382.81      462.28    
  666.03      626.99      522.26      382.81      244.10      133.29      62.827      29.800      19.344      14.481    
  11.343      9.4319      8.3378      7.7909      7.4621      7.1683      7.0290      7.1683      7.4621      7.7909    
  8.3378      9.4319      11.343      14.481      19.344      29.800      62.827      133.29      244.10      382.81    
  522.26      626.99      796.50      750.47      626.99      462.28      297.52      164.17      77.113      34.347    
  20.362      15.024      11.541      9.3908      8.1541      7.5415      7.1683      6.8197      6.6513      6.8197    
  7.1683      7.5415      8.1541      9.3908      11.541      15.024      20.362      34.347      77.113      164.17    
  297.52      462.28      626.99      750.47      796.50      750.47      626.99      462.28      297.52      164.17    
  77.113      34.347      20.362      15.024      11.541      9.3908      8.1541      7.5415      7.1683      6.8197    
  6.6513      6.8197      7.1683      7.5415      8.1541      9.3908      11.541      15.024      20.362      34.347    
  77.113      164.17      297.52      462.28      626.99      750.47      750.47      706.91      590.04      434.22    
  278.61      153.17      71.966      32.671      19.996      14.831      11.468      9.4045      8.2244      7.6442    
  7.2965      6.9749      6.8197      6.9749      7.2965      7.6442      8.2244      9.4045      11.468      14.831    
  19.996      32.671      71.966      153.17      278.61      434.22      590.04      706.91      626.99      590.04    
  490.96      359.14      228.31      124.29      58.770      28.560      19.026      14.302      11.274      9.4391    
  8.3939      7.8747      7.5677      7.2965      7.1683      7.2965      7.5677      7.8747      8.3939      9.4391    
  11.274      14.302      19.026      28.560      58.770      124.29      228.31      359.14      490.96      590.04    
  462.28      434.22      359.14      259.87      162.75      87.733      42.963      24.046      17.620      13.569    
  11.033      9.5091      8.6273      8.1606      7.8747      7.6442      7.5415      7.6442      7.8747      8.1606    
  8.6273      9.5091      11.033      13.569      17.620      24.046      42.963      87.733      162.75      259.87    
  359.14      434.22      297.52      278.61      228.31      162.75      100.43      54.834      30.066      20.620    
  16.004      12.806      10.851      9.6884      9.0069      8.6273      8.3939      8.2244      8.1541      8.2244    
  8.3939      8.6273      9.0069      9.6884      10.851      12.806      16.004      20.620      30.066      54.834    
  100.43      162.75      228.31      278.61      164.17      153.17      124.29      87.733      54.834      32.952    
  22.585      17.909      14.455      12.181      10.841      10.088      9.6884      9.5091      9.4391      9.4045    
  9.3908      9.4045      9.4391      9.5091      9.6884      10.088      10.841      12.181      14.455      17.909    
  22.585      32.952      54.834      87.733      124.29      153.17      77.113      71.966      58.770      42.963    
  30.066      22.585      18.621      15.474      13.212      11.831      11.116      10.841      10.851      11.033    
  11.274      11.468      11.541      11.468      11.274      11.033      10.851      10.841      11.116      11.831    
  13.212      15.474      18.621      22.585      30.066      42.963      58.770      71.966      34.347      32.671    
  28.560      24.046      20.620      17.909      15.474      13.608      12.425      11.872      11.831      12.181    
  12.806      13.569      14.302      14.831      15.024      14.831      14.302      13.569      12.806      12.181    
  11.831      11.872      12.425      13.608      15.474      17.909      20.620      24.046      28.560      32.671    
  20.362      19.996      19.026      17.620      16.004      14.455      13.212      12.425      12.157      12.425    
  13.212      14.455      16.004      17.620      19.026      19.996      20.362      19.996      19.026      17.620    
  16.004      14.455      13.212      12.425      12.157      12.425      13.212      14.455      16.004      17.620    
  19.026      19.996      15.024      14.831      14.302      13.569      12.806      12.181      11.831      11.872    
  12.425      13.608      15.474      17.909      20.620      24.046      28.560      32.671      34.347      32.671    
  28.560      24.046      20.620      17.909      15.474      13.608      12.425      11.872      11.831      12.181    
  12.806      13.569      14.302      14.831      11.541      11.468      11.274      11.033      10.851      10.841    
  11.116      11.831      13.212      15.474      18.621      22.585      30.066      42.963      58.770      71.966    
  77.113      71.966      58.770      42.963      30.066      22.585      18.621      15.474      13.212      11.831    
  11.116      10.841      10.851      11.033      11.274      11.468      9.3908      9.4045      9.4391      9.5091    
  9.6884      10.088      10.841      12.181      14.455      17.909      22.585      32.952      54.834      87.733    
  124.29      153.17      164.17      153.17      124.29      87.733      54.834      32.952      22.585      17.909    
  14.455      12.181      10.841      10.088      9.6884      9.5091      9.4391      9.4045      8.1541      8.2244    
  8.3939      8.6273      9.0069      9.6884      10.851      12.806      16.004      20.620      30.066      54.834    
  100.43      162.75      228.31      278.61      297.52      278.61      228.31      162.75      100.43      54.834    
  30.066      20.620      16.004      12.806      10.851      9.6884      9.0069      8.6273      8.3939      8.2244    
  7.5415      7.6442      7.8747      8.1606      8.6273      9.5091      11.033      13.569      17.620      24.046    
  42.963      87.733      162.75      259.87      359.14      434.22      462.28      434.22      359.14      259.87    
  162.75      87.733      42.963      24.046      17.620      13.569      11.033      9.5091      8.6273      8.1606    
  7.8747      7.6442      7.1683      7.2965      7.5677      7.8747      8.3939      9.4391      11.274      14.302    
  19.026      28.560      58.770      124.29      228.31      359.14      490.96      590.04      626.99      590.04    
  490.96      359.14      228.31      124.29      58.770      28.560      19.026      14.302      11.274      9.4391    
  8.3939      7.8747      7.5677      7.2965      6.8197      6.9749      7.2965      7.6442      8.2244      9.4045    
  11.468      14.831      19.996      32.671      71.966      153.17      278.61      434.22      590.04      706.91    
  750.47      706.91      590.04      434.22      278.61      153.17      71.966      32.671      19.996      14.831    
  11.468      9.4045      8.2244      7.6442      7.2965      6.9749      6.6513      6.8197      7.1683      7.5415    
  8.1541      9.3908      11.541      15.024      20.362      34.347      77.113      164.17      297.52      462.28    
  626.99      750.47      796.50      750.47      626.99      462.28      297.52      164.17      77.113      34.347    
  20.362      15.024      11.541      9.3908      8.1541      7.5415      7.1683      6.8197      6.8197      6.9749    
  7.2965      7.6442      8.2244      9.4045      11.468      14.831      19.996      32.671      71.966      153.17    
  278.61      434.22      590.04      706.91      750.47      706.91      590.04      434.22      278.61      153.17    
  71.966      32.671      19.996      14.831      11.468      9.4045      8.2244      7.6442      7.2965      6.9749    
  7.1683      7.2965      7.5677      7.8747      8.3939      9.4391      11.274      14.302      19.026      28.560    
  58.770      124.29      228.31      359.14      490.96      590.04      626.99      590.04      490.96      359.14    
  228.31      124.29      58.770      28.560      19.026      14.302      11.274      9.4391      8.3939      7.8747    
  7.5677      7.2965      7.5415      7.6442      7.8747      8.1606      8.6273      9.5091      11.033      13.569    
  17.620      24.046      42.963      87.733      162.75      259.87      359.14      434.22      462.28      434.22    
  359.14      259.87      162.75      87.733      42.963      24.046      17.620      13.569      11.033      9.5091    
  8.6273      8.1606      7.8747      7.6442      8.1541      8.2244      8.3939      8.6273      9.0069      9.6884    
  10.851      12.806      16.004      20.620      30.066      54.834      100.43      162.75      228.31      278.61    
  297.52      278.61      228.31      162.75      100.43      54.834      30.066      20.620      16.004      12.806    
  10.851      9.6884      9.0069      8.6273      8.3939      8.2244      9.3908      9.4045      9.4391      9.5091    
  9.6884      10.088      10.841      12.181      14.455      17.909      22.585      32.952      54.834      87.733    
  124.29      153.17      164.17      153.17      124.29      87.733      54.834      32.952      22.585      17.909    
  14.455      12.181      10.841      10.088      9.6884      9.5091      9.4391      9.4045      11.541      11.468    
  11.274      11.033      10.851      10.841      11.116      11.831      13.212      15.474      18.621      22.585    
  30.066      42.963      58.770      71.966      77.113      71.966      58.770      42.963      30.066      22.585    
  18.621      15.474      13.212      11.831      11.116      10.841      10.851      11.033      11.274      11.468    
  15.024      14.831      14.302      13.569      12.806      12.181      11.831      11.872      12.425      13.608    
  15.474      17.909      20.620      24.046      28.560      32.671      34.347      32.671      28.560      24.046    
  20.620      17.909      15.474      13.608      12.425      11.872      11.831      12.181      12.806      13.569    
  14.302      14.831      20.362      19.996      19.026      17.620      16.004      14.455      13.212      12.425    
  12.157      12.425      13.212      14.455      16.004      17.620      19.026      19.996      20.362      19.996    
  19.026      17.620      16.004      14.455      13.212      12.425      12.157      12.425      13.212      14.455    
  16.004      17.620      19.026      19.996      34.347      32.671      28.560      24.046      20.620      17.909    
  15.474      13.608      12.425      11.872      11.831      12.181      12.806      13.569      14.302      14.831    
  15.024      14.831      14.302      13.569      12.806      12.181      11.831      11.872      12.425      13.608    
  15.474      17.909      20.620      24.046      28.560      32.671      77.113      71.966      58.770      42.963    
  30.066      22.585      18.621      15.474      13.212      11.831      11.116      10.841      10.851      11.033    
  11.274      11.468      11.541      11.468      11.274      11.033      10.851      10.841      11.116      11.831    
  13.212      15.474      18.621      22.585      30.066      42.963      58.770      71.966      164.17      153.17    
  124.29      87.733      54.834      32.952      22.585      17.909      14.455      12.181      10.841      10.088    
  9.6884      9.5091      9.4391      9.4045      9.3908      9.4045      9.4391      9.5091      9.6884      10.088    
  10.841      12.181      14.455      17.909      22.585      32.952      54.834      87.733      124.29      153.17    
  297.52      278.61      228.31      162.75      100.43      54.834      30.066      20.620      16.004      12.806    
  10.851      9.6884      9.0069      8.6273      8.3939      8.2244      8.1541      8.2244      8.3939      8.6273    
  9.0069      9.6884      10.851      12.806      16.004      20.620      30.066      54.834      100.43      162.75    
  228.31      278.61      462.28      434.22      359.14      259.87      162.75      87.733      42.963      24.046    
  17.620      13.569      11.033      9.5091      8.6273      8.1606      7.8747      7.6442      7.5415      7.6442    
  7.8747      8.1606      8.6273      9.5091      11.033      13.569      17.620      24.046      42.963      87.733    
  162.75      259.87      359.14      434.22      626.99      590.04      490.96      359.14      228.31      124.29    
  58.770      28.560      19.026      14.302      11.274      9.4391      8.3939      7.8747      7.5677      7.2965    
  7.1683      7.2965      7.5677      7.8747      8.3939      9.4391      11.274      14.302      19.026      28.560    
  58.770      124.29      228.31      359.14      490.96      590.04      750.47      706.91      590.04      434.22    
  278.61      153.17      71.966      32.671      19.996      14.831      11.468      9.4045      8.2244      7.6442    
  7.2965      6.9749      6.8197      6.9749      7.2965      7.6442      8.2244      9.4045      11.468      14.831    
  19.996      32.671      71.966      153.17      278.61      434.22      590.04      706.91      666.03      626.99    
  522.26      382.81      244.10      133.29      62.827      29.800      19.344      14.481      11.343      9.4319    
  8.3378      7.7909      7.4621      7.1683      7.0290      7.1683      7.4621      7.7909      8.3378      9.4319    
  11.343      14.481      19.344      29.800      62.827      133.29      244.10      382.81      522.26      626.99    
  626.99      590.04      490.96      359.14      228.31      124.29      58.770      28.560      19.026      14.302    
  11.274      9.4391      8.3939      7.8747      7.5677      7.2965      7.1683      7.2965      7.5677      7.8747    
  8.3939      9.4391      11.274      14.302      19.026      28.560      58.770      124.29      228.31      359.14    
  490.96      590.04      522.26      490.96      407.11      295.92      186.42      100.77      48.454      25.542    
  18.129      13.813      11.092      9.4598      8.5327      8.0674      7.7959      7.5677      7.4621      7.5677    
  7.7959      8.0674      8.5327      9.4598      11.092      13.813      18.129      25.542      48.454      100.77    
  186.42      295.92      407.11      490.96      382.81      359.14      295.92      212.76      132.26      71.347    
  36.315      22.240      16.816      13.140      10.868      9.5148      8.7335      8.3176      8.0674      7.8747    
  7.7909      7.8747      8.0674      8.3176      8.7335      9.5148      10.868      13.140      16.816      22.240    
  36.315      71.347      132.26      212.76      295.92      359.14      244.10      228.31      186.42      132.26    
  81.550      45.445      26.691      19.544      15.326      12.446      10.702      9.6707      9.0684      8.7335    
  8.5327      8.3939      8.3378      8.3939      8.5327      8.7335      9.0684      9.6707      10.702      12.446    
  15.326      19.544      26.691      45.445      81.550      132.26      186.42      228.31      133.29      124.29    
  100.77      71.347      45.445      28.831      21.165      17.043      13.916      11.882      10.691      10.023    
  9.6707      9.5148      9.4598      9.4391      9.4319      9.4391      9.4598      9.5148      9.6707      10.023    
  10.691      11.882      13.916      17.043      21.165      28.831      45.445      71.347      100.77      124.29    
  62.827      58.770      48.454      36.315      26.691      21.165      17.687      14.824      12.797      11.569    
  10.934      10.691      10.702      10.868      11.092      11.274      11.343      11.274      11.092      10.868    
  10.702      10.691      10.934      11.569      12.797      14.824      17.687      21.165      26.691      36.315    
  48.454      58.770      29.800      28.560      25.542      22.240      19.544      17.043      14.824      13.148    
  12.094      11.604      11.569      11.882      12.446      13.140      13.813      14.302      14.481      14.302    
  13.813      13.140      12.446      11.882      11.569      11.604      12.094      13.148      14.824      17.043    
  19.544      22.240      25.542      28.560      19.344      19.026      18.129      16.816      15.326      13.916    
  12.797      12.094      11.857      12.094      12.797      13.916      15.326      16.816      18.129      19.026    
  19.344      19.026      18.129      16.816      15.326      13.916      12.797      12.094      11.857      12.094    
  12.797      13.916      15.326      16.816      18.129      19.026      14.481      14.302      13.813      13.140    
  12.446      11.882      11.569      11.604      12.094      13.148      14.824      17.043      19.544      22.240    
  25.542      28.560      29.800      28.560      25.542      22.240      19.544      17.043      14.824      13.148    
  12.094      11.604      11.569      11.882      12.446      13.140      13.813      14.302      11.343      11.274    
  11.092      10.868      10.702      10.691      10.934      11.569      12.797      14.824      17.687      21.165    
  26.691      36.315      48.454      58.770      62.827      58.770      48.454      36.315      26.691      21.165    
  17.687      14.824      12.797      11.569      10.934      10.691      10.702      10.868      11.092      11.274    
  9.4319      9.4391      9.4598      9.5148      9.6707      10.023      10.691      11.882      13.916      17.043    
  21.165      28.831      45.445      71.347      100.77      124.29      133.29      124.29      100.77      71.347    
  45.445      28.831      21.165      17.043      13.916      11.882      10.691      10.023      9.6707      9.5148    
  9.4598      9.4391      8.3378      8.3939      8.5327      8.7335      9.0684      9.6707      10.702      12.446    
  15.326      19.544      26.691      45.445      81.550      132.26      186.42      228.31      244.10      228.31    