unknown system                          
   1.00000000000000     
     3.635000    0.000000    0.000000
     0.000000    3.635000    0.000000
     0.000000    0.000000    3.635000
   Cu
     4
Direct
  0.000000  0.000000  0.000000
  0.500000  0.500000  0.000000
  0.500000  0.000000  0.500000
  0.000000  0.500000  0.500000
 
   32   32   32
 0.84512065218E+03 0.79649623731E+03 0.66603472591E+03 0.49196128439E+03 0.31758597584E+03
 0.17589853445E+03 0.82671136378E+02 0.36194213874E+02 0.20754410623E+02 0.15221409756E+02
 0.11614931392E+02 0.93741098586E+01 0.80773248900E+01 0.74298698439E+01 0.70290367803E+01
 0.66513304722E+01 0.64688007947E+01 0.66513304722E+01 0.70290367803E+01 0.74298698439E+01
 0.80773248900E+01 0.93741098586E+01 0.11614931392E+02 0.15221409756E+02 0.20754410623E+02
 0.36194213874E+02 0.82671136378E+02 0.17589853445E+03 0.31758597584E+03 0.49196128439E+03
 0.66603472591E+03 0.79649623731E+03 0.79649623731E+03 0.75047292284E+03 0.62698793450E+03
 0.46227805494E+03 0.29752415508E+03 0.16416519795E+03 0.77112840292E+02 0.34346792860E+02
 0.20361911986E+02 0.15023875708E+02 0.11540860516E+02 0.93907953500E+01 0.81540950230E+01
 0.75414563134E+01 0.71682888471E+01 0.68196913783E+01 0.66513304722E+01 0.68196913783E+01
 0.71682888471E+01 0.75414563134E+01 0.81540950230E+01 0.93907953500E+01 0.11540860516E+02
 0.15023875708E+02 0.20361911986E+02 0.34346792860E+02 0.77112840292E+02 0.16416519795E+03
 0.29752415508E+03 0.46227805494E+03 0.62698793450E+03 0.75047292284E+03 0.66603472591E+03
 0.62698793450E+03 0.52225612794E+03 0.38280907464E+03 0.24410261031E+03 0.13329118669E+03
 0.62827363164E+02 0.29799958727E+02 0.19344334633E+02 0.14481021460E+02 0.11343320925E+02
 0.94319184248E+01 0.83377711079E+01 0.77908864450E+01 0.74621346314E+01 0.71682888471E+01
 0.70290367803E+01 0.71682888471E+01 0.74621346314E+01 0.77908864450E+01 0.83377711079E+01
 0.94319184248E+01 0.11343320925E+02 0.14481021460E+02 0.19344334633E+02 0.29799958727E+02
 0.62827363164E+02 0.13329118669E+03 0.24410261031E+03 0.38280907464E+03 0.52225612794E+03
 0.62698793450E+03 0.49196128439E+03 0.46227805494E+03 0.38280907464E+03 0.27759156047E+03
 0.17432251301E+03 0.94067679500E+02 0.45617698820E+02 0.24785707611E+02 0.17907940861E+02
 0.13726750684E+02 0.11096114884E+02 0.95089822963E+01 0.85866970264E+01 0.80958263711E+01
 0.77908864450E+01 0.75414563134E+01 0.74298698439E+01 0.75414563134E+01 0.77908864450E+01
 0.80958263711E+01 0.85866970264E+01 0.95089822963E+01 0.11096114884E+02 0.13726750684E+02
 0.17907940861E+02 0.24785707611E+02 0.45617698820E+02 0.94067679500E+02 0.17432251301E+03
 0.27759156047E+03 0.38280907464E+03 0.46227805494E+03 0.31758597584E+03 0.29752415508E+03
 0.24410261031E+03 0.17432251301E+03 0.10769709605E+03 0.58531309465E+02 0.31442001259E+02
 0.21020542250E+02 0.16248644883E+02 0.12938703102E+02 0.10909104238E+02 0.96978866213E+01
 0.89855071060E+01 0.85866970264E+01 0.83377711079E+01 0.81540950230E+01 0.80773248900E+01
 0.81540950230E+01 0.83377711079E+01 0.85866970264E+01 0.89855071060E+01 0.96978866213E+01
 0.10909104238E+02 0.12938703102E+02 0.16248644883E+02 0.21020542250E+02 0.31442001259E+02
 0.58531309465E+02 0.10769709605E+03 0.17432251301E+03 0.24410261031E+03 0.29752415508E+03
 0.17589853445E+03 0.16416519795E+03 0.13329118669E+03 0.94067679500E+02 0.58531309465E+02
 0.34620696376E+02 0.23149220034E+02 0.18216845320E+02 0.14650525703E+02 0.12291011098E+02
 0.10899242687E+02 0.10114506201E+02 0.96978866213E+01 0.95089822963E+01 0.94319184248E+01
 0.93907953500E+01 0.93741098586E+01 0.93907953500E+01 0.94319184248E+01 0.95089822963E+01
 0.96978866213E+01 0.10114506201E+02 0.10899242687E+02 0.12291011098E+02 0.14650525703E+02
 0.18216845320E+02 0.23149220034E+02 0.34620696376E+02 0.58531309465E+02 0.94067679500E+02
 0.13329118669E+03 0.16416519795E+03 0.82671136378E+02 0.77112840292E+02 0.62827363164E+02
 0.45617698820E+02 0.31442001259E+02 0.23149220034E+02 0.18950979307E+02 0.15707364740E+02
 0.13362455755E+02 0.11927256183E+02 0.11184594857E+02 0.10899242687E+02 0.10909104238E+02
 0.11096114884E+02 0.11343320925E+02 0.11540860516E+02 0.11614931392E+02 0.11540860516E+02
 0.11343320925E+02 0.11096114884E+02 0.10909104238E+02 0.10899242687E+02 0.11184594857E+02
 0.11927256183E+02 0.13362455755E+02 0.15707364740E+02 0.18950979307E+02 0.23149220034E+02
 0.31442001259E+02 0.45617698820E+02 0.62827363164E+02 0.77112840292E+02 0.36194213874E+02
 0.34346792860E+02 0.29799958727E+02 0.24785707611E+02 0.21020542250E+02 0.18216845320E+02
 0.15707364740E+02 0.13774144969E+02 0.12544096757E+02 0.11969514718E+02 0.11927256183E+02
 0.12291011098E+02 0.12938703102E+02 0.13726750684E+02 0.14481021460E+02 0.15023875708E+02
 0.15221409756E+02 0.15023875708E+02 0.14481021460E+02 0.13726750684E+02 0.12938703102E+02
 0.12291011098E+02 0.11927256183E+02 0.11969514718E+02 0.12544096757E+02 0.13774144969E+02
 0.15707364740E+02 0.18216845320E+02 0.21020542250E+02 0.24785707611E+02 0.29799958727E+02
 0.34346792860E+02 0.20754410623E+02 0.20361911986E+02 0.19344334633E+02 0.17907940861E+02
 0.16248644883E+02 0.14650525703E+02 0.13362455755E+02 0.12544096757E+02 0.12265803353E+02
 0.12544096757E+02 0.13362455755E+02 0.14650525703E+02 0.16248644883E+02 0.17907940861E+02
 0.19344334633E+02 0.20361911986E+02 0.20754410623E+02 0.20361911986E+02 0.19344334633E+02
 0.17907940861E+02 0.16248644883E+02 0.14650525703E+02 0.13362455755E+02 0.12544096757E+02
 0.12265803353E+02 0.12544096757E+02 0.13362455755E+02 0.14650525703E+02 0.16248644883E+02
 0.17907940861E+02 0.19344334633E+02 0.20361911986E+02 0.15221409756E+02 0.15023875708E+02
 0.14481021460E+02 0.13726750684E+02 0.12938703102E+02 0.12291011098E+02 0.11927256183E+02
 0.11969514718E+02 0.12544096757E+02 0.13774144969E+02 0.15707364740E+02 0.18216845320E+02
 0.21020542250E+02 0.24785707611E+02 0.29799958727E+02 0.34346792860E+02 0.36194213874E+02
 0.34346792860E+02 0.29799958727E+02 0.24785707611E+02 0.21020542250E+02 0.18216845320E+02
 0.15707364740E+02 0.13774144969E+02 0.12544096757E+02 0.11969514718E+02 0.11927256183E+02
 0.12291011098E+02 0.12938703102E+02 0.13726750684E+02 0.14481021460E+02 0.15023875708E+02
 0.11614931392E+02 0.11540860516E+02 0.11343320925E+02 0.11096114884E+02 0.10909104238E+02
 0.10899242687E+02 0.11184594857E+02 0.11927256183E+02 0.13362455755E+02 0.15707364740E+02
 0.18950979307E+02 0.23149220034E+02 0.31442001259E+02 0.45617698820E+02 0.62827363164E+02
 0.77112840292E+02 0.82671136378E+02 0.77112840292E+02 0.62827363164E+02 0.45617698820E+02
 0.31442001259E+02 0.23149220034E+02 0.18950979307E+02 0.15707364740E+02 0.13362455755E+02
 0.11927256183E+02 0.11184594857E+02 0.10899242687E+02 0.10909104238E+02 0.11096114884E+02
 0.11343320925E+02 0.11540860516E+02 0.93741098586E+01 0.93907953500E+01 0.94319184248E+01
 0.95089822963E+01 0.96978866213E+01 0.10114506201E+02 0.10899242687E+02 0.12291011098E+02
 0.14650525703E+02 0.18216845320E+02 0.23149220034E+02 0.34620696376E+02 0.58531309465E+02
 0.94067679500E+02 0.13329118669E+03 0.16416519795E+03 0.17589853445E+03 0.16416519795E+03
 0.13329118669E+03 0.94067679500E+02 0.58531309465E+02 0.34620696376E+02 0.23149220034E+02
 0.18216845320E+02 0.14650525703E+02 0.12291011098E+02 0.10899242687E+02 0.10114506201E+02
 0.96978866213E+01 0.95089822963E+01 0.94319184248E+01 0.93907953500E+01 0.80773248900E+01
 0.81540950230E+01 0.83377711079E+01 0.85866970264E+01 0.89855071060E+01 0.96978866213E+01
 0.10909104238E+02 0.12938703102E+02 0.16248644883E+02 0.21020542250E+02 0.31442001259E+02
 0.58531309465E+02 0.10769709605E+03 0.17432251301E+03 0.24410261031E+03 0.29752415508E+03
 0.31758597584E+03 0.29752415508E+03 0.24410261031E+03 0.17432251301E+03 0.10769709605E+03
 0.58531309465E+02 0.31442001259E+02 0.21020542250E+02 0.16248644883E+02 0.12938703102E+02
 0.10909104238E+02 0.96978866213E+01 0.89855071060E+01 0.85866970264E+01 0.83377711079E+01
 0.81540950230E+01 0.74298698439E+01 0.75414563134E+01 0.77908864450E+01 0.80958263711E+01
 0.85866970264E+01 0.95089822963E+01 0.11096114884E+02 0.13726750684E+02 0.17907940861E+02
 0.24785707611E+02 0.45617698820E+02 0.94067679500E+02 0.17432251301E+03 0.27759156047E+03
 0.38280907464E+03 0.46227805494E+03 0.49196128439E+03 0.46227805494E+03 0.38280907464E+03
 0.27759156047E+03 0.17432251301E+03 0.94067679500E+02 0.45617698820E+02 0.24785707611E+02
 0.17907940861E+02 0.13726750684E+02 0.11096114884E+02 0.95089822963E+01 0.85866970264E+01
 0.80958263711E+01 0.77908864450E+01 0.75414563134E+01 0.70290367803E+01 0.71682888471E+01
 0.74621346314E+01 0.77908864450E+01 0.83377711079E+01 0.94319184248E+01 0.11343320925E+02
 0.14481021460E+02 0.19344334633E+02 0.29799958727E+02 0.62827363164E+02 0.13329118669E+03
 0.24410261031E+03 0.38280907464E+03 0.52225612794E+03 0.62698793450E+03 0.66603472591E+03
 0.62698793450E+03 0.52225612794E+03 0.38280907464E+03 0.24410261031E+03 0.13329118669E+03
 0.62827363164E+02 0.29799958727E+02 0.19344334633E+02 0.14481021460E+02 0.11343320925E+02
 0.94319184248E+01 0.83377711079E+01 0.77908864450E+01 0.74621346314E+01 0.71682888471E+01
 0.66513304722E+01 0.68196913783E+01 0.71682888471E+01 0.75414563134E+01 0.81540950230E+01
 0.93907953500E+01 0.11540860516E+02 0.15023875708E+02 0.20361911986E+02 0.34346792860E+02
 0.77112840292E+02 0.16416519795E+03 0.29752415508E+03 0.46227805494E+03 0.62698793450E+03
 0.75047292284E+03 0.79649623731E+03 0.75047292284E+03 0.62698793450E+03 0.46227805494E+03
 0.29752415508E+03 0.16416519795E+03 0.77112840292E+02 0.34346792860E+02 0.20361911986E+02
 0.15023875708E+02 0.11540860516E+02 0.93907953500E+01 0.81540950230E+01 0.75414563134E+01
 0.71682888471E+01 0.68196913783E+01 0.64688007947E+01 0.66513304722E+01 0.70290367803E+01
 0.74298698439E+01 0.80773248900E+01 0.93741098586E+01 0.11614931392E+02 0.15221409756E+02
 0.20754410623E+02 0.36194213874E+02 0.82671136378E+02 0.17589853445E+03 0.31758597584E+03
 0.49196128439E+03 0.66603472591E+03 0.79649623731E+03 0.84512065218E+03 0.79649623731E+03
 0.66603472591E+03 0.49196128439E+03 0.31758597584E+03 0.17589853445E+03 0.82671136378E+02
 0.36194213874E+02 0.20754410623E+02 0.15221409756E+02 0.11614931392E+02 0.93741098586E+01
 0.80773248900E+01 0.74298698439E+01 0.70290367803E+01 0.66513304722E+01 0.66513304722E+01
 0.68196913783E+01 0.71682888471E+01 0.75414563134E+01 0.81540950230E+01 0.93907953500E+01
 0.11540860516E+02 0.15023875708E+02 0.20361911986E+02 0.34346792860E+02 0.77112840292E+02
 0.16416519795E+03 0.29752415508E+03 0.46227805494E+03 0.62698793450E+03 0.75047292284E+03
 0.79649623731E+03 0.75047292284E+03 0.62698793450E+03 0.46227805494E+03 0.29752415508E+03
 0.16416519795E+03 0.77112840292E+02 0.34346792860E+02 0.20361911986E+02 0.15023875708E+02
 0.11540860516E+02 0.93907953500E+01 0.81540950230E+01 0.75414563134E+01 0.71682888471E+01
 0.68196913783E+01 0.70290367803E+01 0.71682888471E+01 0.74621346314E+01 0.77908864450E+01
 0.83377711079E+01 0.94319184248E+01 0.11343320925E+02 0.14481021460E+02 0.19344334633E+02
 0.29799958727E+02 0.62827363164E+02 0.13329118669E+03 0.24410261031E+03 0.38280907464E+03
 0.52225612794E+03 0.62698793450E+03 0.66603472591E+03 0.62698793450E+03 0.52225612794E+03
 0.38280907464E+03 0.24410261031E+03 0.13329118669E+03 0.62827363164E+02 0.29799958727E+02
 0.19344334633E+02 0.14481021460E+02 0.11343320925E+02 0.94319184248E+01 0.83377711079E+01
 0.77908864450E+01 0.74621346314E+01 0.71682888471E+01 0.74298698439E+01 0.75414563134E+01
 0.77908864450E+01 0.80958263711E+01 0.85866970264E+01 0.95089822963E+01 0.11096114884E+02
 0.13726750684E+02 0.17907940861E+02 0.24785707611E+02 0.45617698820E+02 0.94067679500E+02
 0.17432251301E+03 0.27759156047E+03 0.38280907464E+03 0.46227805494E+03 0.49196128439E+03
 0.46227805494E+03 0.38280907464E+03 0.27759156047E+03 0.17432251301E+03 0.94067679500E+02
 0.45617698820E+02 0.24785707611E+02 0.17907940861E+02 0.13726750684E+02 0.11096114884E+02
 0.95089822963E+01 0.85866970264E+01 0.80958263711E+01 0.77908864450E+01 0.75414563134E+01
 0.80773248900E+01 0.81540950230E+01 0.83377711079E+01 0.85866970264E+01 0.89855071060E+01
 0.96978866213E+01 0.10909104238E+02 0.12938703102E+02 0.16248644883E+02 0.21020542250E+02
 0.31442001259E+02 0.58531309465E+02 0.10769709605E+03 0.17432251301E+03 0.24410261031E+03
 0.29752415508E+03 0.31758597584E+03 0.29752415508E+03 0.24410261031E+03 0.17432251301E+03
 0.10769709605E+03 0.58531309465E+02 0.31442001259E+02 0.21020542250E+02 0.16248644883E+02
 0.12938703102E+02 0.10909104238E+02 0.96978866213E+01 0.89855071060E+01 0.85866970264E+01
 0.83377711079E+01 0.81540950230E+01 0.93741098586E+01 0.93907953500E+01 0.94319184248E+01
 0.95089822963E+01 0.96978866213E+01 0.10114506201E+02 0.10899242687E+02 0.12291011098E+02
 0.14650525703E+02 0.18216845320E+02 0.23149220034E+02 0.34620696376E+02 0.58531309465E+02
 0.94067679500E+02 0.13329118669E+03 0.16416519795E+03 0.17589853445E+03 0.16416519795E+03
 0.13329118669E+03 0.94067679500E+02 0.58531309465E+02 0.34620696376E+02 0.23149220034E+02
 0.18216845320E+02 0.14650525703E+02 0.12291011098E+02 0.10899242687E+02 0.10114506201E+02
 0.96978866213E+01 0.95089822963E+01 0.94319184248E+01 0.93907953500E+01 0.11614931392E+02
 0.11540860516E+02 0.11343320925E+02 0.11096114884E+02 0.10909104238E+02 0.10899242687E+02
 0.11184594857E+02 0.11927256183E+02 0.13362455755E+02 0.15707364740E+02 0.18950979307E+02
 0.23149220034E+02 0.31442001259E+02 0.45617698820E+02 0.62827363164E+02 0.77112840292E+02
 0.82671136378E+02 0.77112840292E+02 0.62827363164E+02 0.45617698820E+02 0.31442001259E+02
 0.23149220034E+02 0.18950979307E+02 0.15707364740E+02 0.13362455755E+02 0.11927256183E+02
 0.11184594857E+02 0.10899242687E+02 0.10909104238E+02 0.11096114884E+02 0.11343320925E+02
 0.11540860516E+02 0.15221409756E+02 0.15023875708E+02 0.14481021460E+02 0.13726750684E+02
 0.12938703102E+02 0.12291011098E+02 0.11927256183E+02 0.11969514718E+02 0.12544096757E+02
 0.13774144969E+02 0.15707364740E+02 0.18216845320E+02 0.21020542250E+02 0.24785707611E+02
 0.29799958727E+02 0.34346792860E+02 0.36194213874E+02 0.34346792860E+02 0.29799958727E+02
 0.24785707611E+02 0.21020542250E+02 0.18216845320E+02 0.15707364740E+02 0.13774144969E+02
 0.12544096757E+02 0.11969514718E+02 0.11927256183E+02 0.12291011098E+02 0.12938703102E+02
 0.13726750684E+02 0.14481021460E+02 0.15023875708E+02 0.20754410623E+02 0.20361911986E+02
 0.19344334633E+02 0.17907940861E+02 0.16248644883E+02 0.14650525703E+02 0.13362455755E+02
 0.12544096757E+02 0.12265803353E+02 0.12544096757E+02 0.13362455755E+02 0.14650525703E+02
 0.16248644883E+02 0.17907940861E+02 0.19344334633E+02 0.20361911986E+02 0.20754410623E+02
 0.20361911986E+02 0.19344334633E+02 0.17907940861E+02 0.16248644883E+02 0.14650525703E+02
 0.13362455755E+02 0.12544096757E+02 0.12265803353E+02 0.12544096757E+02 0.13362455755E+02
 0.14650525703E+02 0.16248644883E+02 0.17907940861E+02 0.19344334633E+02 0.20361911986E+02
 0.36194213874E+02 0.34346792860E+02 0.29799958727E+02 0.24785707611E+02 0.21020542250E+02
 0.18216845320E+02 0.15707364740E+02 0.13774144969E+02 0.12544096757E+02 0.11969514718E+02
 0.11927256183E+02 0.12291011098E+02 0.12938703102E+02 0.13726750684E+02 0.14481021460E+02
 0.15023875708E+02 0.15221409756E+02 0.15023875708E+02 0.14481021460E+02 0.13726750684E+02
 0.12938703102E+02 0.12291011098E+02 0.11927256183E+02 0.11969514718E+02 0.12544096757E+02
 0.13774144969E+02 0.15707364740E+02 0.18216845320E+02 0.21020542250E+02 0.24785707611E+02
 0.29799958727E+02 0.34346792860E+02 0.82671136378E+02 0.77112840292E+02 0.62827363164E+02
 0.45617698820E+02 0.31442001259E+02 0.23149220034E+02 0.18950979307E+02 0.15707364740E+02
 0.13362455755E+02 0.11927256183E+02 0.11184594857E+02 0.10899242687E+02 0.10909104238E+02
 0.11096114884E+02 0.11343320925E+02 0.11540860516E+02 0.11614931392E+02 0.11540860516E+02
 0.11343320925E+02 0.11096114884E+02 0.10909104238E+02 0.10899242687E+02 0.11184594857E+02
 0.11927256183E+02 0.13362455755E+02 0.15707364740E+02 0.18950979307E+02 0.23149220034E+02
 0.31442001259E+02 0.45617698820E+02 0.62827363164E+02 0.77112840292E+02 0.17589853445E+03
 0.16416519795E+03 0.13329118669E+03 0.94067679500E+02 0.58531309465E+02 0.34620696376E+02
 0.23149220034E+02 0.18216845320E+02 0.14650525703E+02 0.12291011098E+02 0.10899242687E+02
 0.10114506201E+02 0.96978866213E+01 0.95089822963E+01 0.94319184248E+01 0.93907953500E+01
 0.93741098586E+01 0.93907953500E+01 0.94319184248E+01 0.95089822963E+01 0.96978866213E+01
 0.10114506201E+02 0.10899242687E+02 0.12291011098E+02 0.14650525703E+02 0.18216845320E+02
 0.23149220034E+02 0.34620696376E+02 0.58531309465E+02 0.94067679500E+02 0.13329118669E+03
 0.16416519795E+03 0.31758597584E+03 0.29752415508E+03 0.24410261031E+03 0.17432251301E+03
 0.10769709605E+03 0.58531309465E+02 0.31442001259E+02 0.21020542250E+02 0.16248644883E+02
 0.12938703102E+02 0.10909104238E+02 0.96978866213E+01 0.89855071060E+01 0.85866970264E+01
 0.83377711079E+01 0.81540950230E+01 0.80773248900E+01 0.81540950230E+01 0.83377711079E+01
 0.85866970264E+01 0.89855071060E+01 0.96978866213E+01 0.10909104238E+02 0.12938703102E+02
 0.16248644883E+02 0.21020542250E+02 0.31442001259E+02 0.58531309465E+02 0.10769709605E+03
 0.17432251301E+03 0.24410261031E+03 0.29752415508E+03 0.49196128439E+03 0.46227805494E+03
 0.38280907464E+03 0.27759156047E+03 0.17432251301E+03 0.94067679500E+02 0.45617698820E+02
 0.24785707611E+02 0.17907940861E+02 0.13726750684E+02 0.11096114884E+02 0.95089822963E+01
 0.85866970264E+01 0.80958263711E+01 0.77908864450E+01 0.75414563134E+01 0.74298698439E+01
 0.75414563134E+01 0.77908864450E+01 0.80958263711E+01 0.85866970264E+01 0.95089822963E+01
 0.11096114884E+02 0.13726750684E+02 0.17907940861E+02 0.24785707611E+02 0.45617698820E+02
 0.94067679500E+02 0.17432251301E+03 0.27759156047E+03 0.38280907464E+03 0.46227805494E+03
 0.66603472591E+03 0.62698793450E+03 0.52225612794E+03 0.38280907464E+03 0.24410261031E+03
 0.13329118669E+03 0.62827363164E+02 0.29799958727E+02 0.19344334633E+02 0.14481021460E+02
 0.11343320925E+02 0.94319184248E+01 0.83377711079E+01 0.77908864450E+01 0.74621346314E+01
 0.71682888471E+01 0.70290367803E+01 0.71682888471E+01 0.74621346314E+01 0.77908864450E+01
 0.83377711079E+01 0.94319184248E+01 0.11343320925E+02 0.14481021460E+02 0.19344334633E+02
 0.29799958727E+02 0.62827363164E+02 0.13329118669E+03 0.24410261031E+03 0.38280907464E+03
 0.52225612794E+03 0.62698793450E+03 0.79649623731E+03 0.75047292284E+03 0.62698793450E+03
 0.46227805494E+03 0.29752415508E+03 0.16416519795E+03 0.77112840292E+02 0.34346792860E+02
 0.20361911986E+02 0.15023875708E+02 0.11540860516E+02 0.93907953500E+01 0.81540950230E+01
 0.75414563134E+01 0.71682888471E+01 0.68196913783E+01 0.66513304722E+01 0.68196913783E+01
 0.71682888471E+01 0.75414563134E+01 0.81540950230E+01 0.93907953500E+01 0.11540860516E+02
 0.15023875708E+02 0.20361911986E+02 0.34346792860E+02 0.77112840292E+02 0.16416519795E+03
 0.29752415508E+03 0.46227805494E+03 0.62698793450E+03 0.75047292284E+03 0.79649623731E+03
 0.75047292284E+03 0.62698793450E+03 0.46227805494E+03 0.29752415508E+03 0.16416519795E+03
 0.77112840292E+02 0.34346792860E+02 0.20361911986E+02 0.15023875708E+02 0.11540860516E+02
 0.93907953500E+01 0.81540950230E+01 0.75414563134E+01 0.71682888471E+01 0.68196913783E+01
 0.66513304722E+01 0.68196913783E+01 0.71682888471E+01 0.75414563134E+01 0.81540950230E+01
 0.93907953500E+01 0.11540860516E+02 0.15023875708E+02 0.20361911986E+02 0.34346792860E+02
 0.77112840292E+02 0.16416519795E+03 0.29752415508E+03 0.46227805494E+03 0.62698793450E+03
 0.75047292284E+03 0.75047292284E+03 0.70691216790E+03 0.59003912583E+03 0.43421908006E+03
 0.27861389211E+03 0.15317226849E+03 0.71965677378E+02 0.32671228374E+02 0.19996412504E+02
 0.14831027569E+02 0.11467854214E+02 0.94044779446E+01 0.82244382072E+01 0.76441675011E+01
 0.72965095440E+01 0.69748819825E+01 0.68196913783E+01 0.69748819825E+01 0.72965095440E+01
 0.76441675011E+01 0.82244382072E+01 0.94044779446E+01 0.11467854214E+02 0.14831027569E+02
 0.19996412504E+02 0.32671228374E+02 0.71965677378E+02 0.15317226849E+03 0.27861389211E+03
 0.43421908006E+03 0.59003912583E+03 0.70691216790E+03 0.62698793450E+03 0.59003912583E+03
 0.49095614908E+03 0.35913748302E+03 0.22830644965E+03 0.12429164592E+03 0.58770224526E+02
 0.28560343568E+02 0.19025770425E+02 0.14301961269E+02 0.11273989226E+02 0.94390687995E+01
 0.83938769161E+01 0.78747342340E+01 0.75676657775E+01 0.72965095440E+01 0.71682888471E+01
 0.72965095440E+01 0.75676657775E+01 0.78747342340E+01 0.83938769161E+01 0.94390687995E+01
 0.11273989226E+02 0.14301961269E+02 0.19025770425E+02 0.28560343568E+02 0.58770224526E+02
 0.12429164592E+03 0.22830644965E+03 0.35913748302E+03 0.49095614908E+03 0.59003912583E+03
 0.46227805494E+03 0.43421908006E+03 0.35913748302E+03 0.25986981718E+03 0.16274521553E+03
 0.87732873656E+02 0.42963055031E+02 0.24046186246E+02 0.17620478126E+02 0.13569007534E+02
 0.11032851681E+02 0.95091065476E+01 0.86273375467E+01 0.81605566552E+01 0.78747342340E+01
 0.76441675011E+01 0.75414563134E+01 0.76441675011E+01 0.78747342340E+01 0.81605566552E+01
 0.86273375467E+01 0.95091065476E+01 0.11032851681E+02 0.13569007534E+02 0.17620478126E+02
 0.24046186246E+02 0.42963055031E+02 0.87732873656E+02 0.16274521553E+03 0.25986981718E+03
 0.35913748302E+03 0.43421908006E+03 0.29752415508E+03 0.27861389211E+03 0.22830644965E+03
 0.16274521553E+03 0.10043254949E+03 0.54833708931E+02 0.30066108724E+02 0.20619785191E+02
 0.16004403029E+02 0.12805871517E+02 0.10851316382E+02 0.96884298934E+01 0.90068604529E+01
 0.86273375467E+01 0.83938769161E+01 0.82244382072E+01 0.81540950230E+01 0.82244382072E+01
 0.83938769161E+01 0.86273375467E+01 0.90068604529E+01 0.96884298934E+01 0.10851316382E+02
 0.12805871517E+02 0.16004403029E+02 0.20619785191E+02 0.30066108724E+02 0.54833708931E+02
 0.10043254949E+03 0.16274521553E+03 0.22830644965E+03 0.27861389211E+03 0.16416519795E+03
 0.15317226849E+03 0.12429164592E+03 0.87732873656E+02 0.54833708931E+02 0.32951510610E+02
 0.22585275942E+02 0.17908950151E+02 0.14455419347E+02 0.12180792840E+02 0.10841491135E+02
 0.10087551182E+02 0.96884298934E+01 0.95091065476E+01 0.94390687995E+01 0.94044779446E+01
 0.93907953500E+01 0.94044779446E+01 0.94390687995E+01 0.95091065476E+01 0.96884298934E+01
 0.10087551182E+02 0.10841491135E+02 0.12180792840E+02 0.14455419347E+02 0.17908950151E+02
 0.22585275942E+02 0.32951510610E+02 0.54833708931E+02 0.87732873656E+02 0.12429164592E+03
 0.15317226849E+03 0.77112840292E+02 0.71965677378E+02 0.58770224526E+02 0.42963055031E+02
 0.30066108724E+02 0.22585275942E+02 0.18620565927E+02 0.15474082252E+02 0.13212100053E+02
 0.11830918982E+02 0.11116255277E+02 0.10841491135E+02 0.10851316382E+02 0.11032851681E+02
 0.11273989226E+02 0.11467854214E+02 0.11540860516E+02 0.11467854214E+02 0.11273989226E+02
 0.11032851681E+02 0.10851316382E+02 0.10841491135E+02 0.11116255277E+02 0.11830918982E+02
 0.13212100053E+02 0.15474082252E+02 0.18620565927E+02 0.22585275942E+02 0.30066108724E+02
 0.42963055031E+02 0.58770224526E+02 0.71965677378E+02 0.34346792860E+02 0.32671228374E+02
 0.28560343568E+02 0.24046186246E+02 0.20619785191E+02 0.17908950151E+02 0.15474082252E+02
 0.13608148636E+02 0.12424559257E+02 0.11872045615E+02 0.11830918982E+02 0.12180792840E+02
 0.12805871517E+02 0.13569007534E+02 0.14301961269E+02 0.14831027569E+02 0.15023875708E+02
 0.14831027569E+02 0.14301961269E+02 0.13569007534E+02 0.12805871517E+02 0.12180792840E+02
 0.11830918982E+02 0.11872045615E+02 0.12424559257E+02 0.13608148636E+02 0.15474082252E+02
 0.17908950151E+02 0.20619785191E+02 0.24046186246E+02 0.28560343568E+02 0.32671228374E+02
 0.20361911986E+02 0.19996412504E+02 0.19025770425E+02 0.17620478126E+02 0.16004403029E+02
 0.14455419347E+02 0.13212100053E+02 0.12424559257E+02 0.12157177382E+02 0.12424559257E+02
 0.13212100053E+02 0.14455419347E+02 0.16004403029E+02 0.17620478126E+02 0.19025770425E+02
 0.19996412504E+02 0.20361911986E+02 0.19996412504E+02 0.19025770425E+02 0.17620478126E+02
 0.16004403029E+02 0.14455419347E+02 0.13212100053E+02 0.12424559257E+02 0.12157177382E+02
 0.12424559257E+02 0.13212100053E+02 0.14455419347E+02 0.16004403029E+02 0.17620478126E+02
 0.19025770425E+02 0.19996412504E+02 0.15023875708E+02 0.14831027569E+02 0.14301961269E+02
 0.13569007534E+02 0.12805871517E+02 0.12180792840E+02 0.11830918982E+02 0.11872045615E+02
 0.12424559257E+02 0.13608148636E+02 0.15474082252E+02 0.17908950151E+02 0.20619785191E+02
 0.24046186246E+02 0.28560343568E+02 0.32671228374E+02 0.34346792860E+02 0.32671228374E+02
 0.28560343568E+02 0.24046186246E+02 0.20619785191E+02 0.17908950151E+02 0.15474082252E+02
 0.13608148636E+02 0.12424559257E+02 0.11872045615E+02 0.11830918982E+02 0.12180792840E+02
 0.12805871517E+02 0.13569007534E+02 0.14301961269E+02 0.14831027569E+02 0.11540860516E+02
 0.11467854214E+02 0.11273989226E+02 0.11032851681E+02 0.10851316382E+02 0.10841491135E+02
 0.11116255277E+02 0.11830918982E+02 0.13212100053E+02 0.15474082252E+02 0.18620565927E+02
 0.22585275942E+02 0.30066108724E+02 0.42963055031E+02 0.58770224526E+02 0.71965677378E+02
 0.77112840292E+02 0.71965677378E+02 0.58770224526E+02 0.42963055031E+02 0.30066108724E+02
 0.22585275942E+02 0.18620565927E+02 0.15474082252E+02 0.13212100053E+02 0.11830918982E+02
 0.11116255277E+02 0.10841491135E+02 0.10851316382E+02 0.11032851681E+02 0.11273989226E+02
 0.11467854214E+02 0.93907953500E+01 0.94044779447E+01 0.94390687995E+01 0.95091065476E+01
 0.96884298934E+01 0.10087551182E+02 0.10841491135E+02 0.12180792840E+02 0.14455419347E+02
 0.17908950151E+02 0.22585275942E+02 0.32951510610E+02 0.54833708931E+02 0.87732873656E+02
 0.12429164592E+03 0.15317226849E+03 0.16416519795E+03 0.15317226849E+03 0.12429164592E+03
 0.87732873656E+02 0.54833708931E+02 0.32951510610E+02 0.22585275942E+02 0.17908950151E+02
 0.14455419347E+02 0.12180792840E+02 0.10841491135E+02 0.10087551182E+02 0.96884298934E+01
 0.95091065476E+01 0.94390687995E+01 0.94044779447E+01 0.81540950230E+01 0.82244382072E+01
 0.83938769161E+01 0.86273375467E+01 0.90068604529E+01 0.96884298934E+01 0.10851316382E+02
 0.12805871517E+02 0.16004403029E+02 0.20619785191E+02 0.30066108724E+02 0.54833708931E+02
 0.10043254949E+03 0.16274521553E+03 0.22830644965E+03 0.27861389211E+03 0.29752415508E+03
 0.27861389211E+03 0.22830644965E+03 0.16274521553E+03 0.10043254949E+03 0.54833708931E+02
 0.30066108724E+02 0.20619785191E+02 0.16004403029E+02 0.12805871517E+02 0.10851316382E+02
 0.96884298934E+01 0.90068604529E+01 0.86273375467E+01 0.83938769161E+01 0.82244382072E+01
 0.75414563134E+01 0.76441675011E+01 0.78747342340E+01 0.81605566552E+01 0.86273375467E+01
 0.95091065476E+01 0.11032851681E+02 0.13569007534E+02 0.17620478126E+02 0.24046186246E+02
 0.42963055031E+02 0.87732873656E+02 0.16274521553E+03 0.25986981718E+03 0.35913748302E+03
 0.43421908006E+03 0.46227805494E+03 0.43421908006E+03 0.35913748302E+03 0.25986981718E+03
 0.16274521553E+03 0.87732873656E+02 0.42963055031E+02 0.24046186246E+02 0.17620478126E+02
 0.13569007534E+02 0.11032851681E+02 0.95091065476E+01 0.86273375467E+01 0.81605566552E+01
 0.78747342340E+01 0.76441675011E+01 0.71682888471E+01 0.72965095440E+01 0.75676657775E+01
 0.78747342340E+01 0.83938769161E+01 0.94390687995E+01 0.11273989226E+02 0.14301961269E+02
 0.19025770425E+02 0.28560343568E+02 0.58770224526E+02 0.12429164592E+03 0.22830644965E+03
 0.35913748302E+03 0.49095614908E+03 0.59003912583E+03 0.62698793450E+03 0.59003912583E+03
 0.49095614908E+03 0.35913748302E+03 0.22830644965E+03 0.12429164592E+03 0.58770224526E+02
 0.28560343568E+02 0.19025770425E+02 0.14301961269E+02 0.11273989226E+02 0.94390687995E+01
 0.83938769161E+01 0.78747342340E+01 0.75676657775E+01 0.72965095440E+01 0.68196913783E+01
 0.69748819825E+01 0.72965095440E+01 0.76441675011E+01 0.82244382072E+01 0.94044779446E+01
 0.11467854214E+02 0.14831027569E+02 0.19996412504E+02 0.32671228374E+02 0.71965677378E+02
 0.15317226849E+03 0.27861389211E+03 0.43421908006E+03 0.59003912583E+03 0.70691216790E+03
 0.75047292284E+03 0.70691216790E+03 0.59003912583E+03 0.43421908006E+03 0.27861389211E+03
 0.15317226849E+03 0.71965677378E+02 0.32671228374E+02 0.19996412504E+02 0.14831027569E+02
 0.11467854214E+02 0.94044779446E+01 0.82244382072E+01 0.76441675011E+01 0.72965095440E+01
 0.69748819825E+01 0.66513304722E+01 0.68196913783E+01 0.71682888471E+01 0.75414563134E+01
 0.81540950230E+01 0.93907953500E+01 0.11540860516E+02 0.15023875708E+02 0.20361911986E+02
 0.34346792860E+02 0.77112840292E+02 0.16416519795E+03 0.29752415508E+03 0.46227805494E+03
 0.62698793450E+03 0.75047292284E+03 0.79649623731E+03 0.75047292284E+03 0.62698793450E+03
 0.46227805494E+03 0.29752415508E+03 0.16416519795E+03 0.77112840292E+02 0.34346792860E+02
 0.20361911986E+02 0.15023875708E+02 0.11540860516E+02 0.93907953500E+01 0.81540950230E+01
 0.75414563134E+01 0.71682888471E+01 0.68196913783E+01 0.68196913783E+01 0.69748819825E+01
 0.72965095440E+01 0.76441675011E+01 0.82244382072E+01 0.94044779446E+01 0.11467854214E+02
 0.14831027569E+02 0.19996412504E+02 0.32671228374E+02 0.71965677378E+02 0.15317226849E+03
 0.27861389211E+03 0.43421908006E+03 0.59003912583E+03 0.70691216790E+03 0.75047292284E+03
 0.70691216790E+03 0.59003912583E+03 0.43421908006E+03 0.27861389211E+03 0.15317226849E+03
 0.71965677378E+02 0.32671228374E+02 0.19996412504E+02 0.14831027569E+02 0.11467854214E+02
 0.94044779446E+01 0.82244382072E+01 0.76441675011E+01 0.72965095440E+01 0.69748819825E+01
 0.71682888471E+01 0.72965095440E+01 0.75676657775E+01 0.78747342340E+01 0.83938769161E+01
 0.94390687995E+01 0.11273989226E+02 0.14301961269E+02 0.19025770425E+02 0.28560343568E+02
 0.58770224526E+02 0.12429164592E+03 0.22830644965E+03 0.35913748302E+03 0.49095614908E+03
 0.59003912583E+03 0.62698793450E+03 0.59003912583E+03 0.49095614908E+03 0.35913748302E+03
 0.22830644965E+03 0.12429164592E+03 0.58770224526E+02 0.28560343568E+02 0.19025770425E+02