<?xml version="1.0" encoding="ISO-8859-1"?>
<modeling>
 <generator>
  <i name="program" type="string">vasp </i>
  <i name="version" type="string">6.2.0  </i>
  <i name="subversion" type="string">18Jan21 (build Mar 17 2021 09:06:54) complex                          serial </i>
  <i name="platform" type="string">LinuxIFC </i>
  <i name="date" type="string">2021 08 03 </i>
  <i name="time" type="string">10:15:48 </i>
 </generator>
 <incar>
  <i type="string" name="PREC">normal</i>
  <i type="int" name="ICHARG">     1</i>
  <i type="int" name="IBRION">     1</i>
  <i name="EDIFF">      0.00000100</i>
  <i type="int" name="NSW">     0</i>
  <i type="int" name="ISIF">     4</i>
  <i name="ENCUT">    320.00000000</i>
  <i type="int" name="NBANDS">    30</i>
  <i type="int" name="ISMEAR">     1</i>
  <i name="SIGMA">      0.20000000</i>
  <i type="logical" name="LCHARG"> T  </i>
  <i type="int" name="KPAR">     1</i>
  <i type="int" name="NCORE">     1</i>
  <i type="string" name="GGA">PE</i>
 </incar>
 <primitive_cell>
  <structure name="primitive_cell" >
   <crystal>
    <varray name="basis" >
     <v>       1.81750000      -1.81750000       0.00000000 </v>
     <v>       1.81750000       0.00000000       1.81750000 </v>
     <v>       0.00000000      -1.81750000       1.81750000 </v>
    </varray>
    <i name="volume">     12.00751822 </i>
    <varray name="rec_basis" >
     <v>       0.27510316      -0.27510316      -0.27510316 </v>
     <v>       0.27510316       0.27510316       0.27510316 </v>
     <v>      -0.27510316      -0.27510316       0.27510316 </v>
    </varray>
   </crystal>
   <varray name="positions" >
    <v>       0.00000000       0.00000000       0.00000000 </v>
   </varray>
  </structure>
  <varray name="primitive_index" >
   <v type="int" >        1 </v>
  </varray>
 </primitive_cell>
 <kpoints>
  <generation param="Monkhorst-Pack">
   <v type="int" name="divisions">       9        9        9 </v>
   <v name="usershift">      0.00000000       0.00000000       0.00000000 </v>
   <v name="genvec1">      0.11111111       0.00000000       0.00000000 </v>
   <v name="genvec2">      0.00000000       0.11111111       0.00000000 </v>
   <v name="genvec3">      0.00000000       0.00000000       0.11111111 </v>
   <v name="shift">      0.00000000       0.00000000       0.00000000 </v>
  </generation>
  <varray name="kpointlist" >
   <v>       0.00000000       0.00000000       0.00000000 </v>
   <v>       0.11111111       0.00000000       0.00000000 </v>
   <v>       0.22222222       0.00000000       0.00000000 </v>
   <v>       0.33333333       0.00000000       0.00000000 </v>
   <v>       0.44444444       0.00000000       0.00000000 </v>
   <v>       0.11111111       0.11111111       0.00000000 </v>
   <v>       0.22222222       0.11111111       0.00000000 </v>
   <v>       0.33333333       0.11111111       0.00000000 </v>
   <v>       0.44444444       0.11111111       0.00000000 </v>
   <v>       0.22222222       0.22222222       0.00000000 </v>
   <v>       0.33333333       0.22222222       0.00000000 </v>
   <v>       0.44444444       0.22222222       0.00000000 </v>
   <v>       0.33333333       0.33333333       0.00000000 </v>
   <v>       0.44444444       0.33333333       0.00000000 </v>
   <v>       0.44444444       0.44444444       0.00000000 </v>
   <v>       0.11111111       0.11111111       0.11111111 </v>
   <v>       0.22222222       0.11111111       0.11111111 </v>
   <v>       0.33333333       0.11111111       0.11111111 </v>
   <v>       0.44444444       0.11111111       0.11111111 </v>
   <v>       0.22222222       0.22222222       0.11111111 </v>
   <v>       0.33333333       0.22222222       0.11111111 </v>
   <v>       0.44444444       0.22222222       0.11111111 </v>
   <v>       0.33333333       0.33333333       0.11111111 </v>
   <v>       0.44444444       0.33333333       0.11111111 </v>
   <v>       0.44444444       0.44444444       0.11111111 </v>
   <v>       0.22222222       0.22222222       0.22222222 </v>
   <v>       0.33333333       0.22222222       0.22222222 </v>
   <v>       0.44444444       0.22222222       0.22222222 </v>
   <v>       0.33333333       0.33333333       0.22222222 </v>
   <v>       0.44444444       0.33333333       0.22222222 </v>
   <v>       0.44444444       0.44444444       0.22222222 </v>
   <v>       0.33333333       0.33333333       0.33333333 </v>
   <v>       0.44444444       0.33333333       0.33333333 </v>
   <v>       0.44444444       0.44444444       0.33333333 </v>
   <v>       0.44444444       0.44444444       0.44444444 </v>
  </varray>
  <varray name="weights" >
   <v>       0.00137174 </v>
   <v>       0.00823045 </v>
   <v>       0.00823045 </v>
   <v>       0.00823045 </v>
   <v>       0.00823045 </v>
   <v>       0.01646091 </v>
   <v>       0.03292181 </v>
   <v>       0.03292181 </v>
   <v>       0.03292181 </v>
   <v>       0.01646091 </v>
   <v>       0.03292181 </v>
   <v>       0.03292181 </v>
   <v>       0.01646091 </v>
   <v>       0.03292181 </v>
   <v>       0.01646091 </v>
   <v>       0.01097394 </v>
   <v>       0.03292181 </v>
   <v>       0.03292181 </v>
   <v>       0.03292181 </v>
   <v>       0.03292181 </v>
   <v>       0.06584362 </v>
   <v>       0.06584362 </v>
   <v>       0.03292181 </v>
   <v>       0.06584362 </v>
   <v>       0.03292181 </v>
   <v>       0.01097394 </v>
   <v>       0.03292181 </v>
   <v>       0.03292181 </v>
   <v>       0.03292181 </v>
   <v>       0.06584362 </v>
   <v>       0.03292181 </v>
   <v>       0.01097394 </v>
   <v>       0.03292181 </v>
   <v>       0.03292181 </v>
   <v>       0.01097394 </v>
  </varray>
 </kpoints>
 <parameters>
  <separator name="general" >
   <i type="string" name="SYSTEM">unknown system</i>
   <i type="logical" name="LCOMPAT"> F  </i>
  </separator>
  <separator name="electronic" >
   <i type="string" name="PREC">normal</i>
   <i name="ENMAX">    320.00000000</i>
   <i name="ENAUG">    586.98000000</i>
   <i name="EDIFF">      0.00000100</i>
   <i type="int" name="IALGO">    38</i>
   <i type="int" name="IWAVPR">     0</i>
   <i type="int" name="NBANDS">    30</i>
   <i type="int" name="NBANDSLOW">    -1</i>
   <i type="int" name="NBANDSHIGH">    -1</i>
   <i name="NELECT">     44.00000000</i>
   <i type="int" name="TURBO">     0</i>
   <i type="int" name="IRESTART">     0</i>
   <i type="int" name="NREBOOT">     0</i>
   <i type="int" name="NMIN">     0</i>
   <i name="EREF">      0.00000000</i>
   <separator name="electronic smearing" >
    <i type="int" name="ISMEAR">     1</i>
    <i name="SIGMA">      0.20000000</i>
    <i name="KSPACING">      0.50000000</i>
    <i type="logical" name="KGAMMA"> T  </i>
    <i type="logical" name="KBLOWUP"> T  </i>
   </separator>
   <separator name="electronic projectors" >
    <i type="logical" name="LREAL"> F  </i>
    <v name="ROPT">      0.00000000</v>
    <i type="int" name="LMAXPAW">  -100</i>
    <i type="int" name="LMAXMIX">     2</i>
    <i type="logical" name="NLSPLINE"> F  </i>
   </separator>
   <separator name="electronic startup" >
    <i type="int" name="ISTART">     1</i>
    <i type="int" name="ICHARG">     1</i>
    <i type="int" name="INIWAV">     1</i>
   </separator>
   <separator name="electronic spin" >
    <i type="int" name="ISPIN">     1</i>
    <i type="logical" name="LNONCOLLINEAR"> F  </i>
    <v name="MAGMOM">      1.00000000      1.00000000      1.00000000      1.00000000</v>
    <i name="NUPDOWN">     -1.00000000</i>
    <i type="logical" name="LSORBIT"> F  </i>
    <v name="SAXIS">      0.00000000      0.00000000      1.00000000</v>
    <i type="logical" name="LSPIRAL"> F  </i>
    <v name="QSPIRAL">      0.00000000      0.00000000      0.00000000</v>
    <i type="logical" name="LZEROZ"> F  </i>
   </separator>
   <separator name="electronic exchange-correlation" >
    <i type="logical" name="LASPH"> F  </i>
    <i type="logical" name="LMETAGGA"> F  </i>
   </separator>
   <separator name="electronic convergence" >
    <i type="int" name="NELM">    60</i>
    <i type="int" name="NELMDL">     0</i>
    <i type="int" name="NELMIN">     2</i>
    <i name="ENINI">    320.00000000</i>
    <separator name="electronic convergence detail" >
     <i type="logical" name="LDIAG"> T  </i>
     <i type="logical" name="LSUBROT"> F  </i>
     <i name="WEIMIN">      0.00000000</i>
     <i name="EBREAK">      0.00000001</i>
     <i name="DEPER">      0.30000000</i>
     <i type="int" name="NRMM">     4</i>
     <i name="TIME">      0.40000000</i>
    </separator>
   </separator>
   <separator name="electronic mixer" >
    <i name="AMIX">      0.40000000</i>
    <i name="BMIX">      1.00000000</i>
    <i name="AMIN">      0.10000000</i>
    <i name="AMIX_MAG">      1.60000000</i>
    <i name="BMIX_MAG">      1.00000000</i>
    <separator name="electronic mixer details" >
     <i type="int" name="IMIX">     4</i>
     <i type="logical" name="MIXFIRST"> F  </i>
     <i type="int" name="MAXMIX">   -45</i>
     <i name="WC">    100.00000000</i>
     <i type="int" name="INIMIX">     1</i>
     <i type="int" name="MIXPRE">     1</i>
     <i type="int" name="MREMOVE">     5</i>
    </separator>
   </separator>
   <separator name="electronic dipolcorrection" >
    <i type="logical" name="LDIPOL"> F  </i>
    <i type="logical" name="LMONO"> F  </i>
    <i type="int" name="IDIPOL">     0</i>
    <i name="EPSILON">      1.00000000</i>
    <v name="DIPOL">   -100.00000000   -100.00000000   -100.00000000</v>
    <i name="EFIELD">      0.00000000</i>
   </separator>
  </separator>
  <separator name="grids" >
   <i type="int" name="NGX">    16</i>
   <i type="int" name="NGY">    16</i>
   <i type="int" name="NGZ">    16</i>
   <i type="int" name="NGXF">    32</i>
   <i type="int" name="NGYF">    32</i>
   <i type="int" name="NGZF">    32</i>
   <i type="logical" name="ADDGRID"> F  </i>
  </separator>
  <separator name="ionic" >
   <i type="int" name="NSW">     0</i>
   <i type="int" name="IBRION">    -1</i>
   <i type="int" name="MDALGO">     0</i>
   <i type="int" name="ISIF">     4</i>
   <i name="PSTRESS">      0.00000000</i>
   <i name="EDIFFG">      0.00001000</i>
   <i type="int" name="NFREE">     0</i>
   <i name="POTIM">      0.50000000</i>
   <i name="SMASS">     -3.00000000</i>
   <i name="SCALEE">      1.00000000</i>
  </separator>
  <separator name="ionic md" >
   <i name="TEBEG">      0.00010000</i>
   <i name="TEEND">      0.00010000</i>
   <i type="int" name="NBLOCK">     1</i>
   <i type="int" name="KBLOCK">     1</i>
   <i type="int" name="NPACO">   256</i>
   <i name="APACO">     16.00000000</i>
  </separator>
  <separator name="symmetry" >
   <i type="int" name="ISYM">     2</i>
   <i name="SYMPREC">      0.00001000</i>
  </separator>
  <separator name="dos" >
   <i type="int" name="LORBIT">     0</i>
   <v name="RWIGS">     -1.00000000</v>
   <i type="int" name="NEDOS">   301</i>
   <i name="EMIN">     10.00000000</i>
   <i name="EMAX">    -10.00000000</i>
   <i name="EFERMI">      0.00000000</i>
  </separator>
  <separator name="writing" >
   <i type="int" name="NWRITE">     2</i>
   <i type="logical" name="LWAVE"> T  </i>
   <i type="logical" name="LDOWNSAMPLE"> F  </i>
   <i type="logical" name="LCHARG"> T  </i>
   <i type="logical" name="LPARD"> F  </i>
   <i type="logical" name="LVTOT"> F  </i>
   <i type="logical" name="LVHAR"> F  </i>
   <i type="logical" name="LELF"> F  </i>
   <i type="logical" name="LOPTICS"> F  </i>
   <v name="STM">      0.00000000      0.00000000      0.00000000      0.00000000      0.00000000      0.00000000      0.00000000</v>
  </separator>
  <separator name="performance" >
   <i type="int" name="NPAR">     1</i>
   <i type="int" name="NSIM">     4</i>
   <i type="int" name="NBLK">    -1</i>
   <i type="logical" name="LPLANE"> T  </i>
   <i type="logical" name="LSCALAPACK"> F  </i>
   <i type="logical" name="LSCAAWARE"> F  </i>
   <i type="logical" name="LSCALU"> F  </i>
   <i type="logical" name="LASYNC"> F  </i>
   <i type="logical" name="LORBITALREAL"> F  </i>
  </separator>
  <separator name="miscellaneous" >
   <i type="int" name="IDIOT">     3</i>
   <i type="int" name="PHON_NSTRUCT">    -1</i>
   <i type="logical" name="LMUSIC"> F  </i>
   <v name="POMASS">     63.54600000</v>
   <v name="DARWINR">      0.00000000</v>
   <v name="DARWINV">      1.00000000</v>
   <i type="logical" name="LCORR"> T  </i>
  </separator>
  <i type="logical" name="GGA_COMPAT"> T  </i>
  <i type="logical" name="LBERRY"> F  </i>
  <i type="int" name="ICORELEVEL">     0</i>
  <i type="logical" name="LDAU"> F  </i>
  <i type="int" name="I_CONSTRAINED_M">     0</i>
  <separator name="electronic exchange-correlation" >
   <i type="string" name="GGA">PE</i>
   <i type="int" name="VOSKOWN">     0</i>
   <i type="logical" name="LHFCALC"> F  </i>
   <i type="string" name="PRECFOCK"></i>
   <i type="logical" name="LSYMGRAD"> F  </i>
   <i type="logical" name="LHFONE"> F  </i>
   <i type="logical" name="LRHFCALC"> F  </i>
   <i type="logical" name="LTHOMAS"> F  </i>
   <i type="logical" name="LMODELHF"> F  </i>
   <i type="logical" name="LFOCKACE"> F  </i>
   <i name="ENCUT4O">     -1.00000000</i>
   <i type="int" name="EXXOEP">     0</i>
   <i type="int" name="FOURORBIT">     0</i>
   <i name="AEXX">      0.00000000</i>
   <i name="HFALPHA">      0.00000000</i>
   <i name="MCALPHA">      0.00000000</i>
   <i name="ALDAX">      1.00000000</i>
   <i name="AGGAX">      1.00000000</i>
   <i name="ALDAC">      1.00000000</i>
   <i name="AGGAC">      1.00000000</i>
   <i type="int" name="NKREDX">     1</i>
   <i type="int" name="NKREDY">     1</i>
   <i type="int" name="NKREDZ">     1</i>
   <i type="logical" name="SHIFTRED"> F  </i>
   <i type="logical" name="ODDONLY"> F  </i>
   <i type="logical" name="EVENONLY"> F  </i>
   <i type="int" name="LMAXFOCK">     0</i>
   <i type="int" name="NMAXFOCKAE">     0</i>
   <i type="logical" name="LFOCKAEDFT"> F  </i>
   <i name="HFSCREEN">      0.00000000</i>
   <i name="HFSCREENC">      0.00000000</i>
   <i type="int" name="NBANDSGWLOW">     0</i>
  </separator>
  <separator name="vdW DFT" >
   <i type="logical" name="LUSE_VDW"> F  </i>
   <i name="Zab_VDW">     -0.84910000</i>
   <i name="PARAM1">      0.12340000</i>
   <i name="PARAM2">      1.00000000</i>
   <i name="PARAM3">      0.00000000</i>
  </separator>
  <separator name="model GW" >
   <i type="int" name="MODEL_GW">     0</i>
   <i name="MODEL_EPS0">      7.20451093</i>
   <i name="MODEL_ALPHA">      1.00000000</i>
  </separator>
  <separator name="linear response parameters" >
   <i type="logical" name="LEPSILON"> F  </i>
   <i type="logical" name="LRPA"> F  </i>
   <i type="logical" name="LNABLA"> F  </i>
   <i type="logical" name="LVEL"> F  </i>
   <i type="int" name="KINTER">     0</i>
   <i name="CSHIFT">      0.10000000</i>
   <i name="OMEGAMAX">     -1.00000000</i>
   <i name="DEG_THRESHOLD">      0.00200000</i>
   <i name="RTIME">     -0.10000000</i>
   <i name="WPLASMAI">      0.00000000</i>
   <v name="DFIELD">      0.00000000      0.00000000      0.00000000</v>
   <v name="WPLASMA">      0.00000000      0.00000000      0.00000000      0.00000000      0.00000000      0.00000000      0.00000000      0.00000000      0.00000000</v>
  </separator>
  <separator name="orbital magnetization" >
   <i type="logical" name="NUCIND"> F  </i>
   <v name="MAGPOS">      0.00000000      0.00000000      0.00000000</v>
   <i type="logical" name="LNICSALL"> T  </i>
   <i type="logical" name="ORBITALMAG"> F  </i>
   <i type="logical" name="LMAGBLOCH"> F  </i>
   <i type="logical" name="LCHIMAG"> F  </i>
   <i type="logical" name="LGAUGE"> T  </i>
   <i type="int" name="MAGATOM">     0</i>
   <v name="MAGDIPOL">      0.00000000      0.00000000      0.00000000</v>
   <v name="AVECCONST">      0.00000000      0.00000000      0.00000000</v>
  </separator>
  <separator name="response functions" >
   <i type="logical" name="LFINITE_TEMPERATURE"> F  </i>
   <i type="logical" name="LADDER"> F  </i>
   <i type="logical" name="LRPAFORCE"> F  </i>
   <i type="logical" name="LFXC"> F  </i>
   <i type="logical" name="LHARTREE"> T  </i>
   <i type="int" name="IBSE">     0</i>
   <v type="int" name="KPOINT">    -1     0     0     0</v>
   <i type="logical" name="LTCTC"> F  </i>
   <i type="logical" name="LTCTE"> F  </i>
   <i type="logical" name="LTETE"> F  </i>
   <i type="logical" name="LTRIPLET"> F  </i>
   <i type="logical" name="LFXCEPS"> F  </i>
   <i type="logical" name="LFXHEG"> F  </i>
   <i type="int" name="NATURALO">     2</i>
   <i type="logical" name="LHOLEGF"> F  </i>
   <i type="logical" name="L2ORDER"> F  </i>
   <i type="logical" name="LDMP1"> F  </i>
   <i type="logical" name="LMP2LT"> F  </i>
   <i type="logical" name="LSMP2LT"> F  </i>
   <i type="logical" name="LGWLF"> F  </i>
   <i name="ENCUTGW">     -2.00000000</i>
   <i name="ENCUTGWSOFT">     -2.00000000</i>
   <i name="ENCUTLF">     -1.00000000</i>
   <i type="logical" name="LESF_SPLINES"> F  </i>
   <i type="int" name="LMAXMP2">    -1</i>
   <i name="SCISSOR">      0.00000000</i>
   <i type="int" name="NOMEGA">     0</i>
   <i type="int" name="NOMEGAR">     0</i>
   <i type="int" name="NBANDSGW">    -1</i>
   <i type="int" name="NBANDSO">    -1</i>
   <i type="int" name="NBANDSV">    -1</i>
   <i type="int" name="NELM">     1</i>
   <i type="int" name="NELMHF">     1</i>
   <i type="int" name="DIM">     3</i>
   <i type="int" name="IESPILON">     4</i>
   <i type="int" name="ANTIRES">     0</i>
   <i name="OMEGAMAX">    -30.00000000</i>
   <i name="OMEGAMIN">    -30.00000000</i>
   <i name="OMEGATL">   -200.00000000</i>
   <i type="int" name="OMEGAGRID">     0</i>
   <i name="CSHIFT">     -0.10000000</i>
   <i type="logical" name="LSELFENERGY"> F  </i>
   <i type="logical" name="LSPECTRAL"> F  </i>
   <i type="logical" name="LSPECTRALGW"> F  </i>
   <i type="logical" name="LSINGLES"> F  </i>
   <i type="logical" name="LFERMIGW"> F  </i>
   <i type="logical" name="ODDONLYGW"> F  </i>
   <i type="logical" name="EVENONLYGW"> F  </i>
   <i type="int" name="NKREDLFX">     1</i>
   <i type="int" name="NKREDLFY">     1</i>
   <i type="int" name="NKREDLFZ">     1</i>
   <i type="int" name="MAXMEM">  2800</i>
   <i type="int" name="TELESCOPE">     0</i>
   <i type="int" name="NTAUPAR">    -1</i>
   <i type="int" name="NOMEGAPAR">    -1</i>
   <i name="DAMP_NEWTON">      0.80000001</i>
   <i name="LAMBDA">      1.00000000</i>
  </separator>
  <separator name="External order field" >
   <i name="OFIELD_KAPPA">      0.00000000</i>
   <v name="OFIELD_K">      0.00000000      0.00000000      0.00000000</v>
   <i name="OFIELD_Q6_NEAR">      0.00000000</i>
   <i name="OFIELD_Q6_FAR">      0.00000000</i>
   <i name="OFIELD_A">      0.00000000</i>
  </separator>
 </parameters>
 <atominfo>
  <atoms>       4 </atoms>
  <types>       1 </types>
  <array name="atoms" >
   <dimension dim="1">ion</dimension>
   <field type="string">element</field>
   <field type="int">atomtype</field>
   <set>
    <rc><c>Cu</c><c>   1</c></rc>
    <rc><c>Cu</c><c>   1</c></rc>
    <rc><c>Cu</c><c>   1</c></rc>
    <rc><c>Cu</c><c>   1</c></rc>
   </set>
  </array>
  <array name="atomtypes" >
   <dimension dim="1">type</dimension>
   <field type="int">atomspertype</field>
   <field type="string">element</field>
   <field>mass</field>
   <field>valence</field>
   <field type="string">pseudopotential</field>
   <set>
    <rc><c>   4</c><c>Cu</c><c>     63.54600000</c><c>     11.00000000</c><c>  PAW_PBE Cu 22Jun2005                  </c></rc>
   </set>
  </array>
 </atominfo>
 <structure name="initialpos" >
  <crystal>
   <varray name="basis" >
    <v>       3.63500000       0.00000000       0.00000000 </v>
    <v>       0.00000000       3.63500000       0.00000000 </v>
    <v>       0.00000000       0.00000000       3.63500000 </v>
   </varray>
   <i name="volume">     48.03007287 </i>
   <varray name="rec_basis" >
    <v>       0.27510316       0.00000000       0.00000000 </v>
    <v>       0.00000000       0.27510316       0.00000000 </v>
    <v>       0.00000000       0.00000000       0.27510316 </v>
   </varray>
  </crystal>
  <varray name="positions" >
   <v>       0.00000000       0.00000000       0.00000000 </v>
   <v>       0.50000000       0.50000000       0.00000000 </v>
   <v>       0.50000000       0.00000000       0.50000000 </v>
   <v>       0.00000000       0.50000000       0.50000000 </v>
  </varray>
 </structure>
 <calculation>
  <scstep>
   <time name="dav">    0.45    0.47</time>
   <time name="total">    0.49    0.51</time>
   <energy>
    <i name="alphaZ">    243.62337785 </i>
    <i name="ewald">  -4395.34838493 </i>
    <i name="hartreedc">  -1368.00955430 </i>
    <i name="XCdc">    178.57730048 </i>
    <i name="pawpsdc">   5243.11915440 </i>
    <i name="pawaedc">  -5674.25576279 </i>
    <i name="eentropy">      0.00147017 </i>
    <i name="bandstr">    193.56368863 </i>
    <i name="atom">   5563.77610493 </i>
    <i name="e_fr_energy">    -14.95260557 </i>
    <i name="e_wo_entrp">    -14.95407574 </i>
    <i name="e_0_energy">    -14.95309563 </i>
   </energy>
  </scstep>
  <scstep>
   <time name="dav">    0.42    0.42</time>
   <time name="total">    0.46    0.46</time>
   <energy>
    <i name="e_fr_energy">    -14.95078558 </i>
    <i name="e_wo_entrp">    -14.95225328 </i>
    <i name="e_0_energy">    -14.95127481 </i>
   </energy>
  </scstep>
  <scstep>
   <time name="dav">    0.45    0.45</time>
   <time name="total">    0.49    0.49</time>
   <energy>
    <i name="e_fr_energy">    -14.95078379 </i>
    <i name="e_wo_entrp">    -14.95225336 </i>
    <i name="e_0_energy">    -14.95127365 </i>
   </energy>
  </scstep>
  <scstep>
   <time name="dav">    0.28    0.28</time>
   <time name="total">    0.29    0.29</time>
   <energy>
    <i name="alphaZ">    243.62337785 </i>
    <i name="ewald">  -4395.34838493 </i>
    <i name="hartreedc">  -1368.00550867 </i>
    <i name="XCdc">    178.57706502 </i>
    <i name="pawpsdc">   5243.10806274 </i>
    <i name="pawaedc">  -5674.24702976 </i>
    <i name="eentropy">      0.00147005 </i>
    <i name="bandstr">    193.56405909 </i>
    <i name="atom">   5563.77610493 </i>
    <i name="e_fr_energy">    -14.95078368 </i>
    <i name="e_wo_entrp">    -14.95225373 </i>
    <i name="e_0_energy">    -14.95127370 </i>
   </energy>
  </scstep>
  <structure>
   <crystal>
    <varray name="basis" >
     <v>       3.63500000       0.00000000       0.00000000 </v>
     <v>       0.00000000       3.63500000       0.00000000 </v>
     <v>       0.00000000       0.00000000       3.63500000 </v>
    </varray>
    <i name="volume">     48.03007287 </i>
    <varray name="rec_basis" >
     <v>       0.27510316       0.00000000       0.00000000 </v>
     <v>       0.00000000       0.27510316       0.00000000 </v>
     <v>       0.00000000       0.00000000       0.27510316 </v>
    </varray>
   </crystal>
   <varray name="positions" >
    <v>       0.00000000       0.00000000       0.00000000 </v>
    <v>       0.50000000       0.50000000       0.00000000 </v>
    <v>       0.50000000       0.00000000       0.50000000 </v>
    <v>       0.00000000       0.50000000       0.50000000 </v>
   </varray>
  </structure>
  <varray name="forces" >
   <v>      -0.00000000       0.00000000      -0.00000000 </v>
   <v>      -0.00000000      -0.00000000      -0.00000000 </v>
   <v>       0.00000000       0.00000000       0.00000000 </v>
   <v>       0.00000000      -0.00000000       0.00000000 </v>
  </varray>
  <varray name="stress" >
   <v>      -2.68023671       0.00000000      -0.00000000 </v>
   <v>      -0.00000000      -2.68023671      -0.00000000 </v>
   <v>      -0.00000000       0.00000000      -2.68023671 </v>
  </varray>
  <energy>
   <i name="e_fr_energy">    -14.95078368 </i>
   <i name="e_wo_entrp">    -14.95225373 </i>
   <i name="e_0_energy">    -14.95127370 </i>
  </energy>
  <time name="totalsc">    2.14    2.16</time>
  <eigenvalues>
   <array>
    <dimension dim="1">band</dimension>
    <dimension dim="2">kpoint</dimension>
    <dimension dim="3">spin</dimension>
    <field>eigene</field>
    <field>occ</field>
    <set>
     <set comment="spin 1">
      <set comment="kpoint 1">
       <r>   -1.8462    1.0000 </r>
       <r>    2.6046    1.0000 </r>
       <r>    2.6046    1.0000 </r>
       <r>    2.6046    1.0000 </r>
       <r>    3.0511    1.0000 </r>
       <r>    3.0511    1.0000 </r>
       <r>    3.0511    1.0000 </r>
       <r>    4.4095    1.0000 </r>
       <r>    4.4095    1.0000 </r>
       <r>    4.4095    1.0000 </r>
       <r>    5.2150    1.0000 </r>
       <r>    5.2150    1.0000 </r>
       <r>    5.7504    1.0000 </r>
       <r>    5.7504    1.0000 </r>
       <r>    5.7504    1.0000 </r>
       <r>    5.9028    1.0000 </r>
       <r>    5.9028    1.0000 </r>
       <r>    5.9028    1.0000 </r>
       <r>    5.9028    1.0000 </r>
       <r>    5.9028    1.0000 </r>
       <r>    5.9028    1.0000 </r>
       <r>    8.8904   -0.0000 </r>
       <r>    8.8904   -0.0000 </r>
       <r>    8.8904   -0.0000 </r>
       <r>   14.3819    0.0000 </r>
       <r>   14.3819    0.0000 </r>
       <r>   14.3819    0.0000 </r>
       <r>   20.3324    0.0000 </r>
       <r>   20.3324    0.0000 </r>
       <r>   20.3324    0.0000 </r>
      </set>
      <set comment="kpoint 2">
       <r>   -1.6980    1.0000 </r>
       <r>    2.5999    1.0000 </r>
       <r>    2.6728    1.0000 </r>
       <r>    2.6728    1.0000 </r>
       <r>    3.0900    1.0000 </r>
       <r>    3.0924    1.0000 </r>
       <r>    3.0924    1.0000 </r>
       <r>    4.3663    1.0000 </r>
       <r>    4.4441    1.0000 </r>
       <r>    4.4441    1.0000 </r>
       <r>    5.1762    1.0000 </r>
       <r>    5.2308    1.0000 </r>
       <r>    5.6593    1.0000 </r>
       <r>    5.6593    1.0000 </r>
       <r>    5.6999    1.0000 </r>
       <r>    5.6999    1.0000 </r>
       <r>    5.7339    1.0000 </r>
       <r>    5.8433    1.0000 </r>
       <r>    5.8433    1.0000 </r>
       <r>    5.9029    1.0000 </r>
       <r>    5.9029    1.0000 </r>
       <r>    8.0404   -0.0000 </r>
       <r>    9.2673   -0.0000 </r>
       <r>    9.2673   -0.0000 </r>
       <r>   14.4371    0.0000 </r>
       <r>   14.4371    0.0000 </r>
       <r>   15.5268    0.0000 </r>
       <r>   19.4218    0.0000 </r>
       <r>   19.4218    0.0000 </r>
       <r>   19.7252    0.0000 </r>
      </set>
      <set comment="kpoint 3">
       <r>   -1.2591    1.0000 </r>
       <r>    2.5304    1.0000 </r>
       <r>    2.8596    1.0000 </r>
       <r>    2.8596    1.0000 </r>
       <r>    3.2021    1.0000 </r>
       <r>    3.2169    1.0000 </r>
       <r>    3.2169    1.0000 </r>
       <r>    4.2427    1.0000 </r>
       <r>    4.5465    1.0000 </r>
       <r>    4.5465    1.0000 </r>
       <r>    5.0668    1.0000 </r>
       <r>    5.1466    1.0000 </r>
       <r>    5.1466    1.0000 </r>
       <r>    5.2763    1.0000 </r>
       <r>    5.5573    1.0000 </r>
       <r>    5.5573    1.0000 </r>
       <r>    5.6786    1.0000 </r>
       <r>    5.6786    1.0000 </r>
       <r>    5.6864    1.0000 </r>
       <r>    5.9032    1.0000 </r>
       <r>    5.9032    1.0000 </r>
       <r>    6.5327    1.0000 </r>
       <r>   10.1779   -0.0000 </r>
       <r>   10.1779   -0.0000 </r>
       <r>   14.6120    0.0000 </r>
       <r>   14.6120    0.0000 </r>
       <r>   17.7351    0.0000 </r>
       <r>   17.7351    0.0000 </r>
       <r>   17.9643    0.0000 </r>
       <r>   18.4923    0.0000 </r>
      </set>
      <set comment="kpoint 4">
       <r>   -0.5501    1.0000 </r>
       <r>    2.1929    1.0000 </r>
       <r>    3.1064    1.0000 </r>
       <r>    3.1064    1.0000 </r>
       <r>    3.3765    1.0000 </r>
       <r>    3.4282    1.0000 </r>
       <r>    3.4282    1.0000 </r>
       <r>    4.0554    1.0000 </r>
       <r>    4.6059    1.0000 </r>
       <r>    4.6059    1.0000 </r>
       <r>    4.7114    1.0000 </r>
       <r>    4.7114    1.0000 </r>
       <r>    4.9159    1.0000 </r>
       <r>    5.3364    1.0000 </r>
       <r>    5.3465    1.0000 </r>
       <r>    5.3599    1.0000 </r>
       <r>    5.3599    1.0000 </r>
       <r>    5.4445    1.0000 </r>
       <r>    5.4445    1.0000 </r>
       <r>    5.6143    1.0000 </r>
       <r>    5.9034    1.0000 </r>
       <r>    5.9034    1.0000 </r>
       <r>   11.3767   -0.0000 </r>
       <r>   11.3767   -0.0000 </r>
       <r>   14.9321    0.0000 </r>
       <r>   14.9321    0.0000 </r>
       <r>   15.9815    0.0000 </r>
       <r>   15.9815    0.0000 </r>
       <r>   17.2648    0.0000 </r>
       <r>   17.2648    0.0000 </r>
      </set>
      <set comment="kpoint 5">
       <r>    0.3784    1.0000 </r>
       <r>    1.3946    1.0000 </r>
       <r>    3.2993    1.0000 </r>
       <r>    3.2993    1.0000 </r>
       <r>    3.5940    1.0000 </r>
       <r>    3.7303    1.0000 </r>
       <r>    3.7303    1.0000 </r>
       <r>    3.8296    1.0000 </r>
       <r>    4.1249    1.0000 </r>
       <r>    4.1249    1.0000 </r>
       <r>    4.7865    1.0000 </r>
       <r>    4.8236    1.0000 </r>
       <r>    4.9292    1.0000 </r>
       <r>    4.9292    1.0000 </r>
       <r>    5.1825    1.0000 </r>
       <r>    5.1825    1.0000 </r>
       <r>    5.1992    1.0000 </r>
       <r>    5.1992    1.0000 </r>
       <r>    5.4332    1.0000 </r>
       <r>    5.5263    1.0000 </r>
       <r>    5.9035    1.0000 </r>
       <r>    5.9035    1.0000 </r>
       <r>   12.7674   -0.0000 </r>
       <r>   12.7674   -0.0000 </r>
       <r>   14.3111    0.0000 </r>
       <r>   14.3111    0.0000 </r>
       <r>   15.4165    0.0000 </r>
       <r>   15.4165    0.0000 </r>
       <r>   16.2831    0.0000 </r>
       <r>   16.2831    0.0000 </r>
      </set>
      <set comment="kpoint 6">
       <r>   -1.5509    1.0000 </r>
       <r>    2.6711    1.0000 </r>
       <r>    2.6711    1.0000 </r>
       <r>    2.7380    1.0000 </r>
       <r>    3.1296    1.0000 </r>
       <r>    3.1296    1.0000 </r>
       <r>    3.1308    1.0000 </r>
       <r>    4.3431    1.0000 </r>
       <r>    4.4603    1.0000 </r>
       <r>    4.4724    1.0000 </r>
       <r>    5.1660    1.0000 </r>
       <r>    5.2239    1.0000 </r>
       <r>    5.4953    1.0000 </r>
       <r>    5.5491    1.0000 </r>
       <r>    5.5491    1.0000 </r>
       <r>    5.6531    1.0000 </r>
       <r>    5.7137    1.0000 </r>
       <r>    5.7137    1.0000 </r>
       <r>    5.8430    1.0000 </r>
       <r>    5.8430    1.0000 </r>
       <r>    5.8645    1.0000 </r>
       <r>    8.4094   -0.0000 </r>
       <r>    8.4094   -0.0000 </r>
       <r>    9.6032   -0.0000 </r>
       <r>   14.4928    0.0000 </r>
       <r>   15.6104    0.0000 </r>
       <r>   15.6104    0.0000 </r>
       <r>   17.7475    0.0000 </r>
       <r>   19.6182    0.0000 </r>
       <r>   19.6182    0.0000 </r>
      </set>
      <set comment="kpoint 7">
       <r>   -1.1155    1.0000 </r>
       <r>    2.6111    1.0000 </r>
       <r>    2.8669    1.0000 </r>
       <r>    2.9171    1.0000 </r>
       <r>    3.2381    1.0000 </r>
       <r>    3.2469    1.0000 </r>
       <r>    3.2501    1.0000 </r>
       <r>    4.2342    1.0000 </r>
       <r>    4.5523    1.0000 </r>
       <r>    4.5529    1.0000 </r>
       <r>    5.0350    1.0000 </r>
       <r>    5.0650    1.0000 </r>
       <r>    5.0768    1.0000 </r>
       <r>    5.2713    1.0000 </r>
       <r>    5.2942    1.0000 </r>
       <r>    5.5205    1.0000 </r>
       <r>    5.5674    1.0000 </r>
       <r>    5.6698    1.0000 </r>
       <r>    5.6780    1.0000 </r>
       <r>    5.8425    1.0000 </r>
       <r>    5.8441    1.0000 </r>
       <r>    6.9665    1.0102 </r>
       <r>    9.2401   -0.0000 </r>
       <r>   10.4532   -0.0000 </r>
       <r>   14.6584    0.0000 </r>
       <r>   15.8711    0.0000 </r>
       <r>   15.9484    0.0000 </r>
       <r>   17.9186    0.0000 </r>
       <r>   18.0681    0.0000 </r>
       <r>   18.6637    0.0000 </r>
      </set>
      <set comment="kpoint 8">
       <r>   -0.4128    1.0000 </r>
       <r>    2.2886    1.0000 </r>
       <r>    3.1290    1.0000 </r>
       <r>    3.1586    1.0000 </r>
       <r>    3.4060    1.0000 </r>
       <r>    3.4364    1.0000 </r>
       <r>    3.4539    1.0000 </r>
       <r>    4.0572    1.0000 </r>
       <r>    4.5086    1.0000 </r>
       <r>    4.5722    1.0000 </r>
       <r>    4.6535    1.0000 </r>
       <r>    4.7139    1.0000 </r>
       <r>    4.9006    1.0000 </r>
       <r>    4.9734    1.0000 </r>
       <r>    5.3363    1.0000 </r>
       <r>    5.3589    1.0000 </r>
       <r>    5.3712    1.0000 </r>
       <r>    5.4436    1.0000 </r>
       <r>    5.5459    1.0000 </r>
       <r>    5.8398    1.0000 </r>
       <r>    5.8417    1.0000 </r>
       <r>    5.9713    1.0000 </r>
       <r>   10.2787   -0.0000 </r>
       <r>   11.6104   -0.0000 </r>
       <r>   14.2021    0.0000 </r>
       <r>   15.0838    0.0000 </r>
       <r>   16.1650    0.0000 </r>
       <r>   16.3307    0.0000 </r>
       <r>   17.4164    0.0000 </r>
       <r>   19.1963    0.0000 </r>
      </set>
      <set comment="kpoint 9">
       <r>    0.5055    1.0000 </r>
       <r>    1.5070    1.0000 </r>
       <r>    3.3424    1.0000 </r>
       <r>    3.3553    1.0000 </r>
       <r>    3.6151    1.0000 </r>
       <r>    3.6950    1.0000 </r>
       <r>    3.7441    1.0000 </r>
       <r>    3.8414    1.0000 </r>
       <r>    4.0522    1.0000 </r>
       <r>    4.1203    1.0000 </r>
       <r>    4.6446    1.0000 </r>
       <r>    4.6487    1.0000 </r>
       <r>    4.9299    1.0000 </r>
       <r>    5.0410    1.0000 </r>
       <r>    5.1820    1.0000 </r>
       <r>    5.1904    1.0000 </r>
       <r>    5.2047    1.0000 </r>
       <r>    5.2848    1.0000 </r>
       <r>    5.4724    1.0000 </r>
       <r>    5.6196    1.0000 </r>
       <r>    5.8397    1.0000 </r>
       <r>    5.8405    1.0000 </r>
       <r>   11.4537   -0.0000 </r>
       <r>   12.7614   -0.0000 </r>
       <r>   12.9750    0.0000 </r>
       <r>   14.5027    0.0000 </r>
       <r>   15.5822    0.0000 </r>
       <r>   16.3348    0.0000 </r>
       <r>   17.0858    0.0000 </r>
       <r>   18.0305    0.0000 </r>
      </set>
      <set comment="kpoint 10">
       <r>   -0.6910    1.0000 </r>
       <r>    2.8351    1.0000 </r>
       <r>    2.8351    1.0000 </r>
       <r>    3.0737    1.0000 </r>
       <r>    3.3379    1.0000 </r>
       <r>    3.3462    1.0000 </r>
       <r>    3.3462    1.0000 </r>
       <r>    4.1775    1.0000 </r>
       <r>    4.5732    1.0000 </r>
       <r>    4.6049    1.0000 </r>
       <r>    4.7641    1.0000 </r>
       <r>    4.7641    1.0000 </r>
       <r>    4.8180    1.0000 </r>
       <r>    5.0469    1.0000 </r>
       <r>    5.3203    1.0000 </r>
       <r>    5.4139    1.0000 </r>
       <r>    5.5425    1.0000 </r>
       <r>    5.5425    1.0000 </r>
       <r>    5.6762    1.0000 </r>
       <r>    5.6762    1.0000 </r>
       <r>    5.7516    1.0000 </r>
       <r>    7.7328   -0.0106 </r>
       <r>    7.7328   -0.0106 </r>
       <r>   11.1954   -0.0000 </r>
       <r>   13.9200    0.0000 </r>
       <r>   14.9643    0.0000 </r>
       <r>   18.3742    0.0000 </r>
       <r>   18.3742    0.0000 </r>
       <r>   18.4515    0.0000 </r>
       <r>   18.4515    0.0000 </r>
      </set>
      <set comment="kpoint 11">
       <r>   -0.0090    1.0000 </r>
       <r>    2.5562    1.0000 </r>
       <r>    3.1440    1.0000 </r>
       <r>    3.2906    1.0000 </r>
       <r>    3.4732    1.0000 </r>
       <r>    3.4941    1.0000 </r>
       <r>    3.5275    1.0000 </r>
       <r>    4.0482    1.0000 </r>
       <r>    4.2875    1.0000 </r>
       <r>    4.4659    1.0000 </r>
       <r>    4.4804    1.0000 </r>
       <r>    4.5799    1.0000 </r>
       <r>    4.7383    1.0000 </r>
       <r>    4.9876    1.0000 </r>
       <r>    5.2623    1.0000 </r>
       <r>    5.3578    1.0000 </r>
       <r>    5.4310    1.0000 </r>
       <r>    5.4420    1.0000 </r>
       <r>    5.4594    1.0000 </r>
       <r>    5.6742    1.0000 </r>
       <r>    5.6999    1.0000 </r>
       <r>    6.5889    1.0000 </r>
       <r>    8.6229   -0.0000 </r>
       <r>   12.2645   -0.0000 </r>
       <r>   12.2654   -0.0000 </r>
       <r>   15.3099    0.0000 </r>
       <r>   16.6974    0.0000 </r>
       <r>   17.8142    0.0000 </r>
       <r>   18.9697    0.0000 </r>
       <r>   19.2892    0.0000 </r>
      </set>
      <set comment="kpoint 12">
       <r>    0.8753    1.0000 </r>
       <r>    1.8273    1.0000 </r>
       <r>    3.4257    1.0000 </r>
       <r>    3.5108    1.0000 </r>
       <r>    3.5966    1.0000 </r>
       <r>    3.6766    1.0000 </r>
       <r>    3.7819    1.0000 </r>
       <r>    3.8705    1.0000 </r>
       <r>    3.8909    1.0000 </r>
       <r>    4.1022    1.0000 </r>
       <r>    4.4047    1.0000 </r>
       <r>    4.4996    1.0000 </r>
       <r>    4.9395    1.0000 </r>
       <r>    5.0486    1.0000 </r>
       <r>    5.1491    1.0000 </r>
       <r>    5.1837    1.0000 </r>
       <r>    5.1884    1.0000 </r>
       <r>    5.2348    1.0000 </r>
       <r>    5.6617    1.0000 </r>
       <r>    5.6739    1.0000 </r>
       <r>    5.6796    1.0000 </r>
       <r>    5.9729    1.0000 </r>
       <r>    9.6434   -0.0000 </r>
       <r>   10.8411   -0.0000 </r>
       <r>   13.5679    0.0000 </r>
       <r>   15.0562    0.0000 </r>
       <r>   15.8912    0.0000 </r>
       <r>   16.7229    0.0000 </r>
       <r>   19.7486    0.0000 </r>
       <r>   20.3804    0.0000 </r>
      </set>
      <set comment="kpoint 13">
       <r>    0.6330    1.0000 </r>
       <r>    2.9304    1.0000 </r>
       <r>    2.9304    1.0000 </r>
       <r>    3.4103    1.0000 </r>
       <r>    3.5815    1.0000 </r>
       <r>    3.6388    1.0000 </r>
       <r>    3.6388    1.0000 </r>
       <r>    3.9988    1.0000 </r>
       <r>    4.1414    1.0000 </r>
       <r>    4.1414    1.0000 </r>
       <r>    4.2855    1.0000 </r>
       <r>    4.5178    1.0000 </r>
       <r>    4.8213    1.0000 </r>
       <r>    4.9264    1.0000 </r>
       <r>    5.1461    1.0000 </r>
       <r>    5.2614    1.0000 </r>
       <r>    5.2614    1.0000 </r>
       <r>    5.4436    1.0000 </r>
       <r>    5.4436    1.0000 </r>
       <r>    5.5709    1.0000 </r>
       <r>    5.6766    1.0000 </r>
       <r>    7.2960    0.7227 </r>
       <r>    7.2960    0.7227 </r>
       <r>   10.5853   -0.0000 </r>
       <r>   13.2469    0.0000 </r>
       <r>   15.7482    0.0000 </r>
       <r>   17.5352    0.0000 </r>
       <r>   17.5352    0.0000 </r>
       <r>   18.5222    0.0000 </r>
       <r>   18.5222    0.0000 </r>
      </set>
      <set comment="kpoint 14">
       <r>    1.4478    1.0000 </r>
       <r>    2.2967    1.0000 </r>
       <r>    3.2812    1.0000 </r>
       <r>    3.4404    1.0000 </r>
       <r>    3.7288    1.0000 </r>
       <r>    3.7703    1.0000 </r>
       <r>    3.8330    1.0000 </r>
       <r>    3.8929    1.0000 </r>
       <r>    3.8994    1.0000 </r>
       <r>    4.0599    1.0000 </r>
       <r>    4.2232    1.0000 </r>
       <r>    4.3963    1.0000 </r>
       <r>    4.9444    1.0000 </r>
       <r>    4.9798    1.0000 </r>
       <r>    5.0554    1.0000 </r>
       <r>    5.0902    1.0000 </r>
       <r>    5.1010    1.0000 </r>
       <r>    5.1981    1.0000 </r>
       <r>    5.4560    1.0000 </r>
       <r>    5.4924    1.0000 </r>
       <r>    5.9850    1.0000 </r>
       <r>    6.4599    1.0000 </r>
       <r>    8.1450   -0.0000 </r>
       <r>    9.2183   -0.0000 </r>
       <r>   14.4819    0.0000 </r>
       <r>   15.9216    0.0000 </r>
       <r>   16.4130    0.0000 </r>
       <r>   17.3340    0.0000 </r>
       <r>   18.6307    0.0000 </r>
       <r>   19.4821    0.0000 </r>
      </set>
      <set comment="kpoint 15">
       <r>    2.1372    1.0000 </r>
       <r>    2.7994    1.0000 </r>
       <r>    2.7994    1.0000 </r>
       <r>    3.1938    1.0000 </r>
       <r>    3.8809    1.0000 </r>
       <r>    3.8809    1.0000 </r>
       <r>    3.9062    1.0000 </r>
       <r>    3.9435    1.0000 </r>
       <r>    3.9844    1.0000 </r>
       <r>    4.0943    1.0000 </r>
       <r>    4.0943    1.0000 </r>
       <r>    4.2850    1.0000 </r>
       <r>    4.8785    1.0000 </r>
       <r>    4.9507    1.0000 </r>
       <r>    4.9581    1.0000 </r>
       <r>    4.9581    1.0000 </r>
       <r>    5.0775    1.0000 </r>
       <r>    5.2428    1.0000 </r>
       <r>    5.2428    1.0000 </r>
       <r>    5.3383    1.0000 </r>
       <r>    6.4263    1.0000 </r>
       <r>    7.0909    1.0347 </r>
       <r>    7.0909    1.0347 </r>
       <r>    7.9741   -0.0000 </r>
       <r>   15.6561    0.0000 </r>
       <r>   17.0481    0.0000 </r>
       <r>   17.0481    0.0000 </r>
       <r>   17.1741    0.0000 </r>
       <r>   18.1954    0.0000 </r>
       <r>   18.1954    0.0000 </r>
      </set>
      <set comment="kpoint 16">
       <r>   -1.4050    1.0000 </r>
       <r>    2.7386    1.0000 </r>
       <r>    2.7386    1.0000 </r>
       <r>    2.7386    1.0000 </r>
       <r>    3.1672    1.0000 </r>
       <r>    3.1672    1.0000 </r>
       <r>    3.1672    1.0000 </r>
       <r>    4.3229    1.0000 </r>
       <r>    4.4846    1.0000 </r>
       <r>    4.4846    1.0000 </r>
       <r>    5.1900    1.0000 </r>
       <r>    5.1900    1.0000 </r>
       <r>    5.4037    1.0000 </r>
       <r>    5.4037    1.0000 </r>
       <r>    5.4037    1.0000 </r>
       <r>    5.5980    1.0000 </r>
       <r>    5.5980    1.0000 </r>
       <r>    5.5980    1.0000 </r>
       <r>    5.8506    1.0000 </r>
       <r>    5.8506    1.0000 </r>
       <r>    5.8506    1.0000 </r>
       <r>    8.7212   -0.0000 </r>
       <r>    8.7212   -0.0000 </r>
       <r>    8.7212   -0.0000 </r>
       <r>   15.6948    0.0000 </r>
       <r>   15.6948    0.0000 </r>
       <r>   15.6948    0.0000 </r>
       <r>   17.9316    0.0000 </r>
       <r>   17.9316    0.0000 </r>
       <r>   17.9316    0.0000 </r>
      </set>
      <set comment="kpoint 17">
       <r>   -0.9735    1.0000 </r>
       <r>    2.6852    1.0000 </r>
       <r>    2.9237    1.0000 </r>
       <r>    2.9237    1.0000 </r>
       <r>    3.2729    1.0000 </r>
       <r>    3.2798    1.0000 </r>
       <r>    3.2798    1.0000 </r>
       <r>    4.2277    1.0000 </r>
       <r>    4.5531    1.0000 </r>
       <r>    4.5578    1.0000 </r>
       <r>    4.9661    1.0000 </r>
       <r>    4.9661    1.0000 </r>
       <r>    5.1026    1.0000 </r>
       <r>    5.1314    1.0000 </r>
       <r>    5.2574    1.0000 </r>
       <r>    5.4536    1.0000 </r>
       <r>    5.4817    1.0000 </r>
       <r>    5.4817    1.0000 </r>
       <r>    5.8019    1.0000 </r>
       <r>    5.8284    1.0000 </r>
       <r>    5.8284    1.0000 </r>
       <r>    7.2591    0.8464 </r>
       <r>    9.4764   -0.0000 </r>
       <r>    9.4764   -0.0000 </r>
       <r>   15.8980    0.0000 </r>
       <r>   15.8980    0.0000 </r>
       <r>   16.1768    0.0000 </r>
       <r>   16.1768    0.0000 </r>
       <r>   18.1516    0.0000 </r>
       <r>   18.4892    0.0000 </r>
      </set>
      <set comment="kpoint 18">
       <r>   -0.2782    1.0000 </r>
       <r>    2.3748    1.0000 </r>
       <r>    3.1758    1.0000 </r>
       <r>    3.1758    1.0000 </r>
       <r>    3.4368    1.0000 </r>
       <r>    3.4601    1.0000 </r>
       <r>    3.4601    1.0000 </r>
       <r>    4.0626    1.0000 </r>
       <r>    4.4913    1.0000 </r>
       <r>    4.4913    1.0000 </r>
       <r>    4.6324    1.0000 </r>
       <r>    4.6794    1.0000 </r>
       <r>    4.7552    1.0000 </r>
       <r>    5.0422    1.0000 </r>
       <r>    5.2573    1.0000 </r>
       <r>    5.3194    1.0000 </r>
       <r>    5.3194    1.0000 </r>
       <r>    5.3587    1.0000 </r>
       <r>    5.7164    1.0000 </r>
       <r>    5.8084    1.0000 </r>
       <r>    5.8084    1.0000 </r>
       <r>    6.1601    1.0000 </r>
       <r>   10.4606   -0.0000 </r>
       <r>   10.4606   -0.0000 </r>
       <r>   14.4429    0.0000 </r>
       <r>   14.4429    0.0000 </r>
       <r>   16.4611    0.0000 </r>
       <r>   16.4611    0.0000 </r>
       <r>   19.2910    0.0000 </r>
       <r>   19.3535    0.0000 </r>
      </set>
      <set comment="kpoint 19">
       <r>    0.6280    1.0000 </r>
       <r>    1.6118    1.0000 </r>
       <r>    3.3975    1.0000 </r>
       <r>    3.3975    1.0000 </r>
       <r>    3.6398    1.0000 </r>
       <r>    3.6702    1.0000 </r>
       <r>    3.6702    1.0000 </r>
       <r>    3.8573    1.0000 </r>
       <r>    4.0959    1.0000 </r>
       <r>    4.0959    1.0000 </r>
       <r>    4.5607    1.0000 </r>
       <r>    4.5949    1.0000 </r>
       <r>    4.8455    1.0000 </r>
       <r>    5.0450    1.0000 </r>
       <r>    5.1761    1.0000 </r>
       <r>    5.1761    1.0000 </r>
       <r>    5.1850    1.0000 </r>
       <r>    5.4795    1.0000 </r>
       <r>    5.5400    1.0000 </r>
       <r>    5.6041    1.0000 </r>
       <r>    5.7996    1.0000 </r>
       <r>    5.7996    1.0000 </r>
       <r>   11.5588   -0.0000 </r>
       <r>   11.5588   -0.0000 </r>
       <r>   13.0276    0.0000 </r>
       <r>   13.0276    0.0000 </r>
       <r>   17.1762    0.0000 </r>
       <r>   17.1762    0.0000 </r>
       <r>   18.1728    0.0000 </r>
       <r>   18.1728    0.0000 </r>
      </set>
      <set comment="kpoint 20">
       <r>   -0.5547    1.0000 </r>
       <r>    2.8878    1.0000 </r>
       <r>    2.8878    1.0000 </r>
       <r>    3.0750    1.0000 </r>
       <r>    3.3708    1.0000 </r>
       <r>    3.3780    1.0000 </r>
       <r>    3.3780    1.0000 </r>
       <r>    4.1809    1.0000 </r>
       <r>    4.5706    1.0000 </r>
       <r>    4.5879    1.0000 </r>
       <r>    4.7147    1.0000 </r>
       <r>    4.7147    1.0000 </r>
       <r>    4.7436    1.0000 </r>
       <r>    5.1050    1.0000 </r>
       <r>    5.2952    1.0000 </r>
       <r>    5.3309    1.0000 </r>
       <r>    5.3537    1.0000 </r>
       <r>    5.3537    1.0000 </r>
       <r>    5.7821    1.0000 </r>
       <r>    5.7821    1.0000 </r>
       <r>    5.7833    1.0000 </r>
       <r>    7.9186   -0.0002 </r>
       <r>    7.9186   -0.0002 </r>
       <r>   10.0945   -0.0000 </r>
       <r>   14.1783    0.0000 </r>
       <r>   16.2761    0.0000 </r>
       <r>   16.6146    0.0000 </r>
       <r>   16.6146    0.0000 </r>
       <r>   18.5100    0.0000 </r>
       <r>   18.5100    0.0000 </r>
      </set>
      <set comment="kpoint 21">
       <r>    0.1166    1.0000 </r>
       <r>    2.6099    1.0000 </r>
       <r>    3.1603    1.0000 </r>
       <r>    3.2766    1.0000 </r>
       <r>    3.5049    1.0000 </r>
       <r>    3.5319    1.0000 </r>
       <r>    3.5439    1.0000 </r>
       <r>    4.0667    1.0000 </r>
       <r>    4.3094    1.0000 </r>
       <r>    4.4302    1.0000 </r>
       <r>    4.4545    1.0000 </r>
       <r>    4.5739    1.0000 </r>
       <r>    4.6690    1.0000 </r>
       <r>    5.0943    1.0000 </r>
       <r>    5.1624    1.0000 </r>
       <r>    5.1915    1.0000 </r>
       <r>    5.2366    1.0000 </r>
       <r>    5.4360    1.0000 </r>
       <r>    5.6873    1.0000 </r>
       <r>    5.7293    1.0000 </r>
       <r>    5.7299    1.0000 </r>
       <r>    6.6847    1.0000 </r>
       <r>    8.7532   -0.0000 </r>
       <r>   10.8953   -0.0000 </r>
       <r>   12.5964   -0.0000 </r>
       <r>   14.9568    0.0000 </r>
       <r>   16.7877    0.0000 </r>
       <r>   17.4242    0.0000 </r>
       <r>   19.0543    0.0000 </r>
       <r>   19.8304    0.0000 </r>
      </set>
      <set comment="kpoint 22">
       <r>    0.9822    1.0000 </r>
       <r>    1.9058    1.0000 </r>
       <r>    3.4193    1.0000 </r>
       <r>    3.4891    1.0000 </r>
       <r>    3.5764    1.0000 </r>
       <r>    3.6602    1.0000 </r>
       <r>    3.7161    1.0000 </r>
       <r>    3.9026    1.0000 </r>
       <r>    4.0638    1.0000 </r>
       <r>    4.1590    1.0000 </r>
       <r>    4.3927    1.0000 </r>
       <r>    4.4900    1.0000 </r>
       <r>    4.7924    1.0000 </r>
       <r>    4.9622    1.0000 </r>
       <r>    5.0885    1.0000 </r>
       <r>    5.1115    1.0000 </r>
       <r>    5.2452    1.0000 </r>
       <r>    5.5047    1.0000 </r>
       <r>    5.6314    1.0000 </r>
       <r>    5.6977    1.0000 </r>
       <r>    5.6980    1.0000 </r>
       <r>    5.9620    1.0000 </r>
       <r>    9.7278   -0.0000 </r>
       <r>   10.7995   -0.0000 </r>
       <r>   12.3618   -0.0000 </r>
       <r>   13.5167    0.0000 </r>
       <r>   17.5503    0.0000 </r>
       <r>   18.4869    0.0000 </r>
       <r>   18.5660    0.0000 </r>
       <r>   19.7759    0.0000 </r>
      </set>
      <set comment="kpoint 23">
       <r>    0.7404    1.0000 </r>
       <r>    2.9165    1.0000 </r>
       <r>    2.9165    1.0000 </r>
       <r>    3.3310    1.0000 </r>
       <r>    3.6374    1.0000 </r>
       <r>    3.6926    1.0000 </r>
       <r>    3.6926    1.0000 </r>
       <r>    4.0404    1.0000 </r>
       <r>    4.1864    1.0000 </r>
       <r>    4.1864    1.0000 </r>
       <r>    4.3203    1.0000 </r>
       <r>    4.5187    1.0000 </r>
       <r>    4.6864    1.0000 </r>
       <r>    5.0508    1.0000 </r>
       <r>    5.0766    1.0000 </r>
       <r>    5.0766    1.0000 </r>
       <r>    5.0910    1.0000 </r>
       <r>    5.6057    1.0000 </r>
       <r>    5.6057    1.0000 </r>
       <r>    5.6380    1.0000 </r>
       <r>    5.6453    1.0000 </r>
       <r>    7.3568    0.4747 </r>
       <r>    7.3568    0.4747 </r>
       <r>   10.4850   -0.0000 </r>
       <r>   12.1441   -0.0000 </r>
       <r>   15.7469    0.0000 </r>
       <r>   15.7469    0.0000 </r>
       <r>   17.3519    0.0000 </r>
       <r>   19.5594    0.0000 </r>
       <r>   20.5403    0.0000 </r>
      </set>
      <set comment="kpoint 24">
       <r>    1.5225    1.0000 </r>
       <r>    2.3210    1.0000 </r>
       <r>    3.1771    1.0000 </r>
       <r>    3.3101    1.0000 </r>
       <r>    3.7779    1.0000 </r>
       <r>    3.8382    1.0000 </r>
       <r>    3.8476    1.0000 </r>
       <r>    3.9660    1.0000 </r>
       <r>    4.0676    1.0000 </r>
       <r>    4.1872    1.0000 </r>
       <r>    4.2461    1.0000 </r>
       <r>    4.4041    1.0000 </r>
       <r>    4.7523    1.0000 </r>
       <r>    4.8937    1.0000 </r>
       <r>    4.9582    1.0000 </r>
       <r>    4.9808    1.0000 </r>
       <r>    5.2003    1.0000 </r>
       <r>    5.4140    1.0000 </r>
       <r>    5.5547    1.0000 </r>
       <r>    5.5677    1.0000 </r>
       <r>    5.9499    1.0000 </r>
       <r>    6.4489    1.0000 </r>
       <r>    8.1857   -0.0000 </r>
       <r>    9.2344   -0.0000 </r>
       <r>   13.0667    0.0000 </r>
       <r>   14.2923    0.0000 </r>
       <r>   16.7888    0.0000 </r>
       <r>   18.0623    0.0000 </r>
       <r>   18.1721    0.0000 </r>
       <r>   19.2495    0.0000 </r>
      </set>
      <set comment="kpoint 25">
       <r>    2.1549    1.0000 </r>
       <r>    2.7415    1.0000 </r>
       <r>    2.7415    1.0000 </r>
       <r>    3.0707    1.0000 </r>
       <r>    3.9832    1.0000 </r>
       <r>    4.0132    1.0000 </r>
       <r>    4.0132    1.0000 </r>
       <r>    4.0193    1.0000 </r>
       <r>    4.1386    1.0000 </r>
       <r>    4.1386    1.0000 </r>
       <r>    4.1551    1.0000 </r>
       <r>    4.3051    1.0000 </r>
       <r>    4.7377    1.0000 </r>
       <r>    4.8270    1.0000 </r>
       <r>    4.8270    1.0000 </r>
       <r>    4.8420    1.0000 </r>
       <r>    5.2321    1.0000 </r>
       <r>    5.3785    1.0000 </r>
       <r>    5.3785    1.0000 </r>
       <r>    5.4410    1.0000 </r>
       <r>    6.3919    1.0000 </r>
       <r>    7.0811    1.0335 </r>
       <r>    7.0811    1.0335 </r>
       <r>    7.9776   -0.0000 </r>
       <r>   14.0750    0.0000 </r>
       <r>   15.3176    0.0000 </r>
       <r>   15.3176    0.0000 </r>
       <r>   16.5756    0.0000 </r>
       <r>   19.0539    0.0000 </r>
       <r>   20.1915    0.0000 </r>
      </set>
      <set comment="kpoint 26">
       <r>   -0.1539    1.0000 </r>
       <r>    3.0181    1.0000 </r>
       <r>    3.0181    1.0000 </r>
       <r>    3.0181    1.0000 </r>
       <r>    3.4798    1.0000 </r>
       <r>    3.4798    1.0000 </r>
       <r>    3.4798    1.0000 </r>
       <r>    4.1726    1.0000 </r>
       <r>    4.5558    1.0000 </r>
       <r>    4.5558    1.0000 </r>
       <r>    4.5558    1.0000 </r>
       <r>    4.5701    1.0000 </r>
       <r>    4.5701    1.0000 </r>
       <r>    5.1572    1.0000 </r>
       <r>    5.1572    1.0000 </r>
       <r>    5.1572    1.0000 </r>
       <r>    5.2427    1.0000 </r>
       <r>    5.2427    1.0000 </r>
       <r>    5.8124    1.0000 </r>
       <r>    5.8124    1.0000 </r>
       <r>    5.8124    1.0000 </r>
       <r>    8.4109   -0.0000 </r>
       <r>    8.4109   -0.0000 </r>
       <r>    8.4109   -0.0000 </r>
       <r>   14.7028    0.0000 </r>
       <r>   14.7028    0.0000 </r>
       <r>   14.7028    0.0000 </r>
       <r>   18.8460    0.0000 </r>
       <r>   18.8460    0.0000 </r>
       <r>   18.8460    0.0000 </r>
      </set>
      <set comment="kpoint 27">
       <r>    0.4816    1.0000 </r>
       <r>    2.7384    1.0000 </r>
       <r>    3.1631    1.0000 </r>
       <r>    3.1631    1.0000 </r>
       <r>    3.6351    1.0000 </r>
       <r>    3.6351    1.0000 </r>
       <r>    3.6556    1.0000 </r>
       <r>    4.1177    1.0000 </r>
       <r>    4.3563    1.0000 </r>
       <r>    4.3563    1.0000 </r>
       <r>    4.3791    1.0000 </r>
       <r>    4.5524    1.0000 </r>
       <r>    4.5909    1.0000 </r>
       <r>    4.9661    1.0000 </r>
       <r>    5.0331    1.0000 </r>
       <r>    5.0331    1.0000 </r>
       <r>    5.2590    1.0000 </r>
       <r>    5.4092    1.0000 </r>
       <r>    5.7673    1.0000 </r>
       <r>    5.7673    1.0000 </r>
       <r>    5.7877    1.0000 </r>
       <r>    7.0085    1.0180 </r>
       <r>    9.0918   -0.0000 </r>
       <r>    9.0918   -0.0000 </r>
       <r>   13.0829    0.0000 </r>
       <r>   13.0829    0.0000 </r>
       <r>   15.4981    0.0000 </r>
       <r>   19.3219    0.0000 </r>
       <r>   19.4186    0.0000 </r>
       <r>   19.4186    0.0000 </r>
      </set>
      <set comment="kpoint 28">
       <r>    1.2843    1.0000 </r>
       <r>    2.1131    1.0000 </r>
       <r>    3.2666    1.0000 </r>
       <r>    3.2666    1.0000 </r>
       <r>    3.7324    1.0000 </r>
       <r>    3.7324    1.0000 </r>
       <r>    3.8472    1.0000 </r>
       <r>    4.0065    1.0000 </r>
       <r>    4.2628    1.0000 </r>
       <r>    4.2628    1.0000 </r>
       <r>    4.3569    1.0000 </r>
       <r>    4.4599    1.0000 </r>
       <r>    4.6661    1.0000 </r>
       <r>    4.7950    1.0000 </r>
       <r>    4.9465    1.0000 </r>
       <r>    4.9465    1.0000 </r>
       <r>    5.4984    1.0000 </r>
       <r>    5.5710    1.0000 </r>
       <r>    5.7035    1.0000 </r>
       <r>    5.7176    1.0000 </r>
       <r>    5.7176    1.0000 </r>
       <r>    6.0516    1.0000 </r>
       <r>    9.7868   -0.0000 </r>
       <r>    9.7868   -0.0000 </r>
       <r>   11.9165   -0.0000 </r>
       <r>   11.9165   -0.0000 </r>
       <r>   16.5440    0.0000 </r>
       <r>   17.8211    0.0000 </r>
       <r>   20.2251    0.0000 </r>
       <r>   20.2251    0.0000 </r>
      </set>
      <set comment="kpoint 29">
       <r>    1.0450    1.0000 </r>
       <r>    2.8724    1.0000 </r>
       <r>    2.8724    1.0000 </r>
       <r>    3.1193    1.0000 </r>
       <r>    3.7969    1.0000 </r>
       <r>    3.8482    1.0000 </r>
       <r>    3.8482    1.0000 </r>
       <r>    4.1765    1.0000 </r>
       <r>    4.3072    1.0000 </r>
       <r>    4.3072    1.0000 </r>
       <r>    4.3998    1.0000 </r>
       <r>    4.5152    1.0000 </r>
       <r>    4.5578    1.0000 </r>
       <r>    4.8545    1.0000 </r>
       <r>    4.8545    1.0000 </r>
       <r>    4.8700    1.0000 </r>
       <r>    5.3049    1.0000 </r>
       <r>    5.5643    1.0000 </r>
       <r>    5.7365    1.0000 </r>
       <r>    5.7513    1.0000 </r>
       <r>    5.7513    1.0000 </r>
       <r>    7.5464   -0.0227 </r>
       <r>    7.5464   -0.0227 </r>
       <r>    9.4044   -0.0000 </r>
       <r>   11.7533   -0.0000 </r>
       <r>   13.8439    0.0000 </r>
       <r>   13.8439    0.0000 </r>
       <r>   17.5967    0.0000 </r>
       <r>   20.0174    0.0000 </r>
       <r>   22.3596    0.0000 </r>
      </set>
      <set comment="kpoint 30">
       <r>    1.7217    1.0000 </r>
       <r>    2.3755    1.0000 </r>
       <r>    2.9751    1.0000 </r>
       <r>    3.0537    1.0000 </r>
       <r>    3.9237    1.0000 </r>
       <r>    3.9583    1.0000 </r>
       <r>    4.0734    1.0000 </r>
       <r>    4.1884    1.0000 </r>
       <r>    4.3190    1.0000 </r>
       <r>    4.3563    1.0000 </r>
       <r>    4.4180    1.0000 </r>
       <r>    4.4241    1.0000 </r>
       <r>    4.5921    1.0000 </r>
       <r>    4.6979    1.0000 </r>
       <r>    4.7793    1.0000 </r>
       <r>    4.7848    1.0000 </r>
       <r>    5.4450    1.0000 </r>
       <r>    5.6484    1.0000 </r>
       <r>    5.6824    1.0000 </r>
       <r>    5.6854    1.0000 </r>
       <r>    5.8480    1.0000 </r>
       <r>    6.4417    1.0000 </r>
       <r>    8.2587   -0.0000 </r>
       <r>    9.0565   -0.0000 </r>
       <r>   11.6287   -0.0000 </r>
       <r>   12.5113   -0.0000 </r>
       <r>   14.8570    0.0000 </r>
       <r>   16.1088    0.0000 </r>
       <r>   20.8630    0.0000 </r>
       <r>   21.9244    0.0000 </r>
      </set>
      <set comment="kpoint 31">
       <r>    2.1970    1.0000 </r>
       <r>    2.6227    1.0000 </r>
       <r>    2.6227    1.0000 </r>
       <r>    2.8419    1.0000 </r>
       <r>    4.1003    1.0000 </r>
       <r>    4.1905    1.0000 </r>
       <r>    4.1905    1.0000 </r>
       <r>    4.3509    1.0000 </r>
       <r>    4.3771    1.0000 </r>
       <r>    4.4149    1.0000 </r>
       <r>    4.4149    1.0000 </r>
       <r>    4.5101    1.0000 </r>
       <r>    4.5661    1.0000 </r>
       <r>    4.6458    1.0000 </r>
       <r>    4.6458    1.0000 </r>
       <r>    4.6625    1.0000 </r>
       <r>    5.4423    1.0000 </r>
       <r>    5.5731    1.0000 </r>
       <r>    5.5731    1.0000 </r>
       <r>    5.6017    1.0000 </r>
       <r>    6.2833    1.0000 </r>
       <r>    7.0431    1.0259 </r>
       <r>    7.0431    1.0259 </r>
       <r>    7.9287   -0.0002 </r>
       <r>   12.3391   -0.0000 </r>
       <r>   13.4486    0.0000 </r>
       <r>   13.4486    0.0000 </r>
       <r>   14.6508    0.0000 </r>
       <r>   21.7467    0.0000 </r>
       <r>   22.8662    0.0000 </r>
      </set>
      <set comment="kpoint 32">
       <r>    1.4901    1.0000 </r>
       <r>    2.8167    1.0000 </r>
       <r>    2.8167    1.0000 </r>
       <r>    2.8167    1.0000 </r>
       <r>    4.0238    1.0000 </r>
       <r>    4.0238    1.0000 </r>
       <r>    4.0238    1.0000 </r>
       <r>    4.4122    1.0000 </r>
       <r>    4.4896    1.0000 </r>
       <r>    4.4896    1.0000 </r>
       <r>    4.4918    1.0000 </r>
       <r>    4.4918    1.0000 </r>
       <r>    4.4918    1.0000 </r>
       <r>    4.6948    1.0000 </r>
       <r>    4.6948    1.0000 </r>
       <r>    4.6948    1.0000 </r>
       <r>    5.5036    1.0000 </r>
       <r>    5.5036    1.0000 </r>
       <r>    5.7845    1.0000 </r>
       <r>    5.7845    1.0000 </r>
       <r>    5.7845    1.0000 </r>
       <r>    7.8516   -0.0011 </r>
       <r>    7.8516   -0.0011 </r>
       <r>    7.8516   -0.0011 </r>
       <r>   12.3193   -0.0000 </r>
       <r>   12.3193   -0.0000 </r>
       <r>   12.3193   -0.0000 </r>
       <r>   15.8830    0.0000 </r>
       <r>   22.9712    0.0000 </r>
       <r>   22.9712    0.0000 </r>
      </set>
      <set comment="kpoint 33">
       <r>    1.9838    1.0000 </r>
       <r>    2.4377    1.0000 </r>
       <r>    2.7800    1.0000 </r>
       <r>    2.7800    1.0000 </r>
       <r>    4.1149    1.0000 </r>
       <r>    4.1149    1.0000 </r>
       <r>    4.2543    1.0000 </r>
       <r>    4.4143    1.0000 </r>
       <r>    4.4909    1.0000 </r>
       <r>    4.5622    1.0000 </r>
       <r>    4.5803    1.0000 </r>
       <r>    4.6025    1.0000 </r>
       <r>    4.6102    1.0000 </r>
       <r>    4.6102    1.0000 </r>
       <r>    4.6820    1.0000 </r>
       <r>    4.6820    1.0000 </r>
       <r>    5.6619    1.0000 </r>
       <r>    5.7342    1.0000 </r>
       <r>    5.7448    1.0000 </r>
       <r>    5.7448    1.0000 </r>
       <r>    5.7597    1.0000 </r>
       <r>    6.5577    1.0000 </r>
       <r>    8.1486   -0.0000 </r>
       <r>    8.1486   -0.0000 </r>
       <r>   11.3837   -0.0000 </r>
       <r>   11.3837   -0.0000 </r>
       <r>   13.2379    0.0000 </r>
       <r>   14.4294    0.0000 </r>
       <r>   23.7630    0.0000 </r>
       <r>   23.7630    0.0000 </r>
      </set>
      <set comment="kpoint 34">
       <r>    2.2526    1.0000 </r>
       <r>    2.5143    1.0000 </r>
       <r>    2.5143    1.0000 </r>
       <r>    2.6246    1.0000 </r>
       <r>    4.2366    1.0000 </r>
       <r>    4.2844    1.0000 </r>
       <r>    4.2844    1.0000 </r>
       <r>    4.3906    1.0000 </r>
       <r>    4.4456    1.0000 </r>
       <r>    4.4942    1.0000 </r>
       <r>    4.4942    1.0000 </r>
       <r>    4.5104    1.0000 </r>
       <r>    4.9244    1.0000 </r>
       <r>    4.9244    1.0000 </r>
       <r>    4.9402    1.0000 </r>
       <r>    4.9973    1.0000 </r>
       <r>    5.6183    1.0000 </r>
       <r>    5.7188    1.0000 </r>
       <r>    5.7188    1.0000 </r>
       <r>    5.7211    1.0000 </r>
       <r>    6.0874    1.0000 </r>
       <r>    6.9546    1.0085 </r>
       <r>    6.9546    1.0085 </r>
       <r>    7.6054   -0.0351 </r>
       <r>   11.2806   -0.0000 </r>
       <r>   12.0028   -0.0000 </r>
       <r>   12.0028   -0.0000 </r>
       <r>   13.0513    0.0000 </r>
       <r>   24.6283    0.0000 </r>
       <r>   25.6471    0.0000 </r>
      </set>
      <set comment="kpoint 35">
       <r>    2.3317    1.0000 </r>
       <r>    2.4527    1.0000 </r>
       <r>    2.4527    1.0000 </r>
       <r>    2.4527    1.0000 </r>
       <r>    4.3423    1.0000 </r>
       <r>    4.3423    1.0000 </r>
       <r>    4.3423    1.0000 </r>
       <r>    4.3937    1.0000 </r>
       <r>    4.3937    1.0000 </r>
       <r>    4.4163    1.0000 </r>
       <r>    4.4163    1.0000 </r>
       <r>    4.4163    1.0000 </r>
       <r>    5.3828    1.0000 </r>
       <r>    5.3828    1.0000 </r>
       <r>    5.3828    1.0000 </r>
       <r>    5.7324    1.0000 </r>
       <r>    5.7324    1.0000 </r>
       <r>    5.7679    1.0000 </r>
       <r>    5.7679    1.0000 </r>
       <r>    5.7679    1.0000 </r>
       <r>    5.9074    1.0000 </r>
       <r>    6.8276    1.0007 </r>
       <r>    6.8276    1.0007 </r>
       <r>    6.8276    1.0007 </r>
       <r>   11.1832   -0.0000 </r>
       <r>   11.1832   -0.0000 </r>
       <r>   11.1832   -0.0000 </r>
       <r>   11.8556   -0.0000 </r>
       <r>   27.3814    0.0000 </r>
       <r>   27.3814    0.0000 </r>
      </set>
     </set>
    </set>
   </array>
  </eigenvalues>
  <separator name="orbital magnetization" >
   <v name="MAGDIPOLOUT">      0.00000000      0.00000000      0.00000000</v>
  </separator>
  <dos>
   <i name="efermi">      7.35081176 </i>
   <total>
    <array>
     <dimension dim="1">gridpoints</dimension>
     <dimension dim="2">spin</dimension>
     <field>energy</field>
     <field>total</field>
     <field>integrated</field>
     <set>
      <set comment="spin 1">
       <r>    -3.8462     0.0000     0.0000 </r>
       <r>    -3.7355     0.0000     0.0000 </r>
       <r>    -3.6247     0.0000     0.0000 </r>
       <r>    -3.5140    -0.0000    -0.0000 </r>
       <r>    -3.4032    -0.0000    -0.0000 </r>
       <r>    -3.2924    -0.0000    -0.0000 </r>
       <r>    -3.1817    -0.0000    -0.0000 </r>
       <r>    -3.0709    -0.0000    -0.0000 </r>
       <r>    -2.9602    -0.0000    -0.0000 </r>
       <r>    -2.8494    -0.0000    -0.0000 </r>
       <r>    -2.7386    -0.0000    -0.0000 </r>
       <r>    -2.6279    -0.0000    -0.0000 </r>
       <r>    -2.5171    -0.0000    -0.0000 </r>
       <r>    -2.4064    -0.0000    -0.0000 </r>
       <r>    -2.2956    -0.0001    -0.0000 </r>
       <r>    -2.1849    -0.0006    -0.0001 </r>
       <r>    -2.0741    -0.0021    -0.0003 </r>
       <r>    -1.9633    -0.0021    -0.0005 </r>
       <r>    -1.8526     0.0104     0.0006 </r>
       <r>    -1.7418     0.0539     0.0066 </r>
       <r>    -1.6311     0.1273     0.0207 </r>
       <r>    -1.5203     0.1835     0.0410 </r>
       <r>    -1.4095     0.1728     0.0601 </r>
       <r>    -1.2988     0.1435     0.0760 </r>
       <r>    -1.1880     0.2174     0.1001 </r>
       <r>    -1.0773     0.3795     0.1421 </r>
       <r>    -0.9665     0.4188     0.1885 </r>
       <r>    -0.8557     0.2542     0.2167 </r>
       <r>    -0.7450     0.1331     0.2314 </r>
       <r>    -0.6342     0.2568     0.2599 </r>
       <r>    -0.5235     0.4611     0.3109 </r>
       <r>    -0.4127     0.5356     0.3703 </r>
       <r>    -0.3020     0.4858     0.4241 </r>
       <r>    -0.1912     0.3673     0.4647 </r>
       <r>    -0.0804     0.3247     0.5007 </r>
       <r>     0.0303     0.5239     0.5587 </r>
       <r>     0.1411     0.6697     0.6329 </r>
       <r>     0.2518     0.4247     0.6800 </r>
       <r>     0.3626     0.2246     0.7048 </r>
       <r>     0.4734     0.4811     0.7581 </r>
       <r>     0.5841     0.7872     0.8453 </r>
       <r>     0.6949     0.7670     0.9303 </r>
       <r>     0.8056     0.6379     1.0009 </r>
       <r>     0.9164     0.7511     1.0841 </r>
       <r>     1.0272     0.8987     1.1836 </r>
       <r>     1.1379     0.6237     1.2527 </r>
       <r>     1.2487     0.2939     1.2853 </r>
       <r>     1.3594     0.4609     1.3363 </r>
       <r>     1.4702     1.0293     1.4503 </r>
       <r>     1.5809     1.3769     1.6028 </r>
       <r>     1.6917     1.2057     1.7364 </r>
       <r>     1.8025     1.0336     1.8509 </r>
       <r>     1.9132     1.0169     1.9635 </r>
       <r>     2.0240     0.9436     2.0680 </r>
       <r>     2.1347     1.1345     2.1937 </r>
       <r>     2.2455     1.8695     2.4007 </r>
       <r>     2.3563     2.5453     2.6827 </r>
       <r>     2.4670     2.6910     2.9807 </r>
       <r>     2.5778     3.0323     3.3166 </r>
       <r>     2.6885     3.9441     3.7534 </r>
       <r>     2.7993     4.8800     4.2939 </r>
       <r>     2.9101     5.3135     4.8824 </r>
       <r>     3.0208     5.2857     5.4679 </r>
       <r>     3.1316     6.2679     6.1621 </r>
       <r>     3.2423     8.1324     7.0628 </r>
       <r>     3.3531     9.2475     8.0871 </r>
       <r>     3.4639     9.4350     9.1321 </r>
       <r>     3.5746     8.9771    10.1264 </r>
       <r>     3.6854     8.5435    11.0726 </r>
       <r>     3.7961     8.5493    12.0195 </r>
       <r>     3.9069     8.9791    13.0140 </r>
       <r>     4.0176    10.4156    14.1677 </r>
       <r>     4.1284    12.3450    15.5350 </r>
       <r>     4.2392    13.1465    16.9911 </r>
       <r>     4.3499    14.2343    18.5677 </r>
       <r>     4.4607    16.7213    20.4197 </r>
       <r>     4.5714    17.7529    22.3860 </r>
       <r>     4.6822    15.4854    24.1011 </r>
       <r>     4.7930    12.0680    25.4378 </r>
       <r>     4.9037    10.9578    26.6514 </r>
       <r>     5.0145    12.6005    28.0471 </r>
       <r>     5.1252    14.4173    29.6439 </r>
       <r>     5.2360    14.6638    31.2680 </r>
       <r>     5.3468    13.6363    32.7784 </r>
       <r>     5.4575    13.2275    34.2434 </r>
       <r>     5.5683    14.9405    35.8982 </r>
       <r>     5.6790    18.4640    37.9433 </r>
       <r>     5.7898    19.1135    40.0603 </r>
       <r>     5.9005    13.3041    41.5338 </r>
       <r>     6.0113     5.8582    42.1827 </r>
       <r>     6.1221     1.6709    42.3677 </r>
       <r>     6.2328     0.4560    42.4183 </r>
       <r>     6.3436     0.8633    42.5139 </r>
       <r>     6.4543     1.8330    42.7169 </r>
       <r>     6.5651     2.0098    42.9395 </r>
       <r>     6.6759     1.3282    43.0866 </r>
       <r>     6.7866     0.7763    43.1726 </r>
       <r>     6.8974     1.0062    43.2840 </r>
       <r>     7.0081     1.8656    43.4907 </r>
       <r>     7.1189     2.0750    43.7205 </r>
       <r>     7.2297     1.4157    43.8773 </r>
       <r>     7.3404     1.0177    43.9900 </r>
       <r>     7.4512     0.9263    44.0926 </r>
       <r>     7.5619     0.8667    44.1886 </r>
       <r>     7.6727     0.7739    44.2743 </r>
       <r>     7.7834     0.7522    44.3576 </r>
       <r>     7.8942     1.1385    44.4837 </r>
       <r>     8.0050     1.5044    44.6504 </r>
       <r>     8.1157     1.6673    44.8350 </r>
       <r>     8.2265     1.8092    45.0354 </r>
       <r>     8.3372     1.4543    45.1965 </r>
       <r>     8.4480     0.8143    45.2867 </r>
       <r>     8.5588     0.4943    45.3414 </r>
       <r>     8.6695     0.6781    45.4165 </r>
       <r>     8.7803     0.8762    45.5136 </r>
       <r>     8.8910     0.6101    45.5811 </r>
       <r>     9.0018     0.6213    45.6500 </r>
       <r>     9.1126     1.2748    45.7912 </r>
       <r>     9.2233     1.6999    45.9794 </r>
       <r>     9.3341     1.4481    46.1398 </r>
       <r>     9.4448     1.0191    46.2527 </r>
       <r>     9.5556     0.8806    46.3502 </r>
       <r>     9.6663     1.0597    46.4676 </r>
       <r>     9.7771     1.2405    46.6050 </r>
       <r>     9.8879     0.8474    46.6989 </r>
       <r>     9.9986     0.2994    46.7320 </r>
       <r>    10.1094     0.2614    46.7610 </r>
       <r>    10.2201     0.4255    46.8081 </r>
       <r>    10.3309     0.6118    46.8759 </r>
       <r>    10.4417     1.0028    46.9869 </r>
       <r>    10.5524     1.0711    47.1056 </r>
       <r>    10.6632     0.6554    47.1782 </r>
       <r>    10.7739     0.7465    47.2608 </r>
       <r>    10.8847     1.1619    47.3895 </r>
       <r>    10.9955     0.8665    47.4855 </r>
       <r>    11.1062     0.3731    47.5268 </r>
       <r>    11.2170     0.5062    47.5829 </r>
       <r>    11.3277     0.9408    47.6871 </r>
       <r>    11.4385     1.2684    47.8276 </r>
       <r>    11.5493     1.4949    47.9932 </r>
       <r>    11.6600     1.4691    48.1559 </r>
       <r>    11.7708     1.0509    48.2723 </r>
       <r>    11.8815     0.8676    48.3684 </r>
       <r>    11.9923     1.0106    48.4803 </r>
       <r>    12.1030     0.9157    48.5817 </r>
       <r>    12.2138     0.9755    48.6898 </r>
       <r>    12.3246     1.4598    48.8515 </r>
       <r>    12.4353     1.5960    49.0282 </r>
       <r>    12.5461     1.3078    49.1731 </r>
       <r>    12.6568     0.9804    49.2817 </r>
       <r>    12.7676     0.6003    49.3482 </r>
       <r>    12.8784     0.5258    49.4064 </r>
       <r>    12.9891     1.2882    49.5491 </r>
       <r>    13.0999     2.0609    49.7773 </r>
       <r>    13.2106     1.5612    49.9503 </r>
       <r>    13.3214     0.7301    50.0311 </r>
       <r>    13.4322     0.8019    50.1199 </r>
       <r>    13.5429     1.1601    50.2484 </r>
       <r>    13.6537     0.8478    50.3423 </r>
       <r>    13.7644     0.4494    50.3921 </r>
       <r>    13.8752     0.5346    50.4513 </r>
       <r>    13.9859     0.5674    50.5142 </r>
       <r>    14.0967     0.5737    50.5777 </r>
       <r>    14.2075     0.9017    50.6776 </r>
       <r>    14.3182     1.3672    50.8290 </r>
       <r>    14.4290     1.7937    51.0277 </r>
       <r>    14.5397     1.8546    51.2331 </r>
       <r>    14.6505     1.4324    51.3918 </r>
       <r>    14.7613     1.0616    51.5093 </r>
       <r>    14.8720     1.1355    51.6351 </r>
       <r>    14.9828     1.3884    51.7889 </r>
       <r>    15.0935     1.1609    51.9175 </r>
       <r>    15.2043     0.7318    51.9985 </r>
       <r>    15.3151     0.7702    52.0838 </r>
       <r>    15.4258     0.9287    52.1867 </r>
       <r>    15.5366     0.9775    52.2949 </r>
       <r>    15.6473     1.2244    52.4306 </r>
       <r>    15.7581     1.5984    52.6076 </r>
       <r>    15.8688     1.9635    52.8251 </r>
       <r>    15.9796     1.9700    53.0433 </r>
       <r>    16.0904     1.6430    53.2253 </r>
       <r>    16.2011     1.6044    53.4030 </r>
       <r>    16.3119     1.6538    53.5861 </r>
       <r>    16.4226     1.5818    53.7613 </r>
       <r>    16.5334     1.5973    53.9382 </r>
       <r>    16.6442     1.7725    54.1346 </r>
       <r>    16.7549     1.8855    54.3434 </r>
       <r>    16.8657     1.4257    54.5013 </r>
       <r>    16.9764     0.7084    54.5798 </r>
       <r>    17.0872     0.7035    54.6577 </r>
       <r>    17.1980     1.0948    54.7790 </r>
       <r>    17.3087     1.3254    54.9257 </r>
       <r>    17.4195     1.6004    55.1030 </r>
       <r>    17.5302     1.7062    55.2920 </r>
       <r>    17.6410     1.3264    55.4389 </r>
       <r>    17.7517     0.9324    55.5422 </r>
       <r>    17.8625     1.0131    55.6544 </r>
       <r>    17.9733     1.4440    55.8143 </r>
       <r>    18.0840     2.0945    56.0463 </r>
       <r>    18.1948     2.2716    56.2979 </r>
       <r>    18.3055     1.5602    56.4707 </r>
       <r>    18.4163     1.5057    56.6375 </r>
       <r>    18.5271     2.4484    56.9087 </r>
       <r>    18.6378     2.3379    57.1676 </r>
       <r>    18.7486     1.1017    57.2896 </r>
       <r>    18.8593     0.4235    57.3365 </r>
       <r>    18.9701     0.6536    57.4089 </r>
       <r>    19.0809     1.0882    57.5295 </r>
       <r>    19.1916     1.4519    57.6903 </r>
       <r>    19.3024     1.9421    57.9054 </r>
       <r>    19.4131     2.0566    58.1332 </r>
       <r>    19.5239     1.5154    58.3010 </r>
       <r>    19.6347     1.0619    58.4186 </r>
       <r>    19.7454     1.2231    58.5541 </r>
       <r>    19.8562     1.3473    58.7033 </r>
       <r>    19.9669     0.8512    58.7976 </r>
       <r>    20.0777     0.4851    58.8513 </r>
       <r>    20.1884     0.7061    58.9295 </r>
       <r>    20.2992     0.8946    59.0286 </r>
       <r>    20.4100     0.6795    59.1039 </r>
       <r>    20.5207     0.4162    59.1500 </r>
       <r>    20.6315     0.2433    59.1769 </r>
       <r>    20.7422     0.2179    59.2011 </r>
       <r>    20.8530     0.4416    59.2500 </r>
       <r>    20.9638     0.4800    59.3031 </r>
       <r>    21.0745     0.1849    59.3236 </r>
       <r>    21.1853    -0.0094    59.3226 </r>
       <r>    21.2960    -0.0233    59.3200 </r>
       <r>    21.4068    -0.0149    59.3183 </r>
       <r>    21.5176    -0.0174    59.3164 </r>
       <r>    21.6283     0.0448    59.3214 </r>
       <r>    21.7391     0.2436    59.3483 </r>
       <r>    21.8498     0.5092    59.4047 </r>
       <r>    21.9606     0.6129    59.4726 </r>
       <r>    22.0713     0.3632    59.5129 </r>
       <r>    22.1821     0.0774    59.5214 </r>
       <r>    22.2929     0.1161    59.5343 </r>
       <r>    22.4036     0.2510    59.5621 </r>
       <r>    22.5144     0.1682    59.5807 </r>
       <r>    22.6251     0.0129    59.5821 </r>
       <r>    22.7359     0.0352    59.5860 </r>
       <r>    22.8467     0.2495    59.6137 </r>
       <r>    22.9574     0.4005    59.6580 </r>
       <r>    23.0682     0.2739    59.6884 </r>
       <r>    23.1789     0.0652    59.6956 </r>
       <r>    23.2897    -0.0159    59.6938 </r>
       <r>    23.4005    -0.0244    59.6911 </r>
       <r>    23.5112    -0.0274    59.6881 </r>
       <r>    23.6220     0.0873    59.6978 </r>
       <r>    23.7327     0.3985    59.7419 </r>
       <r>    23.8435     0.5213    59.7996 </r>
       <r>    23.9542     0.2474    59.8270 </r>
       <r>    24.0650     0.0085    59.8280 </r>
       <r>    24.1758    -0.0264    59.8251 </r>
       <r>    24.2865    -0.0158    59.8233 </r>
       <r>    24.3973    -0.0105    59.8221 </r>
       <r>    24.5080     0.0678    59.8296 </r>
       <r>    24.6188     0.2262    59.8547 </r>
       <r>    24.7296     0.2459    59.8819 </r>
       <r>    24.8403     0.0932    59.8923 </r>
       <r>    24.9511    -0.0047    59.8917 </r>
       <r>    25.0618    -0.0107    59.8905 </r>
       <r>    25.1726    -0.0035    59.8902 </r>
       <r>    25.2834    -0.0072    59.8894 </r>
       <r>    25.3941    -0.0128    59.8879 </r>
       <r>    25.5049     0.0425    59.8926 </r>
       <r>    25.6156     0.1976    59.9145 </r>
       <r>    25.7264     0.2612    59.9435 </r>
       <r>    25.8372     0.1255    59.9574 </r>
       <r>    25.9479     0.0049    59.9579 </r>
       <r>    26.0587    -0.0124    59.9565 </r>
       <r>    26.1694    -0.0035    59.9561 </r>
       <r>    26.2802    -0.0004    59.9561 </r>
       <r>    26.3909    -0.0000    59.9561 </r>
       <r>    26.5017    -0.0000    59.9561 </r>
       <r>    26.6125    -0.0000    59.9561 </r>
       <r>    26.7232    -0.0000    59.9561 </r>
       <r>    26.8340    -0.0001    59.9561 </r>
       <r>    26.9447    -0.0015    59.9559 </r>
       <r>    27.0555    -0.0069    59.9552 </r>
       <r>    27.1663    -0.0038    59.9547 </r>
       <r>    27.2770     0.0592    59.9613 </r>
       <r>    27.3878     0.1620    59.9792 </r>
       <r>    27.4985     0.1532    59.9962 </r>
       <r>    27.6093     0.0479    60.0015 </r>
       <r>    27.7201    -0.0061    60.0008 </r>
       <r>    27.8308    -0.0062    60.0001 </r>
       <r>    27.9416    -0.0012    60.0000 </r>
       <r>    28.0523    -0.0001    60.0000 </r>
       <r>    28.1631    -0.0000    60.0000 </r>
       <r>    28.2738    -0.0000    60.0000 </r>
       <r>    28.3846    -0.0000    60.0000 </r>
       <r>    28.4954    -0.0000    60.0000 </r>
       <r>    28.6061    -0.0000    60.0000 </r>
       <r>    28.7169     0.0000    60.0000 </r>
       <r>    28.8276     0.0000    60.0000 </r>
       <r>    28.9384     0.0000    60.0000 </r>
       <r>    29.0492     0.0000    60.0000 </r>
       <r>    29.1599     0.0000    60.0000 </r>
       <r>    29.2707     0.0000    60.0000 </r>
       <r>    29.3814     0.0000    60.0000 </r>
      </set>
     </set>
    </array>
   </total>
  </dos>
 </calculation>
 <structure name="finalpos" >
  <crystal>
   <varray name="basis" >
    <v>       3.63500000       0.00000000       0.00000000 </v>
    <v>       0.00000000       3.63500000       0.00000000 </v>
    <v>       0.00000000       0.00000000       3.63500000 </v>
   </varray>
   <i name="volume">     48.03007287 </i>
   <varray name="rec_basis" >
    <v>       0.27510316       0.00000000       0.00000000 </v>
    <v>       0.00000000       0.27510316       0.00000000 </v>
    <v>       0.00000000       0.00000000       0.27510316 </v>
   </varray>
  </crystal>
  <varray name="positions" >
   <v>       0.00000000       0.00000000       0.00000000 </v>
   <v>       0.50000000       0.50000000       0.00000000 </v>
   <v>       0.50000000       0.00000000       0.50000000 </v>
   <v>       0.00000000       0.50000000       0.50000000 </v>
  </varray>
 </structure>
</modeling>
