unknown system                          
   1.00000000000000     
     3.866000    0.000000    0.000000
     0.000000    3.866000    0.000000
     0.000000    0.000000    3.866000
   Pd   Ir   Pt   Cu
     1     1     1     1
Direct
  0.000000  0.000000  0.000000
  0.500000  0.500000  0.000000
  0.500000  0.000000  0.500000
  0.000000  0.500000  0.500000
 
   20   20   20
  280.54      253.19      190.00      125.24      78.905      52.183      32.709      14.635      8.5836      13.545    
  17.541      13.545      8.5836      14.635      32.709      52.183      78.905      125.24      190.00      253.19    
  252.87      228.17      171.47      113.99      73.040      48.965      30.513      13.685      7.7573      11.480    
  14.677      11.480      7.7573      13.685      30.513      48.965      73.040      113.99      171.47      228.17    
  188.67      170.55      129.63      89.036      59.999      41.435      25.461      12.436      7.8539      9.7087    
  11.485      9.7087      7.8539      12.436      25.461      41.435      59.999      89.036      129.63      170.55    
  123.43      112.65      88.646      64.953      46.974      33.223      21.133      14.188      13.374      15.628    
  16.962      15.628      13.374      14.188      21.133      33.223      46.974      64.953      88.646      112.65    
  78.126      72.594      60.124      47.229      36.190      26.538      20.762      20.739      24.839      29.580    
  31.621      29.580      24.839      20.739      20.762      26.538      36.190      47.229      60.124      72.594    
  52.048      48.919      41.534      33.374      26.654      23.588      25.152      30.892      39.216      46.829    
  49.949      46.829      39.216      30.892      25.152      23.588      26.654      33.374      41.534      48.919    
  31.752      29.549      24.588      20.595      20.690      25.334      33.235      43.413      54.416      63.595    
  67.284      63.595      54.416      43.413      33.235      25.334      20.690      20.595      24.588      29.549    
  13.075      11.996      10.669      12.877      20.365      31.263      43.768      56.557      68.839      78.787    
  82.793      78.787      68.839      56.557      43.768      31.263      20.365      12.877      10.669      11.996    
  7.4529      6.2982      5.9293      11.731      24.322      39.668      54.846      68.846      82.443      94.205    
  99.143      94.205      82.443      68.846      54.846      39.668      24.322      11.731      5.9293      6.2982    
  13.472      10.883      8.2263      14.107      29.109      47.248      63.813      78.466      93.870      108.48    
  114.88      108.48      93.870      78.466      63.813      47.248      29.109      14.107      8.2263      10.883    
  18.023      14.553      10.293      15.572      31.202      50.333      67.362      82.282      98.626      114.71    
  121.84      114.71      98.626      82.282      67.362      50.333      31.202      15.572      10.293      14.553    
  13.472      10.883      8.2263      14.107      29.109      47.248      63.813      78.466      93.870      108.48    
  114.88      108.48      93.870      78.466      63.813      47.248      29.109      14.107      8.2263      10.883    
  7.4529      6.2982      5.9293      11.731      24.322      39.668      54.846      68.846      82.443      94.205    
  99.143      94.205      82.443      68.846      54.846      39.668      24.322      11.731      5.9293      6.2982    
  13.075      11.996      10.669      12.877      20.365      31.263      43.768      56.557      68.839      78.787    
  82.793      78.787      68.839      56.557      43.768      31.263      20.365      12.877      10.669      11.996    
  31.752      29.549      24.588      20.595      20.690      25.334      33.235      43.413      54.416      63.595    
  67.284      63.595      54.416      43.413      33.235      25.334      20.690      20.595      24.588      29.549    
  52.048      48.919      41.534      33.374      26.654      23.588      25.152      30.892      39.216      46.829    
  49.949      46.829      39.216      30.892      25.152      23.588      26.654      33.374      41.534      48.919    
  78.126      72.594      60.124      47.229      36.190      26.538      20.762      20.739      24.839      29.580    
  31.621      29.580      24.839      20.739      20.762      26.538      36.190      47.229      60.124      72.594    
  123.43      112.65      88.646      64.953      46.974      33.223      21.133      14.188      13.374      15.628    
  16.962      15.628      13.374      14.188      21.133      33.223      46.974      64.953      88.646      112.65    
  188.67      170.55      129.63      89.036      59.999      41.435      25.461      12.436      7.8539      9.7087    
  11.485      9.7087      7.8539      12.436      25.461      41.435      59.999      89.036      129.63      170.55    
  252.87      228.17      171.47      113.99      73.040      48.965      30.513      13.685      7.7573      11.480    
  14.677      11.480      7.7573      13.685      30.513      48.965      73.040      113.99      171.47      228.17    
  252.91      228.31      171.75      114.20      73.085      48.928      30.462      13.566      7.4722      10.999    
  14.107      10.999      7.4722      13.566      30.462      48.928      73.085      114.20      171.75      228.31    
  228.72      206.54      155.81      104.61      68.049      46.044      28.468      12.817      6.9625      9.5026    
  11.949      9.5026      6.9625      12.817      28.468      46.044      68.049      104.61      155.81      206.54    
  172.29      156.07      119.48      83.074      56.655      39.190      23.883      11.901      7.5185      8.6736    
  9.9834      8.6736      7.5185      11.901      23.883      39.190      56.655      83.074      119.48      156.07    
  114.17      104.55      83.037      61.533      44.772      31.461      19.975      13.651      12.865      14.686    
  15.759      14.686      12.865      13.651      19.975      31.461      44.772      61.533      83.037      104.55    
  73.032      68.040      56.707      44.789      34.307      25.077      19.747      19.814      23.593      27.854    
  29.670      27.854      23.593      19.814      19.747      25.077      34.307      44.789      56.707      68.040    
  49.032      46.104      39.129      31.292      24.941      22.266      24.016      29.503      37.172      44.078    
  46.891      44.078      37.172      29.503      24.016      22.266      24.941      31.292      39.129      46.104    
  30.289      28.226      23.509      19.559      19.455      23.927      31.716      41.603      51.928      60.260    
  63.550      60.260      51.928      41.603      31.716      23.927      19.455      19.559      23.509      28.226    
  13.248      12.427      11.384      13.137      19.516      29.494      41.686      54.417      66.161      75.126    
  78.614      75.126      66.161      54.417      41.686      29.494      19.516      13.137      11.384      12.427    
  7.0918      6.5267      7.0057      12.431      23.471      37.363      52.156      66.312      79.356      89.805    
  94.018      89.805      79.356      66.312      52.156      37.363      23.471      12.431      7.0057      6.5267    
  10.539      9.0241      8.2068      14.398      27.956      44.456      60.616      75.479      90.121      102.97    
  108.40      102.97      90.121      75.479      60.616      44.456      27.956      14.398      8.2068      9.0241    
  13.602      11.445      9.5374      15.540      29.871      47.343      63.960      79.078      94.529      108.63    
  114.69      108.63      94.529      79.078      63.960      47.343      29.871      15.540      9.5374      11.445    
  10.539      9.0241      8.2068      14.398      27.956      44.456      60.616      75.479      90.121      102.97    
  108.40      102.97      90.121      75.479      60.616      44.456      27.956      14.398      8.2068      9.0241    
  7.0918      6.5267      7.0057      12.431      23.471      37.363      52.156      66.312      79.356      89.805    
  94.018      89.805      79.356      66.312      52.156      37.363      23.471      12.431      7.0057      6.5267    
  13.248      12.427      11.384      13.137      19.516      29.494      41.686      54.417      66.161      75.126    
  78.614      75.126      66.161      54.417      41.686      29.494      19.516      13.137      11.384      12.427    
  30.289      28.226      23.509      19.559      19.455      23.927      31.716      41.603      51.928      60.260    
  63.550      60.260      51.928      41.603      31.716      23.927      19.455      19.559      23.509      28.226    
  49.032      46.104      39.129      31.292      24.941      22.266      24.016      29.503      37.172      44.078    
  46.891      44.078      37.172      29.503      24.016      22.266      24.941      31.292      39.129      46.104    
  73.032      68.040      56.707      44.789      34.307      25.077      19.747      19.814      23.593      27.854    
  29.670      27.854      23.593      19.814      19.747      25.077      34.307      44.789      56.707      68.040    
  114.17      104.55      83.037      61.533      44.772      31.461      19.975      13.651      12.865      14.686    
  15.759      14.686      12.865      13.651      19.975      31.461      44.772      61.533      83.037      104.55    
  172.29      156.07      119.48      83.074      56.655      39.190      23.883      11.901      7.5185      8.6736    
  9.9834      8.6736      7.5185      11.901      23.883      39.190      56.655      83.074      119.48      156.07    
  228.72      206.54      155.81      104.61      68.049      46.044      28.468      12.817      6.9625      9.5026    
  11.949      9.5026      6.9625      12.817      28.468      46.044      68.049      104.61      155.81      206.54    
  188.55      170.70      130.11      89.364      59.942      41.222      25.268      12.189      7.3461      8.8436    
  10.450      8.8436      7.3461      12.189      25.268      41.222      59.942      89.364      130.11      170.70    
  172.16      156.12      119.74      83.236      56.581      39.026      23.740      11.746      7.2290      8.1851    
  9.3981      8.1851      7.2290      11.746      23.740      39.026      56.581      83.236      119.74      156.12    
  133.35      121.71      95.408      68.844      48.517      33.534      20.209      11.241      8.0762      8.4178    
  9.0126      8.4178      8.0762      11.241      20.209      33.534      48.517      68.844      95.408      121.71    
  91.939      85.012      69.288      52.876      38.984      26.824      17.200      12.629      12.270      13.491    
  14.144      13.491      12.270      12.629      17.200      26.824      38.984      52.876      69.288      85.012    
  60.924      57.169      48.402      38.617      29.264      21.266      17.164      17.579      20.769      24.072    
  25.430      24.072      20.769      17.579      17.164      21.266      29.264      38.617      48.402      57.169    
  41.491      39.087      33.150      26.155      20.748      18.896      20.984      25.932      32.171      37.510    
  39.636      37.510      32.171      25.932      20.984      18.896      20.748      26.155      33.150      39.087    
  25.606      24.034      20.297      16.887      16.529      20.467      27.724      36.704      45.463      52.000    
  54.463      52.000      45.463      36.704      27.724      20.467      16.529      16.887      20.297      24.034    
  12.388      12.151      11.889      12.997      17.266      25.256      36.311      48.410      58.882      65.957    
  68.485      65.957      58.882      48.410      36.311      25.256      17.266      12.997      11.889      12.151    
  6.1459      6.5796      8.4119      12.897      20.847      31.755      45.277      59.218      71.041      79.098    
  82.019      79.098      71.041      59.218      45.277      31.755      20.847      12.897      8.4119      6.5796    
  5.5035      5.7265      7.7137      13.836      24.341      37.507      52.467      67.325      80.406      90.033    
  93.714      90.033      80.406      67.325      52.467      37.507      24.341      13.836      7.7137      5.7265    
  6.0549      6.0241      7.7271      14.264      25.734      39.829      55.293      70.444      84.107      94.558    
  98.649      94.558      84.107      70.444      55.293      39.829      25.734      14.264      7.7271      6.0241    
  5.5035      5.7265      7.7137      13.836      24.341      37.507      52.467      67.325      80.406      90.033    
  93.714      90.033      80.406      67.325      52.467      37.507      24.341      13.836      7.7137      5.7265    
  6.1459      6.5796      8.4119      12.897      20.847      31.755      45.277      59.218      71.041      79.098    
  82.019      79.098      71.041      59.218      45.277      31.755      20.847      12.897      8.4119      6.5796    
  12.388      12.151      11.889      12.997      17.266      25.256      36.311      48.410      58.882      65.957    
  68.485      65.957      58.882      48.410      36.311      25.256      17.266      12.997      11.889      12.151    
  25.606      24.034      20.297      16.887      16.529      20.467      27.724      36.704      45.463      52.000    
  54.463      52.000      45.463      36.704      27.724      20.467      16.529      16.887      20.297      24.034    
  41.491      39.087      33.150      26.155      20.748      18.896      20.984      25.932      32.171      37.510    
  39.636      37.510      32.171      25.932      20.984      18.896      20.748      26.155      33.150      39.087    
  60.924      57.169      48.402      38.617      29.264      21.266      17.164      17.579      20.769      24.072    
  25.430      24.072      20.769      17.579      17.164      21.266      29.264      38.617      48.402      57.169    
  91.939      85.012      69.288      52.876      38.984      26.824      17.200      12.629      12.270      13.491    
  14.144      13.491      12.270      12.629      17.200      26.824      38.984      52.876      69.288      85.012    
  133.35      121.71      95.408      68.844      48.517      33.534      20.209      11.241      8.0762      8.4178    
  9.0126      8.4178      8.0762      11.241      20.209      33.534      48.517      68.844      95.408      121.71    
  172.16      156.12      119.74      83.236      56.581      39.026      23.740      11.746      7.2290      8.1851    
  9.3981      8.1851      7.2290      11.746      23.740      39.026      56.581      83.236      119.74      156.12    
  122.85      112.34      88.663      64.812      46.505      32.725      20.913      14.396      13.912      16.298    
  17.651      16.298      13.912      14.396      20.913      32.725      46.505      64.812      88.663      112.34    
  113.65      104.23      82.961      61.344      44.352      31.034      19.785      13.846      13.400      15.406    
  16.528      15.406      13.400      13.846      19.785      31.034      44.352      61.344      82.961      104.23    
  91.629      84.774      69.136      52.689      38.732      26.589      17.104      12.789      12.718      14.158    
  14.891      14.158      12.718      12.789      17.104      26.589      38.732      52.689      69.136      84.774    
  67.305      63.072      53.133      41.893      31.070      21.075      14.637      12.777      13.876      15.551    
  16.259      15.551      13.876      12.777      14.637      21.075      31.070      41.893      53.133      63.072    
  47.382      44.856      38.584      30.712      22.645      16.627      14.306      15.521      18.570      21.371    
  22.468      21.371      18.570      15.521      14.306      16.627      22.645      30.712      38.584      44.856    
  32.025      30.281      25.751      20.282      16.124      14.950      17.116      21.583      26.636      30.638    
  32.168      30.638      26.636      21.583      17.116      14.950      16.124      20.282      25.751      30.281    
  18.513      17.711      15.690      13.675      13.499      16.557      22.581      30.009      37.096      42.167    
  44.014      42.167      37.096      30.009      22.581      16.557      13.499      13.675      15.690      17.711    
  9.8808      10.025      10.409      11.430      14.432      20.586      29.484      39.615      48.531      54.447    
  56.507      54.447      48.531      39.615      29.484      20.586      14.432      11.430      10.409      10.025    
  6.7214      7.1418      8.4958      11.374      16.884      25.405      36.592      48.758      59.223      66.159    
  68.592      66.159      59.223      48.758      36.592      25.405      16.884      11.374      8.4958      7.1418    
  6.5802      6.7143      7.8232      11.522      18.912      29.342      42.177      55.643      67.367      75.493    
  78.452      75.493      67.367      55.643      42.177      29.342      18.912      11.522      7.8232      6.7143    
  6.8664      6.7861      7.5992      11.506      19.639      30.871      44.341      58.275      70.529      79.230    
  82.455      79.230      70.529      58.275      44.341      30.871      19.639      11.506      7.5992      6.7861    
  6.5802      6.7143      7.8232      11.522      18.912      29.342      42.177      55.643      67.367      75.493    
  78.452      75.493      67.367      55.643      42.177      29.342      18.912      11.522      7.8232      6.7143    
  6.7214      7.1418      8.4958      11.374      16.884      25.405      36.592      48.758      59.223      66.159    
  68.592      66.159      59.223      48.758      36.592      25.405      16.884      11.374      8.4958      7.1418    
  9.8808      10.025      10.409      11.430      14.432      20.586      29.484      39.615      48.531      54.447    
  56.507      54.447      48.531      39.615      29.484      20.586      14.432      11.430      10.409      10.025    
  18.513      17.711      15.690      13.675      13.499      16.557      22.581      30.009      37.096      42.167    
  44.014      42.167      37.096      30.009      22.581      16.557      13.499      13.675      15.690      17.711    
  32.025      30.281      25.751      20.282      16.124      14.950      17.116      21.583      26.636      30.638    
  32.168      30.638      26.636      21.583      17.116      14.950      16.124      20.282      25.751      30.281    
  47.382      44.856      38.584      30.712      22.645      16.627      14.306      15.521      18.570      21.371    
  22.468      21.371      18.570      15.521      14.306      16.627      22.645      30.712      38.584      44.856    
  67.305      63.072      53.133      41.893      31.070      21.075      14.637      12.777      13.876      15.551    
  16.259      15.551      13.876      12.777      14.637      21.075      31.070      41.893      53.133      63.072    
  91.629      84.774      69.136      52.689      38.732      26.589      17.104      12.789      12.718      14.158    
  14.891      14.158      12.718      12.789      17.104      26.589      38.732      52.689      69.136      84.774    
  113.65      104.23      82.961      61.344      44.352      31.034      19.785      13.846      13.400      15.406    
  16.528      15.406      13.400      13.846      19.785      31.034      44.352      61.344      82.961      104.23    
  77.255      71.852      59.502      46.475      35.332      25.990      21.155      22.555      28.071      33.663    
  35.961      33.663      28.071      22.555      21.155      25.990      35.332      46.475      59.502      71.852    
  72.242      67.349      56.107      44.092      33.546      24.594      20.088      21.432      26.544      31.680    
  33.774      31.680      26.544      21.432      20.088      24.594      33.546      44.092      56.107      67.349    
  60.354      56.640      47.915      38.102      28.750      20.946      17.396      18.725      22.974      27.115    
  28.778      27.115      22.974      18.725      17.396      20.946      28.750      38.102      47.915      56.640    
  47.096      44.579      38.322      30.462      22.420      16.498      14.437      16.128      19.790      23.126    
  24.436      23.126      19.790      16.128      14.437      16.498      22.420      30.462      38.322      44.579    
  34.725      33.042      28.464      22.301      16.524      13.065      12.898      15.537      19.382      22.580    
  23.801      22.580      19.382      15.537      12.898      13.065      16.524      22.301      28.464      33.042    
  22.350      21.388      18.785      15.422      12.694      11.999      13.964      18.017      22.663      26.241    
  27.576      26.241      22.663      18.017      13.964      11.999      12.694      15.422      18.785      21.388    
  13.032      12.741      11.995      11.276      11.472      13.504      17.647      23.169      28.814      33.144    
  34.781      33.144      28.814      23.169      17.647      13.504      11.472      11.276      11.995      12.741    
  10.358      10.079      9.6332      9.9988      12.190      16.623      22.779      29.829      36.892      42.367    
  44.468      42.367      36.892      29.829      22.779      16.623      12.190      9.9988      9.6332      10.079    
  13.817      12.803      10.897      10.561      13.610      19.913      27.913      36.772      45.547      52.423    
  55.095      52.423      45.547      36.772      27.913      19.913      13.610      10.561      10.897      12.803    
  19.213      17.256      13.336      11.574      14.741      22.236      31.772      42.270      52.636      60.834    
  64.045      60.834      52.636      42.270      31.772      22.236      14.741      11.574      13.336      17.256    
  21.710      19.327      14.486      12.028      15.146      23.058      33.222      44.408      55.456      64.222    
  67.666      64.222      55.456      44.408      33.222      23.058      15.146      12.028      14.486      19.327    
  19.213      17.256      13.336      11.574      14.741      22.236      31.772      42.270      52.636      60.834    
  64.045      60.834      52.636      42.270      31.772      22.236      14.741      11.574      13.336      17.256    
  13.817      12.803      10.897      10.561      13.610      19.913      27.913      36.772      45.547      52.423    
  55.095      52.423      45.547      36.772      27.913      19.913      13.610      10.561      10.897      12.803    
  10.358      10.079      9.6332      9.9988      12.190      16.623      22.779      29.829      36.892      42.367    
  44.468      42.367      36.892      29.829      22.779      16.623      12.190      9.9988      9.6332      10.079    
  13.032      12.741      11.995      11.276      11.472      13.504      17.647      23.169      28.814      33.144    
  34.781      33.144      28.814      23.169      17.647      13.504      11.472      11.276      11.995      12.741    
  22.350      21.388      18.785      15.422      12.694      11.999      13.964      18.017      22.663      26.241    
  27.576      26.241      22.663      18.017      13.964      11.999      12.694      15.422      18.785      21.388    
  34.725      33.042      28.464      22.301      16.524      13.065      12.898      15.537      19.382      22.580    
  23.801      22.580      19.382      15.537      12.898      13.065      16.524      22.301      28.464      33.042    
  47.096      44.579      38.322      30.462      22.420      16.498      14.437      16.128      19.790      23.126    
  24.436      23.126      19.790      16.128      14.437      16.498      22.420      30.462      38.322      44.579    
  60.354      56.640      47.915      38.102      28.750      20.946      17.396      18.725      22.974      27.115    
  28.778      27.115      22.974      18.725      17.396      20.946      28.750      38.102      47.915      56.640    
  72.242      67.349      56.107      44.092      33.546      24.594      20.088      21.432      26.544      31.680    
  33.774      31.680      26.544      21.432      20.088      24.594      33.546      44.092      56.107      67.349    
  51.186      48.073      40.642      32.363      25.806      23.715      27.218      34.960      44.741      53.336    
  56.833      53.336      44.741      34.960      27.218      23.715      25.806      32.363      40.642      48.073    
  48.207      45.296      38.291      30.368      24.175      22.376      25.889      33.308      42.398      50.251    
  53.421      50.251      42.398      33.308      25.889      22.376      24.175      30.368      38.291      45.296    
  40.779      38.394      32.467      25.458      20.194      18.970      22.361      29.013      36.619      42.868    
  45.329      42.868      36.619      29.013      22.361      18.970      20.194      25.458      32.467      38.394    
  31.504      29.780      25.290      19.865      15.819      14.998      17.928      23.586      29.921      34.812    
  36.668      34.812      29.921      23.586      17.928      14.998      15.819      19.865      25.290      29.780    
  22.079      21.131      18.563      15.247      12.585      12.033      14.321      18.944      24.326      28.547    
  30.134      28.547      24.326      18.944      14.321      12.033      12.585      15.247      18.563      21.131    
  15.403      14.966      13.767      12.188      10.952      10.976      12.946      16.804      21.523      25.418    
  26.928      25.418      21.523      16.804      12.946      10.976      10.952      12.188      13.767      14.966    
  14.431      13.777      12.306      11.048      10.782      11.782      14.131      17.835      22.357      26.270    
  27.845      26.270      22.357      17.835      14.131      11.782      10.782      11.048      12.306      13.777    
  20.153      18.598      15.169      12.393      11.919      13.707      17.001      21.347      26.373      30.870    
  32.733      30.870      26.373      21.347      17.001      13.707      11.919      12.393      15.169      18.598    
  30.311      27.652      21.564      16.047      14.025      15.810      20.123      25.804      32.311      38.024    
  40.366      38.024      32.311      25.804      20.123      15.810      14.025      16.047      21.564      27.652    
  39.920      36.447      28.231      20.136      16.162      17.344      22.344      29.545      37.796      44.813    
  47.631      44.813      37.796      29.545      22.344      17.344      16.162      20.136      28.231      36.447    
  43.849      40.088      31.079      21.938      17.074      17.897      23.131      31.015      40.053      47.644    
  50.667      47.644      40.053      31.015      23.131      17.897      17.074      21.938      31.079      40.088    
  39.920      36.447      28.231      20.136      16.162      17.344      22.344      29.545      37.796      44.813    
  47.631      44.813      37.796      29.545      22.344      17.344      16.162      20.136      28.231      36.447    
  30.311      27.652      21.564      16.047      14.025      15.810      20.123      25.804      32.311      38.024    
  40.366      38.024      32.311      25.804      20.123      15.810      14.025      16.047      21.564      27.652    
  20.153      18.598      15.169      12.393      11.919      13.707      17.001      21.347      26.373      30.870    
  32.733      30.870      26.373      21.347      17.001      13.707      11.919      12.393      15.169      18.598    
  14.431      13.777      12.306      11.048      10.782      11.782      14.131      17.835      22.357      26.270    
  27.845      26.270      22.357      17.835      14.131      11.782      10.782      11.048      12.306      13.777    
  15.403      14.966      13.767      12.188      10.952      10.976      12.946      16.804      21.523      25.418    
  26.928      25.418      21.523      16.804      12.946      10.976      10.952      12.188      13.767      14.966    
  22.079      21.131      18.563      15.247      12.585      12.033      14.321      18.944      24.326      28.547    
  30.134      28.547      24.326      18.944      14.321      12.033      12.585      15.247      18.563      21.131    
  31.504      29.780      25.290      19.865      15.819      14.998      17.928      23.586      29.921      34.812    
  36.668      34.812      29.921      23.586      17.928      14.998      15.819      19.865      25.290      29.780    
  40.779      38.394      32.467      25.458      20.194      18.970      22.361      29.013      36.619      42.868    
  45.329      42.868      36.619      29.013      22.361      18.970      20.194      25.458      32.467      38.394    
  48.207      45.296      38.291      30.368      24.175      22.376      25.889      33.308      42.398      50.251    
  53.421      50.251      42.398      33.308      25.889      22.376      24.175      30.368      38.291      45.296    
  31.028      28.790      23.710      19.699      20.458      26.984      37.149      49.375      62.478      73.677    
  78.283      73.677      62.478      49.375      37.149      26.984      20.458      19.699      23.710      28.790    
  29.543      27.466      22.676      18.733      19.234      25.434      35.422      47.252      59.482      69.573    
  73.648      69.573      59.482      47.252      35.422      25.434      19.234      18.733      22.676      27.466    