unknown system                          
   1.00000000000000     
     3.866000    0.000000    0.000000
     0.000000    3.866000    0.000000
     0.000000    0.000000    3.866000
   Pd   Ir   Pt   Cu
     1     1     1     1
Direct
  0.000000  0.000000  0.000000
  0.500000  0.500000  0.000000
  0.500000  0.000000  0.500000
  0.000000  0.500000  0.500000
 
   20   20   20
 0.28054286650E+03 0.25319477825E+03 0.18999892936E+03 0.12524154496E+03 0.78905304923E+02
 0.52182768868E+02 0.32709088505E+02 0.14635102500E+02 0.85836187249E+01 0.13545197692E+02
 0.17540737931E+02 0.13545197692E+02 0.85836187249E+01 0.14635102500E+02 0.32709088505E+02
 0.52182768868E+02 0.78905304923E+02 0.12524154496E+03 0.18999892936E+03 0.25319477825E+03
 0.25286769734E+03 0.22816658464E+03 0.17147494020E+03 0.11398627190E+03 0.73040420128E+02
 0.48964698970E+02 0.30512852636E+02 0.13684853942E+02 0.77572679769E+01 0.11480176455E+02
 0.14676845224E+02 0.11480176455E+02 0.77572679769E+01 0.13684853942E+02 0.30512852636E+02
 0.48964698970E+02 0.73040420128E+02 0.11398627190E+03 0.17147494020E+03 0.22816658464E+03
 0.18866862525E+03 0.17054733391E+03 0.12963042051E+03 0.89036331519E+02 0.59999338880E+02
 0.41435302467E+02 0.25460958448E+02 0.12436445047E+02 0.78538842595E+01 0.97087206107E+01
 0.11485028512E+02 0.97087206107E+01 0.78538842595E+01 0.12436445047E+02 0.25460958448E+02
 0.41435302467E+02 0.59999338880E+02 0.89036331519E+02 0.12963042051E+03 0.17054733391E+03
 0.12342501547E+03 0.11265010189E+03 0.88646211574E+02 0.64953004142E+02 0.46974387541E+02
 0.33223493115E+02 0.21132827408E+02 0.14188101111E+02 0.13373728822E+02 0.15627981295E+02
 0.16962273640E+02 0.15627981295E+02 0.13373728822E+02 0.14188101111E+02 0.21132827408E+02
 0.33223493115E+02 0.46974387541E+02 0.64953004142E+02 0.88646211574E+02 0.11265010189E+03
 0.78126351341E+02 0.72593574419E+02 0.60123544944E+02 0.47229125312E+02 0.36190185539E+02
 0.26537532753E+02 0.20761943012E+02 0.20739006221E+02 0.24838644662E+02 0.29580093546E+02
 0.31621116939E+02 0.29580093546E+02 0.24838644662E+02 0.20739006221E+02 0.20761943012E+02
 0.26537532753E+02 0.36190185539E+02 0.47229125312E+02 0.60123544944E+02 0.72593574419E+02
 0.52047927653E+02 0.48918871097E+02 0.41534290289E+02 0.33373812924E+02 0.26653571647E+02
 0.23588314478E+02 0.25152204379E+02 0.30892243131E+02 0.39216229566E+02 0.46828755581E+02
 0.49948552026E+02 0.46828755581E+02 0.39216229566E+02 0.30892243131E+02 0.25152204379E+02
 0.23588314478E+02 0.26653571647E+02 0.33373812924E+02 0.41534290289E+02 0.48918871097E+02
 0.31752152263E+02 0.29548951515E+02 0.24587587364E+02 0.20594533263E+02 0.20690350905E+02
 0.25333982028E+02 0.33234913416E+02 0.43413051609E+02 0.54416163709E+02 0.63595349663E+02
 0.67283718819E+02 0.63595349663E+02 0.54416163709E+02 0.43413051609E+02 0.33234913416E+02
 0.25333982028E+02 0.20690350905E+02 0.20594533263E+02 0.24587587364E+02 0.29548951515E+02
 0.13074667405E+02 0.11995806975E+02 0.10668502813E+02 0.12877410405E+02 0.20365321878E+02
 0.31262579923E+02 0.43767688790E+02 0.56557438887E+02 0.68839444732E+02 0.78786918254E+02
 0.82793498821E+02 0.78786918254E+02 0.68839444732E+02 0.56557438887E+02 0.43767688790E+02
 0.31262579923E+02 0.20365321878E+02 0.12877410405E+02 0.10668502813E+02 0.11995806975E+02
 0.74528624630E+01 0.62981949395E+01 0.59293112189E+01 0.11731184911E+02 0.24321952310E+02
 0.39668359946E+02 0.54846128451E+02 0.68846415609E+02 0.82442689290E+02 0.94204632701E+02
 0.99143122959E+02 0.94204632701E+02 0.82442689290E+02 0.68846415609E+02 0.54846128451E+02
 0.39668359946E+02 0.24321952310E+02 0.11731184911E+02 0.59293112189E+01 0.62981949395E+01
 0.13471726582E+02 0.10883145596E+02 0.82263058097E+01 0.14106503318E+02 0.29108544191E+02
 0.47247538449E+02 0.63813275624E+02 0.78466077387E+02 0.93870483575E+02 0.10848175879E+03
 0.11487643655E+03 0.10848175879E+03 0.93870483575E+02 0.78466077387E+02 0.63813275624E+02
 0.47247538449E+02 0.29108544191E+02 0.14106503318E+02 0.82263058097E+01 0.10883145596E+02
 0.18022579368E+02 0.14553228743E+02 0.10293086276E+02 0.15571817398E+02 0.31201642807E+02
 0.50332997900E+02 0.67362457831E+02 0.82281783418E+02 0.98626040174E+02 0.11470522440E+03
 0.12184280735E+03 0.11470522440E+03 0.98626040174E+02 0.82281783418E+02 0.67362457831E+02
 0.50332997900E+02 0.31201642807E+02 0.15571817398E+02 0.10293086276E+02 0.14553228743E+02
 0.13471726582E+02 0.10883145596E+02 0.82263058097E+01 0.14106503318E+02 0.29108544191E+02
 0.47247538449E+02 0.63813275624E+02 0.78466077387E+02 0.93870483575E+02 0.10848175879E+03
 0.11487643655E+03 0.10848175879E+03 0.93870483575E+02 0.78466077387E+02 0.63813275624E+02
 0.47247538449E+02 0.29108544191E+02 0.14106503318E+02 0.82263058097E+01 0.10883145596E+02
 0.74528624630E+01 0.62981949395E+01 0.59293112189E+01 0.11731184911E+02 0.24321952310E+02
 0.39668359946E+02 0.54846128451E+02 0.68846415609E+02 0.82442689290E+02 0.94204632701E+02
 0.99143122959E+02 0.94204632701E+02 0.82442689290E+02 0.68846415609E+02 0.54846128451E+02
 0.39668359946E+02 0.24321952310E+02 0.11731184911E+02 0.59293112189E+01 0.62981949395E+01
 0.13074667405E+02 0.11995806975E+02 0.10668502813E+02 0.12877410405E+02 0.20365321878E+02
 0.31262579923E+02 0.43767688790E+02 0.56557438887E+02 0.68839444732E+02 0.78786918254E+02
 0.82793498821E+02 0.78786918254E+02 0.68839444732E+02 0.56557438887E+02 0.43767688790E+02
 0.31262579923E+02 0.20365321878E+02 0.12877410405E+02 0.10668502813E+02 0.11995806975E+02
 0.31752152263E+02 0.29548951515E+02 0.24587587364E+02 0.20594533263E+02 0.20690350905E+02
 0.25333982028E+02 0.33234913416E+02 0.43413051609E+02 0.54416163709E+02 0.63595349663E+02
 0.67283718819E+02 0.63595349663E+02 0.54416163709E+02 0.43413051609E+02 0.33234913416E+02
 0.25333982028E+02 0.20690350905E+02 0.20594533263E+02 0.24587587364E+02 0.29548951515E+02
 0.52047927653E+02 0.48918871097E+02 0.41534290289E+02 0.33373812924E+02 0.26653571647E+02
 0.23588314478E+02 0.25152204379E+02 0.30892243131E+02 0.39216229566E+02 0.46828755581E+02
 0.49948552026E+02 0.46828755581E+02 0.39216229566E+02 0.30892243131E+02 0.25152204379E+02
 0.23588314478E+02 0.26653571647E+02 0.33373812924E+02 0.41534290289E+02 0.48918871097E+02
 0.78126351341E+02 0.72593574419E+02 0.60123544944E+02 0.47229125312E+02 0.36190185539E+02
 0.26537532753E+02 0.20761943012E+02 0.20739006221E+02 0.24838644662E+02 0.29580093546E+02
 0.31621116939E+02 0.29580093546E+02 0.24838644662E+02 0.20739006221E+02 0.20761943012E+02
 0.26537532753E+02 0.36190185539E+02 0.47229125312E+02 0.60123544944E+02 0.72593574419E+02
 0.12342501547E+03 0.11265010189E+03 0.88646211574E+02 0.64953004142E+02 0.46974387541E+02
 0.33223493115E+02 0.21132827408E+02 0.14188101111E+02 0.13373728822E+02 0.15627981295E+02
 0.16962273640E+02 0.15627981295E+02 0.13373728822E+02 0.14188101111E+02 0.21132827408E+02
 0.33223493115E+02 0.46974387541E+02 0.64953004142E+02 0.88646211574E+02 0.11265010189E+03
 0.18866862525E+03 0.17054733391E+03 0.12963042051E+03 0.89036331519E+02 0.59999338880E+02
 0.41435302467E+02 0.25460958448E+02 0.12436445047E+02 0.78538842595E+01 0.97087206107E+01
 0.11485028512E+02 0.97087206107E+01 0.78538842595E+01 0.12436445047E+02 0.25460958448E+02
 0.41435302467E+02 0.59999338880E+02 0.89036331519E+02 0.12963042051E+03 0.17054733391E+03
 0.25286769734E+03 0.22816658464E+03 0.17147494020E+03 0.11398627190E+03 0.73040420128E+02
 0.48964698970E+02 0.30512852636E+02 0.13684853942E+02 0.77572679769E+01 0.11480176455E+02
 0.14676845224E+02 0.11480176455E+02 0.77572679769E+01 0.13684853942E+02 0.30512852636E+02
 0.48964698970E+02 0.73040420128E+02 0.11398627190E+03 0.17147494020E+03 0.22816658464E+03
 0.25291165695E+03 0.22831208897E+03 0.17174872895E+03 0.11419681804E+03 0.73085283043E+02
 0.48928368583E+02 0.30461538304E+02 0.13565512821E+02 0.74721662637E+01 0.10999056511E+02
 0.14106685228E+02 0.10999056511E+02 0.74721662637E+01 0.13565512821E+02 0.30461538304E+02
 0.48928368583E+02 0.73085283043E+02 0.11419681804E+03 0.17174872895E+03 0.22831208897E+03
 0.22872215094E+03 0.20653701288E+03 0.15581426259E+03 0.10461062296E+03 0.68049020795E+02
 0.46044054652E+02 0.28467989401E+02 0.12816762344E+02 0.69625128400E+01 0.95025764521E+01
 0.11949135451E+02 0.95025764521E+01 0.69625128400E+01 0.12816762344E+02 0.28467989401E+02
 0.46044054652E+02 0.68049020795E+02 0.10461062296E+03 0.15581426259E+03 0.20653701288E+03
 0.17228841094E+03 0.15607244231E+03 0.11948112355E+03 0.83073823926E+02 0.56655181586E+02
 0.39190392386E+02 0.23882521641E+02 0.11901486193E+02 0.75185446961E+01 0.86736015751E+01
 0.99834047981E+01 0.86736015751E+01 0.75185446961E+01 0.11901486193E+02 0.23882521641E+02
 0.39190392386E+02 0.56655181586E+02 0.83073823926E+02 0.11948112355E+03 0.15607244231E+03
 0.11416976975E+03 0.10454937985E+03 0.83036925113E+02 0.61533368234E+02 0.44772240176E+02
 0.31461135679E+02 0.19974688290E+02 0.13651388539E+02 0.12864877383E+02 0.14686174037E+02
 0.15758827525E+02 0.14686174037E+02 0.12864877383E+02 0.13651388539E+02 0.19974688290E+02
 0.31461135679E+02 0.44772240176E+02 0.61533368234E+02 0.83036925113E+02 0.10454937985E+03
 0.73032298501E+02 0.68040076899E+02 0.56706607629E+02 0.44788819475E+02 0.34307152549E+02
 0.25077361422E+02 0.19747088802E+02 0.19813994153E+02 0.23593199941E+02 0.27853874801E+02
 0.29669948267E+02 0.27853874801E+02 0.23593199941E+02 0.19813994153E+02 0.19747088802E+02
 0.25077361422E+02 0.34307152549E+02 0.44788819475E+02 0.56706607629E+02 0.68040076899E+02
 0.49032062879E+02 0.46104142617E+02 0.39128952116E+02 0.31292205951E+02 0.24940598571E+02
 0.22265699293E+02 0.24016279765E+02 0.29502887513E+02 0.37172020087E+02 0.44077760622E+02
 0.46890634270E+02 0.44077760622E+02 0.37172020087E+02 0.29502887513E+02 0.24016279765E+02
 0.22265699293E+02 0.24940598571E+02 0.31292205951E+02 0.39128952116E+02 0.46104142617E+02
 0.30289242818E+02 0.28226440165E+02 0.23508854304E+02 0.19558671940E+02 0.19455126178E+02
 0.23927034885E+02 0.31715504617E+02 0.41602741227E+02 0.51927826821E+02 0.60260197299E+02
 0.63550081828E+02 0.60260197299E+02 0.51927826821E+02 0.41602741227E+02 0.31715504617E+02
 0.23927034885E+02 0.19455126178E+02 0.19558671940E+02 0.23508854304E+02 0.28226440165E+02
 0.13248476254E+02 0.12426516760E+02 0.11384329349E+02 0.13137218658E+02 0.19515536993E+02
 0.29494353825E+02 0.41685973482E+02 0.54417414441E+02 0.66161275633E+02 0.75125500129E+02
 0.78614190432E+02 0.75125500129E+02 0.66161275633E+02 0.54417414441E+02 0.41685973482E+02
 0.29494353825E+02 0.19515536993E+02 0.13137218658E+02 0.11384329349E+02 0.12426516760E+02
 0.70917949891E+01 0.65266526050E+01 0.70056703092E+01 0.12430979087E+02 0.23470891831E+02
 0.37363423985E+02 0.52156058124E+02 0.66312453521E+02 0.79356225408E+02 0.89805052440E+02
 0.94018256342E+02 0.89805052440E+02 0.79356225408E+02 0.66312453521E+02 0.52156058124E+02
 0.37363423985E+02 0.23470891831E+02 0.12430979087E+02 0.70056703092E+01 0.65266526050E+01
 0.10539422339E+02 0.90240623677E+01 0.82068489960E+01 0.14398043425E+02 0.27956068775E+02
 0.44456032360E+02 0.60616135631E+02 0.75479123061E+02 0.90120683135E+02 0.10297048073E+03
 0.10839877086E+03 0.10297048073E+03 0.90120683135E+02 0.75479123061E+02 0.60616135631E+02
 0.44456032360E+02 0.27956068775E+02 0.14398043425E+02 0.82068489960E+01 0.90240623677E+01
 0.13602345421E+02 0.11445331380E+02 0.95373801935E+01 0.15539788500E+02 0.29871292835E+02
 0.47343126862E+02 0.63960490940E+02 0.79078246968E+02 0.94529131740E+02 0.10862927532E+03
 0.11468939666E+03 0.10862927532E+03 0.94529131740E+02 0.79078246968E+02 0.63960490940E+02
 0.47343126862E+02 0.29871292835E+02 0.15539788500E+02 0.95373801935E+01 0.11445331380E+02
 0.10539422339E+02 0.90240623677E+01 0.82068489960E+01 0.14398043425E+02 0.27956068775E+02
 0.44456032360E+02 0.60616135631E+02 0.75479123061E+02 0.90120683135E+02 0.10297048073E+03
 0.10839877086E+03 0.10297048073E+03 0.90120683135E+02 0.75479123061E+02 0.60616135631E+02
 0.44456032360E+02 0.27956068775E+02 0.14398043425E+02 0.82068489960E+01 0.90240623677E+01
 0.70917949891E+01 0.65266526050E+01 0.70056703092E+01 0.12430979087E+02 0.23470891831E+02
 0.37363423985E+02 0.52156058124E+02 0.66312453521E+02 0.79356225408E+02 0.89805052440E+02
 0.94018256342E+02 0.89805052440E+02 0.79356225408E+02 0.66312453521E+02 0.52156058124E+02
 0.37363423985E+02 0.23470891831E+02 0.12430979087E+02 0.70056703092E+01 0.65266526050E+01
 0.13248476254E+02 0.12426516760E+02 0.11384329349E+02 0.13137218658E+02 0.19515536993E+02
 0.29494353825E+02 0.41685973482E+02 0.54417414441E+02 0.66161275633E+02 0.75125500129E+02
 0.78614190432E+02 0.75125500129E+02 0.66161275633E+02 0.54417414441E+02 0.41685973482E+02
 0.29494353825E+02 0.19515536993E+02 0.13137218658E+02 0.11384329349E+02 0.12426516760E+02
 0.30289242818E+02 0.28226440165E+02 0.23508854304E+02 0.19558671940E+02 0.19455126178E+02
 0.23927034885E+02 0.31715504617E+02 0.41602741227E+02 0.51927826821E+02 0.60260197299E+02
 0.63550081828E+02 0.60260197299E+02 0.51927826821E+02 0.41602741227E+02 0.31715504617E+02
 0.23927034885E+02 0.19455126178E+02 0.19558671940E+02 0.23508854304E+02 0.28226440165E+02
 0.49032062879E+02 0.46104142617E+02 0.39128952116E+02 0.31292205951E+02 0.24940598571E+02
 0.22265699293E+02 0.24016279765E+02 0.29502887513E+02 0.37172020087E+02 0.44077760622E+02
 0.46890634270E+02 0.44077760622E+02 0.37172020087E+02 0.29502887513E+02 0.24016279765E+02
 0.22265699293E+02 0.24940598571E+02 0.31292205951E+02 0.39128952116E+02 0.46104142617E+02
 0.73032298501E+02 0.68040076899E+02 0.56706607629E+02 0.44788819475E+02 0.34307152549E+02
 0.25077361422E+02 0.19747088802E+02 0.19813994153E+02 0.23593199941E+02 0.27853874801E+02
 0.29669948267E+02 0.27853874801E+02 0.23593199941E+02 0.19813994153E+02 0.19747088802E+02
 0.25077361422E+02 0.34307152549E+02 0.44788819475E+02 0.56706607629E+02 0.68040076899E+02
 0.11416976975E+03 0.10454937985E+03 0.83036925113E+02 0.61533368234E+02 0.44772240176E+02
 0.31461135679E+02 0.19974688290E+02 0.13651388539E+02 0.12864877383E+02 0.14686174037E+02
 0.15758827525E+02 0.14686174037E+02 0.12864877383E+02 0.13651388539E+02 0.19974688290E+02
 0.31461135679E+02 0.44772240176E+02 0.61533368234E+02 0.83036925113E+02 0.10454937985E+03
 0.17228841094E+03 0.15607244231E+03 0.11948112355E+03 0.83073823926E+02 0.56655181586E+02
 0.39190392386E+02 0.23882521641E+02 0.11901486193E+02 0.75185446961E+01 0.86736015751E+01
 0.99834047981E+01 0.86736015751E+01 0.75185446961E+01 0.11901486193E+02 0.23882521641E+02
 0.39190392386E+02 0.56655181586E+02 0.83073823926E+02 0.11948112355E+03 0.15607244231E+03
 0.22872215094E+03 0.20653701288E+03 0.15581426259E+03 0.10461062296E+03 0.68049020795E+02
 0.46044054652E+02 0.28467989401E+02 0.12816762344E+02 0.69625128400E+01 0.95025764521E+01
 0.11949135451E+02 0.95025764521E+01 0.69625128400E+01 0.12816762344E+02 0.28467989401E+02
 0.46044054652E+02 0.68049020795E+02 0.10461062296E+03 0.15581426259E+03 0.20653701288E+03
 0.18855343200E+03 0.17069526093E+03 0.13010927760E+03 0.89363738227E+02 0.59941969149E+02
 0.41222353851E+02 0.25268125671E+02 0.12189045917E+02 0.73461468841E+01 0.88436186455E+01
 0.10449654604E+02 0.88436186455E+01 0.73461468841E+01 0.12189045917E+02 0.25268125671E+02
 0.41222353851E+02 0.59941969149E+02 0.89363738227E+02 0.13010927760E+03 0.17069526093E+03
 0.17216289525E+03 0.15611632754E+03 0.11973784133E+03 0.83236459211E+02 0.56580651650E+02
 0.39026048906E+02 0.23740104796E+02 0.11746156038E+02 0.72289684727E+01 0.81850834491E+01
 0.93980533490E+01 0.81850834491E+01 0.72289684727E+01 0.11746156038E+02 0.23740104796E+02
 0.39026048906E+02 0.56580651650E+02 0.83236459211E+02 0.11973784133E+03 0.15611632754E+03
 0.13334910669E+03 0.12170512140E+03 0.95407597617E+02 0.68844406949E+02 0.48516871755E+02
 0.33533533332E+02 0.20209454751E+02 0.11240897622E+02 0.80762400240E+01 0.84177977351E+01
 0.90125503200E+01 0.84177977351E+01 0.80762400240E+01 0.11240897622E+02 0.20209454751E+02
 0.33533533332E+02 0.48516871755E+02 0.68844406949E+02 0.95407597617E+02 0.12170512140E+03
 0.91939305367E+02 0.85011674196E+02 0.69288309723E+02 0.52875717273E+02 0.38984477034E+02
 0.26824395392E+02 0.17199731209E+02 0.12629036185E+02 0.12269813466E+02 0.13490552414E+02
 0.14144035749E+02 0.13490552414E+02 0.12269813466E+02 0.12629036185E+02 0.17199731209E+02
 0.26824395392E+02 0.38984477034E+02 0.52875717273E+02 0.69288309723E+02 0.85011674196E+02
 0.60923856663E+02 0.57168659902E+02 0.48402181012E+02 0.38616916583E+02 0.29264120373E+02
 0.21266236774E+02 0.17164375936E+02 0.17578874676E+02 0.20768795977E+02 0.24072289582E+02
 0.25430406832E+02 0.24072289582E+02 0.20768795977E+02 0.17578874676E+02 0.17164375936E+02
 0.21266236774E+02 0.29264120373E+02 0.38616916583E+02 0.48402181012E+02 0.57168659902E+02
 0.41490891734E+02 0.39086816926E+02 0.33150138326E+02 0.26154739434E+02 0.20748426758E+02
 0.18896372466E+02 0.20984465496E+02 0.25931894396E+02 0.32170824962E+02 0.37509619779E+02
 0.39636032502E+02 0.37509619779E+02 0.32170824962E+02 0.25931894396E+02 0.20984465496E+02
 0.18896372466E+02 0.20748426758E+02 0.26154739434E+02 0.33150138326E+02 0.39086816926E+02
 0.25605711674E+02 0.24034269052E+02 0.20296706285E+02 0.16887163525E+02 0.16528744415E+02
 0.20466504234E+02 0.27724139931E+02 0.36704356169E+02 0.45463277901E+02 0.52000364256E+02
 0.54462978568E+02 0.52000364256E+02 0.45463277901E+02 0.36704356169E+02 0.27724139931E+02
 0.20466504234E+02 0.16528744415E+02 0.16887163525E+02 0.20296706285E+02 0.24034269052E+02
 0.12388014603E+02 0.12150837002E+02 0.11888958625E+02 0.12996584577E+02 0.17266088414E+02
 0.25256236877E+02 0.36310747189E+02 0.48409554967E+02 0.58882255560E+02 0.65957145319E+02
 0.68484746091E+02 0.65957145319E+02 0.58882255560E+02 0.48409554967E+02 0.36310747189E+02
 0.25256236877E+02 0.17266088414E+02 0.12996584577E+02 0.11888958625E+02 0.12150837002E+02
 0.61458974309E+01 0.65796129337E+01 0.84119480157E+01 0.12896915228E+02 0.20847029210E+02
 0.31755467266E+02 0.45276781896E+02 0.59218278597E+02 0.71040869928E+02 0.79098258890E+02
 0.82019303480E+02 0.79098258890E+02 0.71040869928E+02 0.59218278597E+02 0.45276781896E+02
 0.31755467266E+02 0.20847029210E+02 0.12896915228E+02 0.84119480157E+01 0.65796129337E+01
 0.55035304916E+01 0.57265307121E+01 0.77137041623E+01 0.13836053158E+02 0.24341386717E+02
 0.37507043761E+02 0.52466645764E+02 0.67325428099E+02 0.80406425993E+02 0.90033195568E+02
 0.93714460869E+02 0.90033195568E+02 0.80406425993E+02 0.67325428099E+02 0.52466645764E+02
 0.37507043761E+02 0.24341386717E+02 0.13836053158E+02 0.77137041623E+01 0.57265307121E+01
 0.60549433931E+01 0.60241190715E+01 0.77271167838E+01 0.14263860127E+02 0.25734083277E+02
 0.39829147849E+02 0.55293130341E+02 0.70444086443E+02 0.84106565423E+02 0.94557869419E+02
 0.98649447239E+02 0.94557869419E+02 0.84106565423E+02 0.70444086443E+02 0.55293130341E+02
 0.39829147849E+02 0.25734083277E+02 0.14263860127E+02 0.77271167838E+01 0.60241190715E+01
 0.55035304916E+01 0.57265307121E+01 0.77137041623E+01 0.13836053158E+02 0.24341386717E+02
 0.37507043761E+02 0.52466645764E+02 0.67325428099E+02 0.80406425993E+02 0.90033195568E+02
 0.93714460869E+02 0.90033195568E+02 0.80406425993E+02 0.67325428099E+02 0.52466645764E+02
 0.37507043761E+02 0.24341386717E+02 0.13836053158E+02 0.77137041623E+01 0.57265307121E+01
 0.61458974309E+01 0.65796129337E+01 0.84119480157E+01 0.12896915228E+02 0.20847029210E+02
 0.31755467266E+02 0.45276781896E+02 0.59218278597E+02 0.71040869928E+02 0.79098258890E+02
 0.82019303480E+02 0.79098258890E+02 0.71040869928E+02 0.59218278597E+02 0.45276781896E+02
 0.31755467266E+02 0.20847029210E+02 0.12896915228E+02 0.84119480157E+01 0.65796129337E+01
 0.12388014603E+02 0.12150837002E+02 0.11888958625E+02 0.12996584577E+02 0.17266088414E+02
 0.25256236877E+02 0.36310747189E+02 0.48409554967E+02 0.58882255560E+02 0.65957145319E+02
 0.68484746091E+02 0.65957145319E+02 0.58882255560E+02 0.48409554967E+02 0.36310747189E+02
 0.25256236877E+02 0.17266088414E+02 0.12996584577E+02 0.11888958625E+02 0.12150837002E+02
 0.25605711674E+02 0.24034269052E+02 0.20296706285E+02 0.16887163525E+02 0.16528744415E+02
 0.20466504234E+02 0.27724139931E+02 0.36704356169E+02 0.45463277901E+02 0.52000364256E+02
 0.54462978568E+02 0.52000364256E+02 0.45463277901E+02 0.36704356169E+02 0.27724139931E+02
 0.20466504234E+02 0.16528744415E+02 0.16887163525E+02 0.20296706285E+02 0.24034269052E+02
 0.41490891734E+02 0.39086816926E+02 0.33150138326E+02 0.26154739434E+02 0.20748426758E+02
 0.18896372466E+02 0.20984465496E+02 0.25931894396E+02 0.32170824962E+02 0.37509619779E+02
 0.39636032502E+02 0.37509619779E+02 0.32170824962E+02 0.25931894396E+02 0.20984465496E+02
 0.18896372466E+02 0.20748426758E+02 0.26154739434E+02 0.33150138326E+02 0.39086816926E+02
 0.60923856663E+02 0.57168659902E+02 0.48402181012E+02 0.38616916583E+02 0.29264120373E+02
 0.21266236774E+02 0.17164375936E+02 0.17578874676E+02 0.20768795977E+02 0.24072289582E+02
 0.25430406832E+02 0.24072289582E+02 0.20768795977E+02 0.17578874676E+02 0.17164375936E+02
 0.21266236774E+02 0.29264120373E+02 0.38616916583E+02 0.48402181012E+02 0.57168659902E+02
 0.91939305367E+02 0.85011674196E+02 0.69288309723E+02 0.52875717273E+02 0.38984477034E+02
 0.26824395392E+02 0.17199731209E+02 0.12629036185E+02 0.12269813466E+02 0.13490552414E+02
 0.14144035749E+02 0.13490552414E+02 0.12269813466E+02 0.12629036185E+02 0.17199731209E+02
 0.26824395392E+02 0.38984477034E+02 0.52875717273E+02 0.69288309723E+02 0.85011674196E+02
 0.13334910669E+03 0.12170512140E+03 0.95407597617E+02 0.68844406949E+02 0.48516871755E+02
 0.33533533332E+02 0.20209454751E+02 0.11240897622E+02 0.80762400240E+01 0.84177977351E+01
 0.90125503200E+01 0.84177977351E+01 0.80762400240E+01 0.11240897622E+02 0.20209454751E+02
 0.33533533332E+02 0.48516871755E+02 0.68844406949E+02 0.95407597617E+02 0.12170512140E+03
 0.17216289525E+03 0.15611632754E+03 0.11973784133E+03 0.83236459211E+02 0.56580651650E+02
 0.39026048906E+02 0.23740104796E+02 0.11746156038E+02 0.72289684727E+01 0.81850834491E+01
 0.93980533490E+01 0.81850834491E+01 0.72289684727E+01 0.11746156038E+02 0.23740104796E+02
 0.39026048906E+02 0.56580651650E+02 0.83236459211E+02 0.11973784133E+03 0.15611632754E+03
 0.12284958758E+03 0.11234276282E+03 0.88662728393E+02 0.64812151802E+02 0.46504984810E+02
 0.32724595240E+02 0.20913333379E+02 0.14396070141E+02 0.13912296326E+02 0.16297984425E+02
 0.17651478952E+02 0.16297984425E+02 0.13912296326E+02 0.14396070141E+02 0.20913333379E+02
 0.32724595240E+02 0.46504984810E+02 0.64812151802E+02 0.88662728393E+02 0.11234276282E+03
 0.11365232334E+03 0.10423218704E+03 0.82960955011E+02 0.61344433086E+02 0.44352458618E+02
 0.31033560742E+02 0.19784990567E+02 0.13846499444E+02 0.13400466068E+02 0.15405971053E+02
 0.16528171631E+02 0.15405971053E+02 0.13400466068E+02 0.13846499444E+02 0.19784990567E+02
 0.31033560742E+02 0.44352458618E+02 0.61344433086E+02 0.82960955011E+02 0.10423218704E+03
 0.91629092867E+02 0.84773530152E+02 0.69136263980E+02 0.52689004296E+02 0.38732185754E+02
 0.26588927153E+02 0.17103809847E+02 0.12788870026E+02 0.12718210912E+02 0.14157616001E+02
 0.14891250093E+02 0.14157616001E+02 0.12718210912E+02 0.12788870026E+02 0.17103809847E+02
 0.26588927153E+02 0.38732185754E+02 0.52689004296E+02 0.69136263980E+02 0.84773530152E+02
 0.67305103099E+02 0.63072431337E+02 0.53133084687E+02 0.41892769487E+02 0.31070195871E+02
 0.21074854264E+02 0.14637440043E+02 0.12777265992E+02 0.13876442203E+02 0.15550853526E+02
 0.16259370300E+02 0.15550853526E+02 0.13876442203E+02 0.12777265992E+02 0.14637440043E+02
 0.21074854264E+02 0.31070195871E+02 0.41892769487E+02 0.53133084687E+02 0.63072431337E+02
 0.47382001613E+02 0.44856015500E+02 0.38583518097E+02 0.30712053370E+02 0.22645426131E+02
 0.16626794392E+02 0.14306114763E+02 0.15520972481E+02 0.18569526188E+02 0.21371058213E+02
 0.22468277788E+02 0.21371058213E+02 0.18569526188E+02 0.15520972481E+02 0.14306114763E+02
 0.16626794392E+02 0.22645426131E+02 0.30712053370E+02 0.38583518097E+02 0.44856015500E+02
 0.32024825093E+02 0.30280530514E+02 0.25750895295E+02 0.20282049461E+02 0.16123536182E+02
 0.14950230147E+02 0.17115874910E+02 0.21582514910E+02 0.26636407847E+02 0.30637819457E+02
 0.32168414631E+02 0.30637819457E+02 0.26636407847E+02 0.21582514910E+02 0.17115874910E+02
 0.14950230147E+02 0.16123536182E+02 0.20282049461E+02 0.25750895295E+02 0.30280530514E+02
 0.18512618288E+02 0.17710932125E+02 0.15689884960E+02 0.13674570011E+02 0.13499133146E+02
 0.16557294543E+02 0.22581065684E+02 0.30009299783E+02 0.37096452528E+02 0.42166990845E+02
 0.44013524722E+02 0.42166990845E+02 0.37096452528E+02 0.30009299783E+02 0.22581065684E+02
 0.16557294543E+02 0.13499133146E+02 0.13674570011E+02 0.15689884960E+02 0.17710932125E+02
 0.98808153823E+01 0.10025178385E+02 0.10408799814E+02 0.11430403413E+02 0.14432161862E+02
 0.20585586698E+02 0.29484461879E+02 0.39614957427E+02 0.48530837413E+02 0.54446938091E+02
 0.56507214158E+02 0.54446938091E+02 0.48530837413E+02 0.39614957427E+02 0.29484461879E+02
 0.20585586698E+02 0.14432161862E+02 0.11430403413E+02 0.10408799814E+02 0.10025178385E+02
 0.67213927886E+01 0.71418029245E+01 0.84957832591E+01 0.11374321838E+02 0.16884372860E+02
 0.25404794740E+02 0.36592056092E+02 0.48758178994E+02 0.59222996843E+02 0.66158767677E+02
 0.68591582130E+02 0.66158767677E+02 0.59222996843E+02 0.48758178994E+02 0.36592056092E+02
 0.25404794740E+02 0.16884372860E+02 0.11374321838E+02 0.84957832591E+01 0.71418029245E+01
 0.65802223590E+01 0.67143171229E+01 0.78232437212E+01 0.11521977485E+02 0.18911819523E+02
 0.29341527947E+02 0.42177178202E+02 0.55642660103E+02 0.67366831070E+02 0.75493225327E+02
 0.78452225043E+02 0.75493225327E+02 0.67366831070E+02 0.55642660103E+02 0.42177178202E+02
 0.29341527947E+02 0.18911819523E+02 0.11521977485E+02 0.78232437212E+01 0.67143171229E+01
 0.68664123421E+01 0.67861321526E+01 0.75992468095E+01 0.11505960672E+02 0.19639281474E+02
 0.30871187997E+02 0.44341000586E+02 0.58274930766E+02 0.70529333751E+02 0.79229922781E+02
 0.82454913733E+02 0.79229922781E+02 0.70529333751E+02 0.58274930766E+02 0.44341000586E+02
 0.30871187997E+02 0.19639281474E+02 0.11505960672E+02 0.75992468095E+01 0.67861321526E+01
 0.65802223590E+01 0.67143171229E+01 0.78232437212E+01 0.11521977485E+02 0.18911819523E+02
 0.29341527947E+02 0.42177178202E+02 0.55642660103E+02 0.67366831070E+02 0.75493225327E+02
 0.78452225043E+02 0.75493225327E+02 0.67366831070E+02 0.55642660103E+02 0.42177178202E+02
 0.29341527947E+02 0.18911819523E+02 0.11521977485E+02 0.78232437212E+01 0.67143171229E+01
 0.67213927886E+01 0.71418029245E+01 0.84957832591E+01 0.11374321838E+02 0.16884372860E+02
 0.25404794740E+02 0.36592056092E+02 0.48758178994E+02 0.59222996843E+02 0.66158767677E+02
 0.68591582130E+02 0.66158767677E+02 0.59222996843E+02 0.48758178994E+02 0.36592056092E+02
 0.25404794740E+02 0.16884372860E+02 0.11374321838E+02 0.84957832591E+01 0.71418029245E+01
 0.98808153823E+01 0.10025178385E+02 0.10408799814E+02 0.11430403413E+02 0.14432161862E+02
 0.20585586698E+02 0.29484461879E+02 0.39614957427E+02 0.48530837413E+02 0.54446938091E+02
 0.56507214158E+02 0.54446938091E+02 0.48530837413E+02 0.39614957427E+02 0.29484461879E+02
 0.20585586698E+02 0.14432161862E+02 0.11430403413E+02 0.10408799814E+02 0.10025178385E+02
 0.18512618288E+02 0.17710932125E+02 0.15689884960E+02 0.13674570011E+02 0.13499133146E+02
 0.16557294543E+02 0.22581065684E+02 0.30009299783E+02 0.37096452528E+02 0.42166990845E+02
 0.44013524722E+02 0.42166990845E+02 0.37096452528E+02 0.30009299783E+02 0.22581065684E+02
 0.16557294543E+02 0.13499133146E+02 0.13674570011E+02 0.15689884960E+02 0.17710932125E+02
 0.32024825093E+02 0.30280530514E+02 0.25750895295E+02 0.20282049461E+02 0.16123536182E+02
 0.14950230147E+02 0.17115874910E+02 0.21582514910E+02 0.26636407847E+02 0.30637819457E+02
 0.32168414631E+02 0.30637819457E+02 0.26636407847E+02 0.21582514910E+02 0.17115874910E+02
 0.14950230147E+02 0.16123536182E+02 0.20282049461E+02 0.25750895295E+02 0.30280530514E+02
 0.47382001613E+02 0.44856015500E+02 0.38583518097E+02 0.30712053370E+02 0.22645426131E+02
 0.16626794392E+02 0.14306114763E+02 0.15520972481E+02 0.18569526188E+02 0.21371058213E+02
 0.22468277788E+02 0.21371058213E+02 0.18569526188E+02 0.15520972481E+02 0.14306114763E+02
 0.16626794392E+02 0.22645426131E+02 0.30712053370E+02 0.38583518097E+02 0.44856015500E+02
 0.67305103099E+02 0.63072431337E+02 0.53133084687E+02 0.41892769487E+02 0.31070195871E+02
 0.21074854264E+02 0.14637440043E+02 0.12777265992E+02 0.13876442203E+02 0.15550853526E+02
 0.16259370300E+02 0.15550853526E+02 0.13876442203E+02 0.12777265992E+02 0.14637440043E+02
 0.21074854264E+02 0.31070195871E+02 0.41892769487E+02 0.53133084687E+02 0.63072431337E+02
 0.91629092867E+02 0.84773530152E+02 0.69136263980E+02 0.52689004296E+02 0.38732185754E+02
 0.26588927153E+02 0.17103809847E+02 0.12788870026E+02 0.12718210912E+02 0.14157616001E+02
 0.14891250093E+02 0.14157616001E+02 0.12718210912E+02 0.12788870026E+02 0.17103809847E+02
 0.26588927153E+02 0.38732185754E+02 0.52689004296E+02 0.69136263980E+02 0.84773530152E+02
 0.11365232334E+03 0.10423218704E+03 0.82960955011E+02 0.61344433086E+02 0.44352458618E+02
 0.31033560742E+02 0.19784990567E+02 0.13846499444E+02 0.13400466068E+02 0.15405971053E+02
 0.16528171631E+02 0.15405971053E+02 0.13400466068E+02 0.13846499444E+02 0.19784990567E+02
 0.31033560742E+02 0.44352458618E+02 0.61344433086E+02 0.82960955011E+02 0.10423218704E+03
 0.77254925946E+02 0.71851739848E+02 0.59502305385E+02 0.46475197066E+02 0.35332055212E+02
 0.25990438545E+02 0.21155073976E+02 0.22555426860E+02 0.28071166684E+02 0.33662801692E+02
 0.35961226876E+02 0.33662801692E+02 0.28071166684E+02 0.22555426860E+02 0.21155073976E+02
 0.25990438545E+02 0.35332055212E+02 0.46475197066E+02 0.59502305385E+02 0.71851739848E+02
 0.72242249220E+02 0.67348927813E+02 0.56107089251E+02 0.44092430775E+02 0.33546143804E+02