   4   4   0   0
  0.1444527E+02  0.3866000E-09  0.3866000E-09  0.3866000E-09  0.5000000E-15
  1.000000000000000E-004
  CAR 
 unknown system                          
     26.88061356     -4.84354699  301     10.62355640      1.00000000
     -4.844  0.0000E+00  0.0000E+00
     -4.738  0.0000E+00  0.0000E+00
     -4.632  0.0000E+00  0.0000E+00
     -4.526 -0.2587E-30 -0.2736E-31
     -4.421 -0.1430E-26 -0.1513E-27
     -4.315 -0.4273E-23 -0.4520E-24
     -4.209 -0.7277E-20 -0.7700E-21
     -4.103 -0.7065E-17 -0.7478E-18
     -3.998 -0.3806E-14 -0.4032E-15
     -3.892 -0.1186E-11 -0.1258E-12
     -3.786 -0.2106E-09 -0.2239E-10
     -3.680 -0.2114E-07 -0.2258E-08
     -3.575 -0.1195E-05 -0.1286E-06
     -3.469 -0.3769E-04 -0.4114E-05
     -3.363 -0.6513E-03 -0.7299E-04
     -3.257 -0.5928E-02 -0.6999E-03
     -3.152 -0.2532E-01 -0.3378E-02
     -3.046 -0.2464E-01 -0.5983E-02
     -2.940  0.1567E+00  0.1059E-01
     -2.834  0.5338E+00  0.6704E-01
     -2.729  0.6821E+00  0.1392E+00
     -2.623  0.6054E+00  0.2032E+00
     -2.517  0.8792E+00  0.2962E+00
     -2.411  0.1419E+01  0.4463E+00
     -2.306  0.2007E+01  0.6585E+00
     -2.200  0.2366E+01  0.9087E+00
     -2.094  0.1815E+01  0.1101E+01
     -1.988  0.8525E+00  0.1191E+01
     -1.883  0.8391E+00  0.1279E+01
     -1.777  0.1578E+01  0.1446E+01
     -1.671  0.1595E+01  0.1615E+01
     -1.565  0.1169E+01  0.1739E+01
     -1.460  0.1371E+01  0.1884E+01
     -1.354  0.1698E+01  0.2063E+01
     -1.248  0.1499E+01  0.2222E+01
     -1.142  0.1084E+01  0.2336E+01
     -1.037  0.8014E+00  0.2421E+01
     -0.931  0.7225E+00  0.2497E+01
     -0.825  0.9758E+00  0.2601E+01
     -0.719  0.1200E+01  0.2728E+01
     -0.614  0.1408E+01  0.2876E+01
     -0.508  0.2148E+01  0.3104E+01
     -0.402  0.2680E+01  0.3387E+01
     -0.296  0.2348E+01  0.3635E+01
     -0.191  0.2029E+01  0.3850E+01
     -0.085  0.2374E+01  0.4101E+01
      0.021  0.2759E+01  0.4393E+01
      0.127  0.2192E+01  0.4624E+01
      0.232  0.9229E+00  0.4722E+01
      0.338  0.2483E+00  0.4748E+01
      0.444  0.4774E+00  0.4799E+01
      0.550  0.7580E+00  0.4879E+01
      0.655  0.7098E+00  0.4954E+01
      0.761  0.1004E+01  0.5060E+01
      0.867  0.2024E+01  0.5274E+01
      0.973  0.2713E+01  0.5561E+01
      1.078  0.2245E+01  0.5798E+01
      1.184  0.1559E+01  0.5963E+01
      1.290  0.1382E+01  0.6109E+01
      1.396  0.1319E+01  0.6249E+01
      1.501  0.9901E+00  0.6354E+01
      1.607  0.6971E+00  0.6427E+01
      1.713  0.1122E+01  0.6546E+01
      1.819  0.2231E+01  0.6782E+01
      1.924  0.3614E+01  0.7164E+01
      2.030  0.4908E+01  0.7683E+01
      2.136  0.5360E+01  0.8250E+01
      2.242  0.5142E+01  0.8794E+01
      2.347  0.4064E+01  0.9223E+01
      2.453  0.2213E+01  0.9457E+01
      2.559  0.1794E+01  0.9647E+01
      2.665  0.3117E+01  0.9977E+01
      2.770  0.3775E+01  0.1038E+02
      2.876  0.3315E+01  0.1073E+02
      2.982  0.3084E+01  0.1105E+02
      3.087  0.2632E+01  0.1133E+02
      3.193  0.1608E+01  0.1150E+02
      3.299  0.1491E+01  0.1166E+02
      3.405  0.2948E+01  0.1197E+02
      3.510  0.4364E+01  0.1243E+02
      3.616  0.4699E+01  0.1293E+02
      3.722  0.4368E+01  0.1339E+02
      3.828  0.4069E+01  0.1382E+02
      3.933  0.4329E+01  0.1428E+02
      4.039  0.4642E+01  0.1477E+02
      4.145  0.4904E+01  0.1529E+02
      4.251  0.5650E+01  0.1589E+02
      4.356  0.6244E+01  0.1655E+02
      4.462  0.6107E+01  0.1719E+02
      4.568  0.5879E+01  0.1781E+02
      4.674  0.5974E+01  0.1845E+02
      4.779  0.5937E+01  0.1907E+02
      4.885  0.5570E+01  0.1966E+02
      4.991  0.5555E+01  0.2025E+02
      5.097  0.5290E+01  0.2081E+02
      5.202  0.3985E+01  0.2123E+02
      5.308  0.2710E+01  0.2152E+02
      5.414  0.3111E+01  0.2185E+02
      5.520  0.4895E+01  0.2236E+02
      5.625  0.5736E+01  0.2297E+02
      5.731  0.5513E+01  0.2355E+02
      5.837  0.5644E+01  0.2415E+02
      5.943  0.5327E+01  0.2471E+02
      6.048  0.3682E+01  0.2510E+02
      6.154  0.2189E+01  0.2533E+02
      6.260  0.2035E+01  0.2555E+02
      6.366  0.2198E+01  0.2578E+02
      6.471  0.2262E+01  0.2602E+02
      6.577  0.3069E+01  0.2635E+02
      6.683  0.4109E+01  0.2678E+02
      6.789  0.4339E+01  0.2724E+02
      6.894  0.3708E+01  0.2763E+02
      7.000  0.2946E+01  0.2794E+02
      7.106  0.2652E+01  0.2822E+02
      7.212  0.2569E+01  0.2850E+02
      7.317  0.2353E+01  0.2874E+02
      7.423  0.2386E+01  0.2900E+02
      7.529  0.3731E+01  0.2939E+02
      7.635  0.5699E+01  0.2999E+02
      7.740  0.5911E+01  0.3062E+02
      7.846  0.4308E+01  0.3107E+02
      7.952  0.2675E+01  0.3136E+02
      8.058  0.1832E+01  0.3155E+02
      8.163  0.2215E+01  0.3178E+02
      8.269  0.3494E+01  0.3215E+02
      8.375  0.4039E+01  0.3258E+02
      8.481  0.3501E+01  0.3295E+02
      8.586  0.2901E+01  0.3326E+02
      8.692  0.3174E+01  0.3359E+02
      8.798  0.3860E+01  0.3400E+02
      8.904  0.3815E+01  0.3441E+02
      9.009  0.3789E+01  0.3481E+02
      9.115  0.4463E+01  0.3528E+02
      9.221  0.5126E+01  0.3582E+02
      9.327  0.4971E+01  0.3635E+02
      9.432  0.4204E+01  0.3679E+02
      9.538  0.3653E+01  0.3718E+02
      9.644  0.3461E+01  0.3754E+02
      9.750  0.3598E+01  0.3792E+02
      9.855  0.4103E+01  0.3836E+02
      9.961  0.4133E+01  0.3879E+02
     10.067  0.3366E+01  0.3915E+02
     10.173  0.2662E+01  0.3943E+02
     10.278  0.2345E+01  0.3968E+02
     10.384  0.1651E+01  0.3985E+02
     10.490  0.6137E+00  0.3992E+02
     10.596  0.4933E+00  0.3997E+02
     10.701  0.1386E+01  0.4012E+02
     10.807  0.1795E+01  0.4031E+02
     10.913  0.1272E+01  0.4044E+02
     11.019  0.1129E+01  0.4056E+02
     11.124  0.1843E+01  0.4076E+02
     11.230  0.2354E+01  0.4101E+02
     11.336  0.2193E+01  0.4124E+02
     11.442  0.2350E+01  0.4149E+02
     11.547  0.2988E+01  0.4180E+02
     11.653  0.2696E+01  0.4209E+02
     11.759  0.1590E+01  0.4226E+02
     11.865  0.9813E+00  0.4236E+02
     11.970  0.1217E+01  0.4249E+02
     12.076  0.2007E+01  0.4270E+02
     12.182  0.2708E+01  0.4299E+02
     12.287  0.2758E+01  0.4328E+02
     12.393  0.2238E+01  0.4351E+02
     12.499  0.1620E+01  0.4369E+02
     12.605  0.1275E+01  0.4382E+02
     12.710  0.1188E+01  0.4395E+02
     12.816  0.1289E+01  0.4408E+02
     12.922  0.1515E+01  0.4424E+02
     13.028  0.2129E+01  0.4447E+02
     13.133  0.2838E+01  0.4477E+02
     13.239  0.2940E+01  0.4508E+02
     13.345  0.2903E+01  0.4539E+02
     13.451  0.2922E+01  0.4569E+02
     13.556  0.2598E+01  0.4597E+02
     13.662  0.2149E+01  0.4620E+02
     13.768  0.1876E+01  0.4640E+02
     13.874  0.1703E+01  0.4658E+02
     13.979  0.1401E+01  0.4672E+02
     14.085  0.9194E+00  0.4682E+02
     14.191  0.5236E+00  0.4688E+02
     14.297  0.4483E+00  0.4692E+02
     14.402  0.7774E+00  0.4701E+02
     14.508  0.1661E+01  0.4718E+02
     14.614  0.2572E+01  0.4745E+02
     14.720  0.2338E+01  0.4770E+02
     14.825  0.1709E+01  0.4788E+02
     14.931  0.2320E+01  0.4813E+02
     15.037  0.3184E+01  0.4846E+02
     15.143  0.2750E+01  0.4875E+02
     15.248  0.1887E+01  0.4895E+02
     15.354  0.1527E+01  0.4912E+02
     15.460  0.1346E+01  0.4926E+02
     15.566  0.1008E+01  0.4936E+02
     15.671  0.5184E+00  0.4942E+02
     15.777  0.4504E+00  0.4947E+02
     15.883  0.8865E+00  0.4956E+02
     15.989  0.1059E+01  0.4967E+02
     16.094  0.1008E+01  0.4978E+02
     16.200  0.1289E+01  0.4992E+02
     16.306  0.1673E+01  0.5009E+02
     16.412  0.1602E+01  0.5026E+02
     16.517  0.1305E+01  0.5040E+02
     16.623  0.1410E+01  0.5055E+02
     16.729  0.1533E+01  0.5071E+02
     16.835  0.1142E+01  0.5083E+02
     16.940  0.8586E+00  0.5092E+02
     17.046  0.1266E+01  0.5106E+02
     17.152  0.1775E+01  0.5124E+02
     17.258  0.1669E+01  0.5142E+02
     17.363  0.1325E+01  0.5156E+02
     17.469  0.1246E+01  0.5169E+02
     17.575  0.1239E+01  0.5182E+02
     17.681  0.1257E+01  0.5196E+02
     17.786  0.1430E+01  0.5211E+02
     17.892  0.1512E+01  0.5227E+02
     17.998  0.1459E+01  0.5242E+02
     18.104  0.1605E+01  0.5259E+02
     18.209  0.1703E+01  0.5277E+02
     18.315  0.1331E+01  0.5291E+02
     18.421  0.7136E+00  0.5299E+02
     18.527  0.3153E+00  0.5302E+02
     18.632  0.2582E+00  0.5305E+02
     18.738  0.3330E+00  0.5308E+02
     18.844  0.3529E+00  0.5312E+02
     18.950  0.4169E+00  0.5316E+02
     19.055  0.7942E+00  0.5325E+02
     19.161  0.1179E+01  0.5337E+02
     19.267  0.1421E+01  0.5352E+02
     19.373  0.1719E+01  0.5371E+02
     19.478  0.1774E+01  0.5389E+02
     19.584  0.1973E+01  0.5410E+02
     19.690  0.2917E+01  0.5441E+02
     19.796  0.3788E+01  0.5481E+02
     19.901  0.3788E+01  0.5521E+02
     20.007  0.3203E+01  0.5555E+02
     20.113  0.2397E+01  0.5580E+02
     20.219  0.1595E+01  0.5597E+02
     20.324  0.1019E+01  0.5608E+02
     20.430  0.9093E+00  0.5618E+02
     20.536  0.1436E+01  0.5633E+02
     20.642  0.2089E+01  0.5655E+02
     20.747  0.2074E+01  0.5677E+02
     20.853  0.1531E+01  0.5693E+02
     20.959  0.1340E+01  0.5707E+02
     21.065  0.1901E+01  0.5727E+02
     21.170  0.2426E+01  0.5753E+02
     21.276  0.1979E+01  0.5774E+02
     21.382  0.1115E+01  0.5786E+02
     21.488  0.8934E+00  0.5795E+02
     21.593  0.1436E+01  0.5810E+02
     21.699  0.2066E+01  0.5832E+02
     21.805  0.1806E+01  0.5851E+02
     21.910  0.7939E+00  0.5860E+02
     22.016  0.2628E+00  0.5862E+02
     22.122  0.5276E+00  0.5868E+02
     22.228  0.1127E+01  0.5880E+02
     22.333  0.1676E+01  0.5898E+02
     22.439  0.1564E+01  0.5914E+02
     22.545  0.7950E+00  0.5923E+02
     22.651  0.1292E+00  0.5924E+02
     22.756 -0.3581E-01  0.5924E+02
     22.862  0.1590E+00  0.5925E+02
     22.968  0.4107E+00  0.5930E+02
     23.074  0.4190E+00  0.5934E+02
     23.179  0.1945E+00  0.5936E+02
     23.285  0.1203E-02  0.5936E+02
     23.391 -0.7739E-01  0.5935E+02
     23.497 -0.9821E-02  0.5935E+02
     23.602  0.4829E+00  0.5940E+02
     23.708  0.1243E+01  0.5953E+02
     23.814  0.1343E+01  0.5968E+02
     23.920  0.6552E+00  0.5975E+02
     24.025  0.7503E-01  0.5975E+02
     24.131 -0.5819E-01  0.5975E+02
     24.237 -0.2990E-01  0.5974E+02
     24.343 -0.2329E-01  0.5974E+02
     24.448 -0.2523E-01  0.5974E+02
     24.554  0.9696E-01  0.5975E+02
     24.660  0.4015E+00  0.5979E+02
     24.766  0.6534E+00  0.5986E+02
     24.871  0.6869E+00  0.5993E+02
     24.977  0.4960E+00  0.5999E+02
     25.083  0.1754E+00  0.6000E+02
     25.189 -0.8941E-02  0.6000E+02
     25.294 -0.2471E-01  0.6000E+02
     25.400 -0.6877E-02  0.6000E+02
     25.506 -0.8440E-03  0.6000E+02
     25.612 -0.5302E-04  0.6000E+02
     25.717 -0.1792E-05  0.6000E+02
     25.823 -0.3336E-07  0.6000E+02
     25.929 -0.3462E-09  0.6000E+02
     26.035 -0.2017E-11  0.6000E+02
     26.140 -0.6450E-14  0.6000E+02
     26.246  0.0000E+00  0.6000E+02
     26.352  0.0000E+00  0.6000E+02
     26.458  0.0000E+00  0.6000E+02
     26.563  0.0000E+00  0.6000E+02
     26.669  0.0000E+00  0.6000E+02
     26.775  0.0000E+00  0.6000E+02
     26.881  0.0000E+00  0.6000E+02
