    4    4    1    1
  0.1444527E+02  0.3866000E-09  0.3866000E-09  0.3866000E-09  0.5000000E-15
  1.000000000000000E-004
  CAR 
 unknown system                          
     40     27     30
 
  0.0000000E+00  0.0000000E+00  0.0000000E+00  0.8000000E-02
    1       -2.027921   1.000000
    2       -1.843470   1.000000
    3       -0.057724   1.000000
    4        1.192680   1.000000
    5        1.810378   1.000000
    6        2.281838   1.000000
    7        2.426708   1.000000
    8        3.503214   1.000000
    9        4.299071   1.000000
   10        4.876104   1.000000
   11        4.984317   1.000000
   12        5.163384   1.000000
   13        7.808819   1.000000
   14        9.357627   1.000000
   15       10.262425   1.014215
   16       10.892875  -0.033530
   17       10.925496  -0.027217
   18       10.940154  -0.023853
   19       12.115889  -0.000000
   20       12.210672  -0.000000
   21       13.109432  -0.000000
   22       13.607837  -0.000000
   23       13.611160  -0.000000
   24       14.094554  -0.000000
   25       14.948261  -0.000000
   26       17.622188   0.000000
   27       19.096956   0.000000
   28       19.364663   0.000000
   29       19.595019   0.000000
   30       19.949807   0.000000
 
  0.2000000E+00  0.0000000E+00  0.0000000E+00  0.1600000E-01
    1       -2.158559   1.000000
    2       -0.949114   1.000000
    3       -0.384998   1.000000
    4        0.420421   1.000000
    5        0.615020   1.000000
    6        1.330996   1.000000
    7        2.684532   1.000000
    8        3.440104   1.000000
    9        3.672600   1.000000
   10        3.837470   1.000000
   11        3.859859   1.000000
   12        4.557451   1.000000
   13        7.642571   1.000000
   14        8.754069   1.000000
   15        9.049055   1.000000
   16        9.372698   1.000000
   17        9.604493   1.000000
   18        9.737405   1.000000
   19        9.952559   1.000011
   20       10.279763   1.017728
   21       12.771943  -0.000000
   22       14.052641  -0.000000
   23       14.093826  -0.000000
   24       14.126450  -0.000000
   25       15.467768  -0.000000
   26       17.686659   0.000000
   27       18.778520   0.000000
   28       19.763769   0.000000
   29       19.826197   0.000000
   30       21.193616   0.000000
 
  0.0000000E+00  0.2000000E+00  0.0000000E+00  0.1600000E-01
    1       -2.217845   1.000000
    2       -0.715800   1.000000
    3        0.031277   1.000000
    4        0.427146   1.000000
    5        0.554134   1.000000
    6        1.775528   1.000000
    7        2.642269   1.000000
    8        2.803554   1.000000
    9        3.904189   1.000000
   10        4.209783   1.000000
   11        4.390010   1.000000
   12        4.733118   1.000000
   13        7.571082   1.000000
   14        8.212857   1.000000
   15        8.603146   1.000000
   16        9.006600   1.000000
   17        9.679777   1.000000
   18        9.972240   1.000021
   19       10.113174   1.000915
   20       10.187153   1.004251
   21       12.167509  -0.000000
   22       13.321260  -0.000000
   23       14.472460  -0.000000
   24       14.732065  -0.000000
   25       15.027528  -0.000000
   26       17.947400   0.000000
   27       19.227204   0.000000
   28       19.619716   0.000000
   29       19.652719   0.000000
   30       21.363383   0.000000
 
  0.0000000E+00  0.0000000E+00  0.2000000E+00  0.1600000E-01
    1       -2.214038   1.000000
    2       -0.824631   1.000000
    3        0.038436   1.000000
    4        0.426771   1.000000
    5        0.478304   1.000000
    6        1.253369   1.000000
    7        2.693173   1.000000
    8        3.400767   1.000000
    9        3.655239   1.000000
   10        3.912164   1.000000
   11        4.228512   1.000000
   12        4.595730   1.000000
   13        7.535345   1.000000
   14        8.691829   1.000000
   15        9.200153   1.000000
   16        9.277985   1.000000
   17        9.345210   1.000000
   18        9.685714   1.000000
   19        9.997646   1.000044
   20       10.223554   1.007994
   21       11.911961  -0.000000
   22       13.619490  -0.000000
   23       14.266930  -0.000000
   24       14.542529  -0.000000
   25       14.685454  -0.000000
   26       18.279868   0.000000
   27       19.284252   0.000000
   28       19.753659   0.000000
   29       19.789608   0.000000
   30       21.231813   0.000000
 
  0.4000000E+00  0.0000000E+00  0.0000000E+00  0.1600000E-01
    1       -1.538311   1.000000
    2       -1.528351   1.000000
    3       -1.464137   1.000000
    4        1.201798   1.000000
    5        1.694277   1.000000
    6        1.946550   1.000000
    7        3.682192   1.000000
    8        4.110275   1.000000
    9        4.218110   1.000000
   10        4.533225   1.000000
   11        4.598400   1.000000
   12        5.407308   1.000000
   13        5.932712   1.000000
   14        6.085028   1.000000
   15        7.103965   1.000000
   16        8.323891   1.000000
   17        8.802208   1.000000
   18        9.053711   1.000000
   19        9.595988   1.000000
   20       10.372851   1.035335
   21       11.611033  -0.000000
   22       13.727775  -0.000000
   23       14.635400  -0.000000
   24       14.988534  -0.000000
   25       15.154304  -0.000000
   26       17.714345   0.000000
   27       17.939368   0.000000
   28       18.189355   0.000000
   29       19.155392   0.000000
   30       20.745361   0.000000
 
  0.0000000E+00  0.4000000E+00  0.0000000E+00  0.1600000E-01
    1       -1.216166   1.000000
    2       -1.168415   1.000000
    3       -1.154343   1.000000
    4        1.740130   1.000000
    5        2.280690   1.000000
    6        2.734557   1.000000
    7        3.017074   1.000000
    8        3.602752   1.000000
    9        3.830644   1.000000
   10        3.852128   1.000000
   11        4.399671   1.000000
   12        6.590527   1.000000
   13        6.725261   1.000000
   14        6.924411   1.000000
   15        7.074911   1.000000
   16        8.052547   1.000000
   17        8.230977   1.000000
   18        8.551907   1.000000
   19        8.742735   1.000000
   20        9.597911   1.000000
   21       11.764029  -0.000000
   22       12.164931  -0.000000
   23       14.416149  -0.000000
   24       14.893148  -0.000000
   25       15.080925  -0.000000
   26       17.802720   0.000000
   27       18.015095   0.000000
   28       18.272044   0.000000
   29       20.030218   0.000000
   30       20.581008   0.000000
 
  0.0000000E+00  0.0000000E+00  0.4000000E+00  0.1600000E-01
    1       -1.384104   1.000000
    2       -1.360739   1.000000
    3       -1.356056   1.000000
    4        1.662836   1.000000
    5        1.932016   1.000000
    6        2.246977   1.000000
    7        3.394209   1.000000
    8        3.955356   1.000000
    9        4.126150   1.000000
   10        4.204477   1.000000
   11        4.397119   1.000000
   12        5.892124   1.000000
   13        6.268761   1.000000
   14        6.552870   1.000000
   15        6.768553   1.000000
   16        8.338111   1.000000
   17        8.409106   1.000000
   18        8.755654   1.000000
   19        9.572012   1.000000
   20        9.589535   1.000000
   21       11.001374  -0.011250
   22       13.119516  -0.000000
   23       13.787902  -0.000000
   24       14.899530  -0.000000
   25       15.257149  -0.000000
   26       17.707586   0.000000
   27       18.152408   0.000000
   28       19.019529   0.000000
   29       20.095828   0.000000
   30       20.354903   0.000000
 
  0.2000000E+00  0.2000000E+00  0.0000000E+00  0.3200000E-01
    1       -2.303566   1.000000
    2       -1.777665   1.000000
    3        0.097690   1.000000
    4        0.876074   1.000000
    5        1.528364   1.000000
    6        1.836074   1.000000
    7        2.932042   1.000000
    8        3.422273   1.000000
    9        3.789386   1.000000
   10        4.521612   1.000000
   11        5.089444   1.000000
   12        5.444457   1.000000
   13        7.246823   1.000000
   14        7.471910   1.000000
   15        8.212953   1.000000
   16        8.669796   1.000000
   17        9.395292   1.000000
   18        9.421952   1.000000
   19        9.496492   1.000000
   20       10.012179   1.000068
   21       11.070780  -0.003467
   22       12.805004  -0.000000
   23       13.174157  -0.000000
   24       15.520562  -0.000000
   25       15.537036  -0.000000
   26       18.101610   0.000000
   27       18.783223   0.000000
   28       19.731488   0.000000
   29       20.498194   0.000000
   30       20.961127   0.000000
 
  0.0000000E+00  0.2000000E+00  0.2000000E+00  0.3200000E-01
    1       -2.276963   1.000000
    2       -1.807593   1.000000
    3        0.545229   1.000000
    4        0.860271   1.000000
    5        1.133170   1.000000
    6        1.733487   1.000000
    7        2.974373   1.000000
    8        3.453693   1.000000
    9        3.809039   1.000000
   10        4.520435   1.000000
   11        5.195975   1.000000
   12        5.480057   1.000000
   13        7.270564   1.000000
   14        7.673703   1.000000
   15        8.271531   1.000000
   16        8.405410   1.000000
   17        8.982245   1.000000
   18        9.235329   1.000000
   19        9.533135   1.000000
   20        9.842329   1.000000
   21       11.270035  -0.000024
   22       12.912763  -0.000000
   23       13.749687  -0.000000
   24       15.230937  -0.000000
   25       15.297331  -0.000000
   26       18.155231   0.000000
   27       18.334110   0.000000
   28       20.569330   0.000000
   29       20.647369   0.000000
   30       20.739803   0.000000
 
  0.2000000E+00  0.0000000E+00  0.2000000E+00  0.3200000E-01
    1       -2.305710   1.000000
    2       -1.794553   1.000000
    3       -0.093198   1.000000
    4        0.875000   1.000000
    5        1.449757   1.000000
    6        1.998690   1.000000
    7        2.952560   1.000000
    8        3.655150   1.000000
    9        3.675949   1.000000
   10        4.531680   1.000000
   11        5.032499   1.000000
   12        5.351488   1.000000
   13        7.227739   1.000000
   14        7.518596   1.000000
   15        7.914165   1.000000
   16        8.460058   1.000000
   17        9.332523   1.000000
   18        9.787551   1.000000
   19        9.845914   1.000000
   20        9.945408   1.000009
   21       11.841326  -0.000000
   22       12.378633  -0.000000
   23       12.760671  -0.000000
   24       15.381969  -0.000000
   25       15.499157  -0.000000
   26       18.287193   0.000000
   27       18.559133   0.000000
   28       19.961084   0.000000
   29       20.645308   0.000000
   30       21.088414   0.000000
 
  0.4000000E+00  0.2000000E+00  0.0000000E+00  0.3200000E-01
    1       -2.221132   1.000000
    2       -0.583855   1.000000
    3       -0.347106   1.000000
    4       -0.024883   1.000000
    5        2.101509   1.000000
    6        2.276917   1.000000
    7        3.909081   1.000000
    8        4.191749   1.000000
    9        4.379683   1.000000
   10        4.543035   1.000000
   11        4.595360   1.000000
   12        4.902564   1.000000
   13        5.684491   1.000000
   14        5.927435   1.000000
   15        7.148546   1.000000
   16        8.178524   1.000000
   17        8.220745   1.000000
   18        9.351117   1.000000
   19        9.755219   1.000000
   20       10.285332   1.018936
   21       12.048944  -0.000000
   22       12.540381  -0.000000
   23       13.357854  -0.000000
   24       14.314392  -0.000000
   25       16.563758   0.000000
   26       16.669658   0.000000
   27       19.447485   0.000000
   28       19.655123   0.000000
   29       21.101391   0.000000
   30       22.385555   0.000000
 
  0.0000000E+00  0.4000000E+00  0.2000000E+00  0.3200000E-01
    1       -2.239794   1.000000
    2       -0.756386   1.000000
    3       -0.423833   1.000000
    4        1.894989   1.000000
    5        2.075972   1.000000
    6        2.691370   1.000000
    7        3.364814   1.000000
    8        3.771279   1.000000
    9        4.398883   1.000000
   10        4.453002   1.000000
   11        4.977420   1.000000
   12        5.841022   1.000000
   13        5.931637   1.000000
   14        6.303431   1.000000
   15        7.145864   1.000000
   16        7.374109   1.000000
   17        7.804916   1.000000
   18        8.275351   1.000000
   19        9.108546   1.000000
   20       10.771828   0.026512
   21       11.391043  -0.000000
   22       12.588920  -0.000000
   23       13.283514  -0.000000
   24       14.803040  -0.000000
   25       16.199861   0.000000
   26       17.110307   0.000000
   27       19.071321   0.000000
   28       19.079342   0.000000
   29       21.058740   0.000000
   30       22.911384   0.000000
 
  0.2000000E+00  0.0000000E+00  0.4000000E+00  0.3200000E-01
    1       -2.111939   1.000000
    2       -0.486155   1.000000
    3       -0.266697   1.000000
    4        0.760207   1.000000
    5        2.005631   1.000000
    6        2.676551   1.000000
    7        3.608093   1.000000
    8        3.921453   1.000000
    9        4.276952   1.000000
   10        4.801816   1.000000
   11        4.810504   1.000000
   12        5.436702   1.000000
   13        5.558674   1.000000
   14        5.727656   1.000000
   15        6.856279   1.000000
   16        7.813239   1.000000
   17        8.431371   1.000000
   18        9.049591   1.000000
   19        9.865195   1.000001
   20        9.985306   1.000031
   21       11.299154  -0.000010
   22       12.099980  -0.000000
   23       13.085324  -0.000000
   24       14.543618  -0.000000
   25       16.189218   0.000000
   26       16.724959   0.000000
   27       19.265759   0.000000
   28       19.892972   0.000000
   29       21.105653   0.000000
   30       22.424468   0.000000
 
 -0.2000000E+00  0.4000000E+00  0.0000000E+00  0.3200000E-01
    1       -2.189500   1.000000
    2       -0.530535   1.000000
    3       -0.491055   1.000000
    4        1.899660   1.000000
    5        2.095931   1.000000
    6        2.737967   1.000000
    7        3.359632   1.000000
    8        3.608567   1.000000
    9        4.298681   1.000000
   10        4.559585   1.000000
   11        4.952867   1.000000
   12        5.763767   1.000000
   13        5.936015   1.000000
   14        6.215040   1.000000
   15        7.001778   1.000000
   16        7.492373   1.000000
   17        8.025378   1.000000
   18        8.293545   1.000000
   19        9.097165   1.000000
   20       10.747300   0.071762
   21       11.238838  -0.000061
   22       12.359981  -0.000000
   23       13.175960  -0.000000
   24       14.711847  -0.000000
   25       16.222165   0.000000
   26       17.082559   0.000000
   27       19.094025   0.000000
   28       19.573939   0.000000
   29       21.166374   0.000000
   30       22.230363   0.000000
 
 -0.4000000E+00  0.0000000E+00  0.2000000E+00  0.3200000E-01
    1       -2.103893   1.000000
    2       -0.432244   1.000000
    3       -0.314116   1.000000
    4       -0.025305   1.000000
    5        2.090267   1.000000
    6        2.282169   1.000000
    7        3.699545   1.000000
    8        4.186754   1.000000
    9        4.288583   1.000000
   10        4.496064   1.000000
   11        4.892333   1.000000
   12        5.045260   1.000000
   13        5.519407   1.000000
   14        5.544991   1.000000
   15        7.139044   1.000000
   16        8.259688   1.000000
   17        8.607803   1.000000
   18        9.613198   1.000000
   19        9.978970   1.000025
   20       10.068959   1.000314
   21       12.070800  -0.000000
   22       12.246163  -0.000000
   23       13.185957  -0.000000
   24       14.416405  -0.000000
   25       16.473324   0.000000
   26       16.603452   0.000000
   27       19.321064   0.000000
   28       19.379207   0.000000
   29       21.174300   0.000000
   30       22.457053   0.000000
 
  0.0000000E+00  0.2000000E+00  0.4000000E+00  0.3200000E-01
    1       -2.277434   1.000000
    2       -0.765096   1.000000
    3       -0.331782   1.000000
    4        0.755605   1.000000
    5        2.011223   1.000000
    6        2.603038   1.000000
    7        3.928889   1.000000
    8        3.994790   1.000000
    9        4.414182   1.000000
   10        4.459933   1.000000
   11        5.001795   1.000000
   12        5.194667   1.000000
   13        5.808359   1.000000
   14        6.221847   1.000000
   15        6.936184   1.000000
   16        7.697985   1.000000
   17        7.716118   1.000000
   18        8.811007   1.000000
   19        9.733505   1.000000
   20       10.127282   1.001258
   21       11.604380  -0.000000
   22       12.442437  -0.000000
   23       13.296662  -0.000000
   24       14.588686  -0.000000
   25       16.296362   0.000000
   26       16.765787   0.000000
   27       19.372874   0.000000
   28       19.687322   0.000000
   29       20.926212   0.000000
   30       23.025627   0.000000
 
  0.4000000E+00  0.4000000E+00  0.0000000E+00  0.3200000E-01
    1       -2.809249   1.000000
    2       -2.497661   1.000000
    3        0.929839   1.000000
    4        2.674755   1.000000
    5        2.979658   1.000000
    6        3.104467   1.000000
    7        3.986206   1.000000
    8        4.426673   1.000000
    9        4.621881   1.000000
   10        4.668924   1.000000
   11        4.766514   1.000000
   12        5.250849   1.000000
   13        5.727572   1.000000
   14        5.906429   1.000000
   15        6.380686   1.000000
   16        7.004743   1.000000
   17        7.677668   1.000000
   18        8.122403   1.000000
   19        8.228463   1.000000
   20        8.938259   1.000000
   21        8.978509   1.000000
   22        9.618689   1.000000
   23       12.250899  -0.000000
   24       13.318010  -0.000000
   25       17.057257   0.000000
   26       18.014997   0.000000
   27       20.222929   0.000000
   28       20.413119   0.000000
   29       20.714771   0.000000
   30       21.239769   0.000000
 
  0.0000000E+00  0.4000000E+00  0.4000000E+00  0.3200000E-01
    1       -2.843547   1.000000
    2       -2.535904   1.000000
    3        0.942159   1.000000
    4        2.336327   1.000000
    5        2.905172   1.000000
    6        3.157521   1.000000
    7        4.134823   1.000000
    8        4.320548   1.000000
    9        4.402763   1.000000
   10        5.016114   1.000000
   11        5.059827   1.000000
   12        5.456364   1.000000
   13        5.463456   1.000000
   14        5.780062   1.000000
   15        5.996807   1.000000
   16        6.975706   1.000000
   17        7.693703   1.000000
   18        8.366780   1.000000
   19        8.495246   1.000000
   20        8.744208   1.000000
   21        9.281717   1.000000
   22        9.420709   1.000000
   23       13.101870  -0.000000
   24       13.518432  -0.000000
   25       16.960240   0.000000
   26       17.869891   0.000000
   27       19.828589   0.000000
   28       20.155487   0.000000
   29       20.307887   0.000000
   30       21.182800   0.000000
 
  0.4000000E+00  0.0000000E+00  0.4000000E+00  0.3200000E-01
    1       -2.757615   1.000000
    2       -2.395278   1.000000
    3        0.915931   1.000000
    4        2.849053   1.000000
    5        2.940560   1.000000
    6        3.235384   1.000000
    7        4.001195   1.000000
    8        4.262726   1.000000
    9        4.325257   1.000000
   10        4.507210   1.000000
   11        4.770181   1.000000
   12        4.910892   1.000000
   13        5.668855   1.000000
   14        5.928303   1.000000
   15        7.054329   1.000000
   16        7.425609   1.000000
   17        7.647905   1.000000
   18        7.727184   1.000000
   19        8.448034   1.000000
   20        8.962516   1.000000
   21        9.083421   1.000000
   22       10.304447   1.023272
   23       11.502509  -0.000000
   24       12.975030  -0.000000
   25       16.869103   0.000000
   26       17.857434   0.000000
   27       19.688000   0.000000
   28       20.640973   0.000000
   29       20.984642   0.000000
   30       21.137868   0.000000
 
  0.2000000E+00  0.2000000E+00  0.2000000E+00  0.6400000E-01
    1       -2.484835   1.000000
    2       -1.813610   1.000000
    3       -1.744173   1.000000
    4        0.975833   1.000000
    5        1.263896   1.000000
    6        1.788326   1.000000
    7        3.079424   1.000000
    8        3.562360   1.000000
    9        3.920514   1.000000
   10        4.307803   1.000000
   11        4.743250   1.000000
   12        4.984942   1.000000
   13        5.711411   1.000000
   14        6.889096   1.000000
   15        7.312035   1.000000
   16        7.625939   1.000000
   17        8.508729   1.000000
   18        9.261166   1.000000
   19        9.857965   1.000000
   20       10.312499   1.025135
   21       11.239377  -0.000060
   22       11.543966  -0.000000
   23       12.797720  -0.000000
   24       13.380269  -0.000000
   25       16.318312   0.000000
   26       17.467168   0.000000
   27       18.120241   0.000000
   28       19.839459   0.000000
   29       20.566922   0.000000
   30       20.805227   0.000000
 
  0.4000000E+00  0.2000000E+00  0.2000000E+00  0.6400000E-01
    1       -1.302946   1.000000
    2       -1.077447   1.000000
    3        0.099383   1.000000
    4        1.998963   1.000000
    5        2.195474   1.000000
    6        2.715079   1.000000
    7        3.581039   1.000000
    8        4.207819   1.000000
    9        4.537600   1.000000
   10        4.750780   1.000000
   11        4.922480   1.000000
   12        5.150966   1.000000
   13        5.550339   1.000000
   14        6.659522   1.000000
   15        6.775603   1.000000
   16        7.925103   1.000000
   17        8.761963   1.000000
   18        8.936109   1.000000
   19        9.211690   1.000000
   20        9.551727   1.000000
   21       11.197672  -0.000189
   22       11.456001  -0.000000
   23       13.938503  -0.000000
   24       14.602767  -0.000000
   25       15.023396  -0.000000
   26       15.895214  -0.000000
   27       19.585823   0.000000
   28       19.997466   0.000000
   29       21.585352   0.000000
   30       22.082314   0.000000
 
  0.2000000E+00  0.4000000E+00  0.2000000E+00  0.6400000E-01
    1       -1.522524   1.000000
    2       -0.541902   1.000000
    3       -0.166798   1.000000
    4        1.999629   1.000000
    5        2.264158   1.000000
    6        2.655008   1.000000
    7        3.650638   1.000000
    8        4.032294   1.000000
    9        4.760578   1.000000
   10        5.077585   1.000000
   11        5.549634   1.000000
   12        5.871761   1.000000
   13        5.992960   1.000000
   14        6.395411   1.000000
   15        6.786793   1.000000
   16        7.292182   1.000000
   17        7.979527   1.000000
   18        8.500858   1.000000
   19        8.734220   1.000000
   20        9.447574   1.000000
   21       11.073235  -0.003307
   22       12.100369  -0.000000
   23       13.553827  -0.000000
   24       14.614701  -0.000000
   25       15.000720  -0.000000
   26       16.062181  -0.000000
   27       19.722177   0.000000
   28       20.159392   0.000000
   29       21.748780   0.000000
   30       22.300732   0.000000
 
  0.2000000E+00  0.2000000E+00  0.4000000E+00  0.6400000E-01
    1       -1.401822   1.000000
    2       -0.824868   1.000000
    3       -0.038767   1.000000
    4        2.021403   1.000000
    5        2.319877   1.000000
    6        2.605650   1.000000
    7        3.600692   1.000000
    8        4.225712   1.000000
    9        4.565323   1.000000
   10        5.021614   1.000000
   11        5.222901   1.000000
   12        5.533568   1.000000
   13        5.623828   1.000000
   14        6.550678   1.000000
   15        6.751570   1.000000
   16        7.579663   1.000000
   17        8.320655   1.000000
   18        8.758213   1.000000
   19        9.180514   1.000000
   20        9.367963   1.000000
   21       11.119134  -0.001277
   22       11.544956  -0.000000
   23       13.434590  -0.000000
   24       14.583917  -0.000000
   25       15.016686  -0.000000
   26       16.381450   0.000000
   27       19.399946   0.000000
   28       19.958235   0.000000
   29       21.741437   0.000000
   30       22.301606   0.000000
 
  0.4000000E+00  0.4000000E+00  0.2000000E+00  0.6400000E-01
    1        1.094668   1.000000
    2        2.040297   1.000000
    3        2.164138   1.000000
    4        2.718414   1.000000
    5        3.434376   1.000000
    6        4.024658   1.000000
    7        4.205088   1.000000
    8        4.732262   1.000000
    9        5.205431   1.000000
   10        5.482115   1.000000
   11        5.799045   1.000000
   12        6.253183   1.000000
   13        6.548617   1.000000
   14        6.569510   1.000000
   15        7.606978   1.000000
   16        7.782823   1.000000
   17        8.729259   1.000000
   18        9.105457   1.000000
   19        9.834432   1.000000
   20       10.104008   1.000740
   21       10.799702  -0.007916
   22       12.159357  -0.000000
   23       13.108865  -0.000000
   24       13.510261  -0.000000
   25       15.140194  -0.000000
   26       17.201764   0.000000
   27       17.613748   0.000000
   28       19.753437   0.000000
   29       21.601751   0.000000
   30       23.788719   0.000000
 
  0.2000000E+00  0.4000000E+00  0.4000000E+00  0.6400000E-01
    1        1.392151   1.000000
    2        1.809543   1.000000
    3        2.267052   1.000000
    4        2.487654   1.000000
    5        3.463177   1.000000
    6        3.863908   1.000000
    7        4.048806   1.000000
    8        4.675608   1.000000
    9        5.002781   1.000000
   10        5.616184   1.000000
   11        5.811141   1.000000
   12        5.964500   1.000000
   13        6.660298   1.000000
   14        6.832231   1.000000
   15        7.577803   1.000000
   16        7.863833   1.000000
   17        8.855622   1.000000
   18        9.193750   1.000000
   19        9.853302   1.000000
   20       10.223677   1.008010
   21       10.682972   0.260469
   22       12.341224  -0.000000
   23       13.660567  -0.000000
   24       13.770834  -0.000000
   25       14.930470  -0.000000
   26       16.658221   0.000000
   27       17.279089   0.000000
   28       20.019267   0.000000
   29       21.706584   0.000000
   30       23.699113   0.000000
 
  0.4000000E+00  0.2000000E+00  0.4000000E+00  0.6400000E-01
    1        0.924617   1.000000
    2        1.990875   1.000000
    3        2.253246   1.000000
    4        2.890275   1.000000
    5        3.398677   1.000000
    6        4.101662   1.000000
    7        4.373497   1.000000
    8        4.708589   1.000000
    9        4.885599   1.000000
   10        5.400822   1.000000
   11        5.770347   1.000000
   12        6.122580   1.000000
   13        6.589239   1.000000
   14        7.077589   1.000000
   15        7.591409   1.000000
   16        7.673106   1.000000
   17        8.997238   1.000000
   18        9.267081   1.000000
   19        9.576536   1.000000
   20        9.969106   1.000019
   21       11.578814  -0.000000
   22       11.954140  -0.000000
   23       12.572598  -0.000000
   24       13.350474  -0.000000
   25       14.944707  -0.000000
   26       17.095136   0.000000
   27       17.801204   0.000000
   28       19.851248   0.000000
   29       21.414758   0.000000
   30       23.676040   0.000000
 
  0.4000000E+00  0.4000000E+00  0.4000000E+00  0.6400000E-01
    1       -0.454939   1.000000
    2       -0.179192   1.000000
    3        0.024076   1.000000
    4        2.218576   1.000000
    5        3.022201   1.000000
    6        3.418146   1.000000
    7        3.757997   1.000000
    8        4.329431   1.000000
    9        4.694200   1.000000
   10        5.553339   1.000000
   11        5.871814   1.000000
   12        6.307292   1.000000
   13        6.724024   1.000000
   14        7.531774   1.000000
   15        7.732615   1.000000
   16        8.243803   1.000000
   17        9.160126   1.000000
   18        9.737047   1.000000
   19       10.680620   0.269098
   20       11.481135  -0.000000
   21       11.734596  -0.000000
   22       12.269171  -0.000000
   23       13.004313  -0.000000
   24       13.088044  -0.000000
   25       13.900207  -0.000000
   26       15.306723  -0.000000
   27       15.847640  -0.000000
   28       17.431132   0.000000
   29       24.682520   0.000000
   30       24.880614   0.000000
