unknown system                          
   1.00000000000000     
     3.866000    0.000000    0.000000
     0.000000    3.866000    0.000000
     0.000000    0.000000    3.866000
   Pd   Ir   Pt   Cu
     1     1     1     1
Direct
  0.000000  0.000000  0.000000
  0.500000  0.500000  0.000000
  0.500000  0.000000  0.500000
  0.000000  0.500000  0.500000
 
   28   28   28
  351.68      330.96      279.32      217.95      161.09      111.60      70.126      40.542      24.239      15.970    
  12.212      10.362      9.5298      9.6563      9.9144      9.6563      9.5298      10.362      12.212      15.970    
  24.239      40.542      70.126      111.60      161.09      217.95      279.32      330.96      331.03      311.60    
  263.11      205.39      151.83      105.28      66.474      38.944      23.688      15.795      12.210      10.432    
  9.6202      9.7205      9.9566      9.7205      9.6202      10.432      12.210      15.795      23.688      38.944    
  66.474      105.28      151.83      205.39      263.11      311.60      278.63      262.44      221.90      173.38    
  128.18      89.150      57.187      34.893      22.236      15.413      12.353      10.837      10.140      10.208    
  10.398      10.208      10.140      10.837      12.353      15.413      22.236      34.893      57.187      89.150    
  128.18      173.38      221.90      262.44      214.79      202.49      171.51      134.10      99.132      69.432    
  45.961      29.995      20.376      15.139      12.922      11.913      11.507      11.620      11.777      11.620    
  11.507      11.913      12.922      15.139      20.376      29.995      45.961      69.432      99.132      134.10    
  171.51      202.49      155.25      146.54      124.43      97.474      72.303      51.558      35.987      25.515    
  18.715      15.326      14.188      13.938      14.046      14.357      14.535      14.357      14.046      13.938    
  14.188      15.326      18.715      25.515      35.987      51.558      72.303      97.474      124.43      146.54    
  105.41      99.728      85.237      67.453      50.984      37.910      28.511      21.892      17.870      16.433    
  16.617      17.444      18.385      19.154      19.462      19.154      18.385      17.444      16.617      16.433    
  17.870      21.892      28.511      37.910      50.984      67.453      85.237      99.728      66.076      62.888    
  54.736      44.728      35.554      28.404      23.101      19.642      18.383      19.032      20.897      23.386    
  25.950      27.921      28.668      27.921      25.950      23.386      20.897      19.032      18.383      19.642    
  23.101      28.404      35.554      44.728      54.736      62.888      38.794      37.396      33.813      29.380    
  25.197      21.731      19.563      19.156      20.552      23.527      27.950      33.359      38.787      42.889    
  44.426      42.889      38.787      33.359      27.950      23.527      20.552      19.156      19.563      21.731    
  25.197      29.380      33.813      37.396      23.390      22.893      21.577      19.872      18.342      17.588    
  18.170      20.415      24.407      30.365      38.134      47.017      55.639      62.057      64.449      62.057    
  55.639      47.017      38.134      30.365      24.407      20.415      18.170      17.588      18.342      19.872    
  21.577      22.893      15.275      15.116      14.772      14.544      14.785      15.952      18.606      23.141    
  30.040      39.235      50.085      61.672      72.558      80.594      83.590      80.594      72.558      61.672    
  50.085      39.235      30.040      23.141      18.606      15.952      14.785      14.544      14.772      15.116    
  11.477      11.479      11.624      12.191      13.465      15.914      20.189      27.112      37.121      49.273    
  62.278      75.286      87.297      96.268      99.656      96.268      87.297      75.286      62.278      49.273    
  37.121      27.112      20.189      15.914      13.465      12.191      11.624      11.479      9.6185      9.6865    
  10.073      11.108      13.086      16.533      22.316      31.822      44.951      59.685      74.208      88.158    
  101.29      111.52      115.49      111.52      101.29      88.158      74.208      59.685      44.951      31.822    
  22.316      16.533      13.086      11.108      10.073      9.6865      8.8340      8.9139      9.3895      10.672    
  13.103      17.285      24.465      36.427      52.414      69.444      85.463      100.88      116.16      128.70    
  133.71      128.70      116.16      100.88      85.463      69.444      52.414      36.427      24.465      17.285    
  13.103      10.672      9.3895      8.9139      8.9915      9.0366      9.4576      10.755      13.341      17.905    
  26.083      39.850      57.945      76.745      94.188      111.39      129.25      144.40      150.53      144.40    
  129.25      111.39      94.188      76.745      57.945      39.850      26.083      17.905      13.341      10.755    
  9.4576      9.0366      9.2538      9.2735      9.6394      10.894      13.488      18.153      26.689      41.123    
  60.007      79.498      97.564      115.60      134.65      150.98      157.62      150.98      134.65      115.60    
  97.564      79.498      60.007      41.123      26.689      18.153      13.488      10.894      9.6394      9.2735    
  8.9915      9.0366      9.4576      10.755      13.341      17.905      26.083      39.850      57.945      76.745    
  94.188      111.39      129.25      144.40      150.53      144.40      129.25      111.39      94.188      76.745    
  57.945      39.850      26.083      17.905      13.341      10.755      9.4576      9.0366      8.8340      8.9139    
  9.3895      10.672      13.103      17.285      24.465      36.427      52.414      69.444      85.463      100.88    
  116.16      128.70      133.71      128.70      116.16      100.88      85.463      69.444      52.414      36.427    
  24.465      17.285      13.103      10.672      9.3895      8.9139      9.6185      9.6865      10.073      11.108    
  13.086      16.533      22.316      31.822      44.951      59.685      74.208      88.158      101.29      111.52    
  115.49      111.52      101.29      88.158      74.208      59.685      44.951      31.822      22.316      16.533    
  13.086      11.108      10.073      9.6865      11.477      11.479      11.624      12.191      13.465      15.914    
  20.189      27.112      37.121      49.273      62.278      75.286      87.297      96.268      99.656      96.268    
  87.297      75.286      62.278      49.273      37.121      27.112      20.189      15.914      13.465      12.191    
  11.624      11.479      15.275      15.116      14.772      14.544      14.785      15.952      18.606      23.141    
  30.040      39.235      50.085      61.672      72.558      80.594      83.590      80.594      72.558      61.672    
  50.085      39.235      30.040      23.141      18.606      15.952      14.785      14.544      14.772      15.116    
  23.390      22.893      21.577      19.872      18.342      17.588      18.170      20.415      24.407      30.365    
  38.134      47.017      55.639      62.057      64.449      62.057      55.639      47.017      38.134      30.365    
  24.407      20.415      18.170      17.588      18.342      19.872      21.577      22.893      38.794      37.396    
  33.813      29.380      25.197      21.731      19.563      19.156      20.552      23.527      27.950      33.359    
  38.787      42.889      44.426      42.889      38.787      33.359      27.950      23.527      20.552      19.156    
  19.563      21.731      25.197      29.380      33.813      37.396      66.076      62.888      54.736      44.728    
  35.554      28.404      23.101      19.642      18.383      19.032      20.897      23.386      25.950      27.921    
  28.668      27.921      25.950      23.386      20.897      19.032      18.383      19.642      23.101      28.404    
  35.554      44.728      54.736      62.888      105.41      99.728      85.237      67.453      50.984      37.910    
  28.511      21.892      17.870      16.433      16.617      17.444      18.385      19.154      19.462      19.154    
  18.385      17.444      16.617      16.433      17.870      21.892      28.511      37.910      50.984      67.453    
  85.237      99.728      155.25      146.54      124.43      97.474      72.303      51.558      35.987      25.515    
  18.715      15.326      14.188      13.938      14.046      14.357      14.535      14.357      14.046      13.938    
  14.188      15.326      18.715      25.515      35.987      51.558      72.303      97.474      124.43      146.54    
  214.79      202.49      171.51      134.10      99.132      69.432      45.961      29.995      20.376      15.139    
  12.922      11.913      11.507      11.620      11.777      11.620      11.507      11.913      12.922      15.139    
  20.376      29.995      45.961      69.432      99.132      134.10      171.51      202.49      278.63      262.44    
  221.90      173.38      128.18      89.150      57.187      34.893      22.236      15.413      12.353      10.837    
  10.140      10.208      10.398      10.208      10.140      10.837      12.353      15.413      22.236      34.893    
  57.187      89.150      128.18      173.38      221.90      262.44      331.03      311.60      263.11      205.39    
  151.83      105.28      66.474      38.944      23.688      15.795      12.210      10.432      9.6202      9.7205    
  9.9566      9.7205      9.6202      10.432      12.210      15.795      23.688      38.944      66.474      105.28    
  151.83      205.39      263.11      311.60      331.42      312.08      263.77      206.11      152.42      105.62    
  66.594      38.958      23.675      15.772      12.171      10.368      9.5315      9.6122      9.8409      9.6122    
  9.5315      10.368      12.171      15.772      23.675      38.958      66.594      105.62      152.42      206.11    
  263.77      312.08      312.75      294.55      249.04      194.63      143.90      99.782      63.215      37.477    
  23.149      15.612      12.181      10.453      9.6367      9.6911      9.8977      9.6911      9.6367      10.453    
  12.181      15.612      23.149      37.477      63.215      99.782      143.90      194.63      249.04      294.55    
  265.03      249.73      211.33      165.17      122.02      84.816      54.606      33.714      21.760      15.263    
  12.347      10.882      10.181      10.204      10.365      10.204      10.181      10.882      12.347      15.263    
  21.760      33.714      54.606      84.816      122.02      165.17      211.33      249.73      206.00      194.23    
  164.55      128.57      94.885      66.410      44.153      29.132      19.984      15.020      12.923      11.957    
  11.545      11.618      11.750      11.618      11.545      11.957      12.923      15.020      19.984      29.132    
  44.153      66.410      94.885      128.57      164.55      194.23      149.73      141.32      119.97      93.866    
  69.515      49.588      34.799      24.874      18.403      15.215      14.158      13.929      14.024      14.300    
  14.459      14.300      14.024      13.929      14.158      15.215      18.403      24.874      34.799      49.588    
  69.515      93.866      119.97      141.32      101.74      96.255      82.247      65.053      49.173      36.654    
  27.708      21.384      17.599      16.283      16.496      17.307      18.214      18.944      19.233      18.944    
  18.214      17.307      16.496      16.283      17.599      21.384      27.708      36.654      49.173      65.053    
  82.247      96.255      63.733      60.670      52.841      43.235      34.446      27.598      22.495      19.224    
  18.090      18.774      20.599      22.982      25.413      27.274      27.978      27.274      25.413      22.982    
  20.599      18.774      18.090      19.224      22.495      27.598      34.446      43.235      52.841      60.670    
  37.603      36.269      32.848      28.601      24.559      21.194      19.122      18.775      20.176      23.072    
  27.309      32.451      37.588      41.461      42.911      41.461      37.588      32.451      27.309      23.072    
  20.176      18.775      19.122      21.194      24.559      28.601      32.848      36.269      22.892      22.411    
  21.135      19.485      18.007      17.280      17.843      20.024      23.883      29.617      37.063      45.532    
  53.706      59.766      62.020      59.766      53.706      45.532      37.063      29.617      23.883      20.024    
  17.843      17.280      18.007      19.485      21.135      22.411      15.021      14.880      14.580      14.394    
  14.648      15.778      18.331      22.693      29.333      38.219      48.697      59.803      70.126      77.676    
  80.478      77.676      70.126      59.803      48.697      38.219      29.333      22.693      18.331      15.778    
  14.648      14.394      14.580      14.880      11.285      11.310      11.509      12.123      13.403      15.789    
  19.918      26.574      36.265      48.128      60.819      73.340      84.662      92.968      96.076      92.968    
  84.662      73.340      60.819      48.128      36.265      26.574      19.918      15.789      13.403      12.123    
  11.509      11.310      9.3670      9.4669      9.9266      11.028      13.022      16.407      22.009      31.194    
  44.018      58.567      72.880      86.299      98.491      107.74      111.28      107.74      98.491      86.299    
  72.880      58.567      44.018      31.194      22.009      16.407      13.022      11.028      9.9266      9.4669    
  8.4596      8.5803      9.1505      10.525      12.997      17.133      24.108      35.733      51.469      68.433    
  84.309      99.042      112.98      124.08      128.46      124.08      112.98      99.042      84.309      68.433    
  51.469      35.733      24.108      17.133      12.997      10.525      9.1505      8.5803      8.4760      8.5698    
  9.1059      10.522      13.177      17.718      25.685      39.120      57.017      75.834      93.141      109.46    
  125.57      138.85      144.17      138.85      125.57      109.46      93.141      75.834      57.017      39.120    
  25.685      17.718      13.177      10.522      9.1059      8.5698      8.6720      8.7438      9.2341      10.620    
  13.295      17.950      26.275      40.383      59.090      78.625      96.547      113.61      130.74      145.02    
  150.77      145.02      130.74      113.61      96.547      78.625      59.090      40.383      26.275      17.950    
  13.295      10.620      9.2341      8.7438      8.4760      8.5698      9.1059      10.522      13.177      17.718    
  25.685      39.120      57.017      75.834      93.141      109.46      125.57      138.85      144.17      138.85    
  125.57      109.46      93.141      75.834      57.017      39.120      25.685      17.718      13.177      10.522    
  9.1059      8.5698      8.4596      8.5803      9.1505      10.525      12.997      17.133      24.108      35.733    
  51.469      68.433      84.309      99.042      112.98      124.08      128.46      124.08      112.98      99.042    
  84.309      68.433      51.469      35.733      24.108      17.133      12.997      10.525      9.1505      8.5803    
  9.3670      9.4669      9.9266      11.028      13.022      16.407      22.009      31.194      44.018      58.567    
  72.880      86.299      98.491      107.74      111.28      107.74      98.491      86.299      72.880      58.567    
  44.018      31.194      22.009      16.407      13.022      11.028      9.9266      9.4669      11.285      11.310    
  11.509      12.123      13.403      15.789      19.918      26.574      36.265      48.128      60.819      73.340    
  84.662      92.968      96.076      92.968      84.662      73.340      60.819      48.128      36.265      26.574    
  19.918      15.789      13.403      12.123      11.509      11.310      15.021      14.880      14.580      14.394    
  14.648      15.778      18.331      22.693      29.333      38.219      48.697      59.803      70.126      77.676    
  80.478      77.676      70.126      59.803      48.697      38.219      29.333      22.693      18.331      15.778    
  14.648      14.394      14.580      14.880      22.892      22.411      21.135      19.485      18.007      17.280    
  17.843      20.024      23.883      29.617      37.063      45.532      53.706      59.766      62.020      59.766    
  53.706      45.532      37.063      29.617      23.883      20.024      17.843      17.280      18.007      19.485    
  21.135      22.411      37.603      36.269      32.848      28.601      24.559      21.194      19.122      18.775    
  20.176      23.072      27.309      32.451      37.588      41.461      42.911      41.461      37.588      32.451    
  27.309      23.072      20.176      18.775      19.122      21.194      24.559      28.601      32.848      36.269    
  63.733      60.670      52.841      43.235      34.446      27.598      22.495      19.224      18.090      18.774    
  20.599      22.982      25.413      27.274      27.978      27.274      25.413      22.982      20.599      18.774    
  18.090      19.224      22.495      27.598      34.446      43.235      52.841      60.670      101.74      96.255    
  82.247      65.053      49.173      36.654      27.708      21.384      17.599      16.283      16.496      17.307    
  18.214      18.944      19.233      18.944      18.214      17.307      16.496      16.283      17.599      21.384    
  27.708      36.654      49.173      65.053      82.247      96.255      149.73      141.32      119.97      93.866    
  69.515      49.588      34.799      24.874      18.403      15.215      14.158      13.929      14.024      14.300    
  14.459      14.300      14.024      13.929      14.158      15.215      18.403      24.874      34.799      49.588    
  69.515      93.866      119.97      141.32      206.00      194.23      164.55      128.57      94.885      66.410    
  44.153      29.132      19.984      15.020      12.923      11.957      11.545      11.618      11.750      11.618    
  11.545      11.957      12.923      15.020      19.984      29.132      44.153      66.410      94.885      128.57    
  164.55      194.23      265.03      249.73      211.33      165.17      122.02      84.816      54.606      33.714    
  21.760      15.263      12.347      10.882      10.181      10.204      10.365      10.204      10.181      10.882    
  12.347      15.263      21.760      33.714      54.606      84.816      122.02      165.17      211.33      249.73    
  312.75      294.55      249.04      194.63      143.90      99.782      63.215      37.477      23.149      15.612    
  12.181      10.453      9.6367      9.6911      9.8977      9.6911      9.6367      10.453      12.181      15.612    
  23.149      37.477      63.215      99.782      143.90      194.63      249.04      294.55      279.76      263.84    
  223.84      175.52      129.90      90.098      57.491      34.903      22.181      15.336      12.242      10.675    
  9.9235      9.9487      10.122      9.9487      9.9235      10.675      12.242      15.336      22.181      34.903    
  57.491      90.098      129.90      175.52      223.84      263.84      265.78      250.67      212.64      166.62    
  123.18      85.446      54.800      33.713      21.717      15.207      12.272      10.777      10.045      10.043    
  10.195      10.043      10.045      10.777      12.272      15.207      21.717      33.713      54.800      85.446    
  123.18      166.62      212.64      250.67      229.22      216.20      183.32      143.36      105.66      73.409    
  47.897      30.661      20.498      14.929      12.464      11.217      10.590      10.556      10.665      10.556    
  10.590      11.217      12.464      14.929      20.498      30.661      47.897      73.409      105.66      143.36    
  183.32      216.20      181.82      171.51      145.36      113.37      83.341      58.342      39.404      26.851    
  18.948      14.748      13.014      12.221      11.859      11.877      11.964      11.877      11.859      12.221    
  13.014      14.748      18.948      26.851      39.404      58.342      83.341      113.37      145.36      171.51    
  133.84      126.33      107.17      83.657      61.803      44.275      31.642      23.127      17.576      14.943    
  14.125      13.989      14.091      14.311      14.432      14.311      14.091      13.989      14.125      14.943    
  17.576      23.127      31.642      44.275      61.803      83.657      107.17      126.33      91.059      86.155    
  73.628      58.264      44.184      33.272      25.536      20.021      16.880      15.890      16.187      16.972    
  17.808      18.456      18.705      18.456      17.808      16.972      16.187      15.890      16.880      20.021    
  25.536      33.272      44.184      58.264      73.628      86.155      57.054      54.368      47.507      39.105    
  31.437      25.418      20.878      18.127      17.313      18.077      19.798      21.919      24.019      25.603    
  26.198      25.603      24.019      21.919      19.798      18.077      17.313      18.127      20.878      25.418    
  31.437      39.105      47.507      54.368      34.266      33.116      30.156      26.437      22.785      19.757    
  17.973      17.780      19.170      21.848      25.591      30.032      34.412      37.691      38.914      37.691    
  34.412      30.032      25.591      21.848      19.170      17.780      17.973      19.757      22.785      26.437    
  30.156      33.116      21.400      20.967      19.822      18.358      17.063      16.446      16.983      18.987    
  22.483      27.582      34.144      41.513      48.524      53.662      55.560      53.662      48.524      41.513    
  34.144      27.582      22.483      18.987      16.983      16.446      17.063      18.358      19.822      20.967    
  14.297      14.199      13.999      13.916      14.213      15.265      17.568      21.482      27.393      35.380    
  44.809      54.642      63.540      69.886      72.206      69.886      63.540      54.642      44.809      35.380    
  27.393      21.482      17.568      15.265      14.213      13.916      13.999      14.199      10.889      10.954    
  11.239      11.913      13.163      15.370      19.121      25.057      33.816      44.783      56.559      67.838    
  77.499      84.232      86.681      84.232      77.499      67.838      56.559      44.783      33.816      25.057    
  19.121      15.370      13.163      11.913      11.239      10.954      9.0432      9.1881      9.7368      10.885    
  12.817      15.970      21.074      29.346      41.209      55.081      68.761      80.915      90.950      97.943    
  100.51      97.943      90.950      80.915      68.761      55.081      41.209      29.346      21.074      15.970    
  12.817      10.885      9.7368      9.1881      8.0555      8.2288      8.9025      10.332      12.738      16.631    
  23.002      33.611      48.464      65.026      80.472      93.664      104.57      112.41      115.35      112.41    
  104.57      93.664      80.472      65.026      48.464      33.611      23.002      16.631      12.738      10.332    
  8.9025      8.2288      7.8845      8.0412      8.7052      10.204      12.818      17.139      24.442      36.825    
  53.928      72.537      89.467      103.83      116.00      125.02      128.48      125.02      116.00      103.83    
  89.467      72.537      53.928      36.825      24.442      17.139      12.818      10.204      8.7052      8.0412    
  7.9741      8.1141      8.7458      10.232      12.884      17.333      24.980      38.030      55.981      75.372    
  92.911      107.83      120.61      130.21      133.91      130.21      120.61      107.83      92.911      75.372    
  55.981      38.030      24.980      17.333      12.884      10.232      8.7458      8.1141      7.8845      8.0412    
  8.7052      10.204      12.818      17.139      24.442      36.825      53.928      72.537      89.467      103.83    
  116.00      125.02      128.48      125.02      116.00      103.83      89.467      72.537      53.928      36.825    
  24.442      17.139      12.818      10.204      8.7052      8.0412      8.0555      8.2288      8.9025      10.332    
  12.738      16.631      23.002      33.611      48.464      65.026      80.472      93.664      104.57      112.41    
  115.35      112.41      104.57      93.664      80.472      65.026      48.464      33.611      23.002      16.631    
  12.738      10.332      8.9025      8.2288      9.0432      9.1881      9.7368      10.885      12.817      15.970    
  21.074      29.346      41.209      55.081      68.761      80.915      90.950      97.943      100.51      97.943    
  90.950      80.915      68.761      55.081      41.209      29.346      21.074      15.970      12.817      10.885    
  9.7368      9.1881      10.889      10.954      11.239      11.913      13.163      15.370      19.121      25.057    
  33.816      44.783      56.559      67.838      77.499      84.232      86.681      84.232      77.499      67.838    
  56.559      44.783      33.816      25.057      19.121      15.370      13.163      11.913      11.239      10.954    
  14.297      14.199      13.999      13.916      14.213      15.265      17.568      21.482      27.393      35.380    
  44.809      54.642      63.540      69.886      72.206      69.886      63.540      54.642      44.809      35.380    
  27.393      21.482      17.568      15.265      14.213      13.916      13.999      14.199      21.400      20.967    
  19.822      18.358      17.063      16.446      16.983      18.987      22.483      27.582      34.144      41.513    
  48.524      53.662      55.560      53.662      48.524      41.513      34.144      27.582      22.483      18.987    
  16.983      16.446      17.063      18.358      19.822      20.967      34.266      33.116      30.156      26.437    
  22.785      19.757      17.973      17.780      19.170      21.848      25.591      30.032      34.412      37.691    
  38.914      37.691      34.412      30.032      25.591      21.848      19.170      17.780      17.973      19.757    
  22.785      26.437      30.156      33.116      57.054      54.368      47.507      39.105      31.437      25.418    
  20.878      18.127      17.313      18.077      19.798      21.919      24.019      25.603      26.198      25.603    
  24.019      21.919      19.798      18.077      17.313      18.127      20.878      25.418      31.437      39.105    
  47.507      54.368      91.059      86.155      73.628      58.264      44.184      33.272      25.536      20.021    
  16.880      15.890      16.187      16.972      17.808      18.456      18.705      18.456      17.808      16.972    
  16.187      15.890      16.880      20.021      25.536      33.272      44.184      58.264      73.628      86.155    
  133.84      126.33      107.17      83.657      61.803      44.275      31.642      23.127      17.576      14.943    
  14.125      13.989      14.091      14.311      14.432      14.311      14.091      13.989      14.125      14.943    
  17.576      23.127      31.642      44.275      61.803      83.657      107.17      126.33      181.82      171.51    
  145.36      113.37      83.341      58.342      39.404      26.851      18.948      14.748      13.014      12.221    
  11.859      11.877      11.964      11.877      11.859      12.221      13.014      14.748      18.948      26.851    
  39.404      58.342      83.341      113.37      145.36      171.51      229.22      216.20      183.32      143.36    
  105.66      73.409      47.897      30.661      20.498      14.929      12.464      11.217      10.590      10.556    
  10.665      10.556      10.590      11.217      12.464      14.929      20.498      30.661      47.897      73.409    
  105.66      143.36      183.32      216.20      265.78      250.67      212.64      166.62      123.18      85.446    
  54.800      33.713      21.717      15.207      12.272      10.777      10.045      10.043      10.195      10.043    
  10.045      10.777      12.272      15.207      21.717      33.713      54.800      85.446      123.18      166.62    
  212.64      250.67      216.13      204.25      174.07      136.93      101.34      70.557      46.233      29.917    
  20.233      14.986      12.752      11.710      11.267      11.350      11.495      11.350      11.267      11.710    
  12.752      14.986      20.233      29.917      46.233      70.557      101.34      136.93      174.07      204.25    
  207.04      195.62      166.58      130.83      96.634      67.281      44.346      29.053      19.855      14.884    
  12.778      11.794      11.361      11.417      11.543      11.417      11.361      11.794      12.778      14.884    
  19.855      29.053      44.346      67.281      96.634      130.83      166.58      195.62      182.25      172.11    
  146.26      114.38      84.099      58.693      39.454      26.788      18.863      14.661      12.929      12.137    
  11.778      11.798      11.885      11.798      11.778      12.137      12.929      14.661      18.863      26.788    
  39.454      58.693      84.099      114.38      146.26      172.11      147.67      139.38      118.19      92.055    