unknown system                          
   1.00000000000000     
     3.866000    0.000000    0.000000
     0.000000    3.866000    0.000000
     0.000000    0.000000    3.866000
   Pd   Ir   Pt   Cu
     1     1     1     1
Direct
  0.000000  0.000000  0.000000
  0.500000  0.500000  0.000000
  0.500000  0.000000  0.500000
  0.000000  0.500000  0.500000
 
   28   28   28
 0.35167641031E+03 0.33096229061E+03 0.27931552174E+03 0.21794850887E+03 0.16108941996E+03
 0.11160119660E+03 0.70126209314E+02 0.40542375710E+02 0.24239221629E+02 0.15970300953E+02
 0.12212387976E+02 0.10361664043E+02 0.95297978096E+01 0.96562854930E+01 0.99144238766E+01
 0.96562854930E+01 0.95297978096E+01 0.10361664043E+02 0.12212387976E+02 0.15970300953E+02
 0.24239221629E+02 0.40542375710E+02 0.70126209314E+02 0.11160119660E+03 0.16108941996E+03
 0.21794850887E+03 0.27931552174E+03 0.33096229061E+03 0.33102607182E+03 0.31159617777E+03
 0.26310710524E+03 0.20539126117E+03 0.15183432930E+03 0.10528488967E+03 0.66474399593E+02
 0.38944063327E+02 0.23687636554E+02 0.15795359046E+02 0.12210001301E+02 0.10431636389E+02
 0.96201995981E+01 0.97205086212E+01 0.99566152307E+01 0.97205086212E+01 0.96201995981E+01
 0.10431636389E+02 0.12210001301E+02 0.15795359046E+02 0.23687636554E+02 0.38944063327E+02
 0.66474399593E+02 0.10528488967E+03 0.15183432930E+03 0.20539126117E+03 0.26310710524E+03
 0.31159617777E+03 0.27863409330E+03 0.26243866909E+03 0.22189771536E+03 0.17337695187E+03
 0.12818154866E+03 0.89149567492E+02 0.57187054218E+02 0.34893202696E+02 0.22236155585E+02
 0.15413239563E+02 0.12352566540E+02 0.10836619184E+02 0.10139902533E+02 0.10207994937E+02
 0.10397573029E+02 0.10207994937E+02 0.10139902533E+02 0.10836619184E+02 0.12352566540E+02
 0.15413239563E+02 0.22236155585E+02 0.34893202696E+02 0.57187054218E+02 0.89149567492E+02
 0.12818154866E+03 0.17337695187E+03 0.22189771536E+03 0.26243866909E+03 0.21479477121E+03
 0.20248871227E+03 0.17151087517E+03 0.13409993933E+03 0.99132084633E+02 0.69431787902E+02
 0.45961453269E+02 0.29994518431E+02 0.20375523384E+02 0.15138733552E+02 0.12921948852E+02
 0.11913039755E+02 0.11506796187E+02 0.11620059186E+02 0.11777158356E+02 0.11620059186E+02
 0.11506796187E+02 0.11913039755E+02 0.12921948852E+02 0.15138733552E+02 0.20375523384E+02
 0.29994518431E+02 0.45961453269E+02 0.69431787902E+02 0.99132084633E+02 0.13409993933E+03
 0.17151087517E+03 0.20248871227E+03 0.15525328012E+03 0.14653563336E+03 0.12443306299E+03
 0.97474424503E+02 0.72302956832E+02 0.51558026594E+02 0.35986704898E+02 0.25515059638E+02
 0.18715316245E+02 0.15325676920E+02 0.14188227251E+02 0.13937810655E+02 0.14046232428E+02
 0.14356585550E+02 0.14534809808E+02 0.14356585550E+02 0.14046232428E+02 0.13937810655E+02
 0.14188227251E+02 0.15325676920E+02 0.18715316245E+02 0.25515059638E+02 0.35986704898E+02
 0.51558026594E+02 0.72302956832E+02 0.97474424503E+02 0.12443306299E+03 0.14653563336E+03
 0.10540933893E+03 0.99727795370E+02 0.85237111628E+02 0.67453223946E+02 0.50983915273E+02
 0.37910162119E+02 0.28511252491E+02 0.21891608375E+02 0.17870131632E+02 0.16432892781E+02
 0.16617024625E+02 0.17443975029E+02 0.18385061373E+02 0.19154015884E+02 0.19462223283E+02
 0.19154015884E+02 0.18385061373E+02 0.17443975029E+02 0.16617024625E+02 0.16432892781E+02
 0.17870131632E+02 0.21891608375E+02 0.28511252491E+02 0.37910162119E+02 0.50983915273E+02
 0.67453223946E+02 0.85237111628E+02 0.99727795370E+02 0.66075797980E+02 0.62887635504E+02
 0.54736484198E+02 0.44728329674E+02 0.35554163642E+02 0.28403835945E+02 0.23101393840E+02
 0.19641537304E+02 0.18383042046E+02 0.19031923254E+02 0.20897486027E+02 0.23385923608E+02
 0.25949543972E+02 0.27921034953E+02 0.28668029915E+02 0.27921034953E+02 0.25949543972E+02
 0.23385923608E+02 0.20897486027E+02 0.19031923254E+02 0.18383042046E+02 0.19641537304E+02
 0.23101393840E+02 0.28403835945E+02 0.35554163642E+02 0.44728329674E+02 0.54736484198E+02
 0.62887635504E+02 0.38794085901E+02 0.37395897183E+02 0.33813347479E+02 0.29379736624E+02
 0.25197472240E+02 0.21730918671E+02 0.19562745094E+02 0.19156395252E+02 0.20552173370E+02
 0.23527275240E+02 0.27950124407E+02 0.33358809838E+02 0.38787045648E+02 0.42888800686E+02
 0.44425641843E+02 0.42888800686E+02 0.38787045648E+02 0.33358809838E+02 0.27950124407E+02
 0.23527275240E+02 0.20552173370E+02 0.19156395252E+02 0.19562745094E+02 0.21730918671E+02
 0.25197472240E+02 0.29379736624E+02 0.33813347479E+02 0.37395897183E+02 0.23390166709E+02
 0.22893138429E+02 0.21576619181E+02 0.19871916723E+02 0.18341513072E+02 0.17588096698E+02
 0.18169668658E+02 0.20415312697E+02 0.24406947189E+02 0.30365021075E+02 0.38134386046E+02
 0.47017466573E+02 0.55638600958E+02 0.62057095903E+02 0.64449453254E+02 0.62057095903E+02
 0.55638600958E+02 0.47017466573E+02 0.38134386046E+02 0.30365021075E+02 0.24406947189E+02
 0.20415312697E+02 0.18169668658E+02 0.17588096698E+02 0.18341513072E+02 0.19871916723E+02
 0.21576619181E+02 0.22893138429E+02 0.15274798447E+02 0.15115974443E+02 0.14772415319E+02
 0.14544418555E+02 0.14784500240E+02 0.15952161800E+02 0.18606228044E+02 0.23141154004E+02
 0.30039831071E+02 0.39234601959E+02 0.50085399175E+02 0.61672409688E+02 0.72557987001E+02
 0.80593976755E+02 0.83589927476E+02 0.80593976755E+02 0.72557987001E+02 0.61672409688E+02
 0.50085399175E+02 0.39234601959E+02 0.30039831071E+02 0.23141154004E+02 0.18606228044E+02
 0.15952161800E+02 0.14784500240E+02 0.14544418555E+02 0.14772415319E+02 0.15115974443E+02
 0.11477486361E+02 0.11478790994E+02 0.11624223597E+02 0.12191200495E+02 0.13465302132E+02
 0.15914370754E+02 0.20189077178E+02 0.27112223974E+02 0.37120709706E+02 0.49272903001E+02
 0.62278023669E+02 0.75285587869E+02 0.87297139767E+02 0.96267694555E+02 0.99655859124E+02
 0.96267694555E+02 0.87297139767E+02 0.75285587869E+02 0.62278023669E+02 0.49272903001E+02
 0.37120709706E+02 0.27112223974E+02 0.20189077178E+02 0.15914370754E+02 0.13465302132E+02
 0.12191200495E+02 0.11624223597E+02 0.11478790994E+02 0.96185134694E+01 0.96864896725E+01
 0.10073390511E+02 0.11108107452E+02 0.13085581710E+02 0.16532892221E+02 0.22316048429E+02
 0.31822334995E+02 0.44950709491E+02 0.59685491453E+02 0.74208411970E+02 0.88158012127E+02
 0.10129092920E+03 0.11152031942E+03 0.11549263343E+03 0.11152031942E+03 0.10129092920E+03
 0.88158012127E+02 0.74208411970E+02 0.59685491453E+02 0.44950709491E+02 0.31822334995E+02
 0.22316048429E+02 0.16532892221E+02 0.13085581710E+02 0.11108107452E+02 0.10073390511E+02
 0.96864896725E+01 0.88339646521E+01 0.89138574479E+01 0.93894896072E+01 0.10672205926E+02
 0.13103322570E+02 0.17284967428E+02 0.24464506471E+02 0.36426797981E+02 0.52413992009E+02
 0.69444224475E+02 0.85463132235E+02 0.10087898885E+03 0.11616109503E+03 0.12870159042E+03
 0.13370555686E+03 0.12870159042E+03 0.11616109503E+03 0.10087898885E+03 0.85463132235E+02
 0.69444224475E+02 0.52413992009E+02 0.36426797981E+02 0.24464506471E+02 0.17284967428E+02
 0.13103322570E+02 0.10672205926E+02 0.93894896072E+01 0.89138574479E+01 0.89914813436E+01
 0.90366492495E+01 0.94575732154E+01 0.10754869716E+02 0.13341022974E+02 0.17904678728E+02
 0.26082927060E+02 0.39849608678E+02 0.57944744607E+02 0.76744741701E+02 0.94188287226E+02
 0.11138697874E+03 0.12924534804E+03 0.14439786988E+03 0.15053338189E+03 0.14439786988E+03
 0.12924534804E+03 0.11138697874E+03 0.94188287226E+02 0.76744741701E+02 0.57944744607E+02
 0.39849608678E+02 0.26082927060E+02 0.17904678728E+02 0.13341022974E+02 0.10754869716E+02
 0.94575732154E+01 0.90366492495E+01 0.92538214925E+01 0.92734964078E+01 0.96394461194E+01
 0.10894110061E+02 0.13487788108E+02 0.18153183840E+02 0.26689097823E+02 0.41122854171E+02
 0.60007370965E+02 0.79497875594E+02 0.97564384790E+02 0.11560205763E+03 0.13465022711E+03
 0.15097870641E+03 0.15761726870E+03 0.15097870641E+03 0.13465022711E+03 0.11560205763E+03
 0.97564384790E+02 0.79497875594E+02 0.60007370965E+02 0.41122854171E+02 0.26689097823E+02
 0.18153183840E+02 0.13487788108E+02 0.10894110061E+02 0.96394461194E+01 0.92734964078E+01
 0.89914813436E+01 0.90366492495E+01 0.94575732154E+01 0.10754869716E+02 0.13341022974E+02
 0.17904678728E+02 0.26082927060E+02 0.39849608678E+02 0.57944744607E+02 0.76744741701E+02
 0.94188287226E+02 0.11138697874E+03 0.12924534804E+03 0.14439786988E+03 0.15053338189E+03
 0.14439786988E+03 0.12924534804E+03 0.11138697874E+03 0.94188287226E+02 0.76744741701E+02
 0.57944744607E+02 0.39849608678E+02 0.26082927060E+02 0.17904678728E+02 0.13341022974E+02
 0.10754869716E+02 0.94575732154E+01 0.90366492495E+01 0.88339646521E+01 0.89138574479E+01
 0.93894896072E+01 0.10672205926E+02 0.13103322570E+02 0.17284967428E+02 0.24464506471E+02
 0.36426797981E+02 0.52413992009E+02 0.69444224475E+02 0.85463132235E+02 0.10087898885E+03
 0.11616109503E+03 0.12870159042E+03 0.13370555686E+03 0.12870159042E+03 0.11616109503E+03
 0.10087898885E+03 0.85463132235E+02 0.69444224475E+02 0.52413992009E+02 0.36426797981E+02
 0.24464506471E+02 0.17284967428E+02 0.13103322570E+02 0.10672205926E+02 0.93894896072E+01
 0.89138574479E+01 0.96185134694E+01 0.96864896725E+01 0.10073390511E+02 0.11108107452E+02
 0.13085581710E+02 0.16532892221E+02 0.22316048429E+02 0.31822334995E+02 0.44950709491E+02
 0.59685491453E+02 0.74208411970E+02 0.88158012127E+02 0.10129092920E+03 0.11152031942E+03
 0.11549263343E+03 0.11152031942E+03 0.10129092920E+03 0.88158012127E+02 0.74208411970E+02
 0.59685491453E+02 0.44950709491E+02 0.31822334995E+02 0.22316048429E+02 0.16532892221E+02
 0.13085581710E+02 0.11108107452E+02 0.10073390511E+02 0.96864896725E+01 0.11477486361E+02
 0.11478790994E+02 0.11624223597E+02 0.12191200495E+02 0.13465302132E+02 0.15914370754E+02
 0.20189077178E+02 0.27112223974E+02 0.37120709706E+02 0.49272903001E+02 0.62278023669E+02
 0.75285587869E+02 0.87297139767E+02 0.96267694555E+02 0.99655859124E+02 0.96267694555E+02
 0.87297139767E+02 0.75285587869E+02 0.62278023669E+02 0.49272903001E+02 0.37120709706E+02
 0.27112223974E+02 0.20189077178E+02 0.15914370754E+02 0.13465302132E+02 0.12191200495E+02
 0.11624223597E+02 0.11478790994E+02 0.15274798447E+02 0.15115974443E+02 0.14772415319E+02
 0.14544418555E+02 0.14784500240E+02 0.15952161800E+02 0.18606228044E+02 0.23141154004E+02
 0.30039831071E+02 0.39234601959E+02 0.50085399175E+02 0.61672409688E+02 0.72557987001E+02
 0.80593976755E+02 0.83589927476E+02 0.80593976755E+02 0.72557987001E+02 0.61672409688E+02
 0.50085399175E+02 0.39234601959E+02 0.30039831071E+02 0.23141154004E+02 0.18606228044E+02
 0.15952161800E+02 0.14784500240E+02 0.14544418555E+02 0.14772415319E+02 0.15115974443E+02
 0.23390166709E+02 0.22893138429E+02 0.21576619181E+02 0.19871916723E+02 0.18341513072E+02
 0.17588096698E+02 0.18169668658E+02 0.20415312697E+02 0.24406947189E+02 0.30365021075E+02
 0.38134386046E+02 0.47017466573E+02 0.55638600958E+02 0.62057095903E+02 0.64449453254E+02
 0.62057095903E+02 0.55638600958E+02 0.47017466573E+02 0.38134386046E+02 0.30365021075E+02
 0.24406947189E+02 0.20415312697E+02 0.18169668658E+02 0.17588096698E+02 0.18341513072E+02
 0.19871916723E+02 0.21576619181E+02 0.22893138429E+02 0.38794085901E+02 0.37395897183E+02
 0.33813347479E+02 0.29379736624E+02 0.25197472240E+02 0.21730918671E+02 0.19562745094E+02
 0.19156395252E+02 0.20552173370E+02 0.23527275240E+02 0.27950124407E+02 0.33358809838E+02
 0.38787045648E+02 0.42888800686E+02 0.44425641843E+02 0.42888800686E+02 0.38787045648E+02
 0.33358809838E+02 0.27950124407E+02 0.23527275240E+02 0.20552173370E+02 0.19156395252E+02
 0.19562745094E+02 0.21730918671E+02 0.25197472240E+02 0.29379736624E+02 0.33813347479E+02
 0.37395897183E+02 0.66075797980E+02 0.62887635504E+02 0.54736484198E+02 0.44728329674E+02
 0.35554163642E+02 0.28403835945E+02 0.23101393840E+02 0.19641537304E+02 0.18383042046E+02
 0.19031923254E+02 0.20897486027E+02 0.23385923608E+02 0.25949543972E+02 0.27921034953E+02
 0.28668029915E+02 0.27921034953E+02 0.25949543972E+02 0.23385923608E+02 0.20897486027E+02
 0.19031923254E+02 0.18383042046E+02 0.19641537304E+02 0.23101393840E+02 0.28403835945E+02
 0.35554163642E+02 0.44728329674E+02 0.54736484198E+02 0.62887635504E+02 0.10540933893E+03
 0.99727795370E+02 0.85237111628E+02 0.67453223946E+02 0.50983915273E+02 0.37910162119E+02
 0.28511252491E+02 0.21891608375E+02 0.17870131632E+02 0.16432892781E+02 0.16617024625E+02
 0.17443975029E+02 0.18385061373E+02 0.19154015884E+02 0.19462223283E+02 0.19154015884E+02
 0.18385061373E+02 0.17443975029E+02 0.16617024625E+02 0.16432892781E+02 0.17870131632E+02
 0.21891608375E+02 0.28511252491E+02 0.37910162119E+02 0.50983915273E+02 0.67453223946E+02
 0.85237111628E+02 0.99727795370E+02 0.15525328012E+03 0.14653563336E+03 0.12443306299E+03
 0.97474424503E+02 0.72302956832E+02 0.51558026594E+02 0.35986704898E+02 0.25515059638E+02
 0.18715316245E+02 0.15325676920E+02 0.14188227251E+02 0.13937810655E+02 0.14046232428E+02
 0.14356585550E+02 0.14534809808E+02 0.14356585550E+02 0.14046232428E+02 0.13937810655E+02
 0.14188227251E+02 0.15325676920E+02 0.18715316245E+02 0.25515059638E+02 0.35986704898E+02
 0.51558026594E+02 0.72302956832E+02 0.97474424503E+02 0.12443306299E+03 0.14653563336E+03
 0.21479477121E+03 0.20248871227E+03 0.17151087517E+03 0.13409993933E+03 0.99132084633E+02
 0.69431787902E+02 0.45961453269E+02 0.29994518431E+02 0.20375523384E+02 0.15138733552E+02
 0.12921948852E+02 0.11913039755E+02 0.11506796187E+02 0.11620059186E+02 0.11777158356E+02
 0.11620059186E+02 0.11506796187E+02 0.11913039755E+02 0.12921948852E+02 0.15138733552E+02
 0.20375523384E+02 0.29994518431E+02 0.45961453269E+02 0.69431787902E+02 0.99132084633E+02
 0.13409993933E+03 0.17151087517E+03 0.20248871227E+03 0.27863409330E+03 0.26243866909E+03
 0.22189771536E+03 0.17337695187E+03 0.12818154866E+03 0.89149567492E+02 0.57187054218E+02
 0.34893202696E+02 0.22236155585E+02 0.15413239563E+02 0.12352566540E+02 0.10836619184E+02
 0.10139902533E+02 0.10207994937E+02 0.10397573029E+02 0.10207994937E+02 0.10139902533E+02
 0.10836619184E+02 0.12352566540E+02 0.15413239563E+02 0.22236155585E+02 0.34893202696E+02
 0.57187054218E+02 0.89149567492E+02 0.12818154866E+03 0.17337695187E+03 0.22189771536E+03
 0.26243866909E+03 0.33102607182E+03 0.31159617777E+03 0.26310710524E+03 0.20539126117E+03
 0.15183432930E+03 0.10528488967E+03 0.66474399593E+02 0.38944063327E+02 0.23687636554E+02
 0.15795359046E+02 0.12210001301E+02 0.10431636389E+02 0.96201995981E+01 0.97205086212E+01
 0.99566152307E+01 0.97205086212E+01 0.96201995981E+01 0.10431636389E+02 0.12210001301E+02
 0.15795359046E+02 0.23687636554E+02 0.38944063327E+02 0.66474399593E+02 0.10528488967E+03
 0.15183432930E+03 0.20539126117E+03 0.26310710524E+03 0.31159617777E+03 0.33142424166E+03
 0.31208381570E+03 0.26376624020E+03 0.20611454665E+03 0.15242310773E+03 0.10562176588E+03
 0.66593743919E+02 0.38957762450E+02 0.23675086501E+02 0.15772427674E+02 0.12170543926E+02
 0.10368331611E+02 0.95314731793E+01 0.96121778381E+01 0.98408677214E+01 0.96121778381E+01
 0.95314731793E+01 0.10368331611E+02 0.12170543926E+02 0.15772427674E+02 0.23675086501E+02
 0.38957762450E+02 0.66593743919E+02 0.10562176588E+03 0.15242310773E+03 0.20611454665E+03
 0.26376624020E+03 0.31208381570E+03 0.31274854873E+03 0.29454914891E+03 0.24903572376E+03
 0.19463101473E+03 0.14390216460E+03 0.99782237516E+02 0.63215478323E+02 0.37477007015E+02
 0.23148723070E+02 0.15611703076E+02 0.12180845619E+02 0.10452616868E+02 0.96366638898E+01
 0.96910634814E+01 0.98977429675E+01 0.96910634814E+01 0.96366638898E+01 0.10452616868E+02
 0.12180845619E+02 0.15611703076E+02 0.23148723070E+02 0.37477007015E+02 0.63215478323E+02
 0.99782237516E+02 0.14390216460E+03 0.19463101473E+03 0.24903572376E+03 0.29454914891E+03
 0.26503064897E+03 0.24972552356E+03 0.21132547050E+03 0.16517215208E+03 0.12201949663E+03
 0.84815896562E+02 0.54605654140E+02 0.33714236093E+02 0.21760219825E+02 0.15262738845E+02
 0.12346989548E+02 0.10881657986E+02 0.10180795699E+02 0.10204009654E+02 0.10365185607E+02
 0.10204009654E+02 0.10180795699E+02 0.10881657986E+02 0.12346989548E+02 0.15262738845E+02
 0.21760219825E+02 0.33714236093E+02 0.54605654140E+02 0.84815896562E+02 0.12201949663E+03
 0.16517215208E+03 0.21132547050E+03 0.24972552356E+03 0.20600016703E+03 0.19423389030E+03
 0.16454921438E+03 0.12857204881E+03 0.94884956880E+02 0.66409645347E+02 0.44152882885E+02
 0.29131956460E+02 0.19984379958E+02 0.15019731186E+02 0.12923253445E+02 0.11956872180E+02
 0.11544816496E+02 0.11617718746E+02 0.11750036017E+02 0.11617718746E+02 0.11544816496E+02
 0.11956872180E+02 0.12923253445E+02 0.15019731186E+02 0.19984379958E+02 0.29131956460E+02
 0.44152882885E+02 0.66409645347E+02 0.94884956880E+02 0.12857204881E+03 0.16454921438E+03
 0.19423389030E+03 0.14973434506E+03 0.14132391592E+03 0.11996682800E+03 0.93866326546E+02
 0.69514870470E+02 0.49587784961E+02 0.34798855024E+02 0.24874112483E+02 0.18403261790E+02
 0.15214871748E+02 0.14158190117E+02 0.13929329363E+02 0.14024497580E+02 0.14300310213E+02
 0.14459177033E+02 0.14300310213E+02 0.14024497580E+02 0.13929329363E+02 0.14158190117E+02
 0.15214871748E+02 0.18403261790E+02 0.24874112483E+02 0.34798855024E+02 0.49587784961E+02
 0.69514870470E+02 0.93866326546E+02 0.11996682800E+03 0.14132391592E+03 0.10174495866E+03
 0.96255378154E+02 0.82246589293E+02 0.65053216771E+02 0.49173172676E+02 0.36654259887E+02
 0.27707734800E+02 0.21383855337E+02 0.17598949236E+02 0.16282858624E+02 0.16495660442E+02
 0.17307071912E+02 0.18214369181E+02 0.18943970785E+02 0.19233479202E+02 0.18943970785E+02
 0.18214369181E+02 0.17307071912E+02 0.16495660442E+02 0.16282858624E+02 0.17598949236E+02
 0.21383855337E+02 0.27707734800E+02 0.36654259887E+02 0.49173172676E+02 0.65053216771E+02
 0.82246589293E+02 0.96255378154E+02 0.63733345534E+02 0.60670377519E+02 0.52840676480E+02
 0.43234956985E+02 0.34445691106E+02 0.27597838373E+02 0.22495466079E+02 0.19224452504E+02
 0.18089778289E+02 0.18773572151E+02 0.20598885620E+02 0.22981541800E+02 0.25412915600E+02
 0.27274250694E+02 0.27978167059E+02 0.27274250694E+02 0.25412915600E+02 0.22981541800E+02
 0.20598885620E+02 0.18773572151E+02 0.18089778289E+02 0.19224452504E+02 0.22495466079E+02
 0.27597838373E+02 0.34445691106E+02 0.43234956985E+02 0.52840676480E+02 0.60670377519E+02
 0.37603041151E+02 0.36268920294E+02 0.32847601209E+02 0.28600975852E+02 0.24558888785E+02
 0.21194319702E+02 0.19122281607E+02 0.18774646657E+02 0.20175502312E+02 0.23071697456E+02
 0.27309402427E+02 0.32450866920E+02 0.37588222149E+02 0.41461180984E+02 0.42910886653E+02
 0.41461180984E+02 0.37588222149E+02 0.32450866920E+02 0.27309402427E+02 0.23071697456E+02
 0.20175502312E+02 0.18774646657E+02 0.19122281607E+02 0.21194319702E+02 0.24558888785E+02
 0.28600975852E+02 0.32847601209E+02 0.36268920294E+02 0.22892116898E+02 0.22411310119E+02
 0.21134805359E+02 0.19485423388E+02 0.18007471090E+02 0.17280035302E+02 0.17842585717E+02
 0.20023547228E+02 0.23883440132E+02 0.29616505602E+02 0.37063302304E+02 0.45532214521E+02
 0.53706119321E+02 0.59766034691E+02 0.62019777947E+02 0.59766034691E+02 0.53706119321E+02
 0.45532214521E+02 0.37063302304E+02 0.29616505602E+02 0.23883440132E+02 0.20023547228E+02
 0.17842585717E+02 0.17280035302E+02 0.18007471090E+02 0.19485423388E+02 0.21134805359E+02
 0.22411310119E+02 0.15021144385E+02 0.14880410254E+02 0.14579838994E+02 0.14394063867E+02
 0.14648380333E+02 0.15778444632E+02 0.18331019753E+02 0.22693469444E+02 0.29333059444E+02
 0.38218970089E+02 0.48696823379E+02 0.59802645519E+02 0.70125533241E+02 0.77676456317E+02
 0.80477519961E+02 0.77676456317E+02 0.70125533241E+02 0.59802645519E+02 0.48696823379E+02
 0.38218970089E+02 0.29333059444E+02 0.22693469444E+02 0.18331019753E+02 0.15778444632E+02
 0.14648380333E+02 0.14394063867E+02 0.14579838994E+02 0.14880410254E+02 0.11285141348E+02
 0.11310131922E+02 0.11509237648E+02 0.12123067524E+02 0.13402909171E+02 0.15789080973E+02
 0.19918114313E+02 0.26573584844E+02 0.36264617949E+02 0.48128106205E+02 0.60818861788E+02
 0.73339973165E+02 0.84661541202E+02 0.92967595517E+02 0.96075862141E+02 0.92967595517E+02
 0.84661541202E+02 0.73339973165E+02 0.60818861788E+02 0.48128106205E+02 0.36264617949E+02
 0.26573584844E+02 0.19918114313E+02 0.15789080973E+02 0.13402909171E+02 0.12123067524E+02
 0.11509237648E+02 0.11310131922E+02 0.93670057406E+01 0.94669058248E+01 0.99265819074E+01
 0.11027501898E+02 0.13022456410E+02 0.16406846215E+02 0.22008986800E+02 0.31193959525E+02
 0.44017929890E+02 0.58566519397E+02 0.72879753092E+02 0.86298989046E+02 0.98491381932E+02
 0.10773764862E+03 0.11128402608E+03 0.10773764862E+03 0.98491381932E+02 0.86298989046E+02
 0.72879753092E+02 0.58566519397E+02 0.44017929890E+02 0.31193959525E+02 0.22008986800E+02
 0.16406846215E+02 0.13022456410E+02 0.11027501898E+02 0.99265819074E+01 0.94669058248E+01
 0.84596053213E+01 0.85802509471E+01 0.91505075380E+01 0.10525362769E+02 0.12997067343E+02
 0.17133232915E+02 0.24107584063E+02 0.35733007742E+02 0.51469477560E+02 0.68433272960E+02
 0.84308890956E+02 0.99042441283E+02 0.11298075009E+03 0.12408328125E+03 0.12846058279E+03
 0.12408328125E+03 0.11298075009E+03 0.99042441283E+02 0.84308890956E+02 0.68433272960E+02
 0.51469477560E+02 0.35733007742E+02 0.24107584063E+02 0.17133232915E+02 0.12997067343E+02
 0.10525362769E+02 0.91505075380E+01 0.85802509471E+01 0.84759947690E+01 0.85698315202E+01
 0.91059303588E+01 0.10522171604E+02 0.13176564025E+02 0.17718185090E+02 0.25684928296E+02
 0.39120269236E+02 0.57017242280E+02 0.75833508790E+02 0.93140886667E+02 0.10946043911E+03
 0.12556741803E+03 0.13885122411E+03 0.14417417892E+03 0.13885122411E+03 0.12556741803E+03
 0.10946043911E+03 0.93140886667E+02 0.75833508790E+02 0.57017242280E+02 0.39120269236E+02
 0.25684928296E+02 0.17718185090E+02 0.13176564025E+02 0.10522171604E+02 0.91059303588E+01
 0.85698315202E+01 0.86720371995E+01 0.87438179404E+01 0.92340644266E+01 0.10620026534E+02
 0.13295276436E+02 0.17949793229E+02 0.26275241220E+02 0.40382862265E+02 0.59090204982E+02
 0.78624664744E+02 0.96547055556E+02 0.11361363271E+03 0.13073584756E+03 0.14501612113E+03
 0.15076542678E+03 0.14501612113E+03 0.13073584756E+03 0.11361363271E+03 0.96547055556E+02
 0.78624664744E+02 0.59090204982E+02 0.40382862265E+02 0.26275241220E+02 0.17949793229E+02
 0.13295276436E+02 0.10620026534E+02 0.92340644266E+01 0.87438179404E+01 0.84759947690E+01
 0.85698315202E+01 0.91059303588E+01 0.10522171604E+02 0.13176564025E+02 0.17718185090E+02
 0.25684928296E+02 0.39120269236E+02 0.57017242280E+02 0.75833508790E+02 0.93140886667E+02
 0.10946043911E+03 0.12556741803E+03 0.13885122411E+03 0.14417417892E+03 0.13885122411E+03
 0.12556741803E+03 0.10946043911E+03 0.93140886667E+02 0.75833508790E+02 0.57017242280E+02
 0.39120269236E+02 0.25684928296E+02 0.17718185090E+02 0.13176564025E+02 0.10522171604E+02
 0.91059303588E+01 0.85698315202E+01 0.84596053213E+01 0.85802509471E+01 0.91505075380E+01
 0.10525362769E+02 0.12997067343E+02 0.17133232915E+02 0.24107584063E+02 0.35733007742E+02
 0.51469477560E+02 0.68433272960E+02 0.84308890956E+02 0.99042441283E+02 0.11298075009E+03
 0.12408328125E+03 0.12846058279E+03 0.12408328125E+03 0.11298075009E+03 0.99042441283E+02
 0.84308890956E+02 0.68433272960E+02 0.51469477560E+02 0.35733007742E+02 0.24107584063E+02
 0.17133232915E+02 0.12997067343E+02 0.10525362769E+02 0.91505075380E+01 0.85802509471E+01
 0.93670057406E+01 0.94669058248E+01 0.99265819074E+01 0.11027501898E+02 0.13022456410E+02
 0.16406846215E+02 0.22008986800E+02 0.31193959525E+02 0.44017929890E+02 0.58566519397E+02
 0.72879753092E+02 0.86298989046E+02 0.98491381932E+02 0.10773764862E+03 0.11128402608E+03
 0.10773764862E+03 0.98491381932E+02 0.86298989046E+02 0.72879753092E+02 0.58566519397E+02
 0.44017929890E+02 0.31193959525E+02 0.22008986800E+02 0.16406846215E+02 0.13022456410E+02
 0.11027501898E+02 0.99265819074E+01 0.94669058248E+01 0.11285141348E+02 0.11310131922E+02
 0.11509237648E+02 0.12123067524E+02 0.13402909171E+02 0.15789080973E+02 0.19918114313E+02
 0.26573584844E+02 0.36264617949E+02 0.48128106205E+02 0.60818861788E+02 0.73339973165E+02
 0.84661541202E+02 0.92967595517E+02 0.96075862141E+02 0.92967595517E+02 0.84661541202E+02
 0.73339973165E+02 0.60818861788E+02 0.48128106205E+02 0.36264617949E+02 0.26573584844E+02
 0.19918114313E+02 0.15789080973E+02 0.13402909171E+02 0.12123067524E+02 0.11509237648E+02
 0.11310131922E+02 0.15021144385E+02 0.14880410254E+02 0.14579838994E+02 0.14394063867E+02
 0.14648380333E+02 0.15778444632E+02 0.18331019753E+02 0.22693469444E+02 0.29333059444E+02
 0.38218970089E+02 0.48696823379E+02 0.59802645519E+02 0.70125533241E+02 0.77676456317E+02
 0.80477519961E+02 0.77676456317E+02 0.70125533241E+02 0.59802645519E+02 0.48696823379E+02
 0.38218970089E+02 0.29333059444E+02 0.22693469444E+02 0.18331019753E+02 0.15778444632E+02
 0.14648380333E+02 0.14394063867E+02 0.14579838994E+02 0.14880410254E+02 0.22892116898E+02
 0.22411310119E+02 0.21134805359E+02 0.19485423388E+02 0.18007471090E+02 0.17280035302E+02
 0.17842585717E+02 0.20023547228E+02 0.23883440132E+02 0.29616505602E+02 0.37063302304E+02
 0.45532214521E+02 0.53706119321E+02 0.59766034691E+02 0.62019777947E+02 0.59766034691E+02
 0.53706119321E+02 0.45532214521E+02 0.37063302304E+02 0.29616505602E+02 0.23883440132E+02
 0.20023547228E+02 0.17842585717E+02 0.17280035302E+02 0.18007471090E+02 0.19485423388E+02
 0.21134805359E+02 0.22411310119E+02 0.37603041151E+02 0.36268920294E+02 0.32847601209E+02
 0.28600975852E+02 0.24558888785E+02 0.21194319702E+02 0.19122281607E+02 0.18774646657E+02
 0.20175502312E+02 0.23071697456E+02 0.27309402427E+02 0.32450866920E+02 0.37588222149E+02
 0.41461180984E+02 0.42910886653E+02 0.41461180984E+02 0.37588222149E+02 0.32450866920E+02
 0.27309402427E+02 0.23071697456E+02 0.20175502312E+02 0.18774646657E+02 0.19122281607E+02
 0.21194319702E+02 0.24558888785E+02 0.28600975852E+02 0.32847601209E+02 0.36268920294E+02
 0.63733345534E+02 0.60670377519E+02 0.52840676480E+02 0.43234956985E+02 0.34445691106E+02
 0.27597838373E+02 0.22495466079E+02 0.19224452504E+02 0.18089778289E+02 0.18773572151E+02
 0.20598885620E+02 0.22981541800E+02 0.25412915600E+02 0.27274250694E+02 0.27978167059E+02
 0.27274250694E+02 0.25412915600E+02 0.22981541800E+02 0.20598885620E+02 0.18773572151E+02
 0.18089778289E+02 0.19224452504E+02 0.22495466079E+02 0.27597838373E+02 0.34445691106E+02
 0.43234956985E+02 0.52840676480E+02 0.60670377519E+02 0.10174495866E+03 0.96255378154E+02
 0.82246589293E+02 0.65053216771E+02 0.49173172676E+02 0.36654259887E+02 0.27707734800E+02
 0.21383855337E+02 0.17598949236E+02 0.16282858624E+02 0.16495660442E+02 0.17307071912E+02
 0.18214369181E+02 0.18943970785E+02 0.19233479202E+02 0.18943970785E+02 0.18214369181E+02
 0.17307071912E+02 0.16495660442E+02 0.16282858624E+02 0.17598949236E+02 0.21383855337E+02
 0.27707734800E+02 0.36654259887E+02 0.49173172676E+02 0.65053216771E+02 0.82246589293E+02
 0.96255378154E+02 0.14973434506E+03 0.14132391592E+03 0.11996682800E+03 0.93866326546E+02
 0.69514870470E+02 0.49587784961E+02 0.34798855024E+02 0.24874112483E+02 0.18403261790E+02
 0.15214871748E+02 0.14158190117E+02 0.13929329363E+02 0.14024497580E+02 0.14300310213E+02
 0.14459177033E+02 0.14300310213E+02 0.14024497580E+02 0.13929329363E+02 0.14158190117E+02
 0.15214871748E+02 0.18403261790E+02 0.24874112483E+02 0.34798855024E+02 0.49587784961E+02
 0.69514870470E+02 0.93866326546E+02 0.11996682800E+03 0.14132391592E+03 0.20600016703E+03
 0.19423389030E+03 0.16454921438E+03 0.12857204881E+03 0.94884956880E+02 0.66409645347E+02
 0.44152882885E+02 0.29131956460E+02 0.19984379958E+02 0.15019731186E+02 0.12923253445E+02
 0.11956872180E+02 0.11544816496E+02 0.11617718746E+02 0.11750036017E+02 0.11617718746E+02
 0.11544816496E+02 0.11956872180E+02 0.12923253445E+02 0.15019731186E+02 0.19984379958E+02
 0.29131956460E+02 0.44152882885E+02 0.66409645347E+02 0.94884956880E+02 0.12857204881E+03
 0.16454921438E+03 0.19423389030E+03 0.26503064897E+03 0.24972552356E+03 0.21132547050E+03
 0.16517215208E+03 0.12201949663E+03 0.84815896562E+02 0.54605654140E+02 0.33714236093E+02
 0.21760219825E+02 0.15262738845E+02 0.12346989548E+02 0.10881657986E+02 0.10180795699E+02
 0.10204009654E+02 0.10365185607E+02 0.10204009654E+02 0.10180795699E+02 0.10881657986E+02
 0.12346989548E+02 0.15262738845E+02 0.21760219825E+02 0.33714236093E+02 0.54605654140E+02
 0.84815896562E+02 0.12201949663E+03 0.16517215208E+03 0.21132547050E+03 0.24972552356E+03
 0.31274854873E+03 0.29454914891E+03 0.24903572376E+03 0.19463101473E+03 0.14390216460E+03
 0.99782237516E+02 0.63215478323E+02 0.37477007015E+02 0.23148723070E+02 0.15611703076E+02
 0.12180845619E+02 0.10452616868E+02 0.96366638898E+01 0.96910634814E+01 0.98977429675E+01
 0.96910634814E+01 0.96366638898E+01 0.10452616868E+02 0.12180845619E+02 0.15611703076E+02
 0.23148723070E+02 0.37477007015E+02 0.63215478323E+02 0.99782237516E+02 0.14390216460E+03
 0.19463101473E+03 0.24903572376E+03 0.29454914891E+03 0.27975533624E+03 0.26384229765E+03
 0.22384016768E+03 0.17551689502E+03 0.12990036509E+03 0.90098056029E+02 0.57491461996E+02
 0.34902912437E+02 0.22180742878E+02 0.15336214078E+02 0.12241748678E+02 0.10675076512E+02
 0.99234834927E+01 0.99486899835E+01 0.10121868315E+02 0.99486899835E+01 0.99234834927E+01
 0.10675076512E+02 0.12241748678E+02 0.15336214078E+02 0.22180742878E+02 0.34902912437E+02
 0.57491461996E+02 0.90098056029E+02 0.12990036509E+03 0.17551689502E+03 0.22384016768E+03
 0.26384229765E+03 0.26577656539E+03 0.25066674049E+03 0.21263865748E+03 0.16662042614E+03
 0.12317689148E+03 0.85446008788E+02 0.54799959808E+02 0.33713124630E+02 0.21717170973E+02
 0.15206833927E+02 0.12271717939E+02 0.10777112976E+02 0.10044558415E+02 0.10042900105E+02
 0.10194516641E+02 0.10042900105E+02 0.10044558415E+02 0.10777112976E+02 0.12271717939E+02
 0.15206833927E+02 0.21717170973E+02 0.33713124630E+02 0.54799959808E+02 0.85446008788E+02
 0.12317689148E+03 0.16662042614E+03 0.21263865748E+03 0.25066674049E+03 0.22921684740E+03