unknown system                          
   1.00000000000000     
     3.635000    0.000000    0.000000
     0.000000    3.635000    0.000000
     0.000000    0.000000    3.635000
   Cu
     4
Direct
  0.000000  0.000000  0.000000
  0.500000  0.500000  0.000000
  0.500000  0.000000  0.500000
  0.000000  0.500000  0.500000
 
   28   28   28
  842.68      780.16      617.42      413.77      230.55      104.89      41.834      21.149      13.903      10.420    
  9.0008      7.9145      7.3176      7.5738      7.8833      7.5738      7.3176      7.9145      9.0008      10.420    
  13.903      21.149      41.834      104.89      230.55      413.77      617.42      780.16      780.16      721.93    
  570.39      381.03      211.29      95.859      38.933      20.619      13.714      10.370      8.9616      7.8554    
  7.1921      7.3295      7.5738      7.3295      7.1921      7.8554      8.9616      10.370      13.714      20.619    
  38.933      95.859      211.29      381.03      570.39      721.93      617.42      570.39      448.24      296.44    
  162.15      73.440      32.103      19.257      13.196      10.258      8.9562      7.9227      7.2366      7.1921    
  7.3176      7.1921      7.2366      7.9227      8.9562      10.258      13.196      19.257      32.103      73.440    
  162.15      296.44      448.24      570.39      413.77      381.03      296.44      192.75      103.75      48.431    
  25.252      17.327      12.478      10.162      9.1356      8.3980      7.9227      7.8554      7.9145      7.8554    
  7.9227      8.3980      9.1356      10.162      12.478      17.327      25.252      48.431      103.75      192.75    
  296.44      381.03      230.55      211.29      162.15      103.75      56.620      30.462      20.612      15.190    
  11.755      10.157      9.4974      9.1356      8.9562      8.9616      9.0008      8.9616      8.9562      9.1356    
  9.4974      10.157      11.755      15.190      20.612      30.462      56.620      103.75      162.15      211.29    
  104.89      95.859      73.440      48.431      30.462      21.786      16.909      13.304      11.256      10.396    
  10.157      10.162      10.258      10.370      10.420      10.370      10.258      10.162      10.157      10.396    
  11.256      13.304      16.909      21.786      30.462      48.431      73.440      95.859      41.834      38.933    
  32.103      25.252      20.612      16.909      13.916      12.040      11.247      11.256      11.755      12.478    
  13.196      13.714      13.903      13.714      13.196      12.478      11.755      11.256      11.247      12.040    
  13.916      16.909      20.612      25.252      32.103      38.933      21.149      20.619      19.257      17.327    
  15.190      13.304      12.040      11.598      12.040      13.304      15.190      17.327      19.257      20.619    
  21.149      20.619      19.257      17.327      15.190      13.304      12.040      11.598      12.040      13.304    
  15.190      17.327      19.257      20.619      13.903      13.714      13.196      12.478      11.755      11.256    
  11.247      12.040      13.916      16.909      20.612      25.252      32.103      38.933      41.834      38.933    
  32.103      25.252      20.612      16.909      13.916      12.040      11.247      11.256      11.755      12.478    
  13.196      13.714      10.420      10.370      10.258      10.162      10.157      10.396      11.256      13.304    
  16.909      21.786      30.462      48.431      73.440      95.859      104.89      95.859      73.440      48.431    
  30.462      21.786      16.909      13.304      11.256      10.396      10.157      10.162      10.258      10.370    
  9.0008      8.9616      8.9562      9.1356      9.4974      10.157      11.755      15.190      20.612      30.462    
  56.620      103.75      162.15      211.29      230.55      211.29      162.15      103.75      56.620      30.462    
  20.612      15.190      11.755      10.157      9.4974      9.1356      8.9562      8.9616      7.9145      7.8554    
  7.9227      8.3980      9.1356      10.162      12.478      17.327      25.252      48.431      103.75      192.75    
  296.44      381.03      413.77      381.03      296.44      192.75      103.75      48.431      25.252      17.327    
  12.478      10.162      9.1356      8.3980      7.9227      7.8554      7.3176      7.1921      7.2366      7.9227    
  8.9562      10.258      13.196      19.257      32.103      73.440      162.15      296.44      448.24      570.39    
  617.42      570.39      448.24      296.44      162.15      73.440      32.103      19.257      13.196      10.258    
  8.9562      7.9227      7.2366      7.1921      7.5738      7.3295      7.1921      7.8554      8.9616      10.370    
  13.714      20.619      38.933      95.859      211.29      381.03      570.39      721.93      780.16      721.93    
  570.39      381.03      211.29      95.859      38.933      20.619      13.714      10.370      8.9616      7.8554    
  7.1921      7.3295      7.8833      7.5738      7.3176      7.9145      9.0008      10.420      13.903      21.149    
  41.834      104.89      230.55      413.77      617.42      780.16      842.68      780.16      617.42      413.77    
  230.55      104.89      41.834      21.149      13.903      10.420      9.0008      7.9145      7.3176      7.5738    
  7.5738      7.3295      7.1921      7.8554      8.9616      10.370      13.714      20.619      38.933      95.859    
  211.29      381.03      570.39      721.93      780.16      721.93      570.39      381.03      211.29      95.859    
  38.933      20.619      13.714      10.370      8.9616      7.8554      7.1921      7.3295      7.3176      7.1921    
  7.2366      7.9227      8.9562      10.258      13.196      19.257      32.103      73.440      162.15      296.44    
  448.24      570.39      617.42      570.39      448.24      296.44      162.15      73.440      32.103      19.257    
  13.196      10.258      8.9562      7.9227      7.2366      7.1921      7.9145      7.8554      7.9227      8.3980    
  9.1356      10.162      12.478      17.327      25.252      48.431      103.75      192.75      296.44      381.03    
  413.77      381.03      296.44      192.75      103.75      48.431      25.252      17.327      12.478      10.162    
  9.1356      8.3980      7.9227      7.8554      9.0008      8.9616      8.9562      9.1356      9.4974      10.157    
  11.755      15.190      20.612      30.462      56.620      103.75      162.15      211.29      230.55      211.29    
  162.15      103.75      56.620      30.462      20.612      15.190      11.755      10.157      9.4974      9.1356    
  8.9562      8.9616      10.420      10.370      10.258      10.162      10.157      10.396      11.256      13.304    
  16.909      21.786      30.462      48.431      73.440      95.859      104.89      95.859      73.440      48.431    
  30.462      21.786      16.909      13.304      11.256      10.396      10.157      10.162      10.258      10.370    
  13.903      13.714      13.196      12.478      11.755      11.256      11.247      12.040      13.916      16.909    
  20.612      25.252      32.103      38.933      41.834      38.933      32.103      25.252      20.612      16.909    
  13.916      12.040      11.247      11.256      11.755      12.478      13.196      13.714      21.149      20.619    
  19.257      17.327      15.190      13.304      12.040      11.598      12.040      13.304      15.190      17.327    
  19.257      20.619      21.149      20.619      19.257      17.327      15.190      13.304      12.040      11.598    
  12.040      13.304      15.190      17.327      19.257      20.619      41.834      38.933      32.103      25.252    
  20.612      16.909      13.916      12.040      11.247      11.256      11.755      12.478      13.196      13.714    
  13.903      13.714      13.196      12.478      11.755      11.256      11.247      12.040      13.916      16.909    
  20.612      25.252      32.103      38.933      104.89      95.859      73.440      48.431      30.462      21.786    
  16.909      13.304      11.256      10.396      10.157      10.162      10.258      10.370      10.420      10.370    
  10.258      10.162      10.157      10.396      11.256      13.304      16.909      21.786      30.462      48.431    
  73.440      95.859      230.55      211.29      162.15      103.75      56.620      30.462      20.612      15.190    
  11.755      10.157      9.4974      9.1356      8.9562      8.9616      9.0008      8.9616      8.9562      9.1356    
  9.4974      10.157      11.755      15.190      20.612      30.462      56.620      103.75      162.15      211.29    
  413.77      381.03      296.44      192.75      103.75      48.431      25.252      17.327      12.478      10.162    
  9.1356      8.3980      7.9227      7.8554      7.9145      7.8554      7.9227      8.3980      9.1356      10.162    
  12.478      17.327      25.252      48.431      103.75      192.75      296.44      381.03      617.42      570.39    
  448.24      296.44      162.15      73.440      32.103      19.257      13.196      10.258      8.9562      7.9227    
  7.2366      7.1921      7.3176      7.1921      7.2366      7.9227      8.9562      10.258      13.196      19.257    
  32.103      73.440      162.15      296.44      448.24      570.39      780.16      721.93      570.39      381.03    
  211.29      95.859      38.933      20.619      13.714      10.370      8.9616      7.8554      7.1921      7.3295    
  7.5738      7.3295      7.1921      7.8554      8.9616      10.370      13.714      20.619      38.933      95.859    
  211.29      381.03      570.39      721.93      780.16      721.93      570.39      381.03      211.29      95.859    
  38.933      20.619      13.714      10.370      8.9616      7.8554      7.1921      7.3295      7.5738      7.3295    
  7.1921      7.8554      8.9616      10.370      13.714      20.619      38.933      95.859      211.29      381.03    
  570.39      721.93      721.93      667.70      526.64      350.65      193.53      87.638      36.357      20.130    
  13.534      10.329      8.9406      7.8254      7.1093      7.1431      7.3295      7.1431      7.1093      7.8254    
  8.9406      10.329      13.534      20.130      36.357      87.638      193.53      350.65      526.64      667.70    
  570.39      526.64      413.08      272.26      148.31      67.308      30.321      18.825      13.035      10.236    
  8.9691      7.9436      7.2275      7.1093      7.1921      7.1093      7.2275      7.9436      8.9691      10.236    
  13.035      18.825      30.321      67.308      148.31      272.26      413.08      526.64      381.03      350.65    
  272.26      176.49      94.861      44.817      24.296      16.948      12.344      10.153      9.1653      8.4390    
  7.9436      7.8254      7.8554      7.8254      7.9436      8.4390      9.1653      10.153      12.344      16.948    
  24.296      44.817      94.861      176.49      272.26      350.65      211.29      193.53      148.31      94.861    
  52.159      28.881      20.078      14.888      11.648      10.147      9.5203      9.1653      8.9691      8.9406    
  8.9616      8.9406      8.9691      9.1653      9.5203      10.147      11.648      14.888      20.078      28.881    
  52.159      94.861      148.31      193.53      95.859      87.638      67.308      44.817      28.881      21.182    
  16.506      13.086      11.166      10.365      10.147      10.153      10.236      10.329      10.370      10.329    
  10.236      10.153      10.147      10.365      11.166      13.086      16.506      21.182      28.881      44.817    
  67.308      87.638      38.933      36.357      30.321      24.296      20.078      16.506      13.654      11.885    
  11.146      11.166      11.648      12.344      13.035      13.534      13.714      13.534      13.035      12.344    
  11.648      11.166      11.146      11.885      13.654      16.506      20.078      24.296      30.321      36.357    
  20.619      20.130      18.825      16.948      14.888      13.086      11.885      11.467      11.885      13.086    
  14.888      16.948      18.825      20.130      20.619      20.130      18.825      16.948      14.888      13.086    
  11.885      11.467      11.885      13.086      14.888      16.948      18.825      20.130      13.714      13.534    
  13.035      12.344      11.648      11.166      11.146      11.885      13.654      16.506      20.078      24.296    
  30.321      36.357      38.933      36.357      30.321      24.296      20.078      16.506      13.654      11.885    
  11.146      11.166      11.648      12.344      13.035      13.534      10.370      10.329      10.236      10.153    
  10.147      10.365      11.166      13.086      16.506      21.182      28.881      44.817      67.308      87.638    
  95.859      87.638      67.308      44.817      28.881      21.182      16.506      13.086      11.166      10.365    
  10.147      10.153      10.236      10.329      8.9616      8.9406      8.9691      9.1653      9.5203      10.147    
  11.648      14.888      20.078      28.881      52.159      94.861      148.31      193.53      211.29      193.53    
  148.31      94.861      52.159      28.881      20.078      14.888      11.648      10.147      9.5203      9.1653    
  8.9691      8.9406      7.8554      7.8254      7.9436      8.4390      9.1653      10.153      12.344      16.948    
  24.296      44.817      94.861      176.49      272.26      350.65      381.03      350.65      272.26      176.49    
  94.861      44.817      24.296      16.948      12.344      10.153      9.1653      8.4390      7.9436      7.8254    
  7.1921      7.1093      7.2275      7.9436      8.9691      10.236      13.035      18.825      30.321      67.308    
  148.31      272.26      413.08      526.64      570.39      526.64      413.08      272.26      148.31      67.308    
  30.321      18.825      13.035      10.236      8.9691      7.9436      7.2275      7.1093      7.3295      7.1431    
  7.1093      7.8254      8.9406      10.329      13.534      20.130      36.357      87.638      193.53      350.65    
  526.64      667.70      721.93      667.70      526.64      350.65      193.53      87.638      36.357      20.130    
  13.534      10.329      8.9406      7.8254      7.1093      7.1431      7.5738      7.3295      7.1921      7.8554    
  8.9616      10.370      13.714      20.619      38.933      95.859      211.29      381.03      570.39      721.93    
  780.16      721.93      570.39      381.03      211.29      95.859      38.933      20.619      13.714      10.370    
  8.9616      7.8554      7.1921      7.3295      7.3295      7.1431      7.1093      7.8254      8.9406      10.329    
  13.534      20.130      36.357      87.638      193.53      350.65      526.64      667.70      721.93      667.70    
  526.64      350.65      193.53      87.638      36.357      20.130      13.534      10.329      8.9406      7.8254    
  7.1093      7.1431      7.1921      7.1093      7.2275      7.9436      8.9691      10.236      13.035      18.825    
  30.321      67.308      148.31      272.26      413.08      526.64      570.39      526.64      413.08      272.26    
  148.31      67.308      30.321      18.825      13.035      10.236      8.9691      7.9436      7.2275      7.1093    
  7.8554      7.8254      7.9436      8.4390      9.1653      10.153      12.344      16.948      24.296      44.817    
  94.861      176.49      272.26      350.65      381.03      350.65      272.26      176.49      94.861      44.817    
  24.296      16.948      12.344      10.153      9.1653      8.4390      7.9436      7.8254      8.9616      8.9406    
  8.9691      9.1653      9.5203      10.147      11.648      14.888      20.078      28.881      52.159      94.861    
  148.31      193.53      211.29      193.53      148.31      94.861      52.159      28.881      20.078      14.888    
  11.648      10.147      9.5203      9.1653      8.9691      8.9406      10.370      10.329      10.236      10.153    
  10.147      10.365      11.166      13.086      16.506      21.182      28.881      44.817      67.308      87.638    
  95.859      87.638      67.308      44.817      28.881      21.182      16.506      13.086      11.166      10.365    
  10.147      10.153      10.236      10.329      13.714      13.534      13.035      12.344      11.648      11.166    
  11.146      11.885      13.654      16.506      20.078      24.296      30.321      36.357      38.933      36.357    
  30.321      24.296      20.078      16.506      13.654      11.885      11.146      11.166      11.648      12.344    
  13.035      13.534      20.619      20.130      18.825      16.948      14.888      13.086      11.885      11.467    
  11.885      13.086      14.888      16.948      18.825      20.130      20.619      20.130      18.825      16.948    
  14.888      13.086      11.885      11.467      11.885      13.086      14.888      16.948      18.825      20.130    
  38.933      36.357      30.321      24.296      20.078      16.506      13.654      11.885      11.146      11.166    
  11.648      12.344      13.035      13.534      13.714      13.534      13.035      12.344      11.648      11.166    
  11.146      11.885      13.654      16.506      20.078      24.296      30.321      36.357      95.859      87.638    
  67.308      44.817      28.881      21.182      16.506      13.086      11.166      10.365      10.147      10.153    
  10.236      10.329      10.370      10.329      10.236      10.153      10.147      10.365      11.166      13.086    
  16.506      21.182      28.881      44.817      67.308      87.638      211.29      193.53      148.31      94.861    
  52.159      28.881      20.078      14.888      11.648      10.147      9.5203      9.1653      8.9691      8.9406    
  8.9616      8.9406      8.9691      9.1653      9.5203      10.147      11.648      14.888      20.078      28.881    
  52.159      94.861      148.31      193.53      381.03      350.65      272.26      176.49      94.861      44.817    
  24.296      16.948      12.344      10.153      9.1653      8.4390      7.9436      7.8254      7.8554      7.8254    
  7.9436      8.4390      9.1653      10.153      12.344      16.948      24.296      44.817      94.861      176.49    
  272.26      350.65      570.39      526.64      413.08      272.26      148.31      67.308      30.321      18.825    
  13.035      10.236      8.9691      7.9436      7.2275      7.1093      7.1921      7.1093      7.2275      7.9436    
  8.9691      10.236      13.035      18.825      30.321      67.308      148.31      272.26      413.08      526.64    
  721.93      667.70      526.64      350.65      193.53      87.638      36.357      20.130      13.534      10.329    
  8.9406      7.8254      7.1093      7.1431      7.3295      7.1431      7.1093      7.8254      8.9406      10.329    
  13.534      20.130      36.357      87.638      193.53      350.65      526.64      667.70      617.42      570.39    
  448.24      296.44      162.15      73.440      32.103      19.257      13.196      10.258      8.9562      7.9227    
  7.2366      7.1921      7.3176      7.1921      7.2366      7.9227      8.9562      10.258      13.196      19.257    
  32.103      73.440      162.15      296.44      448.24      570.39      570.39      526.64      413.08      272.26    
  148.31      67.308      30.321      18.825      13.035      10.236      8.9691      7.9436      7.2275      7.1093    
  7.1921      7.1093      7.2275      7.9436      8.9691      10.236      13.035      18.825      30.321      67.308    
  148.31      272.26      413.08      526.64      448.24      413.08      322.09      210.15      113.35      52.325    
  26.189      17.622      12.593      10.182      9.0543      8.1338      7.4452      7.2275      7.2366      7.2275    
  7.4452      8.1338      9.0543      10.182      12.593      17.622      26.189      52.325      113.35      210.15    
  322.09      413.08      296.44      272.26      210.15      135.16      72.745      36.187      22.038      15.911    
  11.979      10.125      9.2644      8.6163      8.1338      7.9436      7.9227      7.9436      8.1338      8.6163    
  9.2644      10.125      11.979      15.911      22.038      36.187      72.745      135.16      210.15      272.26    
  162.15      148.31      113.35      72.745      41.392      25.197      18.606      14.078      11.361      10.116    
  9.5834      9.2644      9.0543      8.9691      8.9562      8.9691      9.0543      9.2644      9.5834      10.116    
  11.361      14.078      18.606      25.197      41.392      72.745      113.35      148.31      73.440      67.308    
  52.325      36.187      25.197      19.573      15.418      12.509      10.929      10.286      10.116      10.125    
  10.182      10.236      10.258      10.236      10.182      10.125      10.116      10.286      10.929      12.509    
  15.418      19.573      25.197      36.187      52.325      67.308      32.103      30.321      26.189      22.038    
  18.606      15.418      12.961      11.482      10.888      10.929      11.361      11.979      12.593      13.035    
  13.196      13.035      12.593      11.979      11.361      10.929      10.888      11.482      12.961      15.418    
  18.606      22.038      26.189      30.321      19.257      18.825      17.622      15.911      14.078      12.509    
  11.482      11.129      11.482      12.509      14.078      15.911      17.622      18.825      19.257      18.825    
  17.622      15.911      14.078      12.509      11.482      11.129      11.482      12.509      14.078      15.911    
  17.622      18.825      13.196      13.035      12.593      11.979      11.361      10.929      10.888      11.482    
  12.961      15.418      18.606      22.038      26.189      30.321      32.103      30.321      26.189      22.038    
  18.606      15.418      12.961      11.482      10.888      10.929      11.361      11.979      12.593      13.035    
  10.258      10.236      10.182      10.125      10.116      10.286      10.929      12.509      15.418      19.573    
  25.197      36.187      52.325      67.308      73.440      67.308      52.325      36.187      25.197      19.573    
  15.418      12.509      10.929      10.286      10.116      10.125      10.182      10.236      8.9562      8.9691    
  9.0543      9.2644      9.5834      10.116      11.361      14.078      18.606      25.197      41.392      72.745    
  113.35      148.31      162.15      148.31      113.35      72.745      41.392      25.197      18.606      14.078    
  11.361      10.116      9.5834      9.2644      9.0543      8.9691      7.9227      7.9436      8.1338      8.6163    
  9.2644      10.125      11.979      15.911      22.038      36.187      72.745      135.16      210.15      272.26    
  296.44      272.26      210.15      135.16      72.745      36.187      22.038      15.911      11.979      10.125    
  9.2644      8.6163      8.1338      7.9436      7.2366      7.2275      7.4452      8.1338      9.0543      10.182    
  12.593      17.622      26.189      52.325      113.35      210.15      322.09      413.08      448.24      413.08    
  322.09      210.15      113.35      52.325      26.189      17.622      12.593      10.182      9.0543      8.1338    
  7.4452      7.2275      7.1921      7.1093      7.2275      7.9436      8.9691      10.236      13.035      18.825    
  30.321      67.308      148.31      272.26      413.08      526.64      570.39      526.64      413.08      272.26    
  148.31      67.308      30.321      18.825      13.035      10.236      8.9691      7.9436      7.2275      7.1093    
  7.3176      7.1921      7.2366      7.9227      8.9562      10.258      13.196      19.257      32.103      73.440    
  162.15      296.44      448.24      570.39      617.42      570.39      448.24      296.44      162.15      73.440    
  32.103      19.257      13.196      10.258      8.9562      7.9227      7.2366      7.1921      7.1921      7.1093    
  7.2275      7.9436      8.9691      10.236      13.035      18.825      30.321      67.308      148.31      272.26    
  413.08      526.64      570.39      526.64      413.08      272.26      148.31      67.308      30.321      18.825    
  13.035      10.236      8.9691      7.9436      7.2275      7.1093      7.2366      7.2275      7.4452      8.1338    
  9.0543      10.182      12.593      17.622      26.189      52.325      113.35      210.15      322.09      413.08    
  448.24      413.08      322.09      210.15      113.35      52.325      26.189      17.622      12.593      10.182    
  9.0543      8.1338      7.4452      7.2275      7.9227      7.9436      8.1338      8.6163      9.2644      10.125    
  11.979      15.911      22.038      36.187      72.745      135.16      210.15      272.26      296.44      272.26    
  210.15      135.16      72.745      36.187      22.038      15.911      11.979      10.125      9.2644      8.6163    
  8.1338      7.9436      8.9562      8.9691      9.0543      9.2644      9.5834      10.116      11.361      14.078    
  18.606      25.197      41.392      72.745      113.35      148.31      162.15      148.31      113.35      72.745    
  41.392      25.197      18.606      14.078      11.361      10.116      9.5834      9.2644      9.0543      8.9691    
  10.258      10.236      10.182      10.125      10.116      10.286      10.929      12.509      15.418      19.573    
  25.197      36.187      52.325      67.308      73.440      67.308      52.325      36.187      25.197      19.573    
  15.418      12.509      10.929      10.286      10.116      10.125      10.182      10.236      13.196      13.035    
  12.593      11.979      11.361      10.929      10.888      11.482      12.961      15.418      18.606      22.038    
  26.189      30.321      32.103      30.321      26.189      22.038      18.606      15.418      12.961      11.482    
  10.888      10.929      11.361      11.979      12.593      13.035      19.257      18.825      17.622      15.911    
  14.078      12.509      11.482      11.129      11.482      12.509      14.078      15.911      17.622      18.825    
  19.257      18.825      17.622      15.911      14.078      12.509      11.482      11.129      11.482      12.509    
  14.078      15.911      17.622      18.825      32.103      30.321      26.189      22.038      18.606      15.418    
  12.961      11.482      10.888      10.929      11.361      11.979      12.593      13.035      13.196      13.035    
  12.593      11.979      11.361      10.929      10.888      11.482      12.961      15.418      18.606      22.038    
  26.189      30.321      73.440      67.308      52.325      36.187      25.197      19.573      15.418      12.509    
  10.929      10.286      10.116      10.125      10.182      10.236      10.258      10.236      10.182      10.125    
  10.116      10.286      10.929      12.509      15.418      19.573      25.197      36.187      52.325      67.308    
  162.15      148.31      113.35      72.745      41.392      25.197      18.606      14.078      11.361      10.116    
  9.5834      9.2644      9.0543      8.9691      8.9562      8.9691      9.0543      9.2644      9.5834      10.116    
  11.361      14.078      18.606      25.197      41.392      72.745      113.35      148.31      296.44      272.26    
  210.15      135.16      72.745      36.187      22.038      15.911      11.979      10.125      9.2644      8.6163    
  8.1338      7.9436      7.9227      7.9436      8.1338      8.6163      9.2644      10.125      11.979      15.911    
  22.038      36.187      72.745      135.16      210.15      272.26      448.24      413.08      322.09      210.15    
  113.35      52.325      26.189      17.622      12.593      10.182      9.0543      8.1338      7.4452      7.2275    
  7.2366      7.2275      7.4452      8.1338      9.0543      10.182      12.593      17.622      26.189      52.325    
  113.35      210.15      322.09      413.08      570.39      526.64      413.08      272.26      148.31      67.308    
  30.321      18.825      13.035      10.236      8.9691      7.9436      7.2275      7.1093      7.1921      7.1093    
  7.2275      7.9436      8.9691      10.236      13.035      18.825      30.321      67.308      148.31      272.26    
  413.08      526.64      413.77      381.03      296.44      192.75      103.75      48.431      25.252      17.327    
  12.478      10.162      9.1356      8.3980      7.9227      7.8554      7.9145      7.8554      7.9227      8.3980    
  9.1356      10.162      12.478      17.327      25.252      48.431      103.75      192.75      296.44      381.03    
  381.03      350.65      272.26      176.49      94.861      44.817      24.296      16.948      12.344      10.153    
  9.1653      8.4390      7.9436      7.8254      7.8554      7.8254      7.9436      8.4390      9.1653      10.153    
  12.344      16.948      24.296      44.817      94.861      176.49      272.26      350.65      296.44      272.26    
  210.15      135.16      72.745      36.187      22.038      15.911      11.979      10.125      9.2644      8.6163    
  8.1338      7.9436      7.9227      7.9436      8.1338      8.6163      9.2644      10.125      11.979      15.911    
  22.038      36.187      72.745      135.16      210.15      272.26      192.75      176.49      135.16      86.504    
  47.979      27.311      19.395      14.480      11.480      10.086      9.4376      8.9720      8.6163      8.4390    