unknown system                          
   1.00000000000000     
     3.635000    0.000000    0.000000
     0.000000    3.635000    0.000000
     0.000000    0.000000    3.635000
   Cu
     4
Direct
  0.000000  0.000000  0.000000
  0.500000  0.500000  0.000000
  0.500000  0.000000  0.500000
  0.000000  0.500000  0.500000
 
   28   28   28
 0.84267995192E+03 0.78016288979E+03 0.61741511890E+03 0.41377083096E+03 0.23055196937E+03
 0.10489101625E+03 0.41834184034E+02 0.21149232419E+02 0.13902734261E+02 0.10420110167E+02
 0.90008016701E+01 0.79144617320E+01 0.73176084644E+01 0.75738128392E+01 0.78832917602E+01
 0.75738128392E+01 0.73176084644E+01 0.79144617320E+01 0.90008016701E+01 0.10420110167E+02
 0.13902734261E+02 0.21149232419E+02 0.41834184034E+02 0.10489101625E+03 0.23055196937E+03
 0.41377083096E+03 0.61741511890E+03 0.78016288979E+03 0.78016288979E+03 0.72192867907E+03
 0.57038989279E+03 0.38103005718E+03 0.21128959894E+03 0.95858668639E+02 0.38932721429E+02
 0.20618824310E+02 0.13714448762E+02 0.10369815123E+02 0.89615644008E+01 0.78553868380E+01
 0.71921305659E+01 0.73294958150E+01 0.75738128392E+01 0.73294958150E+01 0.71921305659E+01
 0.78553868380E+01 0.89615644008E+01 0.10369815123E+02 0.13714448762E+02 0.20618824310E+02
 0.38932721429E+02 0.95858668639E+02 0.21128959894E+03 0.38103005718E+03 0.57038989279E+03
 0.72192867907E+03 0.61741511890E+03 0.57038989279E+03 0.44824164904E+03 0.29643584467E+03
 0.16215187895E+03 0.73439691963E+02 0.32103142164E+02 0.19257426849E+02 0.13195516301E+02
 0.10258172628E+02 0.89562195175E+01 0.79226941525E+01 0.72365527904E+01 0.71921305659E+01
 0.73176084644E+01 0.71921305659E+01 0.72365527904E+01 0.79226941525E+01 0.89562195175E+01
 0.10258172628E+02 0.13195516301E+02 0.19257426849E+02 0.32103142164E+02 0.73439691963E+02
 0.16215187895E+03 0.29643584467E+03 0.44824164904E+03 0.57038989279E+03 0.41377083096E+03
 0.38103005718E+03 0.29643584467E+03 0.19275098384E+03 0.10375407384E+03 0.48430736578E+02
 0.25252276566E+02 0.17327053772E+02 0.12477612874E+02 0.10162369739E+02 0.91356281551E+01
 0.83979632310E+01 0.79226941525E+01 0.78553868380E+01 0.79144617320E+01 0.78553868380E+01
 0.79226941525E+01 0.83979632310E+01 0.91356281551E+01 0.10162369739E+02 0.12477612874E+02
 0.17327053772E+02 0.25252276566E+02 0.48430736578E+02 0.10375407384E+03 0.19275098384E+03
 0.29643584467E+03 0.38103005718E+03 0.23055196937E+03 0.21128959894E+03 0.16215187895E+03
 0.10375407384E+03 0.56619671125E+02 0.30461880661E+02 0.20611500771E+02 0.15189865880E+02
 0.11755009274E+02 0.10157154196E+02 0.94973925042E+01 0.91356281551E+01 0.89562195175E+01
 0.89615644008E+01 0.90008016701E+01 0.89615644008E+01 0.89562195175E+01 0.91356281551E+01
 0.94973925042E+01 0.10157154196E+02 0.11755009274E+02 0.15189865880E+02 0.20611500771E+02
 0.30461880661E+02 0.56619671125E+02 0.10375407384E+03 0.16215187895E+03 0.21128959894E+03
 0.10489101625E+03 0.95858668639E+02 0.73439691963E+02 0.48430736578E+02 0.30461880661E+02
 0.21785654930E+02 0.16909335754E+02 0.13304436704E+02 0.11256471894E+02 0.10395793822E+02
 0.10157154196E+02 0.10162369739E+02 0.10258172628E+02 0.10369815123E+02 0.10420110167E+02
 0.10369815123E+02 0.10258172628E+02 0.10162369739E+02 0.10157154196E+02 0.10395793822E+02
 0.11256471894E+02 0.13304436704E+02 0.16909335754E+02 0.21785654930E+02 0.30461880661E+02
 0.48430736578E+02 0.73439691963E+02 0.95858668639E+02 0.41834184034E+02 0.38932721429E+02
 0.32103142164E+02 0.25252276566E+02 0.20611500771E+02 0.16909335754E+02 0.13916207865E+02
 0.12039577552E+02 0.11246898947E+02 0.11256471894E+02 0.11755009274E+02 0.12477612874E+02
 0.13195516301E+02 0.13714448762E+02 0.13902734261E+02 0.13714448762E+02 0.13195516301E+02
 0.12477612874E+02 0.11755009274E+02 0.11256471894E+02 0.11246898947E+02 0.12039577552E+02
 0.13916207865E+02 0.16909335754E+02 0.20611500771E+02 0.25252276566E+02 0.32103142164E+02
 0.38932721429E+02 0.21149232419E+02 0.20618824310E+02 0.19257426849E+02 0.17327053772E+02
 0.15189865880E+02 0.13304436704E+02 0.12039577552E+02 0.11598474508E+02 0.12039577552E+02
 0.13304436704E+02 0.15189865880E+02 0.17327053772E+02 0.19257426849E+02 0.20618824310E+02
 0.21149232419E+02 0.20618824310E+02 0.19257426849E+02 0.17327053772E+02 0.15189865880E+02
 0.13304436704E+02 0.12039577552E+02 0.11598474508E+02 0.12039577552E+02 0.13304436704E+02
 0.15189865880E+02 0.17327053772E+02 0.19257426849E+02 0.20618824310E+02 0.13902734261E+02
 0.13714448762E+02 0.13195516301E+02 0.12477612874E+02 0.11755009274E+02 0.11256471894E+02
 0.11246898947E+02 0.12039577552E+02 0.13916207865E+02 0.16909335754E+02 0.20611500771E+02
 0.25252276566E+02 0.32103142164E+02 0.38932721429E+02 0.41834184034E+02 0.38932721429E+02
 0.32103142164E+02 0.25252276566E+02 0.20611500771E+02 0.16909335754E+02 0.13916207865E+02
 0.12039577552E+02 0.11246898947E+02 0.11256471894E+02 0.11755009274E+02 0.12477612874E+02
 0.13195516301E+02 0.13714448762E+02 0.10420110167E+02 0.10369815123E+02 0.10258172628E+02
 0.10162369739E+02 0.10157154196E+02 0.10395793822E+02 0.11256471894E+02 0.13304436704E+02
 0.16909335754E+02 0.21785654930E+02 0.30461880661E+02 0.48430736578E+02 0.73439691963E+02
 0.95858668639E+02 0.10489101625E+03 0.95858668639E+02 0.73439691963E+02 0.48430736578E+02
 0.30461880661E+02 0.21785654930E+02 0.16909335754E+02 0.13304436704E+02 0.11256471894E+02
 0.10395793822E+02 0.10157154196E+02 0.10162369739E+02 0.10258172628E+02 0.10369815123E+02
 0.90008016701E+01 0.89615644008E+01 0.89562195175E+01 0.91356281551E+01 0.94973925042E+01
 0.10157154196E+02 0.11755009274E+02 0.15189865880E+02 0.20611500771E+02 0.30461880661E+02
 0.56619671125E+02 0.10375407384E+03 0.16215187895E+03 0.21128959894E+03 0.23055196937E+03
 0.21128959894E+03 0.16215187895E+03 0.10375407384E+03 0.56619671125E+02 0.30461880661E+02
 0.20611500771E+02 0.15189865880E+02 0.11755009274E+02 0.10157154196E+02 0.94973925042E+01
 0.91356281551E+01 0.89562195175E+01 0.89615644008E+01 0.79144617320E+01 0.78553868380E+01
 0.79226941525E+01 0.83979632310E+01 0.91356281551E+01 0.10162369739E+02 0.12477612874E+02
 0.17327053772E+02 0.25252276566E+02 0.48430736578E+02 0.10375407384E+03 0.19275098384E+03
 0.29643584467E+03 0.38103005718E+03 0.41377083096E+03 0.38103005718E+03 0.29643584467E+03
 0.19275098384E+03 0.10375407384E+03 0.48430736578E+02 0.25252276566E+02 0.17327053772E+02
 0.12477612874E+02 0.10162369739E+02 0.91356281551E+01 0.83979632310E+01 0.79226941525E+01
 0.78553868380E+01 0.73176084644E+01 0.71921305659E+01 0.72365527904E+01 0.79226941525E+01
 0.89562195175E+01 0.10258172628E+02 0.13195516301E+02 0.19257426849E+02 0.32103142164E+02
 0.73439691963E+02 0.16215187895E+03 0.29643584467E+03 0.44824164904E+03 0.57038989279E+03
 0.61741511890E+03 0.57038989279E+03 0.44824164904E+03 0.29643584467E+03 0.16215187895E+03
 0.73439691963E+02 0.32103142164E+02 0.19257426849E+02 0.13195516301E+02 0.10258172628E+02
 0.89562195175E+01 0.79226941525E+01 0.72365527904E+01 0.71921305659E+01 0.75738128392E+01
 0.73294958150E+01 0.71921305659E+01 0.78553868380E+01 0.89615644008E+01 0.10369815123E+02
 0.13714448762E+02 0.20618824310E+02 0.38932721429E+02 0.95858668639E+02 0.21128959894E+03
 0.38103005718E+03 0.57038989279E+03 0.72192867907E+03 0.78016288979E+03 0.72192867907E+03
 0.57038989279E+03 0.38103005718E+03 0.21128959894E+03 0.95858668639E+02 0.38932721429E+02
 0.20618824310E+02 0.13714448762E+02 0.10369815123E+02 0.89615644008E+01 0.78553868380E+01
 0.71921305659E+01 0.73294958150E+01 0.78832917602E+01 0.75738128392E+01 0.73176084644E+01
 0.79144617320E+01 0.90008016701E+01 0.10420110167E+02 0.13902734261E+02 0.21149232419E+02
 0.41834184034E+02 0.10489101625E+03 0.23055196937E+03 0.41377083096E+03 0.61741511890E+03
 0.78016288979E+03 0.84267995192E+03 0.78016288979E+03 0.61741511890E+03 0.41377083096E+03
 0.23055196937E+03 0.10489101625E+03 0.41834184034E+02 0.21149232419E+02 0.13902734261E+02
 0.10420110167E+02 0.90008016701E+01 0.79144617320E+01 0.73176084644E+01 0.75738128392E+01
 0.75738128392E+01 0.73294958150E+01 0.71921305659E+01 0.78553868380E+01 0.89615644008E+01
 0.10369815123E+02 0.13714448762E+02 0.20618824310E+02 0.38932721429E+02 0.95858668639E+02
 0.21128959894E+03 0.38103005718E+03 0.57038989279E+03 0.72192867907E+03 0.78016288979E+03
 0.72192867907E+03 0.57038989279E+03 0.38103005718E+03 0.21128959894E+03 0.95858668639E+02
 0.38932721429E+02 0.20618824310E+02 0.13714448762E+02 0.10369815123E+02 0.89615644008E+01
 0.78553868380E+01 0.71921305659E+01 0.73294958150E+01 0.73176084644E+01 0.71921305659E+01
 0.72365527904E+01 0.79226941525E+01 0.89562195175E+01 0.10258172628E+02 0.13195516301E+02
 0.19257426849E+02 0.32103142164E+02 0.73439691963E+02 0.16215187895E+03 0.29643584467E+03
 0.44824164904E+03 0.57038989279E+03 0.61741511890E+03 0.57038989279E+03 0.44824164904E+03
 0.29643584467E+03 0.16215187895E+03 0.73439691963E+02 0.32103142164E+02 0.19257426849E+02
 0.13195516301E+02 0.10258172628E+02 0.89562195175E+01 0.79226941525E+01 0.72365527904E+01
 0.71921305659E+01 0.79144617320E+01 0.78553868380E+01 0.79226941525E+01 0.83979632310E+01
 0.91356281551E+01 0.10162369739E+02 0.12477612874E+02 0.17327053772E+02 0.25252276566E+02
 0.48430736578E+02 0.10375407384E+03 0.19275098384E+03 0.29643584467E+03 0.38103005718E+03
 0.41377083096E+03 0.38103005718E+03 0.29643584467E+03 0.19275098384E+03 0.10375407384E+03
 0.48430736578E+02 0.25252276566E+02 0.17327053772E+02 0.12477612874E+02 0.10162369739E+02
 0.91356281551E+01 0.83979632310E+01 0.79226941525E+01 0.78553868380E+01 0.90008016701E+01
 0.89615644008E+01 0.89562195175E+01 0.91356281551E+01 0.94973925042E+01 0.10157154196E+02
 0.11755009274E+02 0.15189865880E+02 0.20611500771E+02 0.30461880661E+02 0.56619671125E+02
 0.10375407384E+03 0.16215187895E+03 0.21128959894E+03 0.23055196937E+03 0.21128959894E+03
 0.16215187895E+03 0.10375407384E+03 0.56619671125E+02 0.30461880661E+02 0.20611500771E+02
 0.15189865880E+02 0.11755009274E+02 0.10157154196E+02 0.94973925042E+01 0.91356281551E+01
 0.89562195175E+01 0.89615644008E+01 0.10420110167E+02 0.10369815123E+02 0.10258172628E+02
 0.10162369739E+02 0.10157154196E+02 0.10395793822E+02 0.11256471894E+02 0.13304436704E+02
 0.16909335754E+02 0.21785654930E+02 0.30461880661E+02 0.48430736578E+02 0.73439691963E+02
 0.95858668639E+02 0.10489101625E+03 0.95858668639E+02 0.73439691963E+02 0.48430736578E+02
 0.30461880661E+02 0.21785654930E+02 0.16909335754E+02 0.13304436704E+02 0.11256471894E+02
 0.10395793822E+02 0.10157154196E+02 0.10162369739E+02 0.10258172628E+02 0.10369815123E+02
 0.13902734261E+02 0.13714448762E+02 0.13195516301E+02 0.12477612874E+02 0.11755009274E+02
 0.11256471894E+02 0.11246898947E+02 0.12039577552E+02 0.13916207865E+02 0.16909335754E+02
 0.20611500771E+02 0.25252276566E+02 0.32103142164E+02 0.38932721429E+02 0.41834184034E+02
 0.38932721429E+02 0.32103142164E+02 0.25252276566E+02 0.20611500771E+02 0.16909335754E+02
 0.13916207865E+02 0.12039577552E+02 0.11246898947E+02 0.11256471894E+02 0.11755009274E+02
 0.12477612874E+02 0.13195516301E+02 0.13714448762E+02 0.21149232419E+02 0.20618824310E+02
 0.19257426849E+02 0.17327053772E+02 0.15189865880E+02 0.13304436704E+02 0.12039577552E+02
 0.11598474508E+02 0.12039577552E+02 0.13304436704E+02 0.15189865880E+02 0.17327053772E+02
 0.19257426849E+02 0.20618824310E+02 0.21149232419E+02 0.20618824310E+02 0.19257426849E+02
 0.17327053772E+02 0.15189865880E+02 0.13304436704E+02 0.12039577552E+02 0.11598474508E+02
 0.12039577552E+02 0.13304436704E+02 0.15189865880E+02 0.17327053772E+02 0.19257426849E+02
 0.20618824310E+02 0.41834184034E+02 0.38932721429E+02 0.32103142164E+02 0.25252276566E+02
 0.20611500771E+02 0.16909335754E+02 0.13916207865E+02 0.12039577552E+02 0.11246898947E+02
 0.11256471894E+02 0.11755009274E+02 0.12477612874E+02 0.13195516301E+02 0.13714448762E+02
 0.13902734261E+02 0.13714448762E+02 0.13195516301E+02 0.12477612874E+02 0.11755009274E+02
 0.11256471894E+02 0.11246898947E+02 0.12039577552E+02 0.13916207865E+02 0.16909335754E+02
 0.20611500771E+02 0.25252276566E+02 0.32103142164E+02 0.38932721429E+02 0.10489101625E+03
 0.95858668639E+02 0.73439691963E+02 0.48430736578E+02 0.30461880661E+02 0.21785654930E+02
 0.16909335754E+02 0.13304436704E+02 0.11256471894E+02 0.10395793822E+02 0.10157154196E+02
 0.10162369739E+02 0.10258172628E+02 0.10369815123E+02 0.10420110167E+02 0.10369815123E+02
 0.10258172628E+02 0.10162369739E+02 0.10157154196E+02 0.10395793822E+02 0.11256471894E+02
 0.13304436704E+02 0.16909335754E+02 0.21785654930E+02 0.30461880661E+02 0.48430736578E+02
 0.73439691963E+02 0.95858668639E+02 0.23055196937E+03 0.21128959894E+03 0.16215187895E+03
 0.10375407384E+03 0.56619671125E+02 0.30461880661E+02 0.20611500771E+02 0.15189865880E+02
 0.11755009274E+02 0.10157154196E+02 0.94973925042E+01 0.91356281551E+01 0.89562195175E+01
 0.89615644008E+01 0.90008016701E+01 0.89615644008E+01 0.89562195175E+01 0.91356281551E+01
 0.94973925042E+01 0.10157154196E+02 0.11755009274E+02 0.15189865880E+02 0.20611500771E+02
 0.30461880661E+02 0.56619671125E+02 0.10375407384E+03 0.16215187895E+03 0.21128959894E+03
 0.41377083096E+03 0.38103005718E+03 0.29643584467E+03 0.19275098384E+03 0.10375407384E+03
 0.48430736578E+02 0.25252276566E+02 0.17327053772E+02 0.12477612874E+02 0.10162369739E+02
 0.91356281551E+01 0.83979632310E+01 0.79226941525E+01 0.78553868380E+01 0.79144617320E+01
 0.78553868380E+01 0.79226941525E+01 0.83979632310E+01 0.91356281551E+01 0.10162369739E+02
 0.12477612874E+02 0.17327053772E+02 0.25252276566E+02 0.48430736578E+02 0.10375407384E+03
 0.19275098384E+03 0.29643584467E+03 0.38103005718E+03 0.61741511890E+03 0.57038989279E+03
 0.44824164904E+03 0.29643584467E+03 0.16215187895E+03 0.73439691963E+02 0.32103142164E+02
 0.19257426849E+02 0.13195516301E+02 0.10258172628E+02 0.89562195175E+01 0.79226941525E+01
 0.72365527904E+01 0.71921305659E+01 0.73176084644E+01 0.71921305659E+01 0.72365527904E+01
 0.79226941525E+01 0.89562195175E+01 0.10258172628E+02 0.13195516301E+02 0.19257426849E+02
 0.32103142164E+02 0.73439691963E+02 0.16215187895E+03 0.29643584467E+03 0.44824164904E+03
 0.57038989279E+03 0.78016288979E+03 0.72192867907E+03 0.57038989279E+03 0.38103005718E+03
 0.21128959894E+03 0.95858668639E+02 0.38932721429E+02 0.20618824310E+02 0.13714448762E+02
 0.10369815123E+02 0.89615644008E+01 0.78553868380E+01 0.71921305659E+01 0.73294958150E+01
 0.75738128392E+01 0.73294958150E+01 0.71921305659E+01 0.78553868380E+01 0.89615644008E+01
 0.10369815123E+02 0.13714448762E+02 0.20618824310E+02 0.38932721429E+02 0.95858668639E+02
 0.21128959894E+03 0.38103005718E+03 0.57038989279E+03 0.72192867907E+03 0.78016288979E+03
 0.72192867907E+03 0.57038989279E+03 0.38103005718E+03 0.21128959894E+03 0.95858668639E+02
 0.38932721429E+02 0.20618824310E+02 0.13714448762E+02 0.10369815123E+02 0.89615644008E+01
 0.78553868380E+01 0.71921305659E+01 0.73294958150E+01 0.75738128392E+01 0.73294958150E+01
 0.71921305659E+01 0.78553868380E+01 0.89615644008E+01 0.10369815123E+02 0.13714448762E+02
 0.20618824310E+02 0.38932721429E+02 0.95858668639E+02 0.21128959894E+03 0.38103005718E+03
 0.57038989279E+03 0.72192867907E+03 0.72192867907E+03 0.66769572982E+03 0.52663769302E+03
 0.35064956408E+03 0.19352736750E+03 0.87638171438E+02 0.36356836732E+02 0.20129878268E+02
 0.13533860491E+02 0.10328992030E+02 0.89405781902E+01 0.78254477459E+01 0.71093395587E+01
 0.71430795727E+01 0.73294958150E+01 0.71430795727E+01 0.71093395587E+01 0.78254477459E+01
 0.89405781902E+01 0.10328992030E+02 0.13533860491E+02 0.20129878268E+02 0.36356836732E+02
 0.87638171438E+02 0.19352736750E+03 0.35064956408E+03 0.52663769302E+03 0.66769572982E+03
 0.57038989279E+03 0.52663769302E+03 0.41307922732E+03 0.27225598776E+03 0.14831480476E+03
 0.67308170378E+02 0.30321384493E+02 0.18825417652E+02 0.13035311837E+02 0.10236422964E+02
 0.89690601255E+01 0.79435912973E+01 0.72274935634E+01 0.71093395587E+01 0.71921305659E+01
 0.71093395587E+01 0.72274935634E+01 0.79435912973E+01 0.89690601255E+01 0.10236422964E+02
 0.13035311837E+02 0.18825417652E+02 0.30321384493E+02 0.67308170378E+02 0.14831480476E+03
 0.27225598776E+03 0.41307922732E+03 0.52663769302E+03 0.38103005718E+03 0.35064956408E+03
 0.27225598776E+03 0.17648880277E+03 0.94861282131E+02 0.44816973890E+02 0.24296449158E+02
 0.16948457619E+02 0.12344273568E+02 0.10153169802E+02 0.91653320790E+01 0.84390045857E+01
 0.79435912973E+01 0.78254477459E+01 0.78553868380E+01 0.78254477459E+01 0.79435912973E+01
 0.84390045857E+01 0.91653320790E+01 0.10153169802E+02 0.12344273568E+02 0.16948457619E+02
 0.24296449158E+02 0.44816973890E+02 0.94861282131E+02 0.17648880277E+03 0.27225598776E+03
 0.35064956408E+03 0.21128959894E+03 0.19352736750E+03 0.14831480476E+03 0.94861282131E+02
 0.52159461791E+02 0.28880961878E+02 0.20078486099E+02 0.14888423799E+02 0.11647917439E+02
 0.10146863404E+02 0.95203167305E+01 0.91653320790E+01 0.89690601255E+01 0.89405781902E+01
 0.89615644008E+01 0.89405781902E+01 0.89690601255E+01 0.91653320790E+01 0.95203167305E+01
 0.10146863404E+02 0.11647917439E+02 0.14888423799E+02 0.20078486099E+02 0.28880961878E+02
 0.52159461791E+02 0.94861282131E+02 0.14831480476E+03 0.19352736750E+03 0.95858668639E+02
 0.87638171438E+02 0.67308170378E+02 0.44816973890E+02 0.28880961878E+02 0.21182469159E+02
 0.16506140852E+02 0.13085977860E+02 0.11165531415E+02 0.10365345617E+02 0.10146863404E+02
 0.10153169802E+02 0.10236422964E+02 0.10328992030E+02 0.10369815123E+02 0.10328992030E+02
 0.10236422964E+02 0.10153169802E+02 0.10146863404E+02 0.10365345617E+02 0.11165531415E+02
 0.13085977860E+02 0.16506140852E+02 0.21182469159E+02 0.28880961878E+02 0.44816973890E+02
 0.67308170378E+02 0.87638171438E+02 0.38932721429E+02 0.36356836732E+02 0.30321384493E+02
 0.24296449158E+02 0.20078486099E+02 0.16506140852E+02 0.13654054128E+02 0.11884704799E+02
 0.11146380631E+02 0.11165531415E+02 0.11647917439E+02 0.12344273568E+02 0.13035311837E+02
 0.13533860491E+02 0.13714448762E+02 0.13533860491E+02 0.13035311837E+02 0.12344273568E+02
 0.11647917439E+02 0.11165531415E+02 0.11146380631E+02 0.11884704799E+02 0.13654054128E+02
 0.16506140852E+02 0.20078486099E+02 0.24296449158E+02 0.30321384493E+02 0.36356836732E+02
 0.20618824310E+02 0.20129878268E+02 0.18825417652E+02 0.16948457619E+02 0.14888423799E+02
 0.13085977860E+02 0.11884704799E+02 0.11467335138E+02 0.11884704799E+02 0.13085977860E+02
 0.14888423799E+02 0.16948457619E+02 0.18825417652E+02 0.20129878268E+02 0.20618824310E+02
 0.20129878268E+02 0.18825417652E+02 0.16948457619E+02 0.14888423799E+02 0.13085977860E+02
 0.11884704799E+02 0.11467335138E+02 0.11884704799E+02 0.13085977860E+02 0.14888423799E+02
 0.16948457619E+02 0.18825417652E+02 0.20129878268E+02 0.13714448762E+02 0.13533860491E+02
 0.13035311837E+02 0.12344273568E+02 0.11647917439E+02 0.11165531415E+02 0.11146380631E+02
 0.11884704799E+02 0.13654054128E+02 0.16506140852E+02 0.20078486099E+02 0.24296449158E+02
 0.30321384493E+02 0.36356836732E+02 0.38932721429E+02 0.36356836732E+02 0.30321384493E+02
 0.24296449158E+02 0.20078486099E+02 0.16506140852E+02 0.13654054128E+02 0.11884704799E+02
 0.11146380631E+02 0.11165531415E+02 0.11647917439E+02 0.12344273568E+02 0.13035311837E+02
 0.13533860491E+02 0.10369815123E+02 0.10328992030E+02 0.10236422964E+02 0.10153169802E+02
 0.10146863404E+02 0.10365345617E+02 0.11165531415E+02 0.13085977860E+02 0.16506140852E+02
 0.21182469159E+02 0.28880961878E+02 0.44816973890E+02 0.67308170378E+02 0.87638171438E+02
 0.95858668639E+02 0.87638171438E+02 0.67308170378E+02 0.44816973890E+02 0.28880961878E+02
 0.21182469159E+02 0.16506140852E+02 0.13085977860E+02 0.11165531415E+02 0.10365345617E+02
 0.10146863404E+02 0.10153169802E+02 0.10236422964E+02 0.10328992030E+02 0.89615644008E+01
 0.89405781902E+01 0.89690601255E+01 0.91653320790E+01 0.95203167305E+01 0.10146863404E+02
 0.11647917439E+02 0.14888423799E+02 0.20078486099E+02 0.28880961878E+02 0.52159461791E+02
 0.94861282131E+02 0.14831480476E+03 0.19352736750E+03 0.21128959894E+03 0.19352736750E+03
 0.14831480476E+03 0.94861282131E+02 0.52159461791E+02 0.28880961878E+02 0.20078486099E+02
 0.14888423799E+02 0.11647917439E+02 0.10146863404E+02 0.95203167305E+01 0.91653320790E+01
 0.89690601255E+01 0.89405781902E+01 0.78553868380E+01 0.78254477459E+01 0.79435912973E+01
 0.84390045857E+01 0.91653320790E+01 0.10153169802E+02 0.12344273568E+02 0.16948457619E+02
 0.24296449158E+02 0.44816973890E+02 0.94861282131E+02 0.17648880277E+03 0.27225598776E+03
 0.35064956408E+03 0.38103005718E+03 0.35064956408E+03 0.27225598776E+03 0.17648880277E+03
 0.94861282131E+02 0.44816973890E+02 0.24296449158E+02 0.16948457619E+02 0.12344273568E+02
 0.10153169802E+02 0.91653320790E+01 0.84390045857E+01 0.79435912973E+01 0.78254477459E+01
 0.71921305659E+01 0.71093395587E+01 0.72274935634E+01 0.79435912973E+01 0.89690601255E+01
 0.10236422964E+02 0.13035311837E+02 0.18825417652E+02 0.30321384493E+02 0.67308170378E+02
 0.14831480476E+03 0.27225598776E+03 0.41307922732E+03 0.52663769302E+03 0.57038989279E+03
 0.52663769302E+03 0.41307922732E+03 0.27225598776E+03 0.14831480476E+03 0.67308170378E+02
 0.30321384493E+02 0.18825417652E+02 0.13035311837E+02 0.10236422964E+02 0.89690601255E+01
 0.79435912973E+01 0.72274935634E+01 0.71093395587E+01 0.73294958150E+01 0.71430795727E+01
 0.71093395587E+01 0.78254477459E+01 0.89405781902E+01 0.10328992030E+02 0.13533860491E+02
 0.20129878268E+02 0.36356836732E+02 0.87638171438E+02 0.19352736750E+03 0.35064956408E+03
 0.52663769302E+03 0.66769572982E+03 0.72192867907E+03 0.66769572982E+03 0.52663769302E+03
 0.35064956408E+03 0.19352736750E+03 0.87638171438E+02 0.36356836732E+02 0.20129878268E+02
 0.13533860491E+02 0.10328992030E+02 0.89405781902E+01 0.78254477459E+01 0.71093395587E+01
 0.71430795727E+01 0.75738128392E+01 0.73294958150E+01 0.71921305659E+01 0.78553868380E+01
 0.89615644008E+01 0.10369815123E+02 0.13714448762E+02 0.20618824310E+02 0.38932721429E+02
 0.95858668639E+02 0.21128959894E+03 0.38103005718E+03 0.57038989279E+03 0.72192867907E+03
 0.78016288979E+03 0.72192867907E+03 0.57038989279E+03 0.38103005718E+03 0.21128959894E+03
 0.95858668639E+02 0.38932721429E+02 0.20618824310E+02 0.13714448762E+02 0.10369815123E+02
 0.89615644008E+01 0.78553868380E+01 0.71921305659E+01 0.73294958150E+01 0.73294958150E+01
 0.71430795727E+01 0.71093395587E+01 0.78254477459E+01 0.89405781902E+01 0.10328992030E+02
 0.13533860491E+02 0.20129878268E+02 0.36356836732E+02 0.87638171438E+02 0.19352736750E+03
 0.35064956408E+03 0.52663769302E+03 0.66769572982E+03 0.72192867907E+03 0.66769572982E+03
 0.52663769302E+03 0.35064956408E+03 0.19352736750E+03 0.87638171438E+02 0.36356836732E+02
 0.20129878268E+02 0.13533860491E+02 0.10328992030E+02 0.89405781902E+01 0.78254477459E+01
 0.71093395587E+01 0.71430795727E+01 0.71921305659E+01 0.71093395587E+01 0.72274935634E+01
 0.79435912973E+01 0.89690601255E+01 0.10236422964E+02 0.13035311837E+02 0.18825417652E+02
 0.30321384493E+02 0.67308170378E+02 0.14831480476E+03 0.27225598776E+03 0.41307922732E+03
 0.52663769302E+03 0.57038989279E+03 0.52663769302E+03 0.41307922732E+03 0.27225598776E+03
 0.14831480476E+03 0.67308170378E+02 0.30321384493E+02 0.18825417652E+02 0.13035311837E+02
 0.10236422964E+02 0.89690601255E+01 0.79435912973E+01 0.72274935634E+01 0.71093395587E+01
 0.78553868380E+01 0.78254477459E+01 0.79435912973E+01 0.84390045857E+01 0.91653320790E+01
 0.10153169802E+02 0.12344273568E+02 0.16948457619E+02 0.24296449158E+02 0.44816973890E+02
 0.94861282131E+02 0.17648880277E+03 0.27225598776E+03 0.35064956408E+03 0.38103005718E+03
 0.35064956408E+03 0.27225598776E+03 0.17648880277E+03 0.94861282131E+02 0.44816973890E+02
 0.24296449158E+02 0.16948457619E+02 0.12344273568E+02 0.10153169802E+02 0.91653320790E+01
 0.84390045857E+01 0.79435912973E+01 0.78254477459E+01 0.89615644008E+01 0.89405781902E+01
 0.89690601255E+01 0.91653320790E+01 0.95203167305E+01 0.10146863404E+02 0.11647917439E+02
 0.14888423799E+02 0.20078486099E+02 0.28880961878E+02 0.52159461791E+02 0.94861282131E+02
 0.14831480476E+03 0.19352736750E+03 0.21128959894E+03 0.19352736750E+03 0.14831480476E+03
 0.94861282131E+02 0.52159461791E+02 0.28880961878E+02 0.20078486099E+02 0.14888423799E+02
 0.11647917439E+02 0.10146863404E+02 0.95203167305E+01 0.91653320790E+01 0.89690601255E+01
 0.89405781902E+01 0.10369815123E+02 0.10328992030E+02 0.10236422964E+02 0.10153169802E+02
 0.10146863404E+02 0.10365345617E+02 0.11165531415E+02 0.13085977860E+02 0.16506140852E+02
 0.21182469159E+02 0.28880961878E+02 0.44816973890E+02 0.67308170378E+02 0.87638171438E+02
 0.95858668639E+02 0.87638171438E+02 0.67308170378E+02 0.44816973890E+02 0.28880961878E+02
 0.21182469159E+02 0.16506140852E+02 0.13085977860E+02 0.11165531415E+02 0.10365345617E+02
 0.10146863404E+02 0.10153169802E+02 0.10236422964E+02 0.10328992030E+02 0.13714448762E+02
 0.13533860491E+02 0.13035311837E+02 0.12344273568E+02 0.11647917439E+02 0.11165531415E+02
 0.11146380631E+02 0.11884704799E+02 0.13654054128E+02 0.16506140852E+02 0.20078486099E+02
 0.24296449158E+02 0.30321384493E+02 0.36356836732E+02 0.38932721429E+02 0.36356836732E+02
 0.30321384493E+02 0.24296449158E+02 0.20078486099E+02 0.16506140852E+02 0.13654054128E+02
 0.11884704799E+02 0.11146380631E+02 0.11165531415E+02 0.11647917439E+02 0.12344273568E+02
 0.13035311837E+02 0.13533860491E+02 0.20618824310E+02 0.20129878268E+02 0.18825417652E+02
 0.16948457619E+02 0.14888423799E+02 0.13085977860E+02 0.11884704799E+02 0.11467335138E+02
 0.11884704799E+02 0.13085977860E+02 0.14888423799E+02 0.16948457619E+02 0.18825417652E+02
 0.20129878268E+02 0.20618824310E+02 0.20129878268E+02 0.18825417652E+02 0.16948457619E+02
 0.14888423799E+02 0.13085977860E+02 0.11884704799E+02 0.11467335138E+02 0.11884704799E+02
 0.13085977860E+02 0.14888423799E+02 0.16948457619E+02 0.18825417652E+02 0.20129878268E+02
 0.38932721429E+02 0.36356836732E+02 0.30321384493E+02 0.24296449158E+02 0.20078486099E+02
 0.16506140852E+02 0.13654054128E+02 0.11884704799E+02 0.11146380631E+02 0.11165531415E+02
 0.11647917439E+02 0.12344273568E+02 0.13035311837E+02 0.13533860491E+02 0.13714448762E+02
 0.13533860491E+02 0.13035311837E+02 0.12344273568E+02 0.11647917439E+02 0.11165531415E+02
 0.11146380631E+02 0.11884704799E+02 0.13654054128E+02 0.16506140852E+02 0.20078486099E+02
 0.24296449158E+02 0.30321384493E+02 0.36356836732E+02 0.95858668639E+02 0.87638171438E+02
 0.67308170378E+02 0.44816973890E+02 0.28880961878E+02 0.21182469159E+02 0.16506140852E+02
 0.13085977860E+02 0.11165531415E+02 0.10365345617E+02 0.10146863404E+02 0.10153169802E+02
 0.10236422964E+02 0.10328992030E+02 0.10369815123E+02 0.10328992030E+02 0.10236422964E+02
 0.10153169802E+02 0.10146863404E+02 0.10365345617E+02 0.11165531415E+02 0.13085977860E+02
 0.16506140852E+02 0.21182469159E+02 0.28880961878E+02 0.44816973890E+02 0.67308170378E+02
 0.87638171438E+02 0.21128959894E+03 0.19352736750E+03 0.14831480476E+03 0.94861282131E+02
 0.52159461791E+02 0.28880961878E+02 0.20078486099E+02 0.14888423799E+02 0.11647917439E+02
 0.10146863404E+02 0.95203167305E+01 0.91653320790E+01 0.89690601255E+01 0.89405781902E+01
 0.89615644008E+01 0.89405781902E+01 0.89690601255E+01 0.91653320790E+01 0.95203167305E+01
 0.10146863404E+02 0.11647917439E+02 0.14888423799E+02 0.20078486099E+02 0.28880961878E+02
 0.52159461791E+02 0.94861282131E+02 0.14831480476E+03 0.19352736750E+03 0.38103005718E+03
 0.35064956408E+03 0.27225598776E+03 0.17648880277E+03 0.94861282131E+02 0.44816973890E+02
 0.24296449158E+02 0.16948457619E+02 0.12344273568E+02 0.10153169802E+02 0.91653320790E+01
 0.84390045857E+01 0.79435912973E+01 0.78254477459E+01 0.78553868380E+01 0.78254477459E+01
 0.79435912973E+01 0.84390045857E+01 0.91653320790E+01 0.10153169802E+02 0.12344273568E+02
 0.16948457619E+02 0.24296449158E+02 0.44816973890E+02 0.94861282131E+02 0.17648880277E+03
 0.27225598776E+03 0.35064956408E+03 0.57038989279E+03 0.52663769302E+03 0.41307922732E+03
 0.27225598776E+03 0.14831480476E+03 0.67308170378E+02 0.30321384493E+02 0.18825417652E+02
 0.13035311837E+02 0.10236422964E+02 0.89690601255E+01 0.79435912973E+01 0.72274935634E+01
 0.71093395587E+01 0.71921305659E+01 0.71093395587E+01 0.72274935634E+01 0.79435912973E+01
 0.89690601255E+01 0.10236422964E+02 0.13035311837E+02 0.18825417652E+02 0.30321384493E+02
 0.67308170378E+02 0.14831480476E+03 0.27225598776E+03 0.41307922732E+03 0.52663769302E+03
 0.72192867907E+03 0.66769572982E+03 0.52663769302E+03 0.35064956408E+03 0.19352736750E+03
 0.87638171438E+02 0.36356836732E+02 0.20129878268E+02 0.13533860491E+02 0.10328992030E+02
 0.89405781902E+01 0.78254477459E+01 0.71093395587E+01 0.71430795727E+01 0.73294958150E+01
 0.71430795727E+01 0.71093395587E+01 0.78254477459E+01 0.89405781902E+01 0.10328992030E+02
 0.13533860491E+02 0.20129878268E+02 0.36356836732E+02 0.87638171438E+02 0.19352736750E+03
 0.35064956408E+03 0.52663769302E+03 0.66769572982E+03 0.61741511890E+03 0.57038989279E+03
 0.44824164904E+03 0.29643584467E+03 0.16215187895E+03 0.73439691963E+02 0.32103142164E+02
 0.19257426849E+02 0.13195516301E+02 0.10258172628E+02 0.89562195175E+01 0.79226941525E+01
 0.72365527904E+01 0.71921305659E+01 0.73176084644E+01 0.71921305659E+01 0.72365527904E+01
 0.79226941525E+01 0.89562195175E+01 0.10258172628E+02 0.13195516301E+02 0.19257426849E+02
 0.32103142164E+02 0.73439691963E+02 0.16215187895E+03 0.29643584467E+03 0.44824164904E+03
 0.57038989279E+03 0.57038989279E+03 0.52663769302E+03 0.41307922732E+03 0.27225598776E+03
 0.14831480476E+03 0.67308170378E+02 0.30321384493E+02 0.18825417652E+02 0.13035311837E+02
 0.10236422964E+02 0.89690601255E+01 0.79435912973E+01 0.72274935634E+01 0.71093395587E+01
 0.71921305659E+01 0.71093395587E+01 0.72274935634E+01 0.79435912973E+01 0.89690601255E+01
 0.10236422964E+02 0.13035311837E+02 0.18825417652E+02 0.30321384493E+02 0.67308170378E+02
 0.14831480476E+03 0.27225598776E+03 0.41307922732E+03 0.52663769302E+03 0.44824164904E+03