   4   4   0   0
  0.1200752E+02  0.3635000E-09  0.3635000E-09  0.3635000E-09  0.5000000E-15
  1.000000000000000E-004
  CAR 
 unknown system                          
     27.69253205     -3.82253441  301      7.20370225      1.00000000
     -3.823  0.0000E+00  0.0000E+00
     -3.717  0.0000E+00  0.0000E+00
     -3.612  0.0000E+00  0.0000E+00
     -3.507 -0.5466E-31 -0.5742E-32
     -3.402 -0.2711E-27 -0.2849E-28
     -3.297 -0.7712E-24 -0.8104E-25
     -3.192 -0.1257E-20 -0.1321E-21
     -3.087 -0.1172E-17 -0.1233E-18
     -2.982 -0.6083E-15 -0.6403E-16
     -2.877 -0.1836E-12 -0.1935E-13
     -2.772 -0.3158E-10 -0.3336E-11
     -2.667 -0.3073E-08 -0.3261E-09
     -2.562 -0.1680E-06 -0.1798E-07
     -2.457 -0.5102E-05 -0.5539E-06
     -2.352 -0.8415E-04 -0.9394E-05
     -2.247 -0.7177E-03 -0.8479E-04
     -2.142 -0.2734E-02 -0.3720E-03
     -2.037 -0.1185E-02 -0.4965E-03
     -1.932  0.2074E-01  0.1682E-02
     -1.827  0.5593E-01  0.7557E-02
     -1.722  0.5041E-01  0.1285E-01
     -1.616  0.3766E-02  0.1325E-01
     -1.511  0.3274E-01  0.1669E-01
     -1.406  0.2272E+00  0.4056E-01
     -1.301  0.3801E+00  0.8049E-01
     -1.196  0.2333E+00  0.1050E+00
     -1.091  0.4440E-01  0.1097E+00
     -0.986  0.2464E+00  0.1356E+00
     -0.881  0.6855E+00  0.2076E+00
     -0.776  0.6821E+00  0.2792E+00
     -0.671  0.2469E+00  0.3052E+00
     -0.566  0.1006E+00  0.3157E+00
     -0.461  0.3699E+00  0.3546E+00
     -0.356  0.4885E+00  0.4059E+00
     -0.251  0.2343E+00  0.4305E+00
     -0.146  0.6424E-01  0.4373E+00
     -0.041  0.2199E+00  0.4604E+00
      0.064  0.3411E+00  0.4962E+00
      0.169  0.1665E+00  0.5137E+00
      0.274  0.2205E+00  0.5368E+00
      0.379  0.9741E+00  0.6392E+00
      0.485  0.1490E+01  0.7957E+00
      0.590  0.9490E+00  0.8954E+00
      0.695  0.6417E+00  0.9628E+00
      0.800  0.1279E+01  0.1097E+01
      0.905  0.1403E+01  0.1245E+01
      1.010  0.5863E+00  0.1306E+01
      1.115 -0.8557E-02  0.1305E+01
      1.220 -0.9799E-01  0.1295E+01
      1.325 -0.6985E-01  0.1288E+01
      1.430  0.7667E-01  0.1296E+01
      1.535  0.5169E+00  0.1350E+01
      1.640  0.1206E+01  0.1477E+01
      1.745  0.1899E+01  0.1676E+01
      1.850  0.1810E+01  0.1866E+01
      1.955  0.1043E+01  0.1976E+01
      2.060  0.1210E+01  0.2103E+01
      2.165  0.2019E+01  0.2315E+01
      2.270  0.2088E+01  0.2534E+01
      2.375  0.1839E+01  0.2728E+01
      2.480  0.1967E+01  0.2934E+01
      2.586  0.2861E+01  0.3235E+01
      2.691  0.4787E+01  0.3738E+01
      2.796  0.6560E+01  0.4427E+01
      2.901  0.6507E+01  0.5110E+01
      3.006  0.5178E+01  0.5654E+01
      3.111  0.4443E+01  0.6121E+01
      3.216  0.6746E+01  0.6830E+01
      3.321  0.1030E+02  0.7912E+01
      3.426  0.1022E+02  0.8986E+01
      3.531  0.8987E+01  0.9930E+01
      3.636  0.9540E+01  0.1093E+02
      3.741  0.8324E+01  0.1181E+02
      3.846  0.6459E+01  0.1248E+02
      3.951  0.8554E+01  0.1338E+02
      4.056  0.1244E+02  0.1469E+02
      4.161  0.1456E+02  0.1622E+02
      4.266  0.1553E+02  0.1785E+02
      4.371  0.1600E+02  0.1953E+02
      4.476  0.1697E+02  0.2131E+02
      4.581  0.1582E+02  0.2298E+02
      4.687  0.1175E+02  0.2421E+02
      4.792  0.1075E+02  0.2534E+02
      4.897  0.1399E+02  0.2681E+02
      5.002  0.1578E+02  0.2847E+02
      5.107  0.1513E+02  0.3006E+02
      5.212  0.1611E+02  0.3175E+02
      5.317  0.1589E+02  0.3342E+02
      5.422  0.1304E+02  0.3479E+02
      5.527  0.1453E+02  0.3632E+02
      5.632  0.1967E+02  0.3838E+02
      5.737  0.1881E+02  0.4036E+02
      5.842  0.1125E+02  0.4154E+02
      5.947  0.5148E+01  0.4208E+02
      6.052  0.2927E+01  0.4239E+02
      6.157  0.2167E+01  0.4262E+02
      6.262  0.1612E+01  0.4279E+02
      6.367  0.7942E+00  0.4287E+02
      6.472  0.7714E-01  0.4288E+02
      6.577 -0.1135E+00  0.4286E+02
      6.682 -0.2798E-01  0.4286E+02
      6.788  0.8058E-01  0.4287E+02
      6.893  0.2365E+00  0.4290E+02
      6.998  0.1401E+01  0.4304E+02
      7.103  0.4001E+01  0.4346E+02
      7.208  0.5302E+01  0.4402E+02
      7.313  0.3590E+01  0.4440E+02
      7.418  0.1140E+01  0.4452E+02
      7.523 -0.8105E-01  0.4451E+02
      7.628 -0.1376E+00  0.4449E+02
      7.733  0.5896E+00  0.4456E+02
      7.838  0.1462E+01  0.4471E+02
      7.943  0.1315E+01  0.4485E+02
      8.048  0.4069E+00  0.4489E+02
      8.153 -0.1185E+00  0.4488E+02
      8.258 -0.4371E-01  0.4487E+02
      8.363  0.6306E+00  0.4494E+02
      8.468  0.1407E+01  0.4509E+02
      8.573  0.1204E+01  0.4521E+02
      8.678  0.7943E+00  0.4530E+02
      8.783  0.1604E+01  0.4547E+02
      8.889  0.2347E+01  0.4571E+02
      8.994  0.1524E+01  0.4587E+02
      9.099  0.3063E+00  0.4590E+02
      9.204 -0.1613E+00  0.4589E+02
      9.309 -0.9813E-01  0.4588E+02
      9.414  0.4421E+00  0.4592E+02
      9.519  0.1226E+01  0.4605E+02
      9.624  0.1426E+01  0.4620E+02
      9.729  0.1814E+01  0.4639E+02
      9.834  0.3059E+01  0.4671E+02
      9.939  0.3134E+01  0.4704E+02
     10.044  0.1620E+01  0.4721E+02
     10.149  0.3413E+00  0.4725E+02
     10.254 -0.7161E-01  0.4724E+02
     10.359 -0.7267E-01  0.4723E+02
     10.464 -0.3901E-01  0.4723E+02
     10.569 -0.4213E-01  0.4723E+02
     10.674  0.8027E-01  0.4723E+02
     10.779  0.4878E+00  0.4729E+02
     10.884  0.7812E+00  0.4737E+02
     10.990  0.5009E+00  0.4742E+02
     11.095  0.4762E-01  0.4742E+02
     11.200 -0.1143E+00  0.4741E+02
     11.305  0.2006E+00  0.4743E+02
     11.410  0.1026E+01  0.4754E+02
     11.515  0.1489E+01  0.4770E+02
     11.620  0.1265E+01  0.4783E+02
     11.725  0.1489E+01  0.4799E+02
     11.830  0.2087E+01  0.4821E+02
     11.935  0.2062E+01  0.4842E+02
     12.040  0.1336E+01  0.4856E+02
     12.145  0.7114E+00  0.4864E+02
     12.250  0.5780E+00  0.4870E+02
     12.355  0.1078E+01  0.4881E+02
     12.460  0.2480E+01  0.4907E+02
     12.565  0.2927E+01  0.4938E+02
     12.670  0.1512E+01  0.4954E+02
     12.775  0.7584E+00  0.4962E+02
     12.880  0.1304E+01  0.4976E+02
     12.986  0.1232E+01  0.4989E+02
     13.091  0.5159E+00  0.4994E+02
     13.196  0.3508E+00  0.4998E+02
     13.301  0.4496E+00  0.5002E+02
     13.406  0.2384E+00  0.5005E+02
     13.511 -0.4550E-01  0.5004E+02
     13.616 -0.1852E+00  0.5002E+02
     13.721  0.2065E+00  0.5005E+02
     13.826  0.1751E+01  0.5023E+02
     13.931  0.3103E+01  0.5056E+02
     14.036  0.2214E+01  0.5079E+02
     14.141  0.4621E+00  0.5084E+02
     14.246 -0.1564E+00  0.5082E+02
     14.351  0.2094E+00  0.5084E+02
     14.456  0.1122E+01  0.5096E+02
     14.561  0.1942E+01  0.5116E+02
     14.666  0.1712E+01  0.5134E+02
     14.771  0.8097E+00  0.5143E+02
     14.876  0.6402E+00  0.5150E+02
     14.981  0.1301E+01  0.5163E+02
     15.087  0.1610E+01  0.5180E+02
     15.192  0.1655E+01  0.5198E+02
     15.297  0.1878E+01  0.5217E+02
     15.402  0.2007E+01  0.5238E+02
     15.507  0.2653E+01  0.5266E+02
     15.612  0.3056E+01  0.5298E+02
     15.717  0.1729E+01  0.5317E+02
     15.822  0.1648E+00  0.5318E+02
     15.927 -0.1383E+00  0.5317E+02
     16.032  0.5950E+00  0.5323E+02
     16.137  0.1452E+01  0.5338E+02
     16.242  0.1242E+01  0.5351E+02
     16.347  0.4354E+00  0.5356E+02
     16.452  0.4207E+00  0.5360E+02
     16.557  0.1025E+01  0.5371E+02
     16.662  0.1359E+01  0.5385E+02
     16.767  0.1524E+01  0.5401E+02
     16.872  0.1821E+01  0.5421E+02
     16.977  0.2069E+01  0.5442E+02
     17.082  0.2321E+01  0.5467E+02
     17.188  0.2280E+01  0.5491E+02
     17.293  0.1563E+01  0.5507E+02
     17.398  0.6807E+00  0.5514E+02
     17.503  0.2304E+00  0.5517E+02
     17.608  0.4021E+00  0.5521E+02
     17.713  0.1152E+01  0.5533E+02
     17.818  0.1382E+01  0.5547E+02
     17.923  0.8107E+00  0.5556E+02
     18.028  0.1127E+01  0.5568E+02
     18.133  0.2401E+01  0.5593E+02
     18.238  0.2823E+01  0.5623E+02
     18.343  0.1996E+01  0.5644E+02
     18.448  0.7569E+00  0.5652E+02
     18.553  0.3268E+00  0.5655E+02
     18.658  0.1332E+01  0.5669E+02
     18.763  0.2578E+01  0.5696E+02
     18.868  0.2452E+01  0.5722E+02
     18.973  0.1380E+01  0.5736E+02
     19.078  0.1767E+01  0.5755E+02
     19.183  0.3806E+01  0.5795E+02
     19.289  0.4056E+01  0.5838E+02
     19.394  0.1807E+01  0.5857E+02
     19.499  0.7594E-01  0.5857E+02
     19.604 -0.1999E+00  0.5855E+02
     19.709 -0.6854E-01  0.5855E+02
     19.814 -0.1714E-01  0.5854E+02
     19.919 -0.4575E-01  0.5854E+02
     20.024 -0.1102E+00  0.5853E+02
     20.129  0.9236E-01  0.5854E+02
     20.234  0.1077E+01  0.5865E+02
     20.339  0.2417E+01  0.5890E+02
     20.444  0.2679E+01  0.5919E+02
     20.549  0.1538E+01  0.5935E+02
     20.654  0.3130E+00  0.5938E+02
     20.759 -0.1022E+00  0.5937E+02
     20.864 -0.6800E-01  0.5936E+02
     20.969 -0.1434E-01  0.5936E+02
     21.074 -0.1472E-02  0.5936E+02
     21.179 -0.8036E-04  0.5936E+02
     21.284 -0.2412E-05  0.5936E+02
     21.390 -0.4046E-07  0.5936E+02
     21.495 -0.3858E-08  0.5936E+02
     21.600 -0.2817E-06  0.5936E+02
     21.705 -0.1279E-04  0.5936E+02
     21.810 -0.3206E-03  0.5936E+02
     21.915 -0.4316E-02  0.5936E+02
     22.020 -0.2920E-01  0.5936E+02
     22.125 -0.7834E-01  0.5935E+02
     22.230  0.6858E-01  0.5936E+02
     22.335  0.7898E+00  0.5944E+02
     22.440  0.1532E+01  0.5960E+02
     22.545  0.1194E+01  0.5972E+02
     22.650  0.3121E+00  0.5976E+02
     22.755 -0.6504E-01  0.5975E+02
     22.860 -0.5206E-01  0.5975E+02
     22.965 -0.1094E-01  0.5974E+02
     23.070 -0.1086E-02  0.5974E+02
     23.175 -0.5661E-04  0.5974E+02
     23.280 -0.1614E-05  0.5974E+02
     23.385 -0.2565E-07  0.5974E+02
     23.491 -0.2296E-09  0.5974E+02
     23.596 -0.1164E-11  0.5974E+02
     23.701 -0.3247E-14  0.5974E+02
     23.806  0.0000E+00  0.5974E+02
     23.911  0.0000E+00  0.5974E+02
     24.016 -0.1718E-29  0.5974E+02
     24.121 -0.8165E-26  0.5974E+02
     24.226 -0.2225E-22  0.5974E+02
     24.331 -0.3473E-19  0.5974E+02
     24.436 -0.3103E-16  0.5974E+02
     24.541 -0.1545E-13  0.5974E+02
     24.646 -0.4456E-11  0.5974E+02
     24.751 -0.7336E-09  0.5974E+02
     24.856 -0.6830E-07  0.5974E+02
     24.961 -0.3571E-05  0.5974E+02
     25.066 -0.1036E-03  0.5974E+02
     25.171 -0.1627E-02  0.5974E+02
     25.276 -0.1314E-01  0.5974E+02
     25.381 -0.4635E-01  0.5974E+02
     25.486 -0.6986E-02  0.5974E+02
     25.592  0.3781E+00  0.5978E+02
     25.697  0.9503E+00  0.5988E+02
     25.802  0.9186E+00  0.5997E+02
     25.907  0.3337E+00  0.6001E+02
     26.012 -0.1887E-01  0.6001E+02
     26.117 -0.4375E-01  0.6000E+02
     26.222 -0.1148E-01  0.6000E+02
     26.327 -0.1346E-02  0.6000E+02
     26.432 -0.8163E-04  0.6000E+02
     26.537 -0.2688E-05  0.6000E+02
     26.642 -0.4916E-07  0.6000E+02
     26.747 -0.5052E-09  0.6000E+02
     26.852 -0.2938E-11  0.6000E+02
     26.957 -0.9740E-14  0.6000E+02
     27.062  0.0000E+00  0.6000E+02
     27.167  0.0000E+00  0.6000E+02
     27.272  0.0000E+00  0.6000E+02
     27.377  0.0000E+00  0.6000E+02
     27.482  0.0000E+00  0.6000E+02
     27.587  0.0000E+00  0.6000E+02
     27.693  0.0000E+00  0.6000E+02
