<?xml version="1.0" encoding="ISO-8859-1"?>
<modeling>
 <generator>
  <i name="program" type="string">vasp </i>
  <i name="version" type="string">6.2.0  </i>
  <i name="subversion" type="string">18Jan21 (build Mar 17 2021 09:06:54) complex                          serial </i>
  <i name="platform" type="string">LinuxIFC </i>
  <i name="date" type="string">2021 08 03 </i>
  <i name="time" type="string">10:15:05 </i>
 </generator>
 <incar>
  <i type="string" name="PREC">normal</i>
  <i type="int" name="ICHARG">     1</i>
  <i type="int" name="IBRION">    -1</i>
  <i name="EDIFF">      0.00000100</i>
  <i type="int" name="NSW">     0</i>
  <i name="ENCUT">    240.00000000</i>
  <i type="int" name="NBANDS">    30</i>
  <i type="int" name="ISMEAR">     1</i>
  <i name="SIGMA">      0.20000000</i>
  <i type="logical" name="LCHARG"> T  </i>
  <i type="int" name="KPAR">     1</i>
  <i type="int" name="NCORE">     1</i>
  <i type="string" name="GGA">PE</i>
 </incar>
 <primitive_cell>
  <structure name="primitive_cell" >
   <crystal>
    <varray name="basis" >
     <v>       1.81750000      -1.81750000       0.00000000 </v>
     <v>       1.81750000       0.00000000       1.81750000 </v>
     <v>       0.00000000      -1.81750000       1.81750000 </v>
    </varray>
    <i name="volume">     12.00751822 </i>
    <varray name="rec_basis" >
     <v>       0.27510316      -0.27510316      -0.27510316 </v>
     <v>       0.27510316       0.27510316       0.27510316 </v>
     <v>      -0.27510316      -0.27510316       0.27510316 </v>
    </varray>
   </crystal>
   <varray name="positions" >
    <v>       0.00000000       0.00000000       0.00000000 </v>
   </varray>
  </structure>
  <varray name="primitive_index" >
   <v type="int" >        1 </v>
  </varray>
 </primitive_cell>
 <kpoints>
  <generation param="Monkhorst-Pack">
   <v type="int" name="divisions">       5        5        5 </v>
   <v name="usershift">      0.00000000       0.00000000       0.00000000 </v>
   <v name="genvec1">      0.20000000       0.00000000       0.00000000 </v>
   <v name="genvec2">      0.00000000       0.20000000       0.00000000 </v>
   <v name="genvec3">      0.00000000       0.00000000       0.20000000 </v>
   <v name="shift">      0.00000000       0.00000000       0.00000000 </v>
  </generation>
  <varray name="kpointlist" >
   <v>       0.00000000       0.00000000       0.00000000 </v>
   <v>       0.20000000       0.00000000       0.00000000 </v>
   <v>       0.40000000       0.00000000       0.00000000 </v>
   <v>       0.20000000       0.20000000       0.00000000 </v>
   <v>       0.40000000       0.20000000       0.00000000 </v>
   <v>       0.40000000       0.40000000       0.00000000 </v>
   <v>       0.20000000       0.20000000       0.20000000 </v>
   <v>       0.40000000       0.20000000       0.20000000 </v>
   <v>       0.40000000       0.40000000       0.20000000 </v>
   <v>       0.40000000       0.40000000       0.40000000 </v>
  </varray>
  <varray name="weights" >
   <v>       0.00800000 </v>
   <v>       0.04800000 </v>
   <v>       0.04800000 </v>
   <v>       0.09600000 </v>
   <v>       0.19200000 </v>
   <v>       0.09600000 </v>
   <v>       0.06400000 </v>
   <v>       0.19200000 </v>
   <v>       0.19200000 </v>
   <v>       0.06400000 </v>
  </varray>
 </kpoints>
 <parameters>
  <separator name="general" >
   <i type="string" name="SYSTEM">unknown system</i>
   <i type="logical" name="LCOMPAT"> F  </i>
  </separator>
  <separator name="electronic" >
   <i type="string" name="PREC">normal</i>
   <i name="ENMAX">    240.00000000</i>
   <i name="ENAUG">    586.98000000</i>
   <i name="EDIFF">      0.00000100</i>
   <i type="int" name="IALGO">    38</i>
   <i type="int" name="IWAVPR">     0</i>
   <i type="int" name="NBANDS">    30</i>
   <i type="int" name="NBANDSLOW">    -1</i>
   <i type="int" name="NBANDSHIGH">    -1</i>
   <i name="NELECT">     44.00000000</i>
   <i type="int" name="TURBO">     0</i>
   <i type="int" name="IRESTART">     0</i>
   <i type="int" name="NREBOOT">     0</i>
   <i type="int" name="NMIN">     0</i>
   <i name="EREF">      0.00000000</i>
   <separator name="electronic smearing" >
    <i type="int" name="ISMEAR">     1</i>
    <i name="SIGMA">      0.20000000</i>
    <i name="KSPACING">      0.50000000</i>
    <i type="logical" name="KGAMMA"> T  </i>
    <i type="logical" name="KBLOWUP"> T  </i>
   </separator>
   <separator name="electronic projectors" >
    <i type="logical" name="LREAL"> F  </i>
    <v name="ROPT">      0.00000000</v>
    <i type="int" name="LMAXPAW">  -100</i>
    <i type="int" name="LMAXMIX">     2</i>
    <i type="logical" name="NLSPLINE"> F  </i>
   </separator>
   <separator name="electronic startup" >
    <i type="int" name="ISTART">     1</i>
    <i type="int" name="ICHARG">     1</i>
    <i type="int" name="INIWAV">     1</i>
   </separator>
   <separator name="electronic spin" >
    <i type="int" name="ISPIN">     1</i>
    <i type="logical" name="LNONCOLLINEAR"> F  </i>
    <v name="MAGMOM">      1.00000000      1.00000000      1.00000000      1.00000000</v>
    <i name="NUPDOWN">     -1.00000000</i>
    <i type="logical" name="LSORBIT"> F  </i>
    <v name="SAXIS">      0.00000000      0.00000000      1.00000000</v>
    <i type="logical" name="LSPIRAL"> F  </i>
    <v name="QSPIRAL">      0.00000000      0.00000000      0.00000000</v>
    <i type="logical" name="LZEROZ"> F  </i>
   </separator>
   <separator name="electronic exchange-correlation" >
    <i type="logical" name="LASPH"> F  </i>
    <i type="logical" name="LMETAGGA"> F  </i>
   </separator>
   <separator name="electronic convergence" >
    <i type="int" name="NELM">    60</i>
    <i type="int" name="NELMDL">     0</i>
    <i type="int" name="NELMIN">     2</i>
    <i name="ENINI">    240.00000000</i>
    <separator name="electronic convergence detail" >
     <i type="logical" name="LDIAG"> T  </i>
     <i type="logical" name="LSUBROT"> F  </i>
     <i name="WEIMIN">      0.00000000</i>
     <i name="EBREAK">      0.00000001</i>
     <i name="DEPER">      0.30000000</i>
     <i type="int" name="NRMM">     4</i>
     <i name="TIME">      0.40000000</i>
    </separator>
   </separator>
   <separator name="electronic mixer" >
    <i name="AMIX">      0.40000000</i>
    <i name="BMIX">      1.00000000</i>
    <i name="AMIN">      0.10000000</i>
    <i name="AMIX_MAG">      1.60000000</i>
    <i name="BMIX_MAG">      1.00000000</i>
    <separator name="electronic mixer details" >
     <i type="int" name="IMIX">     4</i>
     <i type="logical" name="MIXFIRST"> F  </i>
     <i type="int" name="MAXMIX">   -45</i>
     <i name="WC">    100.00000000</i>
     <i type="int" name="INIMIX">     1</i>
     <i type="int" name="MIXPRE">     1</i>
     <i type="int" name="MREMOVE">     5</i>
    </separator>
   </separator>
   <separator name="electronic dipolcorrection" >
    <i type="logical" name="LDIPOL"> F  </i>
    <i type="logical" name="LMONO"> F  </i>
    <i type="int" name="IDIPOL">     0</i>
    <i name="EPSILON">      1.00000000</i>
    <v name="DIPOL">   -100.00000000   -100.00000000   -100.00000000</v>
    <i name="EFIELD">      0.00000000</i>
   </separator>
  </separator>
  <separator name="grids" >
   <i type="int" name="NGX">    14</i>
   <i type="int" name="NGY">    14</i>
   <i type="int" name="NGZ">    14</i>
   <i type="int" name="NGXF">    28</i>
   <i type="int" name="NGYF">    28</i>
   <i type="int" name="NGZF">    28</i>
   <i type="logical" name="ADDGRID"> F  </i>
  </separator>
  <separator name="ionic" >
   <i type="int" name="NSW">     0</i>
   <i type="int" name="IBRION">    -1</i>
   <i type="int" name="MDALGO">     0</i>
   <i type="int" name="ISIF">     2</i>
   <i name="PSTRESS">      0.00000000</i>
   <i name="EDIFFG">      0.00001000</i>
   <i type="int" name="NFREE">     0</i>
   <i name="POTIM">      0.50000000</i>
   <i name="SMASS">     -3.00000000</i>
   <i name="SCALEE">      1.00000000</i>
  </separator>
  <separator name="ionic md" >
   <i name="TEBEG">      0.00010000</i>
   <i name="TEEND">      0.00010000</i>
   <i type="int" name="NBLOCK">     1</i>
   <i type="int" name="KBLOCK">     1</i>
   <i type="int" name="NPACO">   256</i>
   <i name="APACO">     16.00000000</i>
  </separator>
  <separator name="symmetry" >
   <i type="int" name="ISYM">     2</i>
   <i name="SYMPREC">      0.00001000</i>
  </separator>
  <separator name="dos" >
   <i type="int" name="LORBIT">     0</i>
   <v name="RWIGS">     -1.00000000</v>
   <i type="int" name="NEDOS">   301</i>
   <i name="EMIN">     10.00000000</i>
   <i name="EMAX">    -10.00000000</i>
   <i name="EFERMI">      0.00000000</i>
  </separator>
  <separator name="writing" >
   <i type="int" name="NWRITE">     2</i>
   <i type="logical" name="LWAVE"> T  </i>
   <i type="logical" name="LDOWNSAMPLE"> F  </i>
   <i type="logical" name="LCHARG"> T  </i>
   <i type="logical" name="LPARD"> F  </i>
   <i type="logical" name="LVTOT"> F  </i>
   <i type="logical" name="LVHAR"> F  </i>
   <i type="logical" name="LELF"> F  </i>
   <i type="logical" name="LOPTICS"> F  </i>
   <v name="STM">      0.00000000      0.00000000      0.00000000      0.00000000      0.00000000      0.00000000      0.00000000</v>
  </separator>
  <separator name="performance" >
   <i type="int" name="NPAR">     1</i>
   <i type="int" name="NSIM">     4</i>
   <i type="int" name="NBLK">    -1</i>
   <i type="logical" name="LPLANE"> T  </i>
   <i type="logical" name="LSCALAPACK"> F  </i>
   <i type="logical" name="LSCAAWARE"> F  </i>
   <i type="logical" name="LSCALU"> F  </i>
   <i type="logical" name="LASYNC"> F  </i>
   <i type="logical" name="LORBITALREAL"> F  </i>
  </separator>
  <separator name="miscellaneous" >
   <i type="int" name="IDIOT">     3</i>
   <i type="int" name="PHON_NSTRUCT">    -1</i>
   <i type="logical" name="LMUSIC"> F  </i>
   <v name="POMASS">     63.54600000</v>
   <v name="DARWINR">      0.00000000</v>
   <v name="DARWINV">      1.00000000</v>
   <i type="logical" name="LCORR"> T  </i>
  </separator>
  <i type="logical" name="GGA_COMPAT"> T  </i>
  <i type="logical" name="LBERRY"> F  </i>
  <i type="int" name="ICORELEVEL">     0</i>
  <i type="logical" name="LDAU"> F  </i>
  <i type="int" name="I_CONSTRAINED_M">     0</i>
  <separator name="electronic exchange-correlation" >
   <i type="string" name="GGA">PE</i>
   <i type="int" name="VOSKOWN">     0</i>
   <i type="logical" name="LHFCALC"> F  </i>
   <i type="string" name="PRECFOCK"></i>
   <i type="logical" name="LSYMGRAD"> F  </i>
   <i type="logical" name="LHFONE"> F  </i>
   <i type="logical" name="LRHFCALC"> F  </i>
   <i type="logical" name="LTHOMAS"> F  </i>
   <i type="logical" name="LMODELHF"> F  </i>
   <i type="logical" name="LFOCKACE"> F  </i>
   <i name="ENCUT4O">     -1.00000000</i>
   <i type="int" name="EXXOEP">     0</i>
   <i type="int" name="FOURORBIT">     0</i>
   <i name="AEXX">      0.00000000</i>
   <i name="HFALPHA">      0.00000000</i>
   <i name="MCALPHA">      0.00000000</i>
   <i name="ALDAX">      1.00000000</i>
   <i name="AGGAX">      1.00000000</i>
   <i name="ALDAC">      1.00000000</i>
   <i name="AGGAC">      1.00000000</i>
   <i type="int" name="NKREDX">     1</i>
   <i type="int" name="NKREDY">     1</i>
   <i type="int" name="NKREDZ">     1</i>
   <i type="logical" name="SHIFTRED"> F  </i>
   <i type="logical" name="ODDONLY"> F  </i>
   <i type="logical" name="EVENONLY"> F  </i>
   <i type="int" name="LMAXFOCK">     0</i>
   <i type="int" name="NMAXFOCKAE">     0</i>
   <i type="logical" name="LFOCKAEDFT"> F  </i>
   <i name="HFSCREEN">      0.00000000</i>
   <i name="HFSCREENC">      0.00000000</i>
   <i type="int" name="NBANDSGWLOW">     0</i>
  </separator>
  <separator name="vdW DFT" >
   <i type="logical" name="LUSE_VDW"> F  </i>
   <i name="Zab_VDW">     -0.84910000</i>
   <i name="PARAM1">      0.12340000</i>
   <i name="PARAM2">      1.00000000</i>
   <i name="PARAM3">      0.00000000</i>
  </separator>
  <separator name="model GW" >
   <i type="int" name="MODEL_GW">     0</i>
   <i name="MODEL_EPS0">      7.20451093</i>
   <i name="MODEL_ALPHA">      1.00000000</i>
  </separator>
  <separator name="linear response parameters" >
   <i type="logical" name="LEPSILON"> F  </i>
   <i type="logical" name="LRPA"> F  </i>
   <i type="logical" name="LNABLA"> F  </i>
   <i type="logical" name="LVEL"> F  </i>
   <i type="int" name="KINTER">     0</i>
   <i name="CSHIFT">      0.10000000</i>
   <i name="OMEGAMAX">     -1.00000000</i>
   <i name="DEG_THRESHOLD">      0.00200000</i>
   <i name="RTIME">     -0.10000000</i>
   <i name="WPLASMAI">      0.00000000</i>
   <v name="DFIELD">      0.00000000      0.00000000      0.00000000</v>
   <v name="WPLASMA">      0.00000000      0.00000000      0.00000000      0.00000000      0.00000000      0.00000000      0.00000000      0.00000000      0.00000000</v>
  </separator>
  <separator name="orbital magnetization" >
   <i type="logical" name="NUCIND"> F  </i>
   <v name="MAGPOS">      0.00000000      0.00000000      0.00000000</v>
   <i type="logical" name="LNICSALL"> T  </i>
   <i type="logical" name="ORBITALMAG"> F  </i>
   <i type="logical" name="LMAGBLOCH"> F  </i>
   <i type="logical" name="LCHIMAG"> F  </i>
   <i type="logical" name="LGAUGE"> T  </i>
   <i type="int" name="MAGATOM">     0</i>
   <v name="MAGDIPOL">      0.00000000      0.00000000      0.00000000</v>
   <v name="AVECCONST">      0.00000000      0.00000000      0.00000000</v>
  </separator>
  <separator name="response functions" >
   <i type="logical" name="LFINITE_TEMPERATURE"> F  </i>
   <i type="logical" name="LADDER"> F  </i>
   <i type="logical" name="LRPAFORCE"> F  </i>
   <i type="logical" name="LFXC"> F  </i>
   <i type="logical" name="LHARTREE"> T  </i>
   <i type="int" name="IBSE">     0</i>
   <v type="int" name="KPOINT">    -1     0     0     0</v>
   <i type="logical" name="LTCTC"> F  </i>
   <i type="logical" name="LTCTE"> F  </i>
   <i type="logical" name="LTETE"> F  </i>
   <i type="logical" name="LTRIPLET"> F  </i>
   <i type="logical" name="LFXCEPS"> F  </i>
   <i type="logical" name="LFXHEG"> F  </i>
   <i type="int" name="NATURALO">     2</i>
   <i type="logical" name="LHOLEGF"> F  </i>
   <i type="logical" name="L2ORDER"> F  </i>
   <i type="logical" name="LDMP1"> F  </i>
   <i type="logical" name="LMP2LT"> F  </i>
   <i type="logical" name="LSMP2LT"> F  </i>
   <i type="logical" name="LGWLF"> F  </i>
   <i name="ENCUTGW">     -2.00000000</i>
   <i name="ENCUTGWSOFT">     -2.00000000</i>
   <i name="ENCUTLF">     -1.00000000</i>
   <i type="logical" name="LESF_SPLINES"> F  </i>
   <i type="int" name="LMAXMP2">    -1</i>
   <i name="SCISSOR">      0.00000000</i>
   <i type="int" name="NOMEGA">     0</i>
   <i type="int" name="NOMEGAR">     0</i>
   <i type="int" name="NBANDSGW">    -1</i>
   <i type="int" name="NBANDSO">    -1</i>
   <i type="int" name="NBANDSV">    -1</i>
   <i type="int" name="NELM">     1</i>
   <i type="int" name="NELMHF">     1</i>
   <i type="int" name="DIM">     3</i>
   <i type="int" name="IESPILON">     4</i>
   <i type="int" name="ANTIRES">     0</i>
   <i name="OMEGAMAX">    -30.00000000</i>
   <i name="OMEGAMIN">    -30.00000000</i>
   <i name="OMEGATL">   -200.00000000</i>
   <i type="int" name="OMEGAGRID">     0</i>
   <i name="CSHIFT">     -0.10000000</i>
   <i type="logical" name="LSELFENERGY"> F  </i>
   <i type="logical" name="LSPECTRAL"> F  </i>
   <i type="logical" name="LSPECTRALGW"> F  </i>
   <i type="logical" name="LSINGLES"> F  </i>
   <i type="logical" name="LFERMIGW"> F  </i>
   <i type="logical" name="ODDONLYGW"> F  </i>
   <i type="logical" name="EVENONLYGW"> F  </i>
   <i type="int" name="NKREDLFX">     1</i>
   <i type="int" name="NKREDLFY">     1</i>
   <i type="int" name="NKREDLFZ">     1</i>
   <i type="int" name="MAXMEM">  2800</i>
   <i type="int" name="TELESCOPE">     0</i>
   <i type="int" name="NTAUPAR">    -1</i>
   <i type="int" name="NOMEGAPAR">    -1</i>
   <i name="DAMP_NEWTON">      0.80000001</i>
   <i name="LAMBDA">      1.00000000</i>
  </separator>
  <separator name="External order field" >
   <i name="OFIELD_KAPPA">      0.00000000</i>
   <v name="OFIELD_K">      0.00000000      0.00000000      0.00000000</v>
   <i name="OFIELD_Q6_NEAR">      0.00000000</i>
   <i name="OFIELD_Q6_FAR">      0.00000000</i>
   <i name="OFIELD_A">      0.00000000</i>
  </separator>
 </parameters>
 <atominfo>
  <atoms>       4 </atoms>
  <types>       1 </types>
  <array name="atoms" >
   <dimension dim="1">ion</dimension>
   <field type="string">element</field>
   <field type="int">atomtype</field>
   <set>
    <rc><c>Cu</c><c>   1</c></rc>
    <rc><c>Cu</c><c>   1</c></rc>
    <rc><c>Cu</c><c>   1</c></rc>
    <rc><c>Cu</c><c>   1</c></rc>
   </set>
  </array>
  <array name="atomtypes" >
   <dimension dim="1">type</dimension>
   <field type="int">atomspertype</field>
   <field type="string">element</field>
   <field>mass</field>
   <field>valence</field>
   <field type="string">pseudopotential</field>
   <set>
    <rc><c>   4</c><c>Cu</c><c>     63.54600000</c><c>     11.00000000</c><c>  PAW_PBE Cu 22Jun2005                  </c></rc>
   </set>
  </array>
 </atominfo>
 <structure name="initialpos" >
  <crystal>
   <varray name="basis" >
    <v>       3.63500000       0.00000000       0.00000000 </v>
    <v>       0.00000000       3.63500000       0.00000000 </v>
    <v>       0.00000000       0.00000000       3.63500000 </v>
   </varray>
   <i name="volume">     48.03007287 </i>
   <varray name="rec_basis" >
    <v>       0.27510316       0.00000000       0.00000000 </v>
    <v>       0.00000000       0.27510316       0.00000000 </v>
    <v>       0.00000000       0.00000000       0.27510316 </v>
   </varray>
  </crystal>
  <varray name="positions" >
   <v>       0.00000000       0.00000000       0.00000000 </v>
   <v>       0.50000000       0.50000000       0.00000000 </v>
   <v>       0.50000000       0.00000000       0.50000000 </v>
   <v>       0.00000000       0.50000000       0.50000000 </v>
  </varray>
 </structure>
 <calculation>
  <scstep>
   <time name="dav">    0.10    0.11</time>
   <time name="total">    0.12    0.12</time>
   <energy>
    <i name="alphaZ">    243.62337785 </i>
    <i name="ewald">  -4395.34838493 </i>
    <i name="hartreedc">  -1370.16576087 </i>
    <i name="XCdc">    178.50940066 </i>
    <i name="pawpsdc">   5285.40211485 </i>
    <i name="pawaedc">  -5710.53011627 </i>
    <i name="eentropy">     -0.02465087 </i>
    <i name="bandstr">    192.31081698 </i>
    <i name="atom">   5562.25782034 </i>
    <i name="e_fr_energy">    -13.96538228 </i>
    <i name="e_wo_entrp">    -13.94073140 </i>
    <i name="e_0_energy">    -13.95716532 </i>
   </energy>
  </scstep>
  <scstep>
   <time name="dav">    0.08    0.08</time>
   <time name="total">    0.10    0.10</time>
   <energy>
    <i name="e_fr_energy">    -13.96379039 </i>
    <i name="e_wo_entrp">    -13.93930758 </i>
    <i name="e_0_energy">    -13.95562945 </i>
   </energy>
  </scstep>
  <scstep>
   <time name="dav">    0.06    0.06</time>
   <time name="total">    0.08    0.08</time>
   <energy>
    <i name="e_fr_energy">    -13.96378870 </i>
    <i name="e_wo_entrp">    -13.93927289 </i>
    <i name="e_0_energy">    -13.95561677 </i>
   </energy>
  </scstep>
  <scstep>
   <time name="dav">    0.05    0.05</time>
   <time name="total">    0.06    0.06</time>
   <energy>
    <i name="alphaZ">    243.62337785 </i>
    <i name="ewald">  -4395.34838493 </i>
    <i name="hartreedc">  -1370.16336114 </i>
    <i name="XCdc">    178.50928865 </i>
    <i name="pawpsdc">   5285.40007171 </i>
    <i name="pawaedc">  -5710.53019000 </i>
    <i name="eentropy">     -0.02452235 </i>
    <i name="bandstr">    192.31211130 </i>
    <i name="atom">   5562.25782034 </i>
    <i name="e_fr_energy">    -13.96378859 </i>
    <i name="e_wo_entrp">    -13.93926623 </i>
    <i name="e_0_energy">    -13.95561447 </i>
   </energy>
  </scstep>
  <structure>
   <crystal>
    <varray name="basis" >
     <v>       3.63500000       0.00000000       0.00000000 </v>
     <v>       0.00000000       3.63500000       0.00000000 </v>
     <v>       0.00000000       0.00000000       3.63500000 </v>
    </varray>
    <i name="volume">     48.03007287 </i>
    <varray name="rec_basis" >
     <v>       0.27510316       0.00000000       0.00000000 </v>
     <v>       0.00000000       0.27510316       0.00000000 </v>
     <v>       0.00000000       0.00000000       0.27510316 </v>
    </varray>
   </crystal>
   <varray name="positions" >
    <v>       0.00000000       0.00000000       0.00000000 </v>
    <v>       0.50000000       0.50000000       0.00000000 </v>
    <v>       0.50000000       0.00000000       0.50000000 </v>
    <v>       0.00000000       0.50000000       0.50000000 </v>
   </varray>
  </structure>
  <varray name="forces" >
   <v>      -0.00000000      -0.00000000       0.00000000 </v>
   <v>      -0.00000000      -0.00000000      -0.00000000 </v>
   <v>      -0.00000000       0.00000000      -0.00000000 </v>
   <v>       0.00000000       0.00000000      -0.00000000 </v>
  </varray>
  <varray name="stress" >
   <v>    -604.13122395       0.00000000      -0.00000000 </v>
   <v>       0.00000000    -604.13122395       0.00000000 </v>
   <v>       0.00000000       0.00000000    -604.13122395 </v>
  </varray>
  <energy>
   <i name="e_fr_energy">    -13.96378859 </i>
   <i name="e_wo_entrp">    -13.93926623 </i>
   <i name="e_0_energy">    -13.95561447 </i>
  </energy>
  <time name="totalsc">    0.48    0.48</time>
  <eigenvalues>
   <array>
    <dimension dim="1">band</dimension>
    <dimension dim="2">kpoint</dimension>
    <dimension dim="3">spin</dimension>
    <field>eigene</field>
    <field>occ</field>
    <set>
     <set comment="spin 1">
      <set comment="kpoint 1">
       <r>   -1.8225    1.0000 </r>
       <r>    2.5550    1.0000 </r>
       <r>    2.5550    1.0000 </r>
       <r>    2.5550    1.0000 </r>
       <r>    3.0313    1.0000 </r>
       <r>    3.0313    1.0000 </r>
       <r>    3.0313    1.0000 </r>
       <r>    4.3421    1.0000 </r>
       <r>    4.3421    1.0000 </r>
       <r>    4.3421    1.0000 </r>
       <r>    5.1185    1.0000 </r>
       <r>    5.1185    1.0000 </r>
       <r>    5.6402    1.0000 </r>
       <r>    5.6402    1.0000 </r>
       <r>    5.6402    1.0000 </r>
       <r>    5.8168    1.0000 </r>
       <r>    5.8168    1.0000 </r>
       <r>    5.8168    1.0000 </r>
       <r>    5.8168    1.0000 </r>
       <r>    5.8168    1.0000 </r>
       <r>    5.8168    1.0000 </r>
       <r>    8.9192   -0.0000 </r>
       <r>    8.9192   -0.0000 </r>
       <r>    8.9192   -0.0000 </r>
       <r>   14.3409    0.0000 </r>
       <r>   14.3409    0.0000 </r>
       <r>   14.3409    0.0000 </r>
       <r>   20.3591    0.0000 </r>
       <r>   20.3591    0.0000 </r>
       <r>   20.3591    0.0000 </r>
      </set>
      <set comment="kpoint 2">
       <r>   -1.3458    1.0000 </r>
       <r>    2.5415    1.0000 </r>
       <r>    2.7772    1.0000 </r>
       <r>    2.7772    1.0000 </r>
       <r>    3.1709    1.0000 </r>
       <r>    3.1709    1.0000 </r>
       <r>    3.2378    1.0000 </r>
       <r>    4.2136    1.0000 </r>
       <r>    4.4729    1.0000 </r>
       <r>    4.4729    1.0000 </r>
       <r>    5.0422    1.0000 </r>
       <r>    5.1704    1.0000 </r>
       <r>    5.1854    1.0000 </r>
       <r>    5.1854    1.0000 </r>
       <r>    5.5109    1.0000 </r>
       <r>    5.5109    1.0000 </r>
       <r>    5.6243    1.0000 </r>
       <r>    5.6566    1.0000 </r>
       <r>    5.6566    1.0000 </r>
       <r>    5.8060    1.0000 </r>
       <r>    5.8060    1.0000 </r>
       <r>    6.8313    1.0122 </r>
       <r>    9.9767   -0.0000 </r>
       <r>    9.9767   -0.0000 </r>
       <r>   14.5305    0.0000 </r>
       <r>   14.5305    0.0000 </r>
       <r>   17.4068    0.0000 </r>
       <r>   18.0981    0.0000 </r>
       <r>   18.0981    0.0000 </r>
       <r>   18.7641    0.0000 </r>
      </set>
      <set comment="kpoint 3">
       <r>    0.0102    1.0000 </r>
       <r>    1.7960    1.0000 </r>
       <r>    3.1913    1.0000 </r>
       <r>    3.1913    1.0000 </r>
       <r>    3.4829    1.0000 </r>
       <r>    3.5575    1.0000 </r>
       <r>    3.5575    1.0000 </r>
       <r>    3.8826    1.0000 </r>
       <r>    4.2635    1.0000 </r>
       <r>    4.2635    1.0000 </r>
       <r>    4.7891    1.0000 </r>
       <r>    4.8382    1.0000 </r>
       <r>    4.8382    1.0000 </r>
       <r>    4.9627    1.0000 </r>
       <r>    5.1813    1.0000 </r>
       <r>    5.1813    1.0000 </r>
       <r>    5.2493    1.0000 </r>
       <r>    5.2493    1.0000 </r>
       <r>    5.3435    1.0000 </r>
       <r>    5.4933    1.0000 </r>
       <r>    5.8021    1.0000 </r>
       <r>    5.8021    1.0000 </r>
       <r>   12.1902   -0.0000 </r>
       <r>   12.1902   -0.0000 </r>
       <r>   14.9648    0.0000 </r>
       <r>   14.9648    0.0000 </r>
       <r>   15.1777    0.0000 </r>
       <r>   15.1777    0.0000 </r>
       <r>   16.6337    0.0000 </r>
       <r>   16.6337    0.0000 </r>
      </set>
      <set comment="kpoint 4">
       <r>   -0.8809    1.0000 </r>
       <r>    2.7745    1.0000 </r>
       <r>    2.7745    1.0000 </r>
       <r>    2.9673    1.0000 </r>
       <r>    3.2752    1.0000 </r>
       <r>    3.3027    1.0000 </r>
       <r>    3.3027    1.0000 </r>
       <r>    4.1945    1.0000 </r>
       <r>    4.5158    1.0000 </r>
       <r>    4.5227    1.0000 </r>
       <r>    4.8800    1.0000 </r>
       <r>    4.8880    1.0000 </r>
       <r>    4.8880    1.0000 </r>
       <r>    5.0321    1.0000 </r>
       <r>    5.2294    1.0000 </r>
       <r>    5.3982    1.0000 </r>
       <r>    5.5077    1.0000 </r>
       <r>    5.5077    1.0000 </r>
       <r>    5.6365    1.0000 </r>
       <r>    5.6365    1.0000 </r>
       <r>    5.7083    1.0000 </r>
       <r>    7.8250   -0.0001 </r>
       <r>    7.8250   -0.0001 </r>
       <r>   10.8344   -0.0000 </r>
       <r>   14.4961    0.0000 </r>
       <r>   14.9851    0.0000 </r>
       <r>   17.7401    0.0000 </r>
       <r>   17.7401    0.0000 </r>
       <r>   18.6833    0.0000 </r>
       <r>   18.6833    0.0000 </r>
      </set>
      <set comment="kpoint 5">
       <r>    0.4306    1.0000 </r>
       <r>    2.1129    1.0000 </r>
       <r>    3.2820    1.0000 </r>
       <r>    3.3879    1.0000 </r>
       <r>    3.5352    1.0000 </r>
       <r>    3.6132    1.0000 </r>
       <r>    3.6174    1.0000 </r>
       <r>    3.9486    1.0000 </r>
       <r>    4.0308    1.0000 </r>
       <r>    4.2108    1.0000 </r>
       <r>    4.4862    1.0000 </r>
       <r>    4.5411    1.0000 </r>
       <r>    4.8498    1.0000 </r>
       <r>    4.9698    1.0000 </r>
       <r>    5.1478    1.0000 </r>
       <r>    5.1841    1.0000 </r>
       <r>    5.2411    1.0000 </r>
       <r>    5.2987    1.0000 </r>
       <r>    5.4700    1.0000 </r>
       <r>    5.6225    1.0000 </r>
       <r>    5.6394    1.0000 </r>
       <r>    6.0010    1.0000 </r>
       <r>    9.5228   -0.0000 </r>
       <r>   11.7360   -0.0000 </r>
       <r>   12.8661    0.0000 </r>
       <r>   15.5420    0.0000 </r>
       <r>   15.5579    0.0000 </r>
       <r>   17.0230    0.0000 </r>
       <r>   18.8369    0.0000 </r>
       <r>   20.2863    0.0000 </r>
      </set>
      <set comment="kpoint 6">
       <r>    1.5668    1.0000 </r>
       <r>    2.8618    1.0000 </r>
       <r>    2.8618    1.0000 </r>
       <r>    3.3612    1.0000 </r>
       <r>    3.7541    1.0000 </r>
       <r>    3.7921    1.0000 </r>
       <r>    3.7921    1.0000 </r>
       <r>    3.9502    1.0000 </r>
       <r>    4.0315    1.0000 </r>
       <r>    4.0498    1.0000 </r>
       <r>    4.0498    1.0000 </r>
       <r>    4.3855    1.0000 </r>
       <r>    4.8580    1.0000 </r>
       <r>    4.9198    1.0000 </r>
       <r>    4.9783    1.0000 </r>
       <r>    5.0331    1.0000 </r>
       <r>    5.0331    1.0000 </r>
       <r>    5.2638    1.0000 </r>
       <r>    5.2638    1.0000 </r>
       <r>    5.3877    1.0000 </r>
       <r>    5.9925    1.0000 </r>
       <r>    7.0880    0.9101 </r>
       <r>    7.0880    0.9101 </r>
       <r>    8.8674   -0.0000 </r>
       <r>   14.6440    0.0000 </r>
       <r>   16.5104    0.0000 </r>
       <r>   17.1816    0.0000 </r>
       <r>   17.1816    0.0000 </r>
       <r>   18.2860    0.0000 </r>
       <r>   18.2860    0.0000 </r>
      </set>
      <set comment="kpoint 7">
       <r>   -0.4343    1.0000 </r>
       <r>    2.9605    1.0000 </r>
       <r>    2.9605    1.0000 </r>
       <r>    2.9605    1.0000 </r>
       <r>    3.3790    1.0000 </r>
       <r>    3.3790    1.0000 </r>
       <r>    3.3790    1.0000 </r>
       <r>    4.1667    1.0000 </r>
       <r>    4.5197    1.0000 </r>
       <r>    4.5197    1.0000 </r>
       <r>    4.6467    1.0000 </r>
       <r>    4.6467    1.0000 </r>
       <r>    4.6467    1.0000 </r>
       <r>    5.1720    1.0000 </r>
       <r>    5.1720    1.0000 </r>
       <r>    5.2033    1.0000 </r>
       <r>    5.2033    1.0000 </r>
       <r>    5.2033    1.0000 </r>
       <r>    5.7437    1.0000 </r>
       <r>    5.7437    1.0000 </r>
       <r>    5.7437    1.0000 </r>
       <r>    8.4535   -0.0000 </r>
       <r>    8.4535   -0.0000 </r>
       <r>    8.4535   -0.0000 </r>
       <r>   15.2970    0.0000 </r>
       <r>   15.2970    0.0000 </r>
       <r>   15.2970    0.0000 </r>
       <r>   18.1107    0.0000 </r>
       <r>   18.1107    0.0000 </r>
       <r>   18.1107    0.0000 </r>
      </set>
      <set comment="kpoint 8">
       <r>    0.8069    1.0000 </r>
       <r>    2.3394    1.0000 </r>
       <r>    3.2774    1.0000 </r>
       <r>    3.2774    1.0000 </r>
       <r>    3.6072    1.0000 </r>
       <r>    3.6072    1.0000 </r>
       <r>    3.7053    1.0000 </r>
       <r>    3.9879    1.0000 </r>
       <r>    4.2157    1.0000 </r>
       <r>    4.2157    1.0000 </r>
       <r>    4.4216    1.0000 </r>
       <r>    4.4820    1.0000 </r>
       <r>    4.5916    1.0000 </r>
       <r>    4.8973    1.0000 </r>
       <r>    4.9897    1.0000 </r>
       <r>    4.9897    1.0000 </r>
       <r>    5.2606    1.0000 </r>
       <r>    5.4266    1.0000 </r>
       <r>    5.6544    1.0000 </r>
       <r>    5.6544    1.0000 </r>
       <r>    5.6708    1.0000 </r>
       <r>    6.2058    1.0000 </r>
       <r>    9.8212   -0.0000 </r>
       <r>    9.8212   -0.0000 </r>
       <r>   12.4860   -0.0000 </r>
       <r>   12.4860   -0.0000 </r>
       <r>   16.8286    0.0000 </r>
       <r>   19.1358    0.0000 </r>
       <r>   19.2151    0.0000 </r>
       <r>   19.2151    0.0000 </r>
      </set>
      <set comment="kpoint 9">
       <r>    1.7622    1.0000 </r>
       <r>    2.7212    1.0000 </r>
       <r>    2.7212    1.0000 </r>
       <r>    3.0216    1.0000 </r>
       <r>    3.9382    1.0000 </r>
       <r>    4.0483    1.0000 </r>
       <r>    4.0483    1.0000 </r>
       <r>    4.1971    1.0000 </r>
       <r>    4.2683    1.0000 </r>
       <r>    4.2683    1.0000 </r>
       <r>    4.3941    1.0000 </r>
       <r>    4.3997    1.0000 </r>
       <r>    4.5550    1.0000 </r>
       <r>    4.7237    1.0000 </r>
       <r>    4.7500    1.0000 </r>
       <r>    4.7500    1.0000 </r>
       <r>    5.3034    1.0000 </r>
       <r>    5.5599    1.0000 </r>
       <r>    5.5599    1.0000 </r>
       <r>    5.5731    1.0000 </r>
       <r>    5.8751    1.0000 </r>
       <r>    7.1345    0.7742 </r>
       <r>    7.1345    0.7742 </r>
       <r>    8.8051   -0.0000 </r>
       <r>   11.9126   -0.0000 </r>
       <r>   13.8919    0.0000 </r>
       <r>   13.8919    0.0000 </r>
       <r>   16.1211    0.0000 </r>
       <r>   20.4252    0.0000 </r>
       <r>   22.4105    0.0000 </r>
      </set>
      <set comment="kpoint 10">
       <r>    2.1407    1.0000 </r>
       <r>    2.5455    1.0000 </r>
       <r>    2.5455    1.0000 </r>
       <r>    2.5455    1.0000 </r>
       <r>    4.2469    1.0000 </r>
       <r>    4.2469    1.0000 </r>
       <r>    4.2469    1.0000 </r>
       <r>    4.4170    1.0000 </r>
       <r>    4.4170    1.0000 </r>
       <r>    4.4894    1.0000 </r>
       <r>    4.4894    1.0000 </r>
       <r>    4.4894    1.0000 </r>
       <r>    4.9322    1.0000 </r>
       <r>    4.9322    1.0000 </r>
       <r>    4.9322    1.0000 </r>
       <r>    5.1745    1.0000 </r>
       <r>    5.6162    1.0000 </r>
       <r>    5.6162    1.0000 </r>
       <r>    5.7019    1.0000 </r>
       <r>    5.7019    1.0000 </r>
       <r>    5.7019    1.0000 </r>
       <r>    7.2669    0.2469 </r>
       <r>    7.2669    0.2469 </r>
       <r>    7.2669    0.2469 </r>
       <r>   11.4511   -0.0000 </r>
       <r>   11.4511   -0.0000 </r>
       <r>   11.4511   -0.0000 </r>
       <r>   13.2251    0.0000 </r>
       <r>   25.6925    0.0000 </r>
       <r>   25.6925    0.0000 </r>
      </set>
     </set>
    </set>
   </array>
  </eigenvalues>
  <separator name="orbital magnetization" >
   <v name="MAGDIPOLOUT">      0.00000000      0.00000000      0.00000000</v>
  </separator>
  <dos>
   <i name="efermi">      7.20370225 </i>
   <total>
    <array>
     <dimension dim="1">gridpoints</dimension>
     <dimension dim="2">spin</dimension>
     <field>energy</field>
     <field>total</field>
     <field>integrated</field>
     <set>
      <set comment="spin 1">
       <r>    -3.8225     0.0000     0.0000 </r>
       <r>    -3.7175     0.0000     0.0000 </r>
       <r>    -3.6124     0.0000     0.0000 </r>
       <r>    -3.5074    -0.0000    -0.0000 </r>
       <r>    -3.4023    -0.0000    -0.0000 </r>
       <r>    -3.2973    -0.0000    -0.0000 </r>
       <r>    -3.1922    -0.0000    -0.0000 </r>
       <r>    -3.0872    -0.0000    -0.0000 </r>
       <r>    -2.9821    -0.0000    -0.0000 </r>
       <r>    -2.8771    -0.0000    -0.0000 </r>
       <r>    -2.7720    -0.0000    -0.0000 </r>
       <r>    -2.6670    -0.0000    -0.0000 </r>
       <r>    -2.5619    -0.0000    -0.0000 </r>
       <r>    -2.4569    -0.0000    -0.0000 </r>
       <r>    -2.3518    -0.0001    -0.0000 </r>
       <r>    -2.2468    -0.0007    -0.0001 </r>
       <r>    -2.1417    -0.0027    -0.0004 </r>
       <r>    -2.0367    -0.0012    -0.0005 </r>
       <r>    -1.9316     0.0207     0.0017 </r>
       <r>    -1.8266     0.0559     0.0076 </r>
       <r>    -1.7215     0.0504     0.0129 </r>
       <r>    -1.6165     0.0038     0.0132 </r>
       <r>    -1.5114     0.0327     0.0167 </r>
       <r>    -1.4064     0.2272     0.0406 </r>
       <r>    -1.3013     0.3801     0.0805 </r>
       <r>    -1.1963     0.2333     0.1050 </r>
       <r>    -1.0912     0.0444     0.1097 </r>
       <r>    -0.9862     0.2464     0.1356 </r>
       <r>    -0.8811     0.6855     0.2076 </r>
       <r>    -0.7761     0.6821     0.2792 </r>
       <r>    -0.6710     0.2469     0.3052 </r>
       <r>    -0.5660     0.1006     0.3157 </r>
       <r>    -0.4609     0.3699     0.3546 </r>
       <r>    -0.3559     0.4885     0.4059 </r>
       <r>    -0.2508     0.2343     0.4305 </r>
       <r>    -0.1458     0.0642     0.4373 </r>
       <r>    -0.0407     0.2199     0.4604 </r>
       <r>     0.0643     0.3411     0.4962 </r>
       <r>     0.1694     0.1665     0.5137 </r>
       <r>     0.2744     0.2205     0.5368 </r>
       <r>     0.3795     0.9741     0.6392 </r>
       <r>     0.4845     1.4905     0.7957 </r>
       <r>     0.5896     0.9490     0.8954 </r>
       <r>     0.6946     0.6417     0.9628 </r>
       <r>     0.7997     1.2792     1.0972 </r>
       <r>     0.9047     1.4031     1.2446 </r>
       <r>     1.0098     0.5863     1.3062 </r>
       <r>     1.1148    -0.0086     1.3053 </r>
       <r>     1.2199    -0.0980     1.2950 </r>
       <r>     1.3249    -0.0699     1.2877 </r>
       <r>     1.4300     0.0767     1.2957 </r>
       <r>     1.5350     0.5169     1.3500 </r>
       <r>     1.6401     1.2062     1.4768 </r>
       <r>     1.7451     1.8987     1.6762 </r>
       <r>     1.8502     1.8097     1.8663 </r>
       <r>     1.9552     1.0429     1.9759 </r>
       <r>     2.0603     1.2103     2.1030 </r>
       <r>     2.1653     2.0194     2.3152 </r>
       <r>     2.2704     2.0878     2.5345 </r>
       <r>     2.3754     1.8392     2.7277 </r>
       <r>     2.4805     1.9672     2.9343 </r>
       <r>     2.5855     2.8611     3.2349 </r>
       <r>     2.6906     4.7867     3.7377 </r>
       <r>     2.7956     6.5597     4.4268 </r>
       <r>     2.9007     6.5066     5.1104 </r>
       <r>     3.0057     5.1785     5.6544 </r>
       <r>     3.1108     4.4434     6.1211 </r>
       <r>     3.2158     6.7455     6.8298 </r>
       <r>     3.3209    10.3019     7.9120 </r>
       <r>     3.4259    10.2202     8.9856 </r>
       <r>     3.5310     8.9873     9.9297 </r>
       <r>     3.6360     9.5400    10.9319 </r>
       <r>     3.7411     8.3243    11.8064 </r>
       <r>     3.8461     6.4588    12.4849 </r>
       <r>     3.9512     8.5545    13.3835 </r>
       <r>     4.0562    12.4383    14.6902 </r>
       <r>     4.1613    14.5620    16.2199 </r>
       <r>     4.2663    15.5259    17.8509 </r>
       <r>     4.3714    16.0022    19.5319 </r>
       <r>     4.4764    16.9727    21.3149 </r>
       <r>     4.5815    15.8250    22.9773 </r>
       <r>     4.6865    11.7466    24.2113 </r>
       <r>     4.7916    10.7506    25.3407 </r>
       <r>     4.8966    13.9936    26.8107 </r>
       <r>     5.0017    15.7799    28.4684 </r>
       <r>     5.1067    15.1306    30.0579 </r>
       <r>     5.2118    16.1058    31.7498 </r>
       <r>     5.3168    15.8939    33.4194 </r>
       <r>     5.4219    13.0412    34.7894 </r>
       <r>     5.5269    14.5276    36.3155 </r>
       <r>     5.6320    19.6675    38.3816 </r>
       <r>     5.7370    18.8123    40.3579 </r>
       <r>     5.8421    11.2530    41.5400 </r>
       <r>     5.9471     5.1484    42.0808 </r>
       <r>     6.0522     2.9267    42.3883 </r>
       <r>     6.1572     2.1671    42.6159 </r>
       <r>     6.2623     1.6120    42.7853 </r>
       <r>     6.3673     0.7942    42.8687 </r>
       <r>     6.4724     0.0771    42.8768 </r>
       <r>     6.5774    -0.1135    42.8649 </r>
       <r>     6.6825    -0.0280    42.8619 </r>
       <r>     6.7875     0.0806    42.8704 </r>
       <r>     6.8926     0.2365    42.8952 </r>
       <r>     6.9976     1.4012    43.0424 </r>
       <r>     7.1027     4.0011    43.4627 </r>
       <r>     7.2077     5.3016    44.0197 </r>
       <r>     7.3128     3.5898    44.3968 </r>
       <r>     7.4178     1.1404    44.5166 </r>
       <r>     7.5229    -0.0811    44.5081 </r>
       <r>     7.6279    -0.1376    44.4936 </r>
       <r>     7.7330     0.5896    44.5556 </r>
       <r>     7.8380     1.4619    44.7091 </r>
       <r>     7.9431     1.3147    44.8472 </r>
       <r>     8.0481     0.4069    44.8900 </r>
       <r>     8.1532    -0.1185    44.8775 </r>
       <r>     8.2582    -0.0437    44.8729 </r>
       <r>     8.3633     0.6306    44.9392 </r>
       <r>     8.4683     1.4071    45.0870 </r>
       <r>     8.5734     1.2042    45.2135 </r>
       <r>     8.6784     0.7943    45.2969 </r>
       <r>     8.7835     1.6045    45.4655 </r>
       <r>     8.8885     2.3468    45.7120 </r>
       <r>     8.9936     1.5241    45.8721 </r>
       <r>     9.0986     0.3063    45.9043 </r>
       <r>     9.2037    -0.1613    45.8874 </r>
       <r>     9.3087    -0.0981    45.8770 </r>
       <r>     9.4138     0.4421    45.9235 </r>
       <r>     9.5188     1.2260    46.0523 </r>
       <r>     9.6239     1.4260    46.2021 </r>
       <r>     9.7289     1.8137    46.3926 </r>
       <r>     9.8340     3.0585    46.7139 </r>
       <r>     9.9390     3.1340    47.0431 </r>
       <r>    10.0441     1.6198    47.2133 </r>
       <r>    10.1491     0.3413    47.2492 </r>
       <r>    10.2542    -0.0716    47.2416 </r>
       <r>    10.3592    -0.0727    47.2340 </r>
       <r>    10.4643    -0.0390    47.2299 </r>
       <r>    10.5693    -0.0421    47.2255 </r>
       <r>    10.6744     0.0803    47.2339 </r>
       <r>    10.7794     0.4878    47.2852 </r>
       <r>    10.8845     0.7812    47.3672 </r>
       <r>    10.9895     0.5009    47.4198 </r>
       <r>    11.0946     0.0476    47.4248 </r>
       <r>    11.1996    -0.1143    47.4128 </r>
       <r>    11.3047     0.2006    47.4339 </r>
       <r>    11.4097     1.0260    47.5417 </r>
       <r>    11.5148     1.4889    47.6981 </r>
       <r>    11.6198     1.2655    47.8310 </r>
       <r>    11.7249     1.4894    47.9875 </r>
       <r>    11.8299     2.0867    48.2067 </r>
       <r>    11.9350     2.0617    48.4233 </r>
       <r>    12.0400     1.3358    48.5636 </r>
       <r>    12.1451     0.7114    48.6383 </r>
       <r>    12.2501     0.5780    48.6990 </r>
       <r>    12.3552     1.0783    48.8123 </r>
       <r>    12.4602     2.4795    49.0728 </r>
       <r>    12.5653     2.9269    49.3803 </r>
       <r>    12.6704     1.5116    49.5391 </r>
       <r>    12.7754     0.7584    49.6187 </r>
       <r>    12.8805     1.3045    49.7558 </r>
       <r>    12.9855     1.2318    49.8852 </r>
       <r>    13.0906     0.5159    49.9394 </r>
       <r>    13.1956     0.3508    49.9762 </r>
       <r>    13.3007     0.4496    50.0235 </r>
       <r>    13.4057     0.2384    50.0485 </r>
       <r>    13.5108    -0.0455    50.0437 </r>
       <r>    13.6158    -0.1852    50.0243 </r>
       <r>    13.7209     0.2065    50.0460 </r>
       <r>    13.8259     1.7506    50.2299 </r>
       <r>    13.9310     3.1030    50.5558 </r>
       <r>    14.0360     2.2144    50.7885 </r>
       <r>    14.1411     0.4621    50.8370 </r>
       <r>    14.2461    -0.1564    50.8206 </r>
       <r>    14.3512     0.2094    50.8426 </r>
       <r>    14.4562     1.1222    50.9605 </r>
       <r>    14.5613     1.9419    51.1645 </r>
       <r>    14.6663     1.7117    51.3443 </r>
       <r>    14.7714     0.8097    51.4293 </r>
       <r>    14.8764     0.6402    51.4966 </r>
       <r>    14.9815     1.3008    51.6332 </r>
       <r>    15.0865     1.6098    51.8023 </r>
       <r>    15.1916     1.6549    51.9762 </r>
       <r>    15.2966     1.8776    52.1734 </r>
       <r>    15.4017     2.0073    52.3843 </r>
       <r>    15.5067     2.6528    52.6630 </r>
       <r>    15.6118     3.0560    52.9840 </r>
       <r>    15.7168     1.7288    53.1656 </r>
       <r>    15.8219     0.1648    53.1829 </r>
       <r>    15.9269    -0.1383    53.1684 </r>
       <r>    16.0320     0.5950    53.2309 </r>
       <r>    16.1370     1.4516    53.3834 </r>
       <r>    16.2421     1.2421    53.5139 </r>
       <r>    16.3471     0.4354    53.5596 </r>
       <r>    16.4522     0.4207    53.6038 </r>
       <r>    16.5572     1.0251    53.7115 </r>
       <r>    16.6623     1.3586    53.8542 </r>
       <r>    16.7673     1.5245    54.0144 </r>
       <r>    16.8724     1.8212    54.2057 </r>
       <r>    16.9774     2.0693    54.4231 </r>
       <r>    17.0825     2.3207    54.6669 </r>
       <r>    17.1875     2.2799    54.9064 </r>
       <r>    17.2926     1.5632    55.0706 </r>
       <r>    17.3976     0.6807    55.1421 </r>
       <r>    17.5027     0.2304    55.1663 </r>
       <r>    17.6077     0.4021    55.2085 </r>
       <r>    17.7128     1.1518    55.3295 </r>
       <r>    17.8178     1.3823    55.4747 </r>
       <r>    17.9229     0.8107    55.5599 </r>
       <r>    18.0279     1.1273    55.6783 </r>
       <r>    18.1330     2.4008    55.9305 </r>
       <r>    18.2380     2.8228    56.2271 </r>
       <r>    18.3431     1.9960    56.4367 </r>
       <r>    18.4481     0.7569    56.5163 </r>
       <r>    18.5532     0.3268    56.5506 </r>
       <r>    18.6582     1.3318    56.6905 </r>
       <r>    18.7633     2.5778    56.9613 </r>
       <r>    18.8683     2.4524    57.2189 </r>
       <r>    18.9734     1.3800    57.3639 </r>
       <r>    19.0784     1.7671    57.5495 </r>
       <r>    19.1835     3.8059    57.9493 </r>
       <r>    19.2885     4.0564    58.3755 </r>
       <r>    19.3936     1.8066    58.5653 </r>
       <r>    19.4986     0.0759    58.5732 </r>
       <r>    19.6037    -0.1999    58.5522 </r>
       <r>    19.7087    -0.0685    58.5450 </r>
       <r>    19.8138    -0.0171    58.5432 </r>
       <r>    19.9188    -0.0458    58.5384 </r>
       <r>    20.0239    -0.1102    58.5268 </r>
       <r>    20.1289     0.0924    58.5365 </r>
       <r>    20.2340     1.0774    58.6497 </r>
       <r>    20.3390     2.4175    58.9037 </r>
       <r>    20.4441     2.6795    59.1852 </r>
       <r>    20.5491     1.5375    59.3467 </r>
       <r>    20.6542     0.3130    59.3796 </r>
       <r>    20.7592    -0.1022    59.3688 </r>
       <r>    20.8643    -0.0680    59.3617 </r>
       <r>    20.9693    -0.0143    59.3602 </r>
       <r>    21.0744    -0.0015    59.3600 </r>
       <r>    21.1794    -0.0001    59.3600 </r>
       <r>    21.2845    -0.0000    59.3600 </r>
       <r>    21.3895    -0.0000    59.3600 </r>
       <r>    21.4946    -0.0000    59.3600 </r>
       <r>    21.5996    -0.0000    59.3600 </r>
       <r>    21.7047    -0.0000    59.3600 </r>
       <r>    21.8097    -0.0003    59.3600 </r>
       <r>    21.9148    -0.0043    59.3595 </r>
       <r>    22.0198    -0.0292    59.3564 </r>
       <r>    22.1249    -0.0783    59.3482 </r>
       <r>    22.2299     0.0686    59.3554 </r>
       <r>    22.3350     0.7898    59.4384 </r>
       <r>    22.4400     1.5320    59.5993 </r>
       <r>    22.5451     1.1942    59.7248 </r>
       <r>    22.6501     0.3121    59.7576 </r>
       <r>    22.7552    -0.0650    59.7507 </r>
       <r>    22.8602    -0.0521    59.7453 </r>
       <r>    22.9653    -0.0109    59.7441 </r>
       <r>    23.0703    -0.0011    59.7440 </r>
       <r>    23.1754    -0.0001    59.7440 </r>
       <r>    23.2804    -0.0000    59.7440 </r>
       <r>    23.3855    -0.0000    59.7440 </r>
       <r>    23.4905    -0.0000    59.7440 </r>
       <r>    23.5956    -0.0000    59.7440 </r>
       <r>    23.7006    -0.0000    59.7440 </r>
       <r>    23.8057     0.0000    59.7440 </r>
       <r>    23.9107     0.0000    59.7440 </r>
       <r>    24.0158    -0.0000    59.7440 </r>
       <r>    24.1208    -0.0000    59.7440 </r>
       <r>    24.2259    -0.0000    59.7440 </r>
       <r>    24.3309    -0.0000    59.7440 </r>
       <r>    24.4360    -0.0000    59.7440 </r>
       <r>    24.5410    -0.0000    59.7440 </r>
       <r>    24.6461    -0.0000    59.7440 </r>
       <r>    24.7511    -0.0000    59.7440 </r>
       <r>    24.8562    -0.0000    59.7440 </r>
       <r>    24.9612    -0.0000    59.7440 </r>
       <r>    25.0663    -0.0001    59.7440 </r>
       <r>    25.1713    -0.0016    59.7438 </r>
       <r>    25.2764    -0.0131    59.7424 </r>
       <r>    25.3814    -0.0463    59.7376 </r>
       <r>    25.4865    -0.0070    59.7368 </r>
       <r>    25.5915     0.3781    59.7766 </r>
       <r>    25.6966     0.9503    59.8764 </r>
       <r>    25.8016     0.9186    59.9729 </r>
       <r>    25.9067     0.3337    60.0079 </r>
       <r>    26.0117    -0.0189    60.0060 </r>
       <r>    26.1168    -0.0437    60.0014 </r>
       <r>    26.2218    -0.0115    60.0002 </r>
       <r>    26.3269    -0.0013    60.0000 </r>
       <r>    26.4319    -0.0001    60.0000 </r>
       <r>    26.5370    -0.0000    60.0000 </r>
       <r>    26.6420    -0.0000    60.0000 </r>
       <r>    26.7471    -0.0000    60.0000 </r>
       <r>    26.8521    -0.0000    60.0000 </r>
       <r>    26.9572    -0.0000    60.0000 </r>
       <r>    27.0622     0.0000    60.0000 </r>
       <r>    27.1673     0.0000    60.0000 </r>
       <r>    27.2723     0.0000    60.0000 </r>
       <r>    27.3774     0.0000    60.0000 </r>
       <r>    27.4824     0.0000    60.0000 </r>
       <r>    27.5875     0.0000    60.0000 </r>
       <r>    27.6925     0.0000    60.0000 </r>
      </set>
     </set>
    </array>
   </total>
  </dos>
 </calculation>
 <structure name="finalpos" >
  <crystal>
   <varray name="basis" >
    <v>       3.63500000       0.00000000       0.00000000 </v>
    <v>       0.00000000       3.63500000       0.00000000 </v>
    <v>       0.00000000       0.00000000       3.63500000 </v>
   </varray>
   <i name="volume">     48.03007287 </i>
   <varray name="rec_basis" >
    <v>       0.27510316       0.00000000       0.00000000 </v>
    <v>       0.00000000       0.27510316       0.00000000 </v>
    <v>       0.00000000       0.00000000       0.27510316 </v>
   </varray>
  </crystal>
  <varray name="positions" >
   <v>       0.00000000       0.00000000       0.00000000 </v>
   <v>       0.50000000       0.50000000       0.00000000 </v>
   <v>       0.50000000       0.00000000       0.50000000 </v>
   <v>       0.00000000       0.50000000       0.50000000 </v>
  </varray>
 </structure>
</modeling>
