   2   2   0   0
  0.1062484E+02  0.2423200E-09  0.2423200E-09  0.4178720E-09  0.5000000E-15
  1.000000000000000E-004
  CAR 
 unknown system                          
     70.80296185     -5.70725646  301      6.41405776      1.00000000
     -5.707  0.0000E+00  0.0000E+00
     -5.452  0.0000E+00  0.0000E+00
     -5.197  0.0000E+00  0.0000E+00
     -4.942  0.0000E+00  0.0000E+00
     -4.687  0.0000E+00  0.0000E+00
     -4.432  0.0000E+00  0.0000E+00
     -4.177  0.0000E+00  0.0000E+00
     -3.922 -0.1116E-32 -0.2846E-33
     -3.667 -0.4418E-24 -0.1127E-24
     -3.412 -0.6272E-17 -0.1600E-17
     -3.157 -0.3538E-11 -0.9022E-12
     -2.902 -0.7169E-07 -0.1829E-07
     -2.647 -0.4997E-04 -0.1276E-04
     -2.392 -0.4384E-03 -0.1246E-03
     -2.137  0.8491E-02  0.2041E-02
     -1.882  0.6022E-01  0.1740E-01
     -1.627  0.1002E+00  0.4295E-01
     -1.372  0.6513E-01  0.5956E-01
     -1.117  0.1646E+00  0.1015E+00
     -0.862  0.1821E+00  0.1480E+00
     -0.607  0.1870E+00  0.1957E+00
     -0.352  0.8361E-01  0.2170E+00
     -0.097  0.2973E+00  0.2928E+00
      0.159  0.2790E+00  0.3640E+00
      0.414  0.3098E+00  0.4430E+00
      0.669  0.2926E+00  0.5176E+00
      0.924  0.2024E+00  0.5692E+00
      1.179  0.5476E+00  0.7089E+00
      1.434  0.6377E+00  0.8715E+00
      1.689  0.7920E+00  0.1073E+01
      1.944  0.1414E+01  0.1434E+01
      2.199  0.2007E+01  0.1946E+01
      2.454  0.2719E+01  0.2639E+01
      2.709  0.2282E+01  0.3221E+01
      2.964  0.3165E+01  0.4028E+01
      3.219  0.2276E+01  0.4609E+01
      3.474  0.3332E+01  0.5459E+01
      3.729  0.3398E+01  0.6325E+01
      3.984  0.3205E+01  0.7142E+01
      4.239  0.2334E+01  0.7738E+01
      4.494  0.3054E+01  0.8517E+01
      4.749  0.4375E+01  0.9632E+01
      5.004  0.4213E+01  0.1071E+02
      5.259  0.4372E+01  0.1182E+02
      5.514  0.4321E+01  0.1292E+02
      5.769  0.3780E+01  0.1389E+02
      6.024  0.3110E+01  0.1468E+02
      6.279  0.3494E+01  0.1557E+02
      6.534  0.2885E+01  0.1631E+02
      6.789  0.3138E+01  0.1711E+02
      7.044  0.5303E+01  0.1846E+02
      7.299  0.5587E+01  0.1988E+02
      7.555  0.4497E+01  0.2103E+02
      7.810  0.8481E+00  0.2125E+02
      8.065  0.1250E+00  0.2128E+02
      8.320  0.9206E+00  0.2151E+02
      8.575  0.9510E+00  0.2176E+02
      8.830  0.5244E+00  0.2189E+02
      9.085  0.5558E+00  0.2203E+02
      9.340  0.5728E+00  0.2218E+02
      9.595  0.3529E+00  0.2227E+02
      9.850  0.2800E+00  0.2234E+02
     10.105  0.8591E+00  0.2256E+02
     10.360  0.6695E+00  0.2273E+02
     10.615  0.3464E+00  0.2282E+02
     10.870  0.3261E+00  0.2290E+02
     11.125  0.4915E+00  0.2303E+02
     11.380  0.5094E+00  0.2316E+02
     11.635  0.3777E+00  0.2325E+02
     11.890  0.2498E+00  0.2332E+02
     12.145  0.3489E+00  0.2341E+02
     12.400  0.4060E+00  0.2351E+02
     12.655  0.3575E+00  0.2360E+02
     12.910  0.5226E+00  0.2373E+02
     13.165  0.4792E+00  0.2386E+02
     13.420  0.1052E+00  0.2388E+02
     13.675  0.1537E+00  0.2392E+02
     13.930  0.2711E+00  0.2399E+02
     14.185  0.2403E+00  0.2405E+02
     14.440  0.1950E+00  0.2410E+02
     14.695  0.1883E+00  0.2415E+02
     14.951  0.1884E+00  0.2420E+02
     15.206  0.3033E+00  0.2428E+02
     15.461  0.6180E+00  0.2443E+02
     15.716  0.9411E+00  0.2467E+02
     15.971  0.8326E+00  0.2489E+02
     16.226  0.7708E+00  0.2508E+02
     16.481  0.6630E+00  0.2525E+02
     16.736  0.3556E+00  0.2534E+02
     16.991  0.8071E+00  0.2555E+02
     17.246  0.7103E+00  0.2573E+02
     17.501  0.8990E+00  0.2596E+02
     17.756  0.7454E+00  0.2615E+02
     18.011  0.5863E+00  0.2630E+02
     18.266  0.6340E+00  0.2646E+02
     18.521  0.9331E+00  0.2670E+02
     18.776  0.7345E+00  0.2688E+02
     19.031  0.6240E+00  0.2704E+02
     19.286  0.6458E+00  0.2721E+02
     19.541  0.6556E+00  0.2738E+02
     19.796  0.7061E+00  0.2756E+02
     20.051  0.4262E+00  0.2766E+02
     20.306  0.4812E+00  0.2779E+02
     20.561  0.6724E+00  0.2796E+02
     20.816  0.5026E+00  0.2809E+02
     21.071  0.6671E+00  0.2826E+02
     21.326  0.7813E+00  0.2846E+02
     21.581  0.5710E+00  0.2860E+02
     21.836  0.6357E+00  0.2876E+02
     22.091  0.9055E+00  0.2900E+02
     22.346  0.9275E+00  0.2923E+02
     22.602  0.8493E+00  0.2945E+02
     22.857  0.8847E+00  0.2967E+02
     23.112  0.1066E+01  0.2995E+02
     23.367  0.6802E+00  0.3012E+02
     23.622  0.9171E+00  0.3035E+02
     23.877  0.8906E+00  0.3058E+02
     24.132  0.5055E+00  0.3071E+02
     24.387  0.8774E+00  0.3093E+02
     24.642  0.1612E+01  0.3134E+02
     24.897  0.1167E+01  0.3164E+02
     25.152  0.6282E+00  0.3180E+02
     25.407  0.7434E+00  0.3199E+02
     25.662  0.6830E+00  0.3217E+02
     25.917  0.7421E+00  0.3235E+02
     26.172  0.1734E+01  0.3280E+02
     26.427  0.7093E+00  0.3298E+02
     26.682  0.5969E+00  0.3313E+02
     26.937  0.9641E+00  0.3338E+02
     27.192  0.8505E+00  0.3359E+02
     27.447  0.9778E+00  0.3384E+02
     27.702  0.7357E+00  0.3403E+02
     27.957  0.8593E+00  0.3425E+02
     28.212  0.4243E+00  0.3436E+02
     28.467  0.8961E+00  0.3459E+02
     28.722  0.9080E+00  0.3482E+02
     28.977  0.4955E+00  0.3494E+02
     29.232  0.7936E+00  0.3515E+02
     29.487  0.6215E+00  0.3530E+02
     29.742  0.9592E+00  0.3555E+02
     29.998  0.7138E+00  0.3573E+02
     30.253  0.6922E+00  0.3591E+02
     30.508  0.6021E+00  0.3606E+02
     30.763  0.1009E+01  0.3632E+02
     31.018  0.1092E+01  0.3660E+02
     31.273  0.7798E+00  0.3680E+02
     31.528  0.8105E+00  0.3700E+02
     31.783  0.8499E+00  0.3722E+02
     32.038  0.5678E+00  0.3736E+02
     32.293  0.8720E+00  0.3759E+02
     32.548  0.1075E+01  0.3786E+02
     32.803  0.8954E+00  0.3809E+02
     33.058  0.1101E+01  0.3837E+02
     33.313  0.7210E+00  0.3855E+02
     33.568  0.9756E+00  0.3880E+02
     33.823  0.9769E+00  0.3905E+02
     34.078  0.8667E+00  0.3927E+02
     34.333  0.1163E+01  0.3957E+02
     34.588  0.1404E+01  0.3993E+02
     34.843  0.9457E+00  0.4017E+02
     35.098  0.7419E+00  0.4036E+02
     35.353  0.5585E+00  0.4050E+02
     35.608  0.9831E+00  0.4075E+02
     35.863  0.8114E+00  0.4096E+02
     36.118  0.6212E+00  0.4112E+02
     36.373  0.8310E+00  0.4133E+02
     36.628  0.8433E+00  0.4154E+02
     36.883  0.7061E+00  0.4172E+02
     37.138  0.8894E+00  0.4195E+02
     37.393  0.1015E+01  0.4221E+02
     37.649  0.1033E+01  0.4247E+02
     37.904  0.8696E+00  0.4269E+02
     38.159  0.1112E+01  0.4298E+02
     38.414  0.9200E+00  0.4321E+02
     38.669  0.8231E+00  0.4342E+02
     38.924  0.1023E+01  0.4368E+02
     39.179  0.7909E+00  0.4389E+02
     39.434  0.4782E+00  0.4401E+02
     39.689  0.8872E+00  0.4423E+02
     39.944  0.1079E+01  0.4451E+02
     40.199  0.9683E+00  0.4476E+02
     40.454  0.1352E+01  0.4510E+02
     40.709  0.1273E+01  0.4543E+02
     40.964  0.8588E+00  0.4564E+02
     41.219  0.6942E+00  0.4582E+02
     41.474  0.1283E+01  0.4615E+02
     41.729  0.8321E+00  0.4636E+02
     41.984  0.9849E+00  0.4661E+02
     42.239  0.1573E+01  0.4701E+02
     42.494  0.1409E+01  0.4737E+02
     42.749  0.6153E+00  0.4753E+02
     43.004  0.1289E+01  0.4786E+02
     43.259  0.1522E+01  0.4825E+02
     43.514  0.7409E+00  0.4844E+02
     43.769  0.8913E+00  0.4866E+02
     44.024  0.1048E+01  0.4893E+02
     44.279  0.6641E+00  0.4910E+02
     44.534  0.6434E+00  0.4926E+02
     44.789  0.8130E+00  0.4947E+02
     45.045  0.9790E+00  0.4972E+02
     45.300  0.4957E+00  0.4985E+02
     45.555  0.9362E+00  0.5009E+02
     45.810  0.1632E+01  0.5050E+02
     46.065  0.1101E+01  0.5078E+02
     46.320  0.7128E+00  0.5096E+02
     46.575  0.1389E+01  0.5132E+02
     46.830  0.8903E+00  0.5155E+02
     47.085  0.1206E+01  0.5185E+02
     47.340  0.1648E+01  0.5227E+02
     47.595  0.8763E+00  0.5250E+02
     47.850  0.7071E+00  0.5268E+02
     48.105  0.6834E+00  0.5285E+02
     48.360  0.1217E+01  0.5316E+02
     48.615  0.1358E+01  0.5351E+02
     48.870  0.1364E+01  0.5386E+02
     49.125  0.1463E+01  0.5423E+02
     49.380  0.1018E+01  0.5449E+02
     49.635  0.1067E+01  0.5476E+02
     49.890  0.1147E+01  0.5505E+02
     50.145  0.1033E+01  0.5532E+02
     50.400  0.1103E+01  0.5560E+02
     50.655  0.1159E+01  0.5589E+02
     50.910  0.1313E+01  0.5623E+02
     51.165  0.7345E+00  0.5642E+02
     51.420  0.1198E+01  0.5672E+02
     51.675  0.1651E+01  0.5714E+02
     51.930  0.1064E+01  0.5741E+02
     52.185  0.8845E+00  0.5764E+02
     52.441  0.1234E+01  0.5795E+02
     52.696  0.1309E+01  0.5829E+02
     52.951  0.1617E+01  0.5870E+02
     53.206  0.1014E+01  0.5896E+02
     53.461  0.9912E+00  0.5921E+02
     53.716  0.1316E+01  0.5955E+02
     53.971  0.1115E+01  0.5983E+02
     54.226  0.1310E+01  0.6017E+02
     54.481  0.1779E+01  0.6062E+02
     54.736  0.1310E+01  0.6095E+02
     54.991  0.1993E+01  0.6146E+02
     55.246  0.1624E+01  0.6188E+02
     55.501  0.1113E+01  0.6216E+02
     55.756  0.1081E+01  0.6244E+02
     56.011  0.1362E+01  0.6278E+02
     56.266  0.1538E+01  0.6318E+02
     56.521  0.1599E+01  0.6358E+02
     56.776  0.1994E+01  0.6409E+02
     57.031  0.1177E+01  0.6439E+02
     57.286  0.1236E+01  0.6471E+02
     57.541  0.1895E+01  0.6519E+02
     57.796  0.1873E+01  0.6567E+02
     58.051  0.2218E+01  0.6623E+02
     58.306  0.1521E+01  0.6662E+02
     58.561  0.1205E+01  0.6693E+02
     58.816  0.1428E+01  0.6729E+02
     59.071  0.1665E+01  0.6772E+02
     59.326  0.9097E+00  0.6795E+02
     59.581  0.8473E+00  0.6817E+02
     59.836  0.1668E+01  0.6859E+02
     60.092  0.1382E+01  0.6894E+02
     60.347  0.1754E+01  0.6939E+02
     60.602  0.1610E+01  0.6980E+02
     60.857  0.1735E+01  0.7024E+02
     61.112  0.1375E+01  0.7059E+02
     61.367  0.1794E+01  0.7105E+02
     61.622  0.1837E+01  0.7152E+02
     61.877  0.1783E+01  0.7197E+02
     62.132  0.2043E+01  0.7250E+02
     62.387  0.1725E+01  0.7294E+02
     62.642  0.1235E+01  0.7325E+02
     62.897  0.1656E+01  0.7367E+02
     63.152  0.1693E+01  0.7410E+02
     63.407  0.2855E+01  0.7483E+02
     63.662  0.1861E+01  0.7531E+02
     63.917  0.1599E+01  0.7572E+02
     64.172  0.1784E+01  0.7617E+02
     64.427  0.2361E+01  0.7677E+02
     64.682  0.2101E+01  0.7731E+02
     64.937  0.2111E+01  0.7785E+02
     65.192  0.1627E+01  0.7826E+02
     65.447  0.1825E+01  0.7873E+02
     65.702  0.1198E+01  0.7903E+02
     65.957  0.1553E+01  0.7943E+02
     66.212  0.1198E+01  0.7973E+02
     66.467  0.6361E+00  0.7990E+02
     66.722  0.2395E+00  0.7996E+02
     66.977  0.7694E-01  0.7998E+02
     67.232  0.2942E-01  0.7999E+02
     67.488  0.5778E-01  0.8000E+02
     67.743  0.9069E-03  0.8000E+02
     67.998 -0.4222E-03  0.8000E+02
     68.253 -0.7577E-06  0.8000E+02
     68.508 -0.4053E-10  0.8000E+02
     68.763 -0.7850E-16  0.8000E+02
     69.018  0.0000E+00  0.8000E+02
     69.273  0.0000E+00  0.8000E+02
     69.528  0.0000E+00  0.8000E+02
     69.783  0.0000E+00  0.8000E+02
     70.038  0.0000E+00  0.8000E+02
     70.293  0.0000E+00  0.8000E+02
     70.548  0.0000E+00  0.8000E+02
     70.803  0.0000E+00  0.8000E+02
