    2    2    1    1
  0.1062484E+02  0.2423200E-09  0.2423200E-09  0.4178720E-09  0.5000000E-15
  1.000000000000000E-004
  CAR 
 unknown system                          
     16     96     40
 
  0.0000000E+00  0.0000000E+00  0.0000000E+00  0.7513148E-03
    1       -2.229519   1.000000
    2        1.676428   1.000000
    3        4.483342   1.000000
    4        4.941042   1.000000
    5        4.941212   1.000000
    6        5.254026   1.000000
    7        5.254203   1.000000
    8        5.982943   1.004684
    9        6.031115   1.010428
   10        6.031156   1.010434
   11        7.108514  -0.000005
   12        7.108557  -0.000005
   13       13.593498   0.000000
   14       29.182398   0.000000
   15       30.095277   0.000000
   16       32.172687   0.000000
   17       33.705441   0.000000
   18       33.705502   0.000000
   19       34.574628   0.000000
   20       34.574869   0.000000
   21       36.391731   0.000000
   22       37.813753   0.000000
   23       37.813785   0.000000
   24       38.864124   0.000000
   25       41.223369   0.000000
   26       41.223383   0.000000
   27       41.967264   0.000000
   28       44.519763   0.000000
   29       44.520160   0.000000
   30       46.226995   0.000000
   31       46.227163   0.000000
   32       48.912353   0.000000
   33       56.959598   0.000000
   34       60.478874   0.000000
   35       60.480217   0.000000
   36       61.167885   0.000000
   37       61.827186   0.000000
   38       62.367851   0.000000
   39       62.368183   0.000000
   40       62.970060   0.000000
 
  0.9090909E-01  0.1032910E-16  0.0000000E+00  0.4507889E-02
    1       -1.915056   1.000000
    2        1.903655   1.000000
    3        4.444162   1.000000
    4        4.931626   1.000000
    5        5.090628   1.000000
    6        5.118511   1.000000
    7        5.156451   1.000000
    8        5.416649   1.000000
    9        5.917909   1.001261
   10        5.927177   1.001544
   11        7.146015  -0.000001
   12        8.257778  -0.000000
   13       13.620879   0.000000
   14       27.751068   0.000000
   15       30.269042   0.000000
   16       30.386273   0.000000
   17       31.073635   0.000000
   18       33.718921   0.000000
   19       33.981848   0.000000
   20       36.178152   0.000000
   21       37.219164   0.000000
   22       37.425891   0.000000
   23       38.080613   0.000000
   24       38.158257   0.000000
   25       41.967813   0.000000
   26       42.205661   0.000000
   27       42.398800   0.000000
   28       42.836944   0.000000
   29       46.139195   0.000000
   30       47.655038   0.000000
   31       48.727532   0.000000
   32       50.877319   0.000000
   33       56.550531   0.000000
   34       59.083836   0.000000
   35       59.142599   0.000000
   36       59.630903   0.000000
   37       60.660088   0.000000
   38       62.928257   0.000000
   39       63.559251   0.000000
   40       64.334576   0.000000
 
  0.1818182E+00  0.1283112E-16  0.0000000E+00  0.4507889E-02
    1       -1.020282   1.000000
    2        2.444646   1.000000
    3        4.056550   1.000000
    4        4.198954   1.000000
    5        4.790255   1.000000
    6        5.317392   1.000000
    7        5.610249   1.000000
    8        5.623847   1.000000
    9        5.680606   1.000001
   10        5.865855   1.000369
   11        7.206150  -0.000000
   12       10.037858  -0.000000
   13       13.727269   0.000000
   14       23.933504   0.000000
   15       28.355037   0.000000
   16       29.081798   0.000000
   17       29.721096   0.000000
   18       31.176867   0.000000
   19       34.168852   0.000000
   20       35.548122   0.000000
   21       35.952318   0.000000
   22       36.340488   0.000000
   23       38.505174   0.000000
   24       39.561624   0.000000
   25       41.795315   0.000000
   26       43.237537   0.000000
   27       44.959461   0.000000
   28       47.119168   0.000000
   29       48.653413   0.000000
   30       51.454908   0.000000
   31       51.666372   0.000000
   32       54.385412   0.000000
   33       55.189522   0.000000
   34       55.850816   0.000000
   35       57.388336   0.000000
   36       59.231671   0.000000
   37       60.087035   0.000000
   38       62.652871   0.000000
   39       64.894811   0.000000
   40       65.690391   0.000000
 
  0.2727273E+00  0.4397690E-16  0.0000000E+00  0.4507889E-02
    1        0.272315   1.000000
    2        2.745432   1.000000
    3        3.269217   1.000000
    4        4.101851   1.000000
    5        4.631203   1.000000
    6        5.249961   1.000000
    7        5.399219   1.000000
    8        5.993369   1.005643
    9        6.308360   0.885342
   10        6.494892   0.186970
   11        7.245864  -0.000000
   12       12.044784   0.000000
   13       13.960194   0.000000
   14       20.036750   0.000000
   15       26.038118   0.000000
   16       26.155029   0.000000
   17       27.457988   0.000000
   18       30.829619   0.000000
   19       32.166585   0.000000
   20       35.671363   0.000000
   21       36.057458   0.000000
   22       36.192291   0.000000
   23       36.356021   0.000000
   24       40.206885   0.000000
   25       45.360314   0.000000
   26       47.154726   0.000000
   27       48.318396   0.000000
   28       49.705268   0.000000
   29       51.022435   0.000000
   30       51.877487   0.000000
   31       53.368670   0.000000
   32       54.356167   0.000000
   33       56.998053   0.000000
   34       57.435526   0.000000
   35       57.779666   0.000000
   36       58.812679   0.000000
   37       61.450448   0.000000
   38       62.310697   0.000000
   39       64.568930   0.000000
   40       65.550794   0.000000
 
  0.3636364E+00  0.1373845E-16  0.0000000E+00  0.4507889E-02
    1        1.501204   1.000000
    2        2.529019   1.000000
    3        2.750974   1.000000
    4        4.262025   1.000000
    5        4.916555   1.000000
    6        4.935754   1.000000
    7        5.164927   1.000000
    8        7.006580  -0.000115
    9        7.090013  -0.000010
   10        7.124476  -0.000003
   11        7.261227  -0.000000
   12       13.824585   0.000000
   13       14.200897   0.000000
   14       17.288275   0.000000
   15       22.965774   0.000000
   16       24.273465   0.000000
   17       24.678211   0.000000
   18       29.889480   0.000000
   19       31.070993   0.000000
   20       34.262173   0.000000
   21       35.241092   0.000000
   22       37.156455   0.000000
   23       38.101175   0.000000
   24       40.702034   0.000000
   25       47.988971   0.000000
   26       48.727266   0.000000
   27       48.993033   0.000000
   28       52.292835   0.000000
   29       52.296321   0.000000
   30       53.314532   0.000000
   31       55.501350   0.000000
   32       56.120866   0.000000
   33       56.704810   0.000000
   34       58.430768   0.000000
   35       60.261252   0.000000
   36       61.893970   0.000000
   37       62.083839   0.000000
   38       63.232044   0.000000
   39       64.690836   0.000000
   40       65.166176   0.000000
 
  0.4545455E+00 -0.9644375E-17  0.0000000E+00  0.4507889E-02
    1        2.081390   1.000000
    2        2.288787   1.000000
    3        2.495914   1.000000
    4        4.718166   1.000000
    5        4.721722   1.000000
    6        5.034047   1.000000
    7        5.159228   1.000000
    8        7.262371  -0.000000
    9        7.431900  -0.000000
   10        7.552043  -0.000000
   11        8.631330  -0.000000
   12       11.895220   0.000000
   13       16.252195   0.000000
   14       17.409862   0.000000
   15       20.411426   0.000000
   16       22.067121   0.000000
   17       23.292394   0.000000
   18       29.275347   0.000000
   19       30.727563   0.000000
   20       33.201431   0.000000
   21       35.033039   0.000000
   22       37.875019   0.000000
   23       40.337572   0.000000
   24       40.867895   0.000000
   25       44.659714   0.000000
   26       49.111292   0.000000
   27       50.881532   0.000000
   28       54.600979   0.000000
   29       55.341486   0.000000
   30       55.434929   0.000000
   31       56.507982   0.000000
   32       58.355604   0.000000
   33       58.724834   0.000000
   34       60.058484   0.000000
   35       60.319593   0.000000
   36       60.700801   0.000000
   37       63.427529   0.000000
   38       63.643453   0.000000
   39       64.032378   0.000000
   40       64.605802   0.000000
 
  0.9090909E-01  0.9090909E-01  0.0000000E+00  0.4507889E-02
    1       -1.308356   1.000000
    2        2.302739   1.000000
    3        4.248323   1.000000
    4        4.326246   1.000000
    5        4.965029   1.000000
    6        5.049867   1.000000
    7        5.477181   1.000000
    8        5.558553   1.000000
    9        5.765885   1.000023
   10        5.912110   1.001109
   11        7.165515  -0.000001
   12        9.542289  -0.000000
   13       13.691029   0.000000
   14       25.693149   0.000000
   15       26.787700   0.000000
   16       30.703423   0.000000
   17       31.318289   0.000000
   18       32.314315   0.000000
   19       32.750396   0.000000
   20       34.459414   0.000000
   21       35.663497   0.000000
   22       39.003346   0.000000
   23       39.816157   0.000000
   24       40.208961   0.000000
   25       41.274622   0.000000
   26       41.376468   0.000000
   27       41.399372   0.000000
   28       47.660974   0.000000
   29       49.566141   0.000000
   30       49.606387   0.000000
   31       49.651056   0.000000
   32       53.824813   0.000000
   33       55.776237   0.000000
   34       56.791784   0.000000
   35       57.431140   0.000000
   36       59.131211   0.000000
   37       59.903959   0.000000
   38       63.221515   0.000000
   39       64.823153   0.000000
   40       65.792986   0.000000
 
  0.1818182E+00  0.9090909E-01  0.0000000E+00  0.9015778E-02
    1       -0.194955   1.000000
    2        2.825248   1.000000
    3        3.553768   1.000000
    4        3.931944   1.000000
    5        4.715577   1.000000
    6        5.181178   1.000000
    7        5.444457   1.000000
    8        5.689119   1.000002
    9        6.119689   1.028887
   10        6.413639   0.501774
   11        7.180738  -0.000000
   12       11.335776  -0.000000
   13       13.901953   0.000000
   14       22.028440   0.000000
   15       24.512522   0.000000
   16       27.946583   0.000000
   17       30.142276   0.000000
   18       30.149538   0.000000
   19       33.172653   0.000000
   20       34.116431   0.000000
   21       34.421123   0.000000
   22       38.893626   0.000000
   23       39.215222   0.000000
   24       39.717381   0.000000
   25       42.945549   0.000000
   26       44.069530   0.000000
   27       45.736624   0.000000
   28       49.784853   0.000000
   29       52.012069   0.000000
   30       52.555486   0.000000
   31       52.903858   0.000000
   32       54.904550   0.000000
   33       55.764717   0.000000
   34       56.163290   0.000000
   35       57.377021   0.000000
   36       57.384948   0.000000
   37       60.701129   0.000000
   38       63.485109   0.000000
   39       64.923223   0.000000
   40       65.967338   0.000000
 
  0.2727273E+00  0.9090909E-01  0.0000000E+00  0.9015778E-02
    1        1.139904   1.000000
    2        2.820658   1.000000
    3        2.978848   1.000000
    4        3.962387   1.000000
    5        4.764928   1.000000
    6        4.883997   1.000000
    7        5.357429   1.000000
    8        6.124270   1.029856
    9        6.824462  -0.006733
   10        7.184736  -0.000000
   11        7.259025  -0.000000
   12       13.389715   0.000000
   13       14.229932   0.000000
   14       18.450756   0.000000
   15       22.866853   0.000000
   16       24.642680   0.000000
   17       26.887233   0.000000
   18       28.950367   0.000000
   19       32.353587   0.000000
   20       33.384883   0.000000
   21       35.508424   0.000000
   22       38.715368   0.000000
   23       38.844257   0.000000
   24       41.288608   0.000000
   25       44.828904   0.000000
   26       47.725525   0.000000
   27       49.278548   0.000000
   28       50.023292   0.000000
   29       50.752737   0.000000
   30       53.485137   0.000000
   31       55.215903   0.000000
   32       55.791468   0.000000
   33       56.744340   0.000000
   34       57.685788   0.000000
   35       59.527653   0.000000
   36       61.533342   0.000000
   37       61.964753   0.000000
   38       63.240005   0.000000
   39       63.861297   0.000000
   40       65.941113   0.000000
 
  0.3636364E+00  0.9090909E-01  0.0000000E+00  0.9015778E-02
    1        2.073366   1.000000
    2        2.537306   1.000000
    3        2.636340   1.000000
    4        4.302776   1.000000
    5        4.720487   1.000000
    6        5.053999   1.000000
    7        5.082864   1.000000
    8        6.932577  -0.000758
    9        7.178787  -0.000000
   10        7.319475  -0.000000
   11        8.363884  -0.000000
   12       13.284999   0.000000
   13       15.563908   0.000000
   14       17.167655   0.000000
   15       21.609288   0.000000
   16       21.721495   0.000000
   17       23.742195   0.000000
   18       28.090472   0.000000
   19       31.402521   0.000000
   20       32.852297   0.000000
   21       36.369102   0.000000
   22       39.185902   0.000000
   23       40.090260   0.000000
   24       41.225113   0.000000
   25       46.582545   0.000000
   26       47.605331   0.000000
   27       49.654586   0.000000
   28       51.433808   0.000000
   29       52.626137   0.000000
   30       55.256435   0.000000
   31       55.581200   0.000000
   32       57.445638   0.000000
   33       58.737047   0.000000
   34       60.454670   0.000000
   35       60.932090   0.000000
   36       61.930596   0.000000
   37       62.681023   0.000000
   38       63.457300   0.000000
   39       64.732728   0.000000
   40       64.911086   0.000000
 
  0.4545455E+00  0.9090909E-01  0.0000000E+00  0.4507889E-02
    1        2.322089   1.000000
    2        2.396180   1.000000
    3        2.523743   1.000000
    4        4.624743   1.000000
    5        4.685221   1.000000
    6        4.917822   1.000000
    7        5.196909   1.000000
    8        7.174940  -0.000001
    9        7.387886  -0.000000
   10        7.402454  -0.000000
   11        9.534904  -0.000000
   12       11.559657  -0.000000
   13       17.048102   0.000000
   14       17.860762   0.000000
   15       19.994181   0.000000
   16       20.846504   0.000000
   17       22.299847   0.000000
   18       27.790861   0.000000
   19       31.020293   0.000000
   20       32.691572   0.000000
   21       36.482100   0.000000
   22       39.972479   0.000000
   23       40.341144   0.000000
   24       41.963626   0.000000
   25       44.222507   0.000000
   26       49.287992   0.000000
   27       49.611128   0.000000
   28       52.601376   0.000000
   29       54.296245   0.000000
   30       54.744990   0.000000
   31       57.793474   0.000000
   32       58.521500   0.000000
   33       59.005519   0.000000
   34       59.189580   0.000000
   35       60.373614   0.000000
   36       62.590833   0.000000
   37       64.275913   0.000000
   38       64.285414   0.000000
   39       64.747651   0.000000
   40       65.943560   0.000000
 
  0.1818182E+00  0.1818182E+00  0.0000000E+00  0.4507889E-02
    1        1.019594   1.000000
    2        3.113238   1.000000
    3        3.237595   1.000000
    4        3.519626   1.000000
    5        4.763744   1.000000
    6        4.787344   1.000000
    7        5.497358   1.000000
    8        5.674568   1.000001
    9        6.803163  -0.009495
   10        7.101370  -0.000007
   11        7.313985  -0.000000
   12       13.128602   0.000000
   13       14.366124   0.000000
   14       20.133597   0.000000
   15       20.797875   0.000000
   16       26.188236   0.000000
   17       27.382067   0.000000
   18       29.109209   0.000000
   19       29.818722   0.000000
   20       35.260988   0.000000
   21       36.200515   0.000000
   22       39.587801   0.000000
   23       39.924776   0.000000
   24       42.523417   0.000000
   25       43.118640   0.000000
   26       45.053092   0.000000
   27       46.465166   0.000000
   28       51.528758   0.000000
   29       51.551237   0.000000
   30       53.384218   0.000000
   31       53.658571   0.000000
   32       56.449957   0.000000
   33       56.598094   0.000000
   34       58.953757   0.000000
   35       59.359629   0.000000
   36       60.223325   0.000000
   37       60.371014   0.000000
   38       64.155117   0.000000
   39       64.260019   0.000000
   40       66.596253   0.000000
 
  0.2727273E+00  0.1818182E+00  0.0000000E+00  0.9015778E-02
    1        2.220633   1.000000
    2        2.824954   1.000000
    3        3.027299   1.000000
    4        3.654471   1.000000
    5        4.568405   1.000000
    6        5.013769   1.000000
    7        5.148683   1.000000
    8        6.177345   1.035182
    9        7.034048  -0.000053
   10        7.274297  -0.000000
   11        8.475380  -0.000000
   12       14.791852   0.000000
   13       15.221252   0.000000
   14       17.381333   0.000000
   15       19.282649   0.000000
   16       23.560992   0.000000
   17       25.751474   0.000000
   18       25.879097   0.000000
   19       28.498836   0.000000
   20       36.626720   0.000000
   21       37.253334   0.000000
   22       40.016510   0.000000
   23       42.162473   0.000000
   24       42.811087   0.000000
   25       44.494278   0.000000
   26       46.318133   0.000000
   27       47.669775   0.000000
   28       49.212829   0.000000
   29       52.376121   0.000000
   30       52.654599   0.000000
   31       54.755077   0.000000
   32       57.492874   0.000000
   33       58.928684   0.000000
   34       59.963358   0.000000
   35       62.052870   0.000000
   36       62.350453   0.000000
   37       63.145436   0.000000
   38       64.360593   0.000000
   39       64.988952   0.000000
   40       66.225062   0.000000
 
  0.3636364E+00  0.1818182E+00  0.0000000E+00  0.9015778E-02
    1        2.690850   1.000000
    2        2.726742   1.000000
    3        2.808462   1.000000
    4        4.069568   1.000000
    5        4.573878   1.000000
    6        4.797943   1.000000
    7        5.258577   1.000000
    8        6.799855  -0.009988
    9        6.996113  -0.000153
   10        7.308811  -0.000000
   11        9.983988  -0.000000
   12       12.891692   0.000000
   13       17.377351   0.000000
   14       17.748947   0.000000
   15       18.571987   0.000000
   16       20.963558   0.000000
   17       22.913243   0.000000
   18       25.318850   0.000000
   19       27.865175   0.000000
   20       36.475310   0.000000
   21       38.909370   0.000000
   22       40.633876   0.000000
   23       42.267244   0.000000
   24       42.889253   0.000000
   25       46.427371   0.000000
   26       46.673273   0.000000
   27       48.825437   0.000000
   28       48.827606   0.000000
   29       52.270485   0.000000
   30       53.717728   0.000000
   31       54.015599   0.000000
   32       57.813838   0.000000
   33       58.123842   0.000000
   34       59.574843   0.000000
   35       63.068414   0.000000
   36       64.117485   0.000000
   37       64.923118   0.000000
   38       65.332112   0.000000
   39       65.354812   0.000000
   40       65.884556   0.000000
 
  0.2727273E+00  0.2727273E+00  0.0000000E+00  0.4507889E-02
    1        2.805375   1.000000
    2        3.019862   1.000000
    3        3.354812   1.000000
    4        3.387948   1.000000
    5        4.429651   1.000000
    6        4.810939   1.000000
    7        5.302866   1.000000
    8        6.421743   0.467509
    9        6.903694  -0.001455
   10        7.284399  -0.000000
   11       10.090218  -0.000000
   12       14.941287   0.000000
   13       15.442845   0.000000
   14       17.397332   0.000000
   15       18.435174   0.000000
   16       22.878223   0.000000
   17       22.957488   0.000000
   18       24.555731   0.000000
   19       25.428614   0.000000
   20       38.765023   0.000000
   21       39.695572   0.000000
   22       42.197212   0.000000
   23       43.132426   0.000000
   24       44.634854   0.000000
   25       44.659517   0.000000
   26       44.964839   0.000000
   27       47.241346   0.000000
   28       49.685709   0.000000
   29       50.021737   0.000000
   30       53.140447   0.000000
   31       53.834154   0.000000
   32       56.114319   0.000000
   33       57.934334   0.000000
   34       59.809333   0.000000
   35       63.111340   0.000000
   36       64.344479   0.000000
   37       64.693584   0.000000
   38       66.125334   0.000000
   39       66.283337   0.000000
   40       66.328113   0.000000
 
  0.3636364E+00  0.2727273E+00  0.0000000E+00  0.4507889E-02
    1        2.822446   1.000000
    2        3.209655   1.000000
    3        3.211093   1.000000
    4        3.683534   1.000000
    5        4.487750   1.000000
    6        4.553737   1.000000
    7        5.441088   1.000000
    8        6.751026  -0.019213
    9        6.852856  -0.004066
   10        7.019827  -0.000079
   11       11.798134  -0.000000
   12       12.966374   0.000000
   13       15.066407   0.000000
   14       19.290570   0.000000
   15       19.419976   0.000000
   16       20.753753   0.000000
   17       22.726506   0.000000
   18       22.960398   0.000000
   19       24.833934   0.000000
   20       39.225456   0.000000
   21       41.796850   0.000000
   22       42.548914   0.000000
   23       43.141471   0.000000
   24       43.879230   0.000000
   25       45.591827   0.000000
   26       45.790878   0.000000
   27       48.455675   0.000000
   28       48.705329   0.000000
   29       49.003031   0.000000
   30       52.519379   0.000000
   31       54.108429   0.000000
   32       54.406042   0.000000
   33       57.771277   0.000000
   34       58.477206   0.000000
   35       64.439973   0.000000
   36       64.840453   0.000000
   37       65.835840   0.000000
   38       66.054573   0.000000
   39       66.469030   0.000000
   40       66.535351   0.000000
 
  0.0000000E+00  0.0000000E+00  0.9090909E-01  0.1502630E-02
    1       -2.150252   1.000000
    2        1.643619   1.000000
    3        4.461328   1.000000
    4        4.929896   1.000000
    5        4.930063   1.000000
    6        5.235669   1.000000
    7        5.235845   1.000000
    8        5.754562   1.000016
    9        6.072575   1.018225
   10        6.072618   1.018235
   11        7.103045  -0.000006
   12        7.103089  -0.000006
   13       13.986965   0.000000
   14       28.902714   0.000000
   15       29.750242   0.000000
   16       32.004007   0.000000
   17       33.763906   0.000000
   18       33.763960   0.000000
   19       34.596801   0.000000
   20       34.597034   0.000000
   21       36.893795   0.000000
   22       37.702693   0.000000
   23       37.702714   0.000000
   24       39.105923   0.000000
   25       40.835647   0.000000
   26       40.835663   0.000000
   27       42.233232   0.000000
   28       44.804670   0.000000
   29       44.805047   0.000000
   30       46.708119   0.000000
   31       46.708269   0.000000
   32       48.850396   0.000000
   33       56.443315   0.000000
   34       60.191564   0.000000
   35       60.192743   0.000000
   36       60.497441   0.000000
   37       60.497826   0.000000
   38       61.256834   0.000000
   39       62.429458   0.000000
   40       63.759657   0.000000
 
  0.9090909E-01  0.1032910E-16  0.9090909E-01  0.9015778E-02
    1       -1.837449   1.000000
    2        1.875468   1.000000
    3        4.438415   1.000000
    4        4.892044   1.000000
    5        4.906754   1.000000
    6        5.102742   1.000000
    7        5.220360   1.000000
    8        5.395862   1.000000
    9        5.963715   1.003264
   10        5.976509   1.004162
   11        7.133541  -0.000002
   12        8.091315  -0.000000
   13       14.048278   0.000000
   14       27.760800   0.000000
   15       29.648653   0.000000
   16       30.353636   0.000000
   17       31.142519   0.000000
   18       33.081462   0.000000
   19       34.488894   0.000000
   20       36.443176   0.000000
   21       36.848339   0.000000
   22       37.548741   0.000000
   23       38.035985   0.000000
   24       38.604436   0.000000
   25       41.923141   0.000000
   26       41.996472   0.000000
   27       42.851888   0.000000
   28       43.186319   0.000000
   29       45.966907   0.000000
   30       47.998419   0.000000
   31       49.070561   0.000000
   32       50.886963   0.000000
   33       55.440485   0.000000
   34       58.401932   0.000000
   35       59.016604   0.000000
   36       60.072684   0.000000
   37       60.848670   0.000000
   38       61.979141   0.000000
   39       63.307182   0.000000
   40       64.053771   0.000000
 
  0.1818182E+00  0.1283112E-16  0.9090909E-01  0.9015778E-02
    1       -0.949288   1.000000
    2        2.431239   1.000000
    3        3.972983   1.000000
    4        4.216455   1.000000
    5        4.760733   1.000000
    6        5.228536   1.000000
    7        5.532359   1.000000
    8        5.748006   1.000013
    9        5.756380   1.000017
   10        5.883405   1.000568
   11        7.188687  -0.000000
   12        9.677514  -0.000000
   13       14.278698   0.000000
   14       23.996092   0.000000
   15       28.445430   0.000000
   16       28.643268   0.000000
   17       29.955710   0.000000
   18       30.557259   0.000000
   19       34.022035   0.000000
   20       35.490122   0.000000
   21       35.757018   0.000000
   22       36.501309   0.000000
   23       38.953609   0.000000
   24       40.258138   0.000000
   25       42.066959   0.000000
   26       43.232553   0.000000
   27       44.730834   0.000000
   28       47.139115   0.000000
   29       48.592698   0.000000
   30       51.442949   0.000000
   31       52.006280   0.000000
   32       53.428139   0.000000
   33       54.336930   0.000000
   34       56.678785   0.000000
   35       57.422437   0.000000
   36       58.940864   0.000000
   37       60.519477   0.000000
   38       62.817308   0.000000
   39       64.366989   0.000000
   40       65.118624   0.000000
 
  0.2727273E+00  0.4397690E-16  0.9090909E-01  0.9015778E-02
    1        0.324574   1.000000
    2        2.745938   1.000000
    3        3.239895   1.000000
    4        4.114815   1.000000
    5        4.582487   1.000000
    6        5.264911   1.000000
    7        5.418295   1.000000
    8        6.030258   1.010294
    9        6.318802   0.856792
   10        6.477613   0.245538
   11        7.225368  -0.000000
   12       11.339162  -0.000000
   13       14.802490   0.000000
   14       20.102817   0.000000
   15       25.629628   0.000000
   16       26.144875   0.000000
   17       27.889540   0.000000
   18       30.582902   0.000000
   19       32.195811   0.000000
   20       34.490924   0.000000
   21       34.867856   0.000000
   22       37.328174   0.000000
   23       37.381244   0.000000
   24       41.051530   0.000000
   25       45.456220   0.000000
   26       47.009433   0.000000
   27       47.971692   0.000000
   28       48.342756   0.000000
   29       51.680049   0.000000
   30       52.055148   0.000000
   31       53.642975   0.000000
   32       55.036258   0.000000
   33       56.241521   0.000000
   34       56.510088   0.000000
   35       58.029975   0.000000
   36       59.234874   0.000000
   37       61.701188   0.000000
   38       62.795619   0.000000
   39       63.969906   0.000000
   40       65.538821   0.000000
 
  0.3636364E+00  0.1373845E-16  0.9090909E-01  0.9015778E-02
    1        1.501726   1.000000
    2        2.505230   1.000000
    3        2.820230   1.000000
    4        4.098799   1.000000
    5        4.938545   1.000000
    6        5.130923   1.000000
    7        5.197751   1.000000
    8        7.011058  -0.000102
    9        7.056906  -0.000027
   10        7.064941  -0.000021
   11        7.269794  -0.000000
   12       12.658455   0.000000
   13       15.338855   0.000000
   14       17.439635   0.000000
   15       22.477507   0.000000
   16       24.392522   0.000000
   17       25.215797   0.000000
   18       29.826635   0.000000
   19       31.079732   0.000000
   20       33.204058   0.000000
   21       35.942962   0.000000
   22       36.333544   0.000000
   23       38.508798   0.000000
   24       41.720932   0.000000
   25       46.340796   0.000000
   26       48.930277   0.000000
   27       50.186668   0.000000
   28       51.363335   0.000000
   29       52.338736   0.000000
   30       54.134947   0.000000
   31       54.930629   0.000000
   32       56.356866   0.000000
   33       56.864001   0.000000
   34       58.155059   0.000000
   35       60.432812   0.000000
   36       62.054764   0.000000
   37       62.413124   0.000000
   38       62.910015   0.000000
   39       64.858406   0.000000
   40       65.159869   0.000000
 
  0.4545455E+00 -0.9644375E-17  0.9090909E-01  0.9015778E-02
    1        1.996374   1.000000
    2        2.232621   1.000000
    3        2.698746   1.000000
    4        4.168339   1.000000
    5        5.071522   1.000000
    6        5.141878   1.000000
    7        5.368742   1.000000
    8        7.200345  -0.000000
    9        7.438566  -0.000000
   10        7.554029  -0.000000
   11        8.550212  -0.000000
   12       11.733966  -0.000000
   13       16.005589   0.000000
   14       17.520677   0.000000
   15       20.461946   0.000000
   16       22.536221   0.000000
   17       23.419090   0.000000
   18       29.256591   0.000000
   19       30.729130   0.000000
   20       32.366777   0.000000
   21       35.916397   0.000000