 vasp.6.2.0 18Jan21 (build Mar 17 2021 09:06:54) complex                        
  
 executed on             LinuxIFC date 2021.09.09  12:10:12
 serial version


--------------------------------------------------------------------------------------------------------


 INCAR:
   ENCUT = 280.000000
   SIGMA = 0.200000
   EDIFF = 1.00e-06
   GGA = PE
   PREC = normal
   IBRION = 1
   ICHARG = 1
   ISIF = 2
   ISMEAR = 1
   KPAR = 1
   NBANDS = 40
   NSW = 0
   NCORE = 1
   LCHARG = .TRUE.

 POTCAR:    PAW_PBE Fe 06Sep2000                  
 POTCAR:    PAW_PBE Fe 06Sep2000                  
   SHA256 =  cd5a22d9368cc8b5cc476bea79732366149640da08ac9009b0e1b7fc627eea28 Fe/POTCAR             
   COPYR  = (c) Copyright 06Sep2000 Georg Kresse                                                    
   COPYR  = This file is part of the software VASP. Any use, copying, and all other rights are regul
   COPYR  = If you do not have a valid VASP license, you may not use, copy or distribute this file. 
   VRHFIN =Fe:  d7 s1                                                                               
   LEXCH  = PE                                                                                      
   EATOM  =   594.3153 eV,   43.6809 Ry                                                             
                                                                                                    
   TITEL  = PAW_PBE Fe 06Sep2000                                                                    
   LULTRA =        F    use ultrasoft PP ?                                                          
   IUNSCR =        1    unscreen: 0-lin 1-nonlin 2-no                                               
   RPACOR =    2.000    partial core radius                                                         
   POMASS =   55.847; ZVAL   =    8.000    mass and valenz                                          
   RCORE  =    2.300    outmost cutoff radius                                                       
   RWIGS  =    2.460; RWIGS  =    1.302    wigner-seitz radius (au A)                               
   ENMAX  =  267.882; ENMIN  =  200.911 eV                                                          
   RCLOC  =    1.701    cutoff for local pot                                                        
   LCOR   =        T    correct aug charges                                                         
   LPAW   =        T    paw PP                                                                      
   EAUG   =  511.368                                                                                
   DEXC   =    0.000                                                                                
   RMAX   =    2.356    core radius for proj-oper                                                   
   RAUG   =    1.300    factor for augmentation sphere                                              
   RDEP   =    2.442    radius for radial grids                                                     
   RDEPT  =    1.890    core radius for aug-charge                                                  
                                                                                                    
   Atomic configuration                                                                             
    9 entries                                                                                       
     n  l   j            E        occ.                                                              
     1  0  0.50     -6993.8440   2.0000                                                             
     2  0  0.50      -814.6047   2.0000                                                             
     2  1  1.50      -693.3689   6.0000                                                             
     3  0  0.50       -89.4732   2.0000                                                             
     3  1  1.50       -55.6373   6.0000                                                             
     3  2  2.50        -3.8151   7.0000                                                             
     4  0  0.50        -4.2551   1.0000                                                             
     4  1  1.50        -3.4015   0.0000                                                             
     4  3  2.50        -1.3606   0.0000                                                             
   Description                                                                                      
     l       E           TYP  RCUT    TYP  RCUT                                                     
     2     -3.8151135     23  2.300                                                                 
     2     -5.1756961     23  2.300                                                                 
     0     -4.2550963     23  2.300                                                                 
     0      7.2035603     23  2.300                                                                 
     1     -2.7211652     23  2.300                                                                 
     1     18.4316424     23  2.300                                                                 
  local pseudopotential read in
  partial core-charges read in
  partial kinetic energy density read in
  atomic valenz-charges read in
  non local Contribution for L=           2  read in
    real space projection operators read in
  non local Contribution for L=           2  read in
    real space projection operators read in
  non local Contribution for L=           0  read in
    real space projection operators read in
  non local Contribution for L=           0  read in
    real space projection operators read in
  non local Contribution for L=           1  read in
    real space projection operators read in
  non local Contribution for L=           1  read in
    real space projection operators read in
    PAW grid and wavefunctions read in
 
   number of l-projection  operators is LMAX  =           6
   number of lm-projection operators is LMMAX =          18
 
  PAW_PBE Fe 06Sep2000                  :
 energy of atom  1       EATOM= -594.3153
 kinetic energy error for atom=    0.0278 (will be added to EATOM!!)
 
 
 POSCAR: Fe
  positions in cartesian coordinates
  No initial velocities read in
 exchange correlation table for  LEXCH =        8
   RHO(1)=    0.500       N(1)  =     2000
   RHO(2)=  100.500       N(2)  =     4000
 


--------------------------------------------------------------------------------------------------------


 ion  position               nearest neighbor table
   1  0.000  0.000  0.000-   2 2.51   2 2.51   2 2.51   2 2.51   2 2.51   2 2.51
   2  0.333  0.667  0.500-   1 2.51   1 2.51   1 2.51   1 2.51   1 2.51   1 2.51
 
  LATTYP: Found a hexagonal cell.
 ALAT       =     2.4232000000
 C/A-ratio  =     1.7244635193
  
  Lattice vectors:
  
 A1 = (   2.4232000000,   0.0000000000,   0.0000000000)
 A2 = (  -1.2116000000,   2.0985527585,   0.0000000000)
 A3 = (   0.0000000000,   0.0000000000,   4.1787200000)


Analysis of symmetry for initial positions (statically):
=====================================================================
 Subroutine PRICEL returns:
 Original cell was already a primitive cell.
 

 Routine SETGRP: Setting up the symmetry group for a 
 hexagonal supercell.


 Subroutine GETGRP returns: Found 24 space group operations
 (whereof 12 operations were pure point group operations)
 out of a pool of 24 trial point group operations.


The static configuration has the point symmetry D_3h.
 The point group associated with its full space group is D_6h.


Analysis of symmetry for dynamics (positions and initial velocities):
=====================================================================
 Subroutine PRICEL returns:
 Original cell was already a primitive cell.
 

 Routine SETGRP: Setting up the symmetry group for a 
 hexagonal supercell.


 Subroutine GETGRP returns: Found 24 space group operations
 (whereof 12 operations were pure point group operations)
 out of a pool of 24 trial point group operations.


The dynamic configuration has the point symmetry D_3h.
 The point group associated with its full space group is D_6h.


 Subroutine INISYM returns: Found 24 space group operations
 (whereof 12 operations are pure point group operations),
 and found     1 'primitive' translations


----------------------------------------------------------------------------------------

                                     Primitive cell                                     

  volume of cell :      21.2497

  direct lattice vectors                    reciprocal lattice vectors
     2.423200000  0.000000000  0.000000000     0.412677451  0.238259438  0.000000000
    -1.211600000  2.098552758  0.000000000     0.000000000  0.476518875  0.000000000
     0.000000000  0.000000000  4.178720000     0.000000000  0.000000000  0.239307731

  length of vectors
     2.423200000  2.423200000  4.178720000     0.476518875  0.476518875  0.239307731

  position of ions in fractional coordinates (direct lattice)
     0.000000000  0.000000000  0.000000000
     0.333333333  0.666666667  0.500000000

  ion indices of the primitive-cell ions
   primitive index   ion index
                 1           1
                 2           2

----------------------------------------------------------------------------------------

 
 
 KPOINTS: KPOINTS created by Atomic Simulation Env

Automatic generation of k-mesh.
 Grid dimensions read from file:
 generate k-points for:   11   11   11

 Generating k-lattice:

  Cartesian coordinates                     Fractional coordinates (reciprocal lattice)
     0.037516132  0.021659949  0.000000000     0.090909091 -0.000000000  0.000000000
     0.000000000  0.043319898  0.000000000     0.000000000  0.090909091  0.000000000
     0.000000000  0.000000000  0.021755248     0.000000000  0.000000000  0.090909091

  Length of vectors
     0.043319898  0.043319898  0.021755248

  Shift w.r.t. Gamma in fractional coordinates (k-lattice)
     0.000000000  0.000000000  0.000000000

 
 Subroutine IBZKPT returns following result:
 ===========================================
 
 Found     96 irreducible k-points:
 
 Following reciprocal coordinates:
            Coordinates               Weight
  0.000000  0.000000  0.000000      1.000000
  0.090909  0.000000  0.000000      6.000000
  0.181818  0.000000  0.000000      6.000000
  0.272727  0.000000  0.000000      6.000000
  0.363636  0.000000  0.000000      6.000000
  0.454545 -0.000000  0.000000      6.000000
  0.090909  0.090909  0.000000      6.000000
  0.181818  0.090909  0.000000     12.000000
  0.272727  0.090909  0.000000     12.000000
  0.363636  0.090909  0.000000     12.000000
  0.454545  0.090909  0.000000      6.000000
  0.181818  0.181818  0.000000      6.000000
  0.272727  0.181818  0.000000     12.000000
  0.363636  0.181818  0.000000     12.000000
  0.272727  0.272727  0.000000      6.000000
  0.363636  0.272727  0.000000      6.000000
  0.000000  0.000000  0.090909      2.000000
  0.090909  0.000000  0.090909     12.000000
  0.181818  0.000000  0.090909     12.000000
  0.272727  0.000000  0.090909     12.000000
  0.363636  0.000000  0.090909     12.000000
  0.454545 -0.000000  0.090909     12.000000
  0.090909  0.090909  0.090909     12.000000
  0.181818  0.090909  0.090909     24.000000
  0.272727  0.090909  0.090909     24.000000
  0.363636  0.090909  0.090909     24.000000
  0.454545  0.090909  0.090909     12.000000
  0.181818  0.181818  0.090909     12.000000
  0.272727  0.181818  0.090909     24.000000
  0.363636  0.181818  0.090909     24.000000
  0.272727  0.272727  0.090909     12.000000
  0.363636  0.272727  0.090909     12.000000
  0.000000  0.000000  0.181818      2.000000
  0.090909  0.000000  0.181818     12.000000
  0.181818  0.000000  0.181818     12.000000
  0.272727  0.000000  0.181818     12.000000
  0.363636  0.000000  0.181818     12.000000
  0.454545 -0.000000  0.181818     12.000000
  0.090909  0.090909  0.181818     12.000000
  0.181818  0.090909  0.181818     24.000000
  0.272727  0.090909  0.181818     24.000000
  0.363636  0.090909  0.181818     24.000000
  0.454545  0.090909  0.181818     12.000000
  0.181818  0.181818  0.181818     12.000000
  0.272727  0.181818  0.181818     24.000000
  0.363636  0.181818  0.181818     24.000000
  0.272727  0.272727  0.181818     12.000000
  0.363636  0.272727  0.181818     12.000000
  0.000000  0.000000  0.272727      2.000000
  0.090909  0.000000  0.272727     12.000000
  0.181818  0.000000  0.272727     12.000000
  0.272727  0.000000  0.272727     12.000000
  0.363636  0.000000  0.272727     12.000000
  0.454545 -0.000000  0.272727     12.000000
  0.090909  0.090909  0.272727     12.000000
  0.181818  0.090909  0.272727     24.000000
  0.272727  0.090909  0.272727     24.000000
  0.363636  0.090909  0.272727     24.000000
  0.454545  0.090909  0.272727     12.000000
  0.181818  0.181818  0.272727     12.000000
  0.272727  0.181818  0.272727     24.000000
  0.363636  0.181818  0.272727     24.000000
  0.272727  0.272727  0.272727     12.000000
  0.363636  0.272727  0.272727     12.000000
  0.000000  0.000000  0.363636      2.000000
  0.090909  0.000000  0.363636     12.000000
  0.181818  0.000000  0.363636     12.000000
  0.272727  0.000000  0.363636     12.000000
  0.363636  0.000000  0.363636     12.000000
  0.454545 -0.000000  0.363636     12.000000
  0.090909  0.090909  0.363636     12.000000
  0.181818  0.090909  0.363636     24.000000
  0.272727  0.090909  0.363636     24.000000
  0.363636  0.090909  0.363636     24.000000
  0.454545  0.090909  0.363636     12.000000
  0.181818  0.181818  0.363636     12.000000
  0.272727  0.181818  0.363636     24.000000
  0.363636  0.181818  0.363636     24.000000
  0.272727  0.272727  0.363636     12.000000
  0.363636  0.272727  0.363636     12.000000
  0.000000  0.000000  0.454545      2.000000
  0.090909  0.000000  0.454545     12.000000
  0.181818  0.000000  0.454545     12.000000
  0.272727  0.000000  0.454545     12.000000
  0.363636  0.000000  0.454545     12.000000
  0.454545 -0.000000  0.454545     12.000000
  0.090909  0.090909  0.454545     12.000000
  0.181818  0.090909  0.454545     24.000000
  0.272727  0.090909  0.454545     24.000000
  0.363636  0.090909  0.454545     24.000000
  0.454545  0.090909  0.454545     12.000000
  0.181818  0.181818  0.454545     12.000000
  0.272727  0.181818  0.454545     24.000000
  0.363636  0.181818  0.454545     24.000000
  0.272727  0.272727  0.454545     12.000000
  0.363636  0.272727  0.454545     12.000000
 
 Following cartesian coordinates:
            Coordinates               Weight
  0.000000  0.000000  0.000000      1.000000
  0.037516  0.021660  0.000000      6.000000
  0.075032  0.043320  0.000000      6.000000
  0.112548  0.064980  0.000000      6.000000
  0.150065  0.086640  0.000000      6.000000
  0.187581  0.108300  0.000000      6.000000
  0.037516  0.064980  0.000000      6.000000
  0.075032  0.086640  0.000000     12.000000
  0.112548  0.108300  0.000000     12.000000
  0.150065  0.129960  0.000000     12.000000
  0.187581  0.151620  0.000000      6.000000
  0.075032  0.129960  0.000000      6.000000
  0.112548  0.151620  0.000000     12.000000
  0.150065  0.173280  0.000000     12.000000
  0.112548  0.194940  0.000000      6.000000
  0.150065  0.216599  0.000000      6.000000
  0.000000  0.000000  0.021755      2.000000
  0.037516  0.021660  0.021755     12.000000
  0.075032  0.043320  0.021755     12.000000
  0.112548  0.064980  0.021755     12.000000
  0.150065  0.086640  0.021755     12.000000
  0.187581  0.108300  0.021755     12.000000
  0.037516  0.064980  0.021755     12.000000
  0.075032  0.086640  0.021755     24.000000
  0.112548  0.108300  0.021755     24.000000
  0.150065  0.129960  0.021755     24.000000
  0.187581  0.151620  0.021755     12.000000
  0.075032  0.129960  0.021755     12.000000
  0.112548  0.151620  0.021755     24.000000
  0.150065  0.173280  0.021755     24.000000
  0.112548  0.194940  0.021755     12.000000
  0.150065  0.216599  0.021755     12.000000
  0.000000  0.000000  0.043510      2.000000
  0.037516  0.021660  0.043510     12.000000
  0.075032  0.043320  0.043510     12.000000
  0.112548  0.064980  0.043510     12.000000
  0.150065  0.086640  0.043510     12.000000
  0.187581  0.108300  0.043510     12.000000
  0.037516  0.064980  0.043510     12.000000
  0.075032  0.086640  0.043510     24.000000
  0.112548  0.108300  0.043510     24.000000
  0.150065  0.129960  0.043510     24.000000
  0.187581  0.151620  0.043510     12.000000
  0.075032  0.129960  0.043510     12.000000
  0.112548  0.151620  0.043510     24.000000
  0.150065  0.173280  0.043510     24.000000
  0.112548  0.194940  0.043510     12.000000
  0.150065  0.216599  0.043510     12.000000
  0.000000  0.000000  0.065266      2.000000
  0.037516  0.021660  0.065266     12.000000
  0.075032  0.043320  0.065266     12.000000
  0.112548  0.064980  0.065266     12.000000
  0.150065  0.086640  0.065266     12.000000
  0.187581  0.108300  0.065266     12.000000
  0.037516  0.064980  0.065266     12.000000
  0.075032  0.086640  0.065266     24.000000
  0.112548  0.108300  0.065266     24.000000
  0.150065  0.129960  0.065266     24.000000
  0.187581  0.151620  0.065266     12.000000
  0.075032  0.129960  0.065266     12.000000
  0.112548  0.151620  0.065266     24.000000
  0.150065  0.173280  0.065266     24.000000
  0.112548  0.194940  0.065266     12.000000
  0.150065  0.216599  0.065266     12.000000
  0.000000  0.000000  0.087021      2.000000
  0.037516  0.021660  0.087021     12.000000
  0.075032  0.043320  0.087021     12.000000
  0.112548  0.064980  0.087021     12.000000
  0.150065  0.086640  0.087021     12.000000
  0.187581  0.108300  0.087021     12.000000
  0.037516  0.064980  0.087021     12.000000
  0.075032  0.086640  0.087021     24.000000
  0.112548  0.108300  0.087021     24.000000
  0.150065  0.129960  0.087021     24.000000
  0.187581  0.151620  0.087021     12.000000
  0.075032  0.129960  0.087021     12.000000
  0.112548  0.151620  0.087021     24.000000
  0.150065  0.173280  0.087021     24.000000
  0.112548  0.194940  0.087021     12.000000
  0.150065  0.216599  0.087021     12.000000
  0.000000  0.000000  0.108776      2.000000
  0.037516  0.021660  0.108776     12.000000
  0.075032  0.043320  0.108776     12.000000
  0.112548  0.064980  0.108776     12.000000
  0.150065  0.086640  0.108776     12.000000
  0.187581  0.108300  0.108776     12.000000
  0.037516  0.064980  0.108776     12.000000
  0.075032  0.086640  0.108776     24.000000
  0.112548  0.108300  0.108776     24.000000
  0.150065  0.129960  0.108776     24.000000
  0.187581  0.151620  0.108776     12.000000
  0.075032  0.129960  0.108776     12.000000
  0.112548  0.151620  0.108776     24.000000
  0.150065  0.173280  0.108776     24.000000
  0.112548  0.194940  0.108776     12.000000
  0.150065  0.216599  0.108776     12.000000
 


--------------------------------------------------------------------------------------------------------




 Dimension of arrays:
   k-points           NKPTS =     96   k-points in BZ     NKDIM =     96   number of bands    NBANDS=     40
   number of dos      NEDOS =    301   number of ions     NIONS =      2
   non local maximal  LDIM  =      6   non local SUM 2l+1 LMDIM =     18
   total plane-waves  NPLWV =   1800
   max r-space proj   IRMAX =      1   max aug-charges    IRDMAX=   3217
   dimension x,y,z NGX =    10 NGY =   10 NGZ =   18
   dimension x,y,z NGXF=    20 NGYF=   20 NGZF=   36
   support grid    NGXF=    20 NGYF=   20 NGZF=   36
   ions per type =               2
   NGX,Y,Z   is equivalent  to a cutoff of   6.86,  6.86,  7.16 a.u.
   NGXF,Y,Z  is equivalent  to a cutoff of  13.72, 13.72, 14.32 a.u.

 SYSTEM =  unknown system                          
 POSCAR =  Fe                                      

 Startparameter for this run:
   NWRITE =      2    write-flag & timer
   PREC   = normal    normal or accurate (medium, high low for compatibility)
   ISTART =      0    job   : 0-new  1-cont  2-samecut
   ICHARG =      1    charge: 1-file 2-atom 10-const
   ISPIN  =      1    spin polarized calculation?
   LNONCOLLINEAR =      F non collinear calculations
   LSORBIT =      F    spin-orbit coupling
   INIWAV =      1    electr: 0-lowe 1-rand  2-diag
   LASPH  =      F    aspherical Exc in radial PAW
   METAGGA=      F    non-selfconsistent MetaGGA calc.

 Electronic Relaxation 1
   ENCUT  =  280.0 eV  20.58 Ry    4.54 a.u.   3.31  3.31  5.70*2*pi/ulx,y,z
   ENINI  =  280.0     initial cutoff
   ENAUG  =  511.4 eV  augmentation charge cutoff
   NELM   =     60;   NELMIN=  2; NELMDL= -5     # of ELM steps 
   EDIFF  = 0.1E-05   stopping-criterion for ELM
   LREAL  =      F    real-space projection
   NLSPLINE    = F    spline interpolate recip. space projectors
   LCOMPAT=      F    compatible to vasp.4.4
   GGA_COMPAT  = T    GGA compatible to vasp.4.4-vasp.4.6
   LMAXPAW     = -100 max onsite density
   LMAXMIX     =    2 max onsite mixed and CHGCAR
   VOSKOWN=      0    Vosko Wilk Nusair interpolation
   ROPT   =    0.00000
 Ionic relaxation
   EDIFFG = 0.1E-04   stopping-criterion for IOM
   NSW    =      0    number of steps for IOM
   NBLOCK =      1;   KBLOCK =      1    inner block; outer block 
   IBRION =     -1    ionic relax: 0-MD 1-quasi-New 2-CG
   NFREE  =      0    steps in history (QN), initial steepest desc. (CG)
   ISIF   =      2    stress and relaxation
   IWAVPR =      0    prediction:  0-non 1-charg 2-wave 3-comb
   ISYM   =      2    0-nonsym 1-usesym 2-fastsym
   LCORR  =      T    Harris-Foulkes like correction to forces

   POTIM  = 0.5000    time-step for ionic-motion
   TEIN   =    0.0    initial temperature
   TEBEG  =    0.0;   TEEND  =   0.0 temperature during run
   SMASS  =  -3.00    Nose mass-parameter (am)
   estimated Nose-frequenzy (Omega)   =  0.10E-29 period in steps = 0.13E+47 mass=  -0.134E-27a.u.
   SCALEE = 1.0000    scale energy and forces
   NPACO  =    256;   APACO  = 16.0  distance and # of slots for P.C.
   PSTRESS=    0.0 pullay stress

  Mass of Ions in am
   POMASS =  55.85
  Ionic Valenz
   ZVAL   =   8.00
  Atomic Wigner-Seitz radii
   RWIGS  =  -1.00
  virtual crystal weights 
   VCA    =   1.00
   NELECT =      16.0000    total number of electrons
   NUPDOWN=      -1.0000    fix difference up-down

 DOS related values:
   EMIN   =  10.00;   EMAX   =-10.00  energy-range for DOS
   EFERMI =   0.00
   ISMEAR =     1;   SIGMA  =   0.20  broadening in eV -4-tet -1-fermi 0-gaus

 Electronic relaxation 2 (details)
   IALGO  =     38    algorithm
   LDIAG  =      T    sub-space diagonalisation (order eigenvalues)
   LSUBROT=      F    optimize rotation matrix (better conditioning)
   TURBO    =      0    0=normal 1=particle mesh
   IRESTART =      0    0=no restart 2=restart with 2 vectors
   NREBOOT  =      0    no. of reboots
   NMIN     =      0    reboot dimension
   EREF     =   0.00    reference energy to select bands
   IMIX   =      4    mixing-type and parameters
     AMIX     =   0.40;   BMIX     =  1.00
     AMIX_MAG =   1.60;   BMIX_MAG =  1.00
     AMIN     =   0.10
     WC   =   100.;   INIMIX=   1;  MIXPRE=   1;  MAXMIX= -45

 Intra band minimization:
   WEIMIN = 0.0000     energy-eigenvalue tresh-hold
   EBREAK =  0.62E-08  absolut break condition
   DEPER  =   0.30     relativ break condition  

   TIME   =   0.40     timestep for ELM

  volume/ion in A,a.u.               =      10.62        71.70
  Fermi-wavevector in a.u.,A,eV,Ry     =   1.489352  2.814467 30.180026  2.218169
  Thomas-Fermi vector in A             =   2.602271
 
 Write flags
   LWAVE        =      T    write WAVECAR
   LDOWNSAMPLE  =      F    k-point downsampling of WAVECAR
   LCHARG       =      T    write CHGCAR
   LVTOT        =      F    write LOCPOT, total local potential
   LVHAR        =      F    write LOCPOT, Hartree potential only
   LELF         =      F    write electronic localiz. function (ELF)
   LORBIT       =      0    0 simple, 1 ext, 2 COOP (PROOUT), +10 PAW based schemes


 Dipole corrections
   LMONO  =      F    monopole corrections only (constant potential shift)
   LDIPOL =      F    correct potential (dipole corrections)
   IDIPOL =      0    1-x, 2-y, 3-z, 4-all directions 
   EPSILON=  1.0000000 bulk dielectric constant

 Exchange correlation treatment:
   GGA     =    PE    GGA type
   LEXCH   =     8    internal setting for exchange type
   VOSKOWN=      0    Vosko Wilk Nusair interpolation
   LHFCALC =     F    Hartree Fock is set to
   LHFONE  =     F    Hartree Fock one center treatment
   AEXX    =    0.0000 exact exchange contribution

 Linear response parameters
   LEPSILON=     F    determine dielectric tensor
   LRPA    =     F    only Hartree local field effects (RPA)
   LNABLA  =     F    use nabla operator in PAW spheres
   LVEL    =     F    velocity operator in full k-point grid
   LINTERFAST=   F  fast interpolation
   KINTER  =     0    interpolate to denser k-point grid
   CSHIFT  =0.1000    complex shift for real part using Kramers Kronig
   OMEGAMAX=  -1.0    maximum frequency
   DEG_THRESHOLD= 0.2000000E-02 threshold for treating states as degnerate
   RTIME   =   -0.100 relaxation time in fs
  (WPLASMAI=    0.000 imaginary part of plasma frequency in eV, 0.658/RTIME)
   DFIELD  = 0.0000000 0.0000000 0.0000000 field for delta impulse in time
 
 Orbital magnetization related:
   ORBITALMAG=     F  switch on orbital magnetization
   LCHIMAG   =     F  perturbation theory with respect to B field
   DQ        =  0.001000  dq finite difference perturbation B field
   LLRAUG    =     F  two centre corrections for induced B field



--------------------------------------------------------------------------------------------------------


 Static calculation
 charge density and potential will be updated during run
 non-spin polarized calculation
 Variant of blocked Davidson
 Davidson routine will perform the subspace rotation
 perform sub-space diagonalisation
    after iterative eigenvector-optimisation
 modified Broyden-mixing scheme, WC =      100.0
 initial mixing is a Kerker type mixing with AMIX =  0.4000 and BMIX =      1.0000
 Hartree-type preconditioning will be used
 using additional bands           32
 reciprocal scheme for non local part
 use partial core corrections
 calculate Harris-corrections to forces 
   (improved forces if not selfconsistent)
 use gradient corrections 
 use of overlap-Matrix (Vanderbilt PP)
 Methfessel and Paxton  Order N= 1 SIGMA  =   0.20


--------------------------------------------------------------------------------------------------------


  energy-cutoff  :      280.00
  volume of cell :       21.25
      direct lattice vectors                 reciprocal lattice vectors
     2.423200000  0.000000000  0.000000000     0.412677451  0.238259438  0.000000000
    -1.211600000  2.098552758  0.000000000     0.000000000  0.476518875  0.000000000
     0.000000000  0.000000000  4.178720000     0.000000000  0.000000000  0.239307731

  length of vectors
     2.423200000  2.423200000  4.178720000     0.476518875  0.476518875  0.239307731


 
 k-points in units of 2pi/SCALE and weight: KPOINTS created by Atomic Simulation Env
   0.00000000  0.00000000  0.00000000       0.001
   0.03751613  0.02165995  0.00000000       0.005
   0.07503226  0.04331990  0.00000000       0.005
   0.11254840  0.06497985  0.00000000       0.005
   0.15006453  0.08663980  0.00000000       0.005
   0.18758066  0.10829974  0.00000000       0.005
   0.03751613  0.06497985  0.00000000       0.005
   0.07503226  0.08663980  0.00000000       0.009
   0.11254840  0.10829974  0.00000000       0.009
   0.15006453  0.12995969  0.00000000       0.009
   0.18758066  0.15161964  0.00000000       0.005
   0.07503226  0.12995969  0.00000000       0.005
   0.11254840  0.15161964  0.00000000       0.009
   0.15006453  0.17327959  0.00000000       0.009
   0.11254840  0.19493954  0.00000000       0.005
   0.15006453  0.21659949  0.00000000       0.005
   0.00000000  0.00000000  0.02175525       0.002
   0.03751613  0.02165995  0.02175525       0.009
   0.07503226  0.04331990  0.02175525       0.009
   0.11254840  0.06497985  0.02175525       0.009
   0.15006453  0.08663980  0.02175525       0.009
   0.18758066  0.10829974  0.02175525       0.009
   0.03751613  0.06497985  0.02175525       0.009
   0.07503226  0.08663980  0.02175525       0.018
   0.11254840  0.10829974  0.02175525       0.018
   0.15006453  0.12995969  0.02175525       0.018
   0.18758066  0.15161964  0.02175525       0.009
   0.07503226  0.12995969  0.02175525       0.009
   0.11254840  0.15161964  0.02175525       0.018
   0.15006453  0.17327959  0.02175525       0.018
   0.11254840  0.19493954  0.02175525       0.009
   0.15006453  0.21659949  0.02175525       0.009
   0.00000000  0.00000000  0.04351050       0.002
   0.03751613  0.02165995  0.04351050       0.009
   0.07503226  0.04331990  0.04351050       0.009
   0.11254840  0.06497985  0.04351050       0.009
   0.15006453  0.08663980  0.04351050       0.009
   0.18758066  0.10829974  0.04351050       0.009
   0.03751613  0.06497985  0.04351050       0.009
   0.07503226  0.08663980  0.04351050       0.018
   0.11254840  0.10829974  0.04351050       0.018
   0.15006453  0.12995969  0.04351050       0.018
   0.18758066  0.15161964  0.04351050       0.009
   0.07503226  0.12995969  0.04351050       0.009
   0.11254840  0.15161964  0.04351050       0.018
   0.15006453  0.17327959  0.04351050       0.018
   0.11254840  0.19493954  0.04351050       0.009
   0.15006453  0.21659949  0.04351050       0.009
   0.00000000  0.00000000  0.06526574       0.002
   0.03751613  0.02165995  0.06526574       0.009
   0.07503226  0.04331990  0.06526574       0.009
   0.11254840  0.06497985  0.06526574       0.009
   0.15006453  0.08663980  0.06526574       0.009
   0.18758066  0.10829974  0.06526574       0.009
   0.03751613  0.06497985  0.06526574       0.009
   0.07503226  0.08663980  0.06526574       0.018
   0.11254840  0.10829974  0.06526574       0.018
   0.15006453  0.12995969  0.06526574       0.018
   0.18758066  0.15161964  0.06526574       0.009
   0.07503226  0.12995969  0.06526574       0.009
   0.11254840  0.15161964  0.06526574       0.018
   0.15006453  0.17327959  0.06526574       0.018
   0.11254840  0.19493954  0.06526574       0.009
   0.15006453  0.21659949  0.06526574       0.009
   0.00000000  0.00000000  0.08702099       0.002
   0.03751613  0.02165995  0.08702099       0.009
   0.07503226  0.04331990  0.08702099       0.009
   0.11254840  0.06497985  0.08702099       0.009
   0.15006453  0.08663980  0.08702099       0.009
   0.18758066  0.10829974  0.08702099       0.009
   0.03751613  0.06497985  0.08702099       0.009
   0.07503226  0.08663980  0.08702099       0.018
   0.11254840  0.10829974  0.08702099       0.018
   0.15006453  0.12995969  0.08702099       0.018
   0.18758066  0.15161964  0.08702099       0.009
   0.07503226  0.12995969  0.08702099       0.009
   0.11254840  0.15161964  0.08702099       0.018
   0.15006453  0.17327959  0.08702099       0.018
   0.11254840  0.19493954  0.08702099       0.009
   0.15006453  0.21659949  0.08702099       0.009
   0.00000000  0.00000000  0.10877624       0.002
   0.03751613  0.02165995  0.10877624       0.009
   0.07503226  0.04331990  0.10877624       0.009
   0.11254840  0.06497985  0.10877624       0.009
   0.15006453  0.08663980  0.10877624       0.009
   0.18758066  0.10829974  0.10877624       0.009
   0.03751613  0.06497985  0.10877624       0.009
   0.07503226  0.08663980  0.10877624       0.018
   0.11254840  0.10829974  0.10877624       0.018
   0.15006453  0.12995969  0.10877624       0.018
   0.18758066  0.15161964  0.10877624       0.009
   0.07503226  0.12995969  0.10877624       0.009
   0.11254840  0.15161964  0.10877624       0.018
   0.15006453  0.17327959  0.10877624       0.018
   0.11254840  0.19493954  0.10877624       0.009
   0.15006453  0.21659949  0.10877624       0.009
 
 k-points in reciprocal lattice and weights: KPOINTS created by Atomic Simulation Env
   0.00000000  0.00000000  0.00000000       0.001
   0.09090909  0.00000000  0.00000000       0.005
   0.18181818  0.00000000  0.00000000       0.005
   0.27272727  0.00000000  0.00000000       0.005
   0.36363636  0.00000000  0.00000000       0.005
   0.45454545 -0.00000000  0.00000000       0.005
   0.09090909  0.09090909  0.00000000       0.005
   0.18181818  0.09090909  0.00000000       0.009
   0.27272727  0.09090909  0.00000000       0.009
   0.36363636  0.09090909  0.00000000       0.009
   0.45454545  0.09090909  0.00000000       0.005
   0.18181818  0.18181818  0.00000000       0.005
   0.27272727  0.18181818  0.00000000       0.009
   0.36363636  0.18181818  0.00000000       0.009
   0.27272727  0.27272727  0.00000000       0.005
   0.36363636  0.27272727  0.00000000       0.005
   0.00000000  0.00000000  0.09090909       0.002
   0.09090909  0.00000000  0.09090909       0.009
   0.18181818  0.00000000  0.09090909       0.009
   0.27272727  0.00000000  0.09090909       0.009
   0.36363636  0.00000000  0.09090909       0.009
   0.45454545 -0.00000000  0.09090909       0.009
   0.09090909  0.09090909  0.09090909       0.009
   0.18181818  0.09090909  0.09090909       0.018
   0.27272727  0.09090909  0.09090909       0.018
   0.36363636  0.09090909  0.09090909       0.018
   0.45454545  0.09090909  0.09090909       0.009
   0.18181818  0.18181818  0.09090909       0.009
   0.27272727  0.18181818  0.09090909       0.018
   0.36363636  0.18181818  0.09090909       0.018
   0.27272727  0.27272727  0.09090909       0.009
   0.36363636  0.27272727  0.09090909       0.009
   0.00000000  0.00000000  0.18181818       0.002
   0.09090909  0.00000000  0.18181818       0.009
   0.18181818  0.00000000  0.18181818       0.009
   0.27272727  0.00000000  0.18181818       0.009
   0.36363636  0.00000000  0.18181818       0.009
   0.45454545 -0.00000000  0.18181818       0.009
   0.09090909  0.09090909  0.18181818       0.009
   0.18181818  0.09090909  0.18181818       0.018
   0.27272727  0.09090909  0.18181818       0.018
   0.36363636  0.09090909  0.18181818       0.018
   0.45454545  0.09090909  0.18181818       0.009
   0.18181818  0.18181818  0.18181818       0.009
   0.27272727  0.18181818  0.18181818       0.018
   0.36363636  0.18181818  0.18181818       0.018
   0.27272727  0.27272727  0.18181818       0.009
   0.36363636  0.27272727  0.18181818       0.009
   0.00000000  0.00000000  0.27272727       0.002
   0.09090909  0.00000000  0.27272727       0.009
   0.18181818  0.00000000  0.27272727       0.009
   0.27272727  0.00000000  0.27272727       0.009
   0.36363636  0.00000000  0.27272727       0.009
   0.45454545 -0.00000000  0.27272727       0.009
   0.09090909  0.09090909  0.27272727       0.009
   0.18181818  0.09090909  0.27272727       0.018
   0.27272727  0.09090909  0.27272727       0.018
   0.36363636  0.09090909  0.27272727       0.018
   0.45454545  0.09090909  0.27272727       0.009
   0.18181818  0.18181818  0.27272727       0.009
   0.27272727  0.18181818  0.27272727       0.018
   0.36363636  0.18181818  0.27272727       0.018
   0.27272727  0.27272727  0.27272727       0.009
   0.36363636  0.27272727  0.27272727       0.009
   0.00000000  0.00000000  0.36363636       0.002
   0.09090909  0.00000000  0.36363636       0.009
   0.18181818  0.00000000  0.36363636       0.009
   0.27272727  0.00000000  0.36363636       0.009
   0.36363636  0.00000000  0.36363636       0.009
   0.45454545 -0.00000000  0.36363636       0.009
   0.09090909  0.09090909  0.36363636       0.009
   0.18181818  0.09090909  0.36363636       0.018
   0.27272727  0.09090909  0.36363636       0.018
   0.36363636  0.09090909  0.36363636       0.018
   0.45454545  0.09090909  0.36363636       0.009
   0.18181818  0.18181818  0.36363636       0.009
   0.27272727  0.18181818  0.36363636       0.018
   0.36363636  0.18181818  0.36363636       0.018
   0.27272727  0.27272727  0.36363636       0.009
   0.36363636  0.27272727  0.36363636       0.009
   0.00000000  0.00000000  0.45454545       0.002
   0.09090909  0.00000000  0.45454545       0.009
   0.18181818  0.00000000  0.45454545       0.009
   0.27272727  0.00000000  0.45454545       0.009
   0.36363636  0.00000000  0.45454545       0.009
   0.45454545 -0.00000000  0.45454545       0.009
   0.09090909  0.09090909  0.45454545       0.009
   0.18181818  0.09090909  0.45454545       0.018
   0.27272727  0.09090909  0.45454545       0.018
   0.36363636  0.09090909  0.45454545       0.018
   0.45454545  0.09090909  0.45454545       0.009
   0.18181818  0.18181818  0.45454545       0.009
   0.27272727  0.18181818  0.45454545       0.018
   0.36363636  0.18181818  0.45454545       0.018
   0.27272727  0.27272727  0.45454545       0.009
   0.36363636  0.27272727  0.45454545       0.009
 
 position of ions in fractional coordinates (direct lattice) 
   0.00000000  0.00000000  0.00000000
   0.33333333  0.66666667  0.50000000
 
 position of ions in cartesian coordinates  (Angst):
   0.00000000  0.00000000  0.00000000
   0.00000000  1.39903517  2.08936000
 


--------------------------------------------------------------------------------------------------------


 k-point   1 :   0.0000 0.0000 0.0000  plane waves:     245
 k-point   2 :   0.0909 0.0000 0.0000  plane waves:     231
 k-point   3 :   0.1818 0.0000 0.0000  plane waves:     230
 k-point   4 :   0.2727 0.0000 0.0000  plane waves:     224
 k-point   5 :   0.3636 0.0000 0.0000  plane waves:     226
 k-point   6 :   0.4545-0.0000 0.0000  plane waves:     230
 k-point   7 :   0.0909 0.0909 0.0000  plane waves:     229
 k-point   8 :   0.1818 0.0909 0.0000  plane waves:     227
 k-point   9 :   0.2727 0.0909 0.0000  plane waves:     226
 k-point  10 :   0.3636 0.0909 0.0000  plane waves:     227
 k-point  11 :   0.4545 0.0909 0.0000  plane waves:     226
 k-point  12 :   0.1818 0.1818 0.0000  plane waves:     227
 k-point  13 :   0.2727 0.1818 0.0000  plane waves:     227
 k-point  14 :   0.3636 0.1818 0.0000  plane waves:     220
 k-point  15 :   0.2727 0.2727 0.0000  plane waves:     223
 k-point  16 :   0.3636 0.2727 0.0000  plane waves:     218
 k-point  17 :   0.0000 0.0000 0.0909  plane waves:     239
 k-point  18 :   0.0909 0.0000 0.0909  plane waves:     231
 k-point  19 :   0.1818 0.0000 0.0909  plane waves:     229
 k-point  20 :   0.2727 0.0000 0.0909  plane waves:     226
 k-point  21 :   0.3636 0.0000 0.0909  plane waves:     229
 k-point  22 :   0.4545-0.0000 0.0909  plane waves:     230
 k-point  23 :   0.0909 0.0909 0.0909  plane waves:     227
 k-point  24 :   0.1818 0.0909 0.0909  plane waves:     230
 k-point  25 :   0.2727 0.0909 0.0909  plane waves:     229
 k-point  26 :   0.3636 0.0909 0.0909  plane waves:     224
 k-point  27 :   0.4545 0.0909 0.0909  plane waves:     223
 k-point  28 :   0.1818 0.1818 0.0909  plane waves:     229
 k-point  29 :   0.2727 0.1818 0.0909  plane waves:     227
 k-point  30 :   0.3636 0.1818 0.0909  plane waves:     225
 k-point  31 :   0.2727 0.2727 0.0909  plane waves:     223
 k-point  32 :   0.3636 0.2727 0.0909  plane waves:     216
 k-point  33 :   0.0000 0.0000 0.1818  plane waves:     227
 k-point  34 :   0.0909 0.0000 0.1818  plane waves:     230
 k-point  35 :   0.1818 0.0000 0.1818  plane waves:     233
 k-point  36 :   0.2727 0.0000 0.1818  plane waves:     225
 k-point  37 :   0.3636 0.0000 0.1818  plane waves:     225
 k-point  38 :   0.4545-0.0000 0.1818  plane waves:     228
 k-point  39 :   0.0909 0.0909 0.1818  plane waves:     229
 k-point  40 :   0.1818 0.0909 0.1818  plane waves:     227
 k-point  41 :   0.2727 0.0909 0.1818  plane waves:     228
 k-point  42 :   0.3636 0.0909 0.1818  plane waves:     224
 k-point  43 :   0.4545 0.0909 0.1818  plane waves:     225
 k-point  44 :   0.1818 0.1818 0.1818  plane waves:     225
 k-point  45 :   0.2727 0.1818 0.1818  plane waves:     227
 k-point  46 :   0.3636 0.1818 0.1818  plane waves:     223
 k-point  47 :   0.2727 0.2727 0.1818  plane waves:     222
 k-point  48 :   0.3636 0.2727 0.1818  plane waves:     226
 k-point  49 :   0.0000 0.0000 0.2727  plane waves:     227
 k-point  50 :   0.0909 0.0000 0.2727  plane waves:     228
 k-point  51 :   0.1818 0.0000 0.2727  plane waves:     232
 k-point  52 :   0.2727 0.0000 0.2727  plane waves:     226
 k-point  53 :   0.3636 0.0000 0.2727  plane waves:     225
 k-point  54 :   0.4545-0.0000 0.2727  plane waves:     229
 k-point  55 :   0.0909 0.0909 0.2727  plane waves:     230
 k-point  56 :   0.1818 0.0909 0.2727  plane waves:     227
 k-point  57 :   0.2727 0.0909 0.2727  plane waves:     224
 k-point  58 :   0.3636 0.0909 0.2727  plane waves:     225
 k-point  59 :   0.4545 0.0909 0.2727  plane waves:     227
 k-point  60 :   0.1818 0.1818 0.2727  plane waves:     225
 k-point  61 :   0.2727 0.1818 0.2727  plane waves:     223
 k-point  62 :   0.3636 0.1818 0.2727  plane waves:     224
 k-point  63 :   0.2727 0.2727 0.2727  plane waves:     222
 k-point  64 :   0.3636 0.2727 0.2727  plane waves:     227
 k-point  65 :   0.0000 0.0000 0.3636  plane waves:     222
 k-point  66 :   0.0909 0.0000 0.3636  plane waves:     231
 k-point  67 :   0.1818 0.0000 0.3636  plane waves:     228
 k-point  68 :   0.2727 0.0000 0.3636  plane waves:     221
 k-point  69 :   0.3636 0.0000 0.3636  plane waves:     229
 k-point  70 :   0.4545-0.0000 0.3636  plane waves:     227
 k-point  71 :   0.0909 0.0909 0.3636  plane waves:     228
 k-point  72 :   0.1818 0.0909 0.3636  plane waves:     228
 k-point  73 :   0.2727 0.0909 0.3636  plane waves:     223
 k-point  74 :   0.3636 0.0909 0.3636  plane waves:     227
 k-point  75 :   0.4545 0.0909 0.3636  plane waves:     224
 k-point  76 :   0.1818 0.1818 0.3636  plane waves:     224
 k-point  77 :   0.2727 0.1818 0.3636  plane waves:     225
 k-point  78 :   0.3636 0.1818 0.3636  plane waves:     223
 k-point  79 :   0.2727 0.2727 0.3636  plane waves:     229
 k-point  80 :   0.3636 0.2727 0.3636  plane waves:     227
 k-point  81 :   0.0000 0.0000 0.4545  plane waves:     222
 k-point  82 :   0.0909 0.0000 0.4545  plane waves:     228
 k-point  83 :   0.1818 0.0000 0.4545  plane waves:     225
 k-point  84 :   0.2727 0.0000 0.4545  plane waves:     220
 k-point  85 :   0.3636 0.0000 0.4545  plane waves:     224
 k-point  86 :   0.4545-0.0000 0.4545  plane waves:     224
 k-point  87 :   0.0909 0.0909 0.4545  plane waves:     226
 k-point  88 :   0.1818 0.0909 0.4545  plane waves:     225
 k-point  89 :   0.2727 0.0909 0.4545  plane waves:     224
 k-point  90 :   0.3636 0.0909 0.4545  plane waves:     226
 k-point  91 :   0.4545 0.0909 0.4545  plane waves:     231
 k-point  92 :   0.1818 0.1818 0.4545  plane waves:     224
 k-point  93 :   0.2727 0.1818 0.4545  plane waves:     226
 k-point  94 :   0.3636 0.1818 0.4545  plane waves:     229
 k-point  95 :   0.2727 0.2727 0.4545  plane waves:     230
 k-point  96 :   0.3636 0.2727 0.4545  plane waves:     228

 maximum number of plane-waves:       245
 maximum index in each direction: 
   IXMAX=    3   IYMAX=    3   IZMAX=    5
   IXMIN=   -3   IYMIN=   -3   IZMIN=   -6


 total amount of memory used by VASP MPI-rank0    51501. kBytes
=======================================================================

   base      :      30000. kBytes
   nonl-proj :       3394. kBytes
   grid      :        812. kBytes
   one-center:         31. kBytes
   wavefun   :      17264. kBytes
 
     INWAV:  cpu time    0.0000: real time    0.0000
 Broyden mixing: mesh for mixing (old mesh)
   NGX =  7   NGY =  7   NGZ = 11
  (NGX  = 20   NGY  = 20   NGZ  = 36)
  gives a total of    539 points

 initial charge density was supplied:
 charge density of overlapping atoms calculated
 number of electron      16.0000000 magnetization 
 keeping initial charge density in first step


--------------------------------------------------------------------------------------------------------


 Maximum index for augmentation-charges         2952 (set IRDMAX)


--------------------------------------------------------------------------------------------------------


 First call to EWALD:  gamma=   0.640
 Maximum number of real-space cells 3x 3x 2
 Maximum number of reciprocal cells 2x 2x 4

    FEWALD:  cpu time    0.0009: real time    0.0009


--------------------------------------- Iteration      1(   1)  ---------------------------------------


    POTLOK:  cpu time    0.0035: real time    0.0035
    SETDIJ:  cpu time    0.0021: real time    0.0021
     EDDAV:  cpu time    0.8197: real time    0.8376
       DOS:  cpu time    0.0056: real time    0.0056
    --------------------------------------------
      LOOP:  cpu time    0.8309: real time    0.8488

 eigenvalue-minimisations  :  9304
 total energy-change (2. order) : 0.6049767E+02  (-0.2735661E+03)
 number of electron      16.0000000 magnetization 
 augmentation part       16.0000000 magnetization 

 Free energy of the ion-electron system (eV)
  ---------------------------------------------------
  alpha Z        PSCENC =       130.09846977
  Ewald energy   TEWEN  =     -1210.23267037
  -Hartree energ DENC   =      -213.46254581
  -exchange      EXHF   =         0.00000000
  -V(xc)+E(xc)   XCENC  =         8.22815960
  PAW double counting   =      1109.69170683    -1125.09647265
  entropy T*S    EENTRO =         0.00123295
  eigenvalues    EBANDS =       172.69488452
  atomic energy  EATOM  =      1188.57490811
  Solvation  Ediel_sol  =         0.00000000
  ---------------------------------------------------
  free energy    TOTEN  =        60.49767295 eV

  energy without entropy =       60.49644000  energy(sigma->0) =       60.49726197


--------------------------------------------------------------------------------------------------------




--------------------------------------- Iteration      1(   2)  ---------------------------------------


     EDDAV:  cpu time    0.7262: real time    0.7281
       DOS:  cpu time    0.0063: real time    0.0063
    --------------------------------------------
      LOOP:  cpu time    0.7325: real time    0.7345

 eigenvalue-minimisations  :  7968
 total energy-change (2. order) :-0.7521556E+02  (-0.6358339E+02)
 number of electron      16.0000000 magnetization 
 augmentation part       16.0000000 magnetization 

 Free energy of the ion-electron system (eV)
  ---------------------------------------------------
  alpha Z        PSCENC =       130.09846977
  Ewald energy   TEWEN  =     -1210.23267037
  -Hartree energ DENC   =      -213.46254581
  -exchange      EXHF   =         0.00000000
  -V(xc)+E(xc)   XCENC  =         8.22815960
  PAW double counting   =      1109.69170683    -1125.09647265
  entropy T*S    EENTRO =         0.00146215
  eigenvalues    EBANDS =        97.47909474
  atomic energy  EATOM  =      1188.57490811
  Solvation  Ediel_sol  =         0.00000000
  ---------------------------------------------------
  free energy    TOTEN  =       -14.71788764 eV

  energy without entropy =      -14.71934979  energy(sigma->0) =      -14.71837502


--------------------------------------------------------------------------------------------------------




--------------------------------------- Iteration      1(   3)  ---------------------------------------


     EDDAV:  cpu time    0.7917: real time    0.7917
       DOS:  cpu time    0.0066: real time    0.0066
    --------------------------------------------
      LOOP:  cpu time    0.7983: real time    0.7983

 eigenvalue-minimisations  :  9408
 total energy-change (2. order) :-0.4619467E+01  (-0.4360231E+01)
 number of electron      16.0000000 magnetization 
 augmentation part       16.0000000 magnetization 

 Free energy of the ion-electron system (eV)
  ---------------------------------------------------
  alpha Z        PSCENC =       130.09846977
  Ewald energy   TEWEN  =     -1210.23267037
  -Hartree energ DENC   =      -213.46254581
  -exchange      EXHF   =         0.00000000
  -V(xc)+E(xc)   XCENC  =         8.22815960
  PAW double counting   =      1109.69170683    -1125.09647265
  entropy T*S    EENTRO =        -0.00004658
  eigenvalues    EBANDS =        92.86113640
  atomic energy  EATOM  =      1188.57490811
  Solvation  Ediel_sol  =         0.00000000
  ---------------------------------------------------
  free energy    TOTEN  =       -19.33735471 eV

  energy without entropy =      -19.33730812  energy(sigma->0) =      -19.33733918


--------------------------------------------------------------------------------------------------------




--------------------------------------- Iteration      1(   4)  ---------------------------------------


     EDDAV:  cpu time    0.7635: real time    0.7635
       DOS:  cpu time    0.0059: real time    0.0059
    --------------------------------------------
      LOOP:  cpu time    0.7694: real time    0.7694

 eigenvalue-minimisations  :  9160
 total energy-change (2. order) :-0.2374627E-01  (-0.2372764E-01)
 number of electron      16.0000000 magnetization 
 augmentation part       16.0000000 magnetization 

 Free energy of the ion-electron system (eV)
  ---------------------------------------------------
  alpha Z        PSCENC =       130.09846977
  Ewald energy   TEWEN  =     -1210.23267037
  -Hartree energ DENC   =      -213.46254581
  -exchange      EXHF   =         0.00000000
  -V(xc)+E(xc)   XCENC  =         8.22815960
  PAW double counting   =      1109.69170683    -1125.09647265
  entropy T*S    EENTRO =        -0.00010282
  eigenvalues    EBANDS =        92.83744636
  atomic energy  EATOM  =      1188.57490811
  Solvation  Ediel_sol  =         0.00000000
  ---------------------------------------------------
  free energy    TOTEN  =       -19.36110098 eV

  energy without entropy =      -19.36099816  energy(sigma->0) =      -19.36106671


--------------------------------------------------------------------------------------------------------




--------------------------------------- Iteration      1(   5)  ---------------------------------------


     EDDAV:  cpu time    0.7638: real time    0.7639
       DOS:  cpu time    0.0066: real time    0.0066
    CHARGE:  cpu time    0.0198: real time    0.0198
    MIXING:  cpu time    0.0002: real time    0.0002
    --------------------------------------------
      LOOP:  cpu time    0.7904: real time    0.7904

 eigenvalue-minimisations  :  9184
 total energy-change (2. order) :-0.3546938E-04  (-0.3546844E-04)
 number of electron      15.9999835 magnetization 
 augmentation part        7.0406155 magnetization 

 Broyden mixing:
  rms(total) = 0.16356E+01    rms(broyden)= 0.16356E+01
  rms(prec ) = 0.29189E+01
  weight for this iteration     100.00

 Free energy of the ion-electron system (eV)
  ---------------------------------------------------
  alpha Z        PSCENC =       130.09846977
  Ewald energy   TEWEN  =     -1210.23267037
  -Hartree energ DENC   =      -213.46254581
  -exchange      EXHF   =         0.00000000
  -V(xc)+E(xc)   XCENC  =         8.22815960
  PAW double counting   =      1109.69170683    -1125.09647265
  entropy T*S    EENTRO =        -0.00010289
  eigenvalues    EBANDS =        92.83741097
  atomic energy  EATOM  =      1188.57490811
  Solvation  Ediel_sol  =         0.00000000
  ---------------------------------------------------
  free energy    TOTEN  =       -19.36113645 eV

  energy without entropy =      -19.36103356  energy(sigma->0) =      -19.36110215


--------------------------------------------------------------------------------------------------------




--------------------------------------- Iteration      1(   6)  ---------------------------------------


    POTLOK:  cpu time    0.0033: real time    0.0033
    SETDIJ:  cpu time    0.0021: real time    0.0021
     EDDAV:  cpu time    0.9055: real time    0.9055
       DOS:  cpu time    0.0065: real time    0.0065
    CHARGE:  cpu time    0.0193: real time    0.0193
    MIXING:  cpu time    0.0002: real time    0.0002
    --------------------------------------------
      LOOP:  cpu time    0.9369: real time    0.9369

 eigenvalue-minimisations  : 11120
 total energy-change (2. order) : 0.2923548E+01  (-0.1972419E+00)
 number of electron      15.9999792 magnetization 
 augmentation part        8.5492319 magnetization 

 Broyden mixing:
  rms(total) = 0.30781E+00    rms(broyden)= 0.30771E+00
  rms(prec ) = 0.54362E+00
  weight for this iteration     100.00

 eigenvalues of (default mixing * dielectric matrix)
  average eigenvalue GAMMA=   0.8868
  0.8868

 Free energy of the ion-electron system (eV)
  ---------------------------------------------------
  alpha Z        PSCENC =       130.09846977
  Ewald energy   TEWEN  =     -1210.23267037
  -Hartree energ DENC   =      -177.62304118
  -exchange      EXHF   =         0.00000000
  -V(xc)+E(xc)   XCENC  =         6.48115856
  PAW double counting   =      1231.04605589    -1241.58876748
  entropy T*S    EENTRO =         0.00237903
  eigenvalues    EBANDS =        56.80391932
  atomic energy  EATOM  =      1188.57490811
  Solvation  Ediel_sol  =         0.00000000
  ---------------------------------------------------
  free energy    TOTEN  =       -16.43758835 eV

  energy without entropy =      -16.43996738  energy(sigma->0) =      -16.43838136


--------------------------------------------------------------------------------------------------------




--------------------------------------- Iteration      1(   7)  ---------------------------------------


    POTLOK:  cpu time    0.0033: real time    0.0033
    SETDIJ:  cpu time    0.0021: real time    0.0021
     EDDAV:  cpu time    0.8367: real time    0.8368
       DOS:  cpu time    0.0066: real time    0.0066
    CHARGE:  cpu time    0.0197: real time    0.0197
    MIXING:  cpu time    0.0002: real time    0.0002
    --------------------------------------------
      LOOP:  cpu time    0.8686: real time    0.8686

 eigenvalue-minimisations  : 10096
 total energy-change (2. order) : 0.2498170E+00  (-0.1607920E-01)
 number of electron      15.9999802 magnetization 
 augmentation part        8.1835005 magnetization 

 Broyden mixing:
  rms(total) = 0.98947E-01    rms(broyden)= 0.98944E-01
  rms(prec ) = 0.20473E+00
  weight for this iteration     100.00

 eigenvalues of (default mixing * dielectric matrix)
  average eigenvalue GAMMA=   0.9291
  1.1398  0.7183

 Free energy of the ion-electron system (eV)
  ---------------------------------------------------
  alpha Z        PSCENC =       130.09846977
  Ewald energy   TEWEN  =     -1210.23267037
  -Hartree energ DENC   =      -183.04804774
  -exchange      EXHF   =         0.00000000
  -V(xc)+E(xc)   XCENC  =         6.77789489
  PAW double counting   =      1301.69528959    -1315.89982980
  entropy T*S    EENTRO =         0.00233193
  eigenvalues    EBANDS =        65.84388225
  atomic energy  EATOM  =      1188.57490811
  Solvation  Ediel_sol  =         0.00000000
  ---------------------------------------------------
  free energy    TOTEN  =       -16.18777137 eV

  energy without entropy =      -16.19010331  energy(sigma->0) =      -16.18854868


--------------------------------------------------------------------------------------------------------




--------------------------------------- Iteration      1(   8)  ---------------------------------------


    POTLOK:  cpu time    0.0034: real time    0.0034
    SETDIJ:  cpu time    0.0021: real time    0.0021
     EDDAV:  cpu time    0.8294: real time    0.8294
       DOS:  cpu time    0.0067: real time    0.0067
    CHARGE:  cpu time    0.0195: real time    0.0195
    MIXING:  cpu time    0.0002: real time    0.0002
    --------------------------------------------
      LOOP:  cpu time    0.8613: real time    0.8613

 eigenvalue-minimisations  : 10096
 total energy-change (2. order) : 0.2483926E-01  (-0.4176993E-03)
 number of electron      15.9999801 magnetization 
 augmentation part        8.2154914 magnetization 

 Broyden mixing:
  rms(total) = 0.47051E-01    rms(broyden)= 0.47051E-01
  rms(prec ) = 0.96351E-01
  weight for this iteration     100.00

 eigenvalues of (default mixing * dielectric matrix)
  average eigenvalue GAMMA=   1.4357
  0.7645  1.0420  2.5006

 Free energy of the ion-electron system (eV)
  ---------------------------------------------------
  alpha Z        PSCENC =       130.09846977
  Ewald energy   TEWEN  =     -1210.23267037
  -Hartree energ DENC   =      -181.03880522
  -exchange      EXHF   =         0.00000000
  -V(xc)+E(xc)   XCENC  =         6.69852551
  PAW double counting   =      1352.46770694    -1367.86666736
  entropy T*S    EENTRO =         0.00240665
  eigenvalues    EBANDS =        65.13319386
  atomic energy  EATOM  =      1188.57490811
  Solvation  Ediel_sol  =         0.00000000
  ---------------------------------------------------
  free energy    TOTEN  =       -16.16293211 eV

  energy without entropy =      -16.16533877  energy(sigma->0) =      -16.16373433


--------------------------------------------------------------------------------------------------------




--------------------------------------- Iteration      1(   9)  ---------------------------------------


    POTLOK:  cpu time    0.0034: real time    0.0034
    SETDIJ:  cpu time    0.0021: real time    0.0021
     EDDAV:  cpu time    0.9292: real time    0.9292
       DOS:  cpu time    0.0070: real time    0.0070
    CHARGE:  cpu time    0.0207: real time    0.0207
    MIXING:  cpu time    0.0002: real time    0.0002
    --------------------------------------------
      LOOP:  cpu time    0.9625: real time    0.9625

 eigenvalue-minimisations  : 11368
 total energy-change (2. order) : 0.1126647E-01  (-0.9168577E-04)
 number of electron      15.9999800 magnetization 
 augmentation part        8.2333054 magnetization 

 Broyden mixing:
  rms(total) = 0.62211E-02    rms(broyden)= 0.62189E-02
  rms(prec ) = 0.65637E-02
  weight for this iteration     100.00

 eigenvalues of (default mixing * dielectric matrix)
  average eigenvalue GAMMA=   1.5122
  2.5449  0.7633  1.0034  1.7373

 Free energy of the ion-electron system (eV)
  ---------------------------------------------------
  alpha Z        PSCENC =       130.09846977
  Ewald energy   TEWEN  =     -1210.23267037
  -Hartree energ DENC   =      -178.85353726
  -exchange      EXHF   =         0.00000000
  -V(xc)+E(xc)   XCENC  =         6.61995222
  PAW double counting   =      1426.24257034    -1443.39618328
  entropy T*S    EENTRO =         0.00240866
  eigenvalues    EBANDS =        64.79241618
  atomic energy  EATOM  =      1188.57490811
  Solvation  Ediel_sol  =         0.00000000
  ---------------------------------------------------
  free energy    TOTEN  =       -16.15166564 eV

  energy without entropy =      -16.15407430  energy(sigma->0) =      -16.15246852


--------------------------------------------------------------------------------------------------------




--------------------------------------- Iteration      1(  10)  ---------------------------------------


    POTLOK:  cpu time    0.0033: real time    0.0033
    SETDIJ:  cpu time    0.0021: real time    0.0021
     EDDAV:  cpu time    0.7533: real time    0.7533
       DOS:  cpu time    0.0068: real time    0.0068
    CHARGE:  cpu time    0.0196: real time    0.0196
    MIXING:  cpu time    0.0003: real time    0.0003
    --------------------------------------------
      LOOP:  cpu time    0.7854: real time    0.7854

 eigenvalue-minimisations  :  8992
 total energy-change (2. order) :-0.2648165E-04  (-0.3821026E-05)
 number of electron      15.9999800 magnetization 
 augmentation part        8.2336883 magnetization 

 Broyden mixing:
  rms(total) = 0.26157E-02    rms(broyden)= 0.26148E-02
  rms(prec ) = 0.31405E-02
  weight for this iteration     100.00

 eigenvalues of (default mixing * dielectric matrix)
  average eigenvalue GAMMA=   1.6101
  2.5518  2.5518  0.7634  1.0109  1.1727

 Free energy of the ion-electron system (eV)
  ---------------------------------------------------
  alpha Z        PSCENC =       130.09846977
  Ewald energy   TEWEN  =     -1210.23267037
  -Hartree energ DENC   =      -178.86378218
  -exchange      EXHF   =         0.00000000
  -V(xc)+E(xc)   XCENC  =         6.62144460
  PAW double counting   =      1428.35176496    -1445.48239670
  entropy T*S    EENTRO =         0.00240304
  eigenvalues    EBANDS =        64.77816666
  atomic energy  EATOM  =      1188.57490811
  Solvation  Ediel_sol  =         0.00000000
  ---------------------------------------------------
  free energy    TOTEN  =       -16.15169212 eV

  energy without entropy =      -16.15409516  energy(sigma->0) =      -16.15249313


--------------------------------------------------------------------------------------------------------




--------------------------------------- Iteration      1(  11)  ---------------------------------------


    POTLOK:  cpu time    0.0034: real time    0.0034
    SETDIJ:  cpu time    0.0021: real time    0.0021
     EDDAV:  cpu time    0.7559: real time    0.7560
       DOS:  cpu time    0.0067: real time    0.0067
    CHARGE:  cpu time    0.0206: real time    0.0206
    MIXING:  cpu time    0.0002: real time    0.0002
    --------------------------------------------
      LOOP:  cpu time    0.7889: real time    0.7889

 eigenvalue-minimisations  :  8856
 total energy-change (2. order) : 0.5316094E-05  (-0.3521656E-07)
 number of electron      15.9999800 magnetization 
 augmentation part        8.2334347 magnetization 

 Broyden mixing:
  rms(total) = 0.15422E-03    rms(broyden)= 0.15379E-03
  rms(prec ) = 0.18690E-03
  weight for this iteration     100.00

 eigenvalues of (default mixing * dielectric matrix)
  average eigenvalue GAMMA=   1.5385
  2.5689  2.5689  0.7632  1.0045  1.0045  1.3212

 Free energy of the ion-electron system (eV)
  ---------------------------------------------------
  alpha Z        PSCENC =       130.09846977
  Ewald energy   TEWEN  =     -1210.23267037
  -Hartree energ DENC   =      -178.91760610
  -exchange      EXHF   =         0.00000000
  -V(xc)+E(xc)   XCENC  =         6.62412237
  PAW double counting   =      1428.35172146    -1445.43212899
  entropy T*S    EENTRO =         0.00240291
  eigenvalues    EBANDS =        64.77909404
  atomic energy  EATOM  =      1188.57490811
  Solvation  Ediel_sol  =         0.00000000
  ---------------------------------------------------
  free energy    TOTEN  =       -16.15168680 eV

  energy without entropy =      -16.15408971  energy(sigma->0) =      -16.15248777


--------------------------------------------------------------------------------------------------------




--------------------------------------- Iteration      1(  12)  ---------------------------------------


    POTLOK:  cpu time    0.0034: real time    0.0034
    SETDIJ:  cpu time    0.0021: real time    0.0021
     EDDAV:  cpu time    0.5720: real time    0.5720
       DOS:  cpu time    0.0068: real time    0.0068
    --------------------------------------------
      LOOP:  cpu time    0.5842: real time    0.5843

 eigenvalue-minimisations  :  5856
 total energy-change (2. order) : 0.2181973E-06  (-0.4758105E-08)
 number of electron      15.9999800 magnetization 
 augmentation part        8.2334347 magnetization 

 Free energy of the ion-electron system (eV)
  ---------------------------------------------------
  alpha Z        PSCENC =       130.09846977
  Ewald energy   TEWEN  =     -1210.23267037
  -Hartree energ DENC   =      -178.91912060
  -exchange      EXHF   =         0.00000000
  -V(xc)+E(xc)   XCENC  =         6.62421920
  PAW double counting   =      1428.47074768    -1445.54905003
  entropy T*S    EENTRO =         0.00240326
  eigenvalues    EBANDS =        64.77840640
  atomic energy  EATOM  =      1188.57490811
  Solvation  Ediel_sol  =         0.00000000
  ---------------------------------------------------
  free energy    TOTEN  =       -16.15168659 eV

  energy without entropy =      -16.15408984  energy(sigma->0) =      -16.15248767


--------------------------------------------------------------------------------------------------------




 average (electrostatic) potential at core
  the test charge radii are     1.0103
  (the norm of the test charge is              1.0000)
       1 -43.0631       2 -43.0630
 
 
 
 E-fermi :   6.4141     XC(G=0): -13.5493     alpha+bet :-14.5889

 Fermi energy:         6.4140577585

 k-point     1 :       0.0000    0.0000    0.0000
  band No.  band energies     occupation 
      1      -2.2295      2.00000
      2       1.6764      2.00000
      3       4.4833      2.00000
      4       4.9410      2.00000
      5       4.9412      2.00000
      6       5.2540      2.00000
      7       5.2542      2.00000
      8       5.9829      2.00937
      9       6.0311      2.02086
     10       6.0312      2.02087
     11       7.1085     -0.00001
     12       7.1086     -0.00001
     13      13.5935      0.00000
     14      29.1824      0.00000
     15      30.0953      0.00000
     16      32.1727      0.00000
     17      33.7054      0.00000
     18      33.7055      0.00000
     19      34.5746      0.00000
     20      34.5749      0.00000
     21      36.3917      0.00000
     22      37.8138      0.00000
     23      37.8138      0.00000
     24      38.8641      0.00000
     25      41.2234      0.00000
     26      41.2234      0.00000
     27      41.9673      0.00000
     28      44.5198      0.00000
     29      44.5202      0.00000
     30      46.2270      0.00000
     31      46.2272      0.00000
     32      48.9124      0.00000
     33      56.9596      0.00000
     34      60.4789      0.00000
     35      60.4802      0.00000
     36      61.1679      0.00000
     37      61.8272      0.00000
     38      62.3679      0.00000
     39      62.3682      0.00000
     40      62.9701      0.00000

 k-point     2 :       0.0909    0.0000    0.0000
  band No.  band energies     occupation 
      1      -1.9151      2.00000
      2       1.9037      2.00000
      3       4.4442      2.00000
      4       4.9316      2.00000
      5       5.0906      2.00000
      6       5.1185      2.00000
      7       5.1565      2.00000
      8       5.4166      2.00000
      9       5.9179      2.00252
     10       5.9272      2.00309
     11       7.1460     -0.00000
     12       8.2578     -0.00000
     13      13.6209      0.00000
     14      27.7511      0.00000
     15      30.2690      0.00000
     16      30.3863      0.00000
     17      31.0736      0.00000
     18      33.7189      0.00000
     19      33.9818      0.00000
     20      36.1782      0.00000
     21      37.2192      0.00000
     22      37.4259      0.00000
     23      38.0806      0.00000
     24      38.1583      0.00000
     25      41.9678      0.00000
     26      42.2057      0.00000
     27      42.3988      0.00000
     28      42.8369      0.00000
     29      46.1392      0.00000
     30      47.6550      0.00000
     31      48.7275      0.00000
     32      50.8773      0.00000
     33      56.5505      0.00000
     34      59.0838      0.00000
     35      59.1426      0.00000
     36      59.6309      0.00000
     37      60.6601      0.00000
     38      62.9283      0.00000
     39      63.5593      0.00000
     40      64.3346      0.00000

 k-point     3 :       0.1818    0.0000    0.0000
  band No.  band energies     occupation 
      1      -1.0203      2.00000
      2       2.4446      2.00000
      3       4.0565      2.00000
      4       4.1990      2.00000
      5       4.7903      2.00000
      6       5.3174      2.00000
      7       5.6102      2.00000
      8       5.6238      2.00000
      9       5.6806      2.00000
     10       5.8659      2.00074
     11       7.2061     -0.00000
     12      10.0379     -0.00000
     13      13.7273      0.00000
     14      23.9335      0.00000
     15      28.3550      0.00000
     16      29.0818      0.00000
     17      29.7211      0.00000
     18      31.1769      0.00000
     19      34.1689      0.00000
     20      35.5481      0.00000
     21      35.9523      0.00000
     22      36.3405      0.00000
     23      38.5052      0.00000
     24      39.5616      0.00000
     25      41.7953      0.00000
     26      43.2375      0.00000
     27      44.9595      0.00000
     28      47.1192      0.00000
     29      48.6534      0.00000
     30      51.4549      0.00000
     31      51.6664      0.00000
     32      54.3854      0.00000
     33      55.1895      0.00000
     34      55.8508      0.00000
     35      57.3883      0.00000
     36      59.2317      0.00000
     37      60.0870      0.00000
     38      62.6529      0.00000
     39      64.8948      0.00000
     40      65.6904      0.00000

 k-point     4 :       0.2727    0.0000    0.0000
  band No.  band energies     occupation 
      1       0.2723      2.00000
      2       2.7454      2.00000
      3       3.2692      2.00000
      4       4.1019      2.00000
      5       4.6312      2.00000
      6       5.2500      2.00000
      7       5.3992      2.00000
      8       5.9934      2.01129
      9       6.3084      1.77068
     10       6.4949      0.37394
     11       7.2459     -0.00000
     12      12.0448      0.00000
     13      13.9602      0.00000
     14      20.0367      0.00000
     15      26.0381      0.00000
     16      26.1550      0.00000
     17      27.4580      0.00000
     18      30.8296      0.00000
     19      32.1666      0.00000
     20      35.6714      0.00000
     21      36.0575      0.00000
     22      36.1923      0.00000
     23      36.3560      0.00000
     24      40.2069      0.00000
     25      45.3603      0.00000
     26      47.1547      0.00000
     27      48.3184      0.00000
     28      49.7053      0.00000
     29      51.0224      0.00000
     30      51.8775      0.00000
     31      53.3687      0.00000
     32      54.3562      0.00000
     33      56.9981      0.00000
     34      57.4355      0.00000
     35      57.7797      0.00000
     36      58.8127      0.00000
     37      61.4504      0.00000
     38      62.3107      0.00000
     39      64.5689      0.00000
     40      65.5508      0.00000

 k-point     5 :       0.3636    0.0000    0.0000
  band No.  band energies     occupation 
      1       1.5012      2.00000
      2       2.5290      2.00000
      3       2.7510      2.00000
      4       4.2620      2.00000
      5       4.9166      2.00000
      6       4.9358      2.00000
      7       5.1649      2.00000
      8       7.0066     -0.00023
      9       7.0900     -0.00002
     10       7.1245     -0.00001
     11       7.2612     -0.00000
     12      13.8246      0.00000
     13      14.2009      0.00000
     14      17.2883      0.00000
     15      22.9658      0.00000
     16      24.2735      0.00000
     17      24.6782      0.00000
     18      29.8895      0.00000
     19      31.0710      0.00000
     20      34.2622      0.00000
     21      35.2411      0.00000
     22      37.1565      0.00000
     23      38.1012      0.00000
     24      40.7020      0.00000
     25      47.9890      0.00000
     26      48.7273      0.00000
     27      48.9930      0.00000
     28      52.2928      0.00000
     29      52.2963      0.00000
     30      53.3145      0.00000
     31      55.5014      0.00000
     32      56.1209      0.00000
     33      56.7048      0.00000
     34      58.4308      0.00000
     35      60.2613      0.00000
     36      61.8940      0.00000
     37      62.0838      0.00000
     38      63.2320      0.00000
     39      64.6908      0.00000
     40      65.1662      0.00000

 k-point     6 :       0.4545   -0.0000    0.0000
  band No.  band energies     occupation 
      1       2.0814      2.00000
      2       2.2888      2.00000
      3       2.4959      2.00000
      4       4.7182      2.00000
      5       4.7217      2.00000
      6       5.0340      2.00000
      7       5.1592      2.00000
      8       7.2624     -0.00000
      9       7.4319     -0.00000
     10       7.5520     -0.00000
     11       8.6313     -0.00000
     12      11.8952      0.00000
     13      16.2522      0.00000
     14      17.4099      0.00000
     15      20.4114      0.00000
     16      22.0671      0.00000
     17      23.2924      0.00000
     18      29.2753      0.00000
     19      30.7276      0.00000
     20      33.2014      0.00000
     21      35.0330      0.00000
     22      37.8750      0.00000
     23      40.3376      0.00000
     24      40.8679      0.00000
     25      44.6597      0.00000
     26      49.1113      0.00000
     27      50.8815      0.00000
     28      54.6010      0.00000
     29      55.3415      0.00000
     30      55.4349      0.00000
     31      56.5080      0.00000
     32      58.3556      0.00000
     33      58.7248      0.00000
     34      60.0585      0.00000
     35      60.3196      0.00000
     36      60.7008      0.00000
     37      63.4275      0.00000
     38      63.6435      0.00000
     39      64.0324      0.00000
     40      64.6058      0.00000

 k-point     7 :       0.0909    0.0909    0.0000
  band No.  band energies     occupation 
      1      -1.3084      2.00000
      2       2.3027      2.00000
      3       4.2483      2.00000
      4       4.3262      2.00000
      5       4.9650      2.00000
      6       5.0499      2.00000
      7       5.4772      2.00000
      8       5.5586      2.00000
      9       5.7659      2.00005
     10       5.9121      2.00222
     11       7.1655     -0.00000
     12       9.5423     -0.00000
     13      13.6910      0.00000
     14      25.6931      0.00000
     15      26.7877      0.00000
     16      30.7034      0.00000
     17      31.3183      0.00000
     18      32.3143      0.00000
     19      32.7504      0.00000
     20      34.4594      0.00000
     21      35.6635      0.00000
     22      39.0033      0.00000
     23      39.8162      0.00000
     24      40.2090      0.00000
     25      41.2746      0.00000
     26      41.3765      0.00000
     27      41.3994      0.00000
     28      47.6610      0.00000
     29      49.5661      0.00000
     30      49.6064      0.00000
     31      49.6511      0.00000
     32      53.8248      0.00000
     33      55.7762      0.00000
     34      56.7918      0.00000
     35      57.4311      0.00000
     36      59.1312      0.00000
     37      59.9040      0.00000
     38      63.2215      0.00000
     39      64.8232      0.00000
     40      65.7930      0.00000

 k-point     8 :       0.1818    0.0909    0.0000
  band No.  band energies     occupation 
      1      -0.1950      2.00000
      2       2.8252      2.00000
      3       3.5538      2.00000
      4       3.9319      2.00000
      5       4.7156      2.00000
      6       5.1812      2.00000
      7       5.4445      2.00000
      8       5.6891      2.00000
      9       6.1197      2.05777
     10       6.4136      1.00355
     11       7.1807     -0.00000
     12      11.3358     -0.00000
     13      13.9020      0.00000
     14      22.0284      0.00000
     15      24.5125      0.00000
     16      27.9466      0.00000
     17      30.1423      0.00000
     18      30.1495      0.00000
     19      33.1727      0.00000
     20      34.1164      0.00000
     21      34.4211      0.00000
     22      38.8936      0.00000
     23      39.2152      0.00000
     24      39.7174      0.00000
     25      42.9455      0.00000
     26      44.0695      0.00000
     27      45.7366      0.00000
     28      49.7849      0.00000
     29      52.0121      0.00000
     30      52.5555      0.00000
     31      52.9039      0.00000
     32      54.9045      0.00000
     33      55.7647      0.00000
     34      56.1633      0.00000
     35      57.3770      0.00000
     36      57.3849      0.00000
     37      60.7011      0.00000
     38      63.4851      0.00000
     39      64.9232      0.00000
     40      65.9673      0.00000

 k-point     9 :       0.2727    0.0909    0.0000
  band No.  band energies     occupation 
      1       1.1399      2.00000
      2       2.8207      2.00000
      3       2.9788      2.00000
      4       3.9624      2.00000
      5       4.7649      2.00000
      6       4.8840      2.00000
      7       5.3574      2.00000
      8       6.1243      2.05971
      9       6.8245     -0.01347
     10       7.1847     -0.00000
     11       7.2590     -0.00000
     12      13.3897      0.00000
     13      14.2299      0.00000
     14      18.4508      0.00000
     15      22.8669      0.00000
     16      24.6427      0.00000
     17      26.8872      0.00000
     18      28.9504      0.00000
     19      32.3536      0.00000
     20      33.3849      0.00000
     21      35.5084      0.00000
     22      38.7154      0.00000
     23      38.8443      0.00000
     24      41.2886      0.00000
     25      44.8289      0.00000
     26      47.7255      0.00000
     27      49.2785      0.00000
     28      50.0233      0.00000
     29      50.7527      0.00000
     30      53.4851      0.00000
     31      55.2159      0.00000
     32      55.7915      0.00000
     33      56.7443      0.00000
     34      57.6858      0.00000
     35      59.5277      0.00000
     36      61.5333      0.00000
     37      61.9648      0.00000
     38      63.2400      0.00000
     39      63.8613      0.00000
     40      65.9411      0.00000

 k-point    10 :       0.3636    0.0909    0.0000
  band No.  band energies     occupation 
      1       2.0734      2.00000
      2       2.5373      2.00000
      3       2.6363      2.00000
      4       4.3028      2.00000
      5       4.7205      2.00000
      6       5.0540      2.00000
      7       5.0829      2.00000
      8       6.9326     -0.00152
      9       7.1788     -0.00000
     10       7.3195     -0.00000
     11       8.3639     -0.00000
     12      13.2850      0.00000
     13      15.5639      0.00000
     14      17.1677      0.00000
     15      21.6093      0.00000
     16      21.7215      0.00000
     17      23.7422      0.00000
     18      28.0905      0.00000
     19      31.4025      0.00000
     20      32.8523      0.00000
     21      36.3691      0.00000
     22      39.1859      0.00000
     23      40.0903      0.00000
     24      41.2251      0.00000
     25      46.5825      0.00000
     26      47.6053      0.00000
     27      49.6546      0.00000
     28      51.4338      0.00000
     29      52.6261      0.00000
     30      55.2564      0.00000
     31      55.5812      0.00000
     32      57.4456      0.00000
     33      58.7370      0.00000
     34      60.4547      0.00000
     35      60.9321      0.00000
     36      61.9306      0.00000
     37      62.6810      0.00000
     38      63.4573      0.00000
     39      64.7327      0.00000
     40      64.9111      0.00000

 k-point    11 :       0.4545    0.0909    0.0000
  band No.  band energies     occupation 
      1       2.3221      2.00000
      2       2.3962      2.00000
      3       2.5237      2.00000
      4       4.6247      2.00000
      5       4.6852      2.00000
      6       4.9178      2.00000
      7       5.1969      2.00000
      8       7.1749     -0.00000
      9       7.3879     -0.00000
     10       7.4025     -0.00000
     11       9.5349     -0.00000
     12      11.5597     -0.00000
     13      17.0481      0.00000
     14      17.8608      0.00000
     15      19.9942      0.00000
     16      20.8465      0.00000
     17      22.2998      0.00000
     18      27.7909      0.00000
     19      31.0203      0.00000
[...]
     18      26.1235      0.00000
     19      31.0301      0.00000
     20      31.7716      0.00000
     21      34.7810      0.00000
     22      35.4981      0.00000
     23      40.2675      0.00000
     24      41.4987      0.00000
     25      47.0611      0.00000
     26      48.8200      0.00000
     27      50.4888      0.00000
     28      51.2552      0.00000
     29      54.5272      0.00000
     30      56.2888      0.00000
     31      57.4504      0.00000
     32      57.8420      0.00000
     33      59.9395      0.00000
     34      60.2383      0.00000
     35      61.4393      0.00000
     36      61.4777      0.00000
     37      63.0674      0.00000
     38      63.4012      0.00000
     39      64.2801      0.00000
     40      64.9190      0.00000

 k-point    91 :       0.4545    0.0909    0.4545
  band No.  band energies     occupation 
      1       1.9878      2.00000
      2       2.1280      2.00000
      3       3.3241      2.00000
      4       3.4257      2.00000
      5       5.3991      2.00000
      6       5.7867      2.00009
      7       6.3750      1.32352
      8       6.6523     -0.07055
      9       7.2885     -0.00000
     10       7.2912     -0.00000
     11       9.4874     -0.00000
     12       9.9581     -0.00000
     13      15.5346      0.00000
     14      15.5585      0.00000
     15      23.5589      0.00000
     16      24.3596      0.00000
     17      25.6876      0.00000
     18      26.1861      0.00000
     19      30.7370      0.00000
     20      30.9512      0.00000
     21      34.1826      0.00000
     22      34.4312      0.00000
     23      40.3404      0.00000
     24      41.5860      0.00000
     25      47.1746      0.00000
     26      48.9623      0.00000
     27      53.8026      0.00000
     28      54.6338      0.00000
     29      54.9364      0.00000
     30      55.5918      0.00000
     31      56.1394      0.00000
     32      57.2146      0.00000
     33      61.2201      0.00000
     34      61.3396      0.00000
     35      62.1394      0.00000
     36      62.1444      0.00000
     37      62.8346      0.00000
     38      63.1143      0.00000
     39      65.3621      0.00000
     40      65.4423      0.00000

 k-point    92 :       0.1818    0.1818    0.4545
  band No.  band energies     occupation 
      1       1.9140      2.00000
      2       2.2133      2.00000
      3       3.7916      2.00000
      4       3.8682      2.00000
      5       4.2967      2.00000
      6       4.3638      2.00000
      7       5.7232      2.00001
      8       5.9510      2.00508
      9       7.1024     -0.00001
     10       7.1997     -0.00000
     11       7.6554     -0.00000
     12       8.1780     -0.00000
     13      21.6404      0.00000
     14      21.8525      0.00000
     15      22.2092      0.00000
     16      23.1786      0.00000
     17      23.7106      0.00000
     18      25.0686      0.00000
     19      35.0643      0.00000
     20      36.0543      0.00000
     21      36.6476      0.00000
     22      37.6349      0.00000
     23      39.0568      0.00000
     24      39.1570      0.00000
     25      44.9210      0.00000
     26      45.3335      0.00000
     27      49.7959      0.00000
     28      50.2701      0.00000
     29      51.9341      0.00000
     30      53.3235      0.00000
     31      54.7478      0.00000
     32      55.2512      0.00000
     33      57.4763      0.00000
     34      57.5566      0.00000
     35      59.4213      0.00000
     36      59.8702      0.00000
     37      62.8869      0.00000
     38      63.7069      0.00000
     39      64.6355      0.00000
     40      64.9977      0.00000

 k-point    93 :       0.2727    0.1818    0.4545
  band No.  band energies     occupation 
      1       2.3419      2.00000
      2       2.4580      2.00000
      3       3.6448      2.00000
      4       3.8339      2.00000
      5       4.5436      2.00000
      6       4.6856      2.00000
      7       5.6672      2.00000
      8       5.8922      2.00140
      9       7.1941     -0.00000
     10       7.4165     -0.00000
     11       9.0300     -0.00000
     12       9.5505     -0.00000
     13      18.4878      0.00000
     14      19.0725      0.00000
     15      21.1378      0.00000
     16      21.8519      0.00000
     17      24.4449      0.00000
     18      26.1799      0.00000
     19      32.9161      0.00000
     20      34.4619      0.00000
     21      35.4580      0.00000
     22      36.8627      0.00000
     23      39.6690      0.00000
     24      40.0994      0.00000
     25      46.2233      0.00000
     26      46.7484      0.00000
     27      50.8233      0.00000
     28      52.5866      0.00000
     29      54.3278      0.00000
     30      56.2027      0.00000
     31      56.7939      0.00000
     32      57.7284      0.00000
     33      58.6545      0.00000
     34      58.9126      0.00000
     35      60.3302      0.00000
     36      60.4824      0.00000
     37      62.3441      0.00000
     38      63.6703      0.00000
     39      64.4675      0.00000
     40      64.7606      0.00000

 k-point    94 :       0.3636    0.1818    0.4545
  band No.  band energies     occupation 
      1       2.4100      2.00000
      2       2.5510      2.00000
      3       3.5501      2.00000
      4       3.7380      2.00000
      5       4.6564      2.00000
      6       4.9622      2.00000
      7       5.9680      2.00709
      8       6.0855      2.04219
      9       7.1607     -0.00000
     10       7.3139     -0.00000
     11      10.6563     -0.00000
     12      11.0845     -0.00000
     13      15.9633      0.00000
     14      16.3440      0.00000
     15      20.5317      0.00000
     16      21.2698      0.00000
     17      26.0302      0.00000
     18      27.1326      0.00000
     19      31.3397      0.00000
     20      32.3957      0.00000
     21      34.5028      0.00000
     22      35.9382      0.00000
     23      40.3526      0.00000
     24      40.6621      0.00000
     25      49.5683      0.00000
     26      50.2063      0.00000
     27      51.0624      0.00000
     28      52.7606      0.00000
     29      54.3425      0.00000
     30      54.9427      0.00000
     31      56.2209      0.00000
     32      57.9408      0.00000
     33      59.8573      0.00000
     34      60.3578      0.00000
     35      61.8910      0.00000
     36      62.2662      0.00000
     37      63.2624      0.00000
     38      63.5086      0.00000
     39      64.2860      0.00000
     40      64.6780      0.00000

 k-point    95 :       0.2727    0.2727    0.4545
  band No.  band energies     occupation 
      1       2.7879      2.00000
      2       2.8237      2.00000
      3       3.7149      2.00000
      4       3.9262      2.00000
      5       4.2613      2.00000
      6       4.4609      2.00000
      7       5.6047      2.00000
      8       5.7968      2.00011
      9       7.1727     -0.00000
     10       7.3381     -0.00000
     11      11.0464     -0.00000
     12      11.5680     -0.00000
     13      17.0503      0.00000
     14      17.4597      0.00000
     15      18.7400      0.00000
     16      19.1158      0.00000
     17      26.1590      0.00000
     18      27.7659      0.00000
     19      31.4574      0.00000
     20      32.8277      0.00000
     21      34.3457      0.00000
     22      35.4090      0.00000
     23      42.4279      0.00000
     24      42.8157      0.00000
     25      46.4503      0.00000
     26      46.5749      0.00000
     27      53.5359      0.00000
     28      54.1979      0.00000
     29      54.3769      0.00000
     30      55.8421      0.00000
     31      57.1141      0.00000
     32      57.4587      0.00000
     33      58.3464      0.00000
     34      58.7633      0.00000
     35      60.8408      0.00000
     36      61.8197      0.00000
     37      63.2386      0.00000
     38      63.2448      0.00000
     39      64.2960      0.00000
     40      64.4075      0.00000

 k-point    96 :       0.3636    0.2727    0.4545
  band No.  band energies     occupation 
      1       2.9775      2.00000
      2       3.0961      2.00000
      3       3.6453      2.00000
      4       3.7247      2.00000
      5       4.2836      2.00000
      6       4.3935      2.00000
      7       5.6693      2.00000
      8       5.8165      2.00020
      9       7.1459     -0.00000
     10       7.2078     -0.00000
     11      12.8075      0.00000
     12      12.9251      0.00000
     13      15.4312      0.00000
     14      15.7552      0.00000
     15      18.1003      0.00000
     16      18.5508      0.00000
     17      27.8284      0.00000
     18      28.4935      0.00000
     19      30.5678      0.00000
     20      30.9678      0.00000
     21      34.0764      0.00000
     22      34.8985      0.00000
     23      43.5511      0.00000
     24      44.1756      0.00000
     25      48.1388      0.00000
     26      48.5460      0.00000
     27      50.6219      0.00000
     28      51.0012      0.00000
     29      55.0375      0.00000
     30      56.5684      0.00000
     31      57.4598      0.00000
     32      58.8383      0.00000
     33      58.9863      0.00000
     34      59.4854      0.00000
     35      60.2113      0.00000
     36      61.2169      0.00000
     37      62.6856      0.00000
     38      63.3285      0.00000
     39      65.8783      0.00000
     40      65.9212      0.00000


--------------------------------------------------------------------------------------------------------


 soft charge-density along one line, spin component           1
         0         1         2         3         4         5         6         7         8         9
x     7.7665    0.0000    0.1238   -0.2144   -0.0633   -0.1096    0.0136   -0.0000    0.0020   -0.0034
x     0.0000    0.0000
y     7.7665    0.0000    0.1238    0.2144   -0.0633    0.1096    0.0136    0.0000    0.0020    0.0034
y     0.0000    0.0000
z     7.7665    0.0000    0.0000   -0.0000    0.4988    0.0000    0.0000    0.0000   -0.1752   -0.0000
z     0.0000    0.0000    0.0162    0.0000    0.0000    0.0000    0.0076   -0.0000    0.0000    0.0000
 total charge-density along one line
x    16.0000    0.0000    1.5378   -2.6635    0.3365    0.5828    0.0532   -0.0000   -0.0002    0.0003
x     0.0007    0.0012   -0.0012    0.0000    0.0002   -0.0003   -0.0001   -0.0002    0.0002   -0.0000
x    -0.0000    0.0000
y    16.0000    0.0000    1.5378    2.6635    0.3365   -0.5828    0.0532    0.0000   -0.0002   -0.0003
y     0.0007   -0.0012   -0.0012   -0.0000    0.0002    0.0003   -0.0001    0.0002    0.0002    0.0000
y    -0.0000   -0.0000
z    16.0000    0.0000   -0.0000    0.0000    6.1383   -0.0000   -0.0000    0.0000    1.3949   -0.0000
z    -0.0000   -0.0000    0.0525   -0.0000   -0.0000   -0.0000    0.0014   -0.0000   -0.0000   -0.0000
z     0.0025   -0.0000    0.0000   -0.0000   -0.0011    0.0000    0.0000   -0.0000    0.0006    0.0000
z     0.0000   -0.0000   -0.0004   -0.0000   -0.0000   -0.0000    0.0004   -0.0000
 
 pseudopotential strength for first ion, spin component:           1
 -4.715  -0.000  -0.000   0.000  -0.000  -5.271  -0.000  -0.000
 -0.000  -4.713   0.000  -0.000  -0.000  -0.000  -5.269   0.000
 -0.000   0.000  -4.721  -0.000  -0.000  -0.000   0.000  -5.277
  0.000  -0.000  -0.000  -4.713  -0.000   0.000  -0.000  -0.000
 -0.000  -0.000  -0.000  -0.000  -4.715  -0.000  -0.000  -0.000
 -5.271  -0.000  -0.000   0.000  -0.000  -5.784  -0.000  -0.000
 -0.000  -5.269   0.000  -0.000  -0.000  -0.000  -5.782   0.000
 -0.000   0.000  -5.277  -0.000  -0.000  -0.000   0.000  -5.790
  0.000  -0.000  -0.000  -5.269  -0.000   0.000  -0.000  -0.000
 -0.000  -0.000  -0.000  -0.000  -5.271  -0.000  -0.000  -0.000
  0.000  -0.000   0.001   0.000  -0.000   0.000  -0.000   0.001
  0.000  -0.000   0.003   0.000  -0.000   0.000  -0.000   0.002
 -0.000  -0.000   0.000   0.000  -0.001  -0.000  -0.000   0.000
  0.000  -0.000  -0.000   0.000   0.000   0.000  -0.000  -0.000
 -0.001   0.000   0.000  -0.000  -0.000  -0.001   0.000   0.000
 -0.000  -0.000   0.000   0.000  -0.001  -0.000  -0.000   0.000
  0.000  -0.000  -0.000   0.000   0.000   0.000  -0.000  -0.000
 -0.001   0.000   0.000  -0.000  -0.000  -0.001   0.000   0.000
 total augmentation occupancy for first ion, spin component:           1
  1.576   0.000   0.000   0.000   0.000  -0.806  -0.000  -0.000   0.000  -0.000   0.000   0.000   0.000   0.000   0.031  -0.000
  0.000   1.960   0.000  -0.000   0.000  -0.000  -1.006   0.000   0.000   0.000  -0.000   0.000  -0.000  -0.000   0.000   0.000
  0.000   0.000   1.308   0.000  -0.000  -0.000   0.000  -0.604  -0.000   0.000   0.014  -0.007  -0.000   0.000   0.000  -0.000
  0.000  -0.000   0.000   1.960   0.000   0.000   0.000   0.000  -1.006   0.000   0.000   0.000   0.000  -0.000   0.000   0.000
  0.000   0.000  -0.000  -0.000   1.576  -0.000   0.000   0.000   0.000  -0.806   0.000  -0.000   0.031  -0.000  -0.000  -0.002
 -0.806   0.000  -0.000   0.000   0.000   1.396   0.000   0.000   0.000   0.000  -0.000   0.000  -0.000   0.000  -0.046   0.000
  0.000  -1.006   0.000   0.000   0.000   0.000   1.390   0.000  -0.000   0.000  -0.000   0.000   0.000  -0.000   0.000   0.000
 -0.000   0.000  -0.604   0.000   0.000   0.000  -0.000   1.244  -0.000  -0.000  -0.074   0.008  -0.000   0.000  -0.000  -0.000
  0.000   0.000   0.000  -1.006   0.000   0.000  -0.000   0.000   1.390   0.000   0.000  -0.000   0.000   0.000   0.000   0.000
 -0.000   0.000   0.000   0.000  -0.806   0.000   0.000  -0.000   0.000   1.396  -0.000   0.000  -0.046   0.000   0.000   0.003
  0.000   0.000   0.014  -0.000   0.000  -0.000  -0.000  -0.074   0.000  -0.000   2.534  -0.285  -0.000   0.000   0.000   0.000
  0.000  -0.000  -0.007   0.000  -0.000   0.000   0.000   0.008   0.000   0.000  -0.285   0.036  -0.000   0.000   0.000   0.000
  0.000   0.000  -0.000  -0.000   0.031  -0.000   0.000   0.000   0.000  -0.046   0.000   0.000   0.327   0.000  -0.000  -0.027
  0.000  -0.000   0.000   0.000  -0.000   0.000   0.000   0.000   0.000   0.000   0.000   0.000  -0.000   0.311   0.000  -0.000
  0.031  -0.000   0.000   0.000  -0.000  -0.046   0.000  -0.000   0.000   0.000   0.000  -0.000  -0.000  -0.000   0.327   0.000
 -0.000  -0.000   0.000   0.000  -0.002   0.000   0.000  -0.000   0.000   0.003  -0.000  -0.000  -0.027  -0.000   0.000   0.002
  0.000   0.000   0.000   0.000   0.000  -0.000   0.000   0.000  -0.000  -0.000   0.000   0.000  -0.000  -0.027   0.000  -0.000
 -0.002   0.000  -0.000   0.000   0.000   0.003  -0.000   0.000  -0.000  -0.000   0.000   0.000   0.000   0.000  -0.027  -0.000


------------------------ aborting loop because EDIFF is reached ----------------------------------------


    CHARGE:  cpu time    0.0195: real time    0.0195
    FORLOC:  cpu time    0.0002: real time    0.0002
    FORNL :  cpu time    0.1008: real time    0.1008
    STRESS:  cpu time    0.1568: real time    0.1568
    FORCOR:  cpu time    0.0034: real time    0.0034
    FORHAR:  cpu time    0.0007: real time    0.0007
    MIXING:  cpu time    0.0002: real time    0.0002

  FORCE on cell =-STRESS in cart. coord.  units (eV):
  Direction    XX          YY          ZZ          XY          YZ          ZX
  --------------------------------------------------------------------------------------
  Alpha Z   130.09847   130.09847   130.09847
  Ewald    -393.51319  -393.51319  -423.20684     0.00000    -0.00000     0.00000
  Hartree    63.49093    63.49093    51.93648    -0.00000    -0.00000    -0.00000
  E(xc)     -78.14152   -78.14167   -77.96109     0.00039     0.00000    -0.00000
  Local     106.78802   106.78827   146.81117    -0.00093    -0.00000     0.00000
  n-local   -53.82457   -53.04359   -55.05133    -3.37616     1.45855     0.98280
  augment    76.01488    76.01390    76.07922     0.00143     0.00000     0.00000
  Kinetic   151.68140   145.58784   146.75338     1.09982    -1.03380     0.12871
  Fock        0.00000     0.00000     0.00000     0.00000     0.00000     0.00000
  -------------------------------------------------------------------------------------
  Total      -0.06230    -0.06230    -4.54055    -0.00000     0.00000     0.00000
  in kB      -4.69757    -4.69757  -342.34698    -0.00000     0.00000     0.00000
  external pressure =     -117.25 kB  Pullay stress =        0.00 kB


 VOLUME and BASIS-vectors are now :
 -----------------------------------------------------------------------------
  energy-cutoff  :      280.00
  volume of cell :       21.25
      direct lattice vectors                 reciprocal lattice vectors
     2.423200000  0.000000000  0.000000000     0.412677451  0.238259438  0.000000000
    -1.211600000  2.098552758  0.000000000     0.000000000  0.476518875  0.000000000
     0.000000000  0.000000000  4.178720000     0.000000000  0.000000000  0.239307731

  length of vectors
     2.423200000  2.423200000  4.178720000     0.476518875  0.476518875  0.239307731


 FORCES acting on ions
    electron-ion (+dipol)            ewald-force                    non-local-force                 convergence-correction
 -----------------------------------------------------------------------------------------------
   0.119E-05 -.191E-05 -.466E-14   0.610E-12 -.295E-12 -.211E-13   -.343E-18 0.186E-17 0.467E-19   -.568E-08 0.305E-08 0.483E-14
   0.988E-05 0.560E-05 0.246E-12   -.607E-12 0.300E-12 0.211E-13   0.699E-18 -.794E-20 0.305E-19   0.568E-08 -.304E-08 0.466E-13
 -----------------------------------------------------------------------------------------------
   0.111E-04 0.370E-05 0.241E-12   0.350E-14 0.442E-14 -.162E-16   0.356E-18 0.185E-17 0.772E-19   -.347E-12 0.392E-11 0.514E-13
 
 
 POSITION                                       TOTAL-FORCE (eV/Angst)
 -----------------------------------------------------------------------------------
      0.00000      0.00000      0.00000        -0.000000      0.000000      0.000000
      0.00000      1.39904      2.08936         0.000000     -0.000000     -0.000000
 -----------------------------------------------------------------------------------
    total drift:                                0.000011      0.000004      0.000000


--------------------------------------------------------------------------------------------------------



  FREE ENERGIE OF THE ION-ELECTRON SYSTEM (eV)
  ---------------------------------------------------
  free  energy   TOTEN  =       -16.15168659 eV

  energy  without entropy=      -16.15408984  energy(sigma->0) =      -16.15248767
 


--------------------------------------------------------------------------------------------------------


    POTLOK:  cpu time    0.0054: real time    0.0054


--------------------------------------------------------------------------------------------------------


 writing wavefunctions
     LOOP+:  cpu time   10.0375: real time   10.0575
    4ORBIT:  cpu time    0.0000: real time    0.0000

 total amount of memory used by VASP MPI-rank0    51501. kBytes
=======================================================================

   base      :      30000. kBytes
   nonl-proj :       3394. kBytes
   grid      :        812. kBytes
   one-center:         31. kBytes
   wavefun   :      17264. kBytes
 
  
  
 General timing and accounting informations for this job:
 ========================================================
  
                  Total CPU time used (sec):       10.219
                            User time (sec):       10.171
                          System time (sec):        0.048
                         Elapsed time (sec):       10.227
  
                   Maximum memory used (kb):       55736.
                   Average memory used (kb):          N/A
  
                          Minor page faults:         7686
                          Major page faults:            0
                 Voluntary context switches:           26
