 vasp.6.2.0 18Jan21 (build Mar 17 2021 09:06:54) complex                        
  
 POSCAR found type information on POSCAR Fe
 POSCAR found :  1 types and       2 ions
 LDA part: xc-table for Pade appr. of Perdew
 POSCAR, INCAR and KPOINTS ok, starting setup
 FFT: planning ...
 WAVECAR not read
 WARNING: chargedensity file is incomplete
 entering main loop
       N       E                     dE             d eps       ncg     rms          rms(c)
DAV:   1     0.604976729495E+02    0.60498E+02   -0.27357E+03  9304   0.320E+02
DAV:   2    -0.147178876401E+02   -0.75216E+02   -0.63583E+02  7968   0.950E+01
DAV:   3    -0.193373547056E+02   -0.46195E+01   -0.43602E+01  9408   0.244E+01
DAV:   4    -0.193611009780E+02   -0.23746E-01   -0.23728E-01  9160   0.183E+00
DAV:   5    -0.193611364474E+02   -0.35469E-04   -0.35468E-04  9184   0.662E-02    0.164E+01
DAV:   6    -0.164375883486E+02    0.29235E+01   -0.19724E+00 11120   0.262E+01    0.308E+00
DAV:   7    -0.161877713734E+02    0.24982E+00   -0.16079E-01 10096   0.631E+00    0.989E-01
DAV:   8    -0.161629321108E+02    0.24839E-01   -0.41770E-03 10096   0.429E-01    0.471E-01
DAV:   9    -0.161516656386E+02    0.11266E-01   -0.91686E-04 11368   0.180E-01    0.622E-02
DAV:  10    -0.161516921202E+02   -0.26482E-04   -0.38210E-05  8992   0.235E-02    0.262E-02
DAV:  11    -0.161516868041E+02    0.53161E-05   -0.35217E-07  8856   0.561E-03    0.154E-03
DAV:  12    -0.161516865860E+02    0.21820E-06   -0.47581E-08  5856   0.124E-03
   1 F= -.16151687E+02 E0= -.16152488E+02  d E =0.240326E-02
 writing wavefunctions
