<?xml version="1.0" encoding="ISO-8859-1"?>
<modeling>
 <generator>
  <i name="program" type="string">vasp </i>
  <i name="version" type="string">6.2.0  </i>
  <i name="subversion" type="string">18Jan21 (build Mar 17 2021 09:06:54) complex                          serial </i>
  <i name="platform" type="string">LinuxIFC </i>
  <i name="date" type="string">2021 09 09 </i>
  <i name="time" type="string">12:10:12 </i>
 </generator>
 <incar>
  <i type="string" name="PREC">normal</i>
  <i type="int" name="ICHARG">     1</i>
  <i type="int" name="IBRION">     1</i>
  <i name="EDIFF">      0.00000100</i>
  <i type="int" name="NSW">     0</i>
  <i type="int" name="ISIF">     2</i>
  <i name="ENCUT">    280.00000000</i>
  <i type="int" name="NBANDS">    40</i>
  <i type="int" name="ISMEAR">     1</i>
  <i name="SIGMA">      0.20000000</i>
  <i type="logical" name="LCHARG"> T  </i>
  <i type="int" name="KPAR">     1</i>
  <i type="int" name="NCORE">     1</i>
  <i type="string" name="GGA">PE</i>
 </incar>
 <primitive_cell>
  <structure name="primitive_cell" >
   <crystal>
    <varray name="basis" >
     <v>       2.42320000       0.00000000       0.00000000 </v>
     <v>      -1.21160000       2.09855276       0.00000000 </v>
     <v>       0.00000000       0.00000000       4.17872000 </v>
    </varray>
    <i name="volume">     21.24968145 </i>
    <varray name="rec_basis" >
     <v>       0.41267745       0.23825944       0.00000000 </v>
     <v>       0.00000000       0.47651888       0.00000000 </v>
     <v>       0.00000000       0.00000000       0.23930773 </v>
    </varray>
   </crystal>
   <varray name="positions" >
    <v>       0.00000000       0.00000000       0.00000000 </v>
    <v>       0.33333333       0.66666667       0.50000000 </v>
   </varray>
  </structure>
  <varray name="primitive_index" >
   <v type="int" >        1 </v>
   <v type="int" >        2 </v>
  </varray>
 </primitive_cell>
 <kpoints>
  <generation param="Monkhorst-Pack">
   <v type="int" name="divisions">      11       11       11 </v>
   <v name="usershift">      0.00000000       0.00000000       0.00000000 </v>
   <v name="genvec1">      0.09090909      -0.00000000       0.00000000 </v>
   <v name="genvec2">      0.00000000       0.09090909       0.00000000 </v>
   <v name="genvec3">      0.00000000       0.00000000       0.09090909 </v>
   <v name="shift">      0.00000000       0.00000000       0.00000000 </v>
  </generation>
  <varray name="kpointlist" >
   <v>       0.00000000       0.00000000       0.00000000 </v>
   <v>       0.09090909       0.00000000       0.00000000 </v>
   <v>       0.18181818       0.00000000       0.00000000 </v>
   <v>       0.27272727       0.00000000       0.00000000 </v>
   <v>       0.36363636       0.00000000       0.00000000 </v>
   <v>       0.45454545      -0.00000000       0.00000000 </v>
   <v>       0.09090909       0.09090909       0.00000000 </v>
   <v>       0.18181818       0.09090909       0.00000000 </v>
   <v>       0.27272727       0.09090909       0.00000000 </v>
   <v>       0.36363636       0.09090909       0.00000000 </v>
   <v>       0.45454545       0.09090909       0.00000000 </v>
   <v>       0.18181818       0.18181818       0.00000000 </v>
   <v>       0.27272727       0.18181818       0.00000000 </v>
   <v>       0.36363636       0.18181818       0.00000000 </v>
   <v>       0.27272727       0.27272727       0.00000000 </v>
   <v>       0.36363636       0.27272727       0.00000000 </v>
   <v>       0.00000000       0.00000000       0.09090909 </v>
   <v>       0.09090909       0.00000000       0.09090909 </v>
   <v>       0.18181818       0.00000000       0.09090909 </v>
   <v>       0.27272727       0.00000000       0.09090909 </v>
   <v>       0.36363636       0.00000000       0.09090909 </v>
   <v>       0.45454545      -0.00000000       0.09090909 </v>
   <v>       0.09090909       0.09090909       0.09090909 </v>
   <v>       0.18181818       0.09090909       0.09090909 </v>
   <v>       0.27272727       0.09090909       0.09090909 </v>
   <v>       0.36363636       0.09090909       0.09090909 </v>
   <v>       0.45454545       0.09090909       0.09090909 </v>
   <v>       0.18181818       0.18181818       0.09090909 </v>
   <v>       0.27272727       0.18181818       0.09090909 </v>
   <v>       0.36363636       0.18181818       0.09090909 </v>
   <v>       0.27272727       0.27272727       0.09090909 </v>
   <v>       0.36363636       0.27272727       0.09090909 </v>
   <v>       0.00000000       0.00000000       0.18181818 </v>
   <v>       0.09090909       0.00000000       0.18181818 </v>
   <v>       0.18181818       0.00000000       0.18181818 </v>
   <v>       0.27272727       0.00000000       0.18181818 </v>
   <v>       0.36363636       0.00000000       0.18181818 </v>
   <v>       0.45454545      -0.00000000       0.18181818 </v>
   <v>       0.09090909       0.09090909       0.18181818 </v>
   <v>       0.18181818       0.09090909       0.18181818 </v>
   <v>       0.27272727       0.09090909       0.18181818 </v>
   <v>       0.36363636       0.09090909       0.18181818 </v>
   <v>       0.45454545       0.09090909       0.18181818 </v>
   <v>       0.18181818       0.18181818       0.18181818 </v>
   <v>       0.27272727       0.18181818       0.18181818 </v>
   <v>       0.36363636       0.18181818       0.18181818 </v>
   <v>       0.27272727       0.27272727       0.18181818 </v>
   <v>       0.36363636       0.27272727       0.18181818 </v>
   <v>       0.00000000       0.00000000       0.27272727 </v>
   <v>       0.09090909       0.00000000       0.27272727 </v>
   <v>       0.18181818       0.00000000       0.27272727 </v>
   <v>       0.27272727       0.00000000       0.27272727 </v>
   <v>       0.36363636       0.00000000       0.27272727 </v>
   <v>       0.45454545      -0.00000000       0.27272727 </v>
   <v>       0.09090909       0.09090909       0.27272727 </v>
   <v>       0.18181818       0.09090909       0.27272727 </v>
   <v>       0.27272727       0.09090909       0.27272727 </v>
   <v>       0.36363636       0.09090909       0.27272727 </v>
   <v>       0.45454545       0.09090909       0.27272727 </v>
   <v>       0.18181818       0.18181818       0.27272727 </v>
   <v>       0.27272727       0.18181818       0.27272727 </v>
   <v>       0.36363636       0.18181818       0.27272727 </v>
   <v>       0.27272727       0.27272727       0.27272727 </v>
   <v>       0.36363636       0.27272727       0.27272727 </v>
   <v>       0.00000000       0.00000000       0.36363636 </v>
   <v>       0.09090909       0.00000000       0.36363636 </v>
   <v>       0.18181818       0.00000000       0.36363636 </v>
   <v>       0.27272727       0.00000000       0.36363636 </v>
   <v>       0.36363636       0.00000000       0.36363636 </v>
   <v>       0.45454545      -0.00000000       0.36363636 </v>
   <v>       0.09090909       0.09090909       0.36363636 </v>
   <v>       0.18181818       0.09090909       0.36363636 </v>
   <v>       0.27272727       0.09090909       0.36363636 </v>
   <v>       0.36363636       0.09090909       0.36363636 </v>
   <v>       0.45454545       0.09090909       0.36363636 </v>
   <v>       0.18181818       0.18181818       0.36363636 </v>
   <v>       0.27272727       0.18181818       0.36363636 </v>
   <v>       0.36363636       0.18181818       0.36363636 </v>
   <v>       0.27272727       0.27272727       0.36363636 </v>
   <v>       0.36363636       0.27272727       0.36363636 </v>
   <v>       0.00000000       0.00000000       0.45454545 </v>
   <v>       0.09090909       0.00000000       0.45454545 </v>
   <v>       0.18181818       0.00000000       0.45454545 </v>
   <v>       0.27272727       0.00000000       0.45454545 </v>
   <v>       0.36363636       0.00000000       0.45454545 </v>
   <v>       0.45454545      -0.00000000       0.45454545 </v>
   <v>       0.09090909       0.09090909       0.45454545 </v>
   <v>       0.18181818       0.09090909       0.45454545 </v>
   <v>       0.27272727       0.09090909       0.45454545 </v>
   <v>       0.36363636       0.09090909       0.45454545 </v>
   <v>       0.45454545       0.09090909       0.45454545 </v>
   <v>       0.18181818       0.18181818       0.45454545 </v>
   <v>       0.27272727       0.18181818       0.45454545 </v>
   <v>       0.36363636       0.18181818       0.45454545 </v>
   <v>       0.27272727       0.27272727       0.45454545 </v>
   <v>       0.36363636       0.27272727       0.45454545 </v>
  </varray>
  <varray name="weights" >
   <v>       0.00075131 </v>
   <v>       0.00450789 </v>
   <v>       0.00450789 </v>
   <v>       0.00450789 </v>
   <v>       0.00450789 </v>
   <v>       0.00450789 </v>
   <v>       0.00450789 </v>
   <v>       0.00901578 </v>
   <v>       0.00901578 </v>
   <v>       0.00901578 </v>
   <v>       0.00450789 </v>
   <v>       0.00450789 </v>
   <v>       0.00901578 </v>
   <v>       0.00901578 </v>
   <v>       0.00450789 </v>
   <v>       0.00450789 </v>
   <v>       0.00150263 </v>
   <v>       0.00901578 </v>
   <v>       0.00901578 </v>
   <v>       0.00901578 </v>
   <v>       0.00901578 </v>
   <v>       0.00901578 </v>
   <v>       0.00901578 </v>
   <v>       0.01803156 </v>
   <v>       0.01803156 </v>
   <v>       0.01803156 </v>
   <v>       0.00901578 </v>
   <v>       0.00901578 </v>
   <v>       0.01803156 </v>
   <v>       0.01803156 </v>
   <v>       0.00901578 </v>
   <v>       0.00901578 </v>
   <v>       0.00150263 </v>
   <v>       0.00901578 </v>
   <v>       0.00901578 </v>
   <v>       0.00901578 </v>
   <v>       0.00901578 </v>
   <v>       0.00901578 </v>
   <v>       0.00901578 </v>
   <v>       0.01803156 </v>
   <v>       0.01803156 </v>
   <v>       0.01803156 </v>
   <v>       0.00901578 </v>
   <v>       0.00901578 </v>
   <v>       0.01803156 </v>
   <v>       0.01803156 </v>
   <v>       0.00901578 </v>
   <v>       0.00901578 </v>
   <v>       0.00150263 </v>
   <v>       0.00901578 </v>
   <v>       0.00901578 </v>
   <v>       0.00901578 </v>
   <v>       0.00901578 </v>
   <v>       0.00901578 </v>
   <v>       0.00901578 </v>
   <v>       0.01803156 </v>
   <v>       0.01803156 </v>
   <v>       0.01803156 </v>
   <v>       0.00901578 </v>
   <v>       0.00901578 </v>
   <v>       0.01803156 </v>
   <v>       0.01803156 </v>
   <v>       0.00901578 </v>
   <v>       0.00901578 </v>
   <v>       0.00150263 </v>
   <v>       0.00901578 </v>
   <v>       0.00901578 </v>
   <v>       0.00901578 </v>
   <v>       0.00901578 </v>
   <v>       0.00901578 </v>
   <v>       0.00901578 </v>
   <v>       0.01803156 </v>
   <v>       0.01803156 </v>
   <v>       0.01803156 </v>
   <v>       0.00901578 </v>
   <v>       0.00901578 </v>
   <v>       0.01803156 </v>
   <v>       0.01803156 </v>
   <v>       0.00901578 </v>
   <v>       0.00901578 </v>
   <v>       0.00150263 </v>
   <v>       0.00901578 </v>
   <v>       0.00901578 </v>
   <v>       0.00901578 </v>
   <v>       0.00901578 </v>
   <v>       0.00901578 </v>
   <v>       0.00901578 </v>
   <v>       0.01803156 </v>
   <v>       0.01803156 </v>
   <v>       0.01803156 </v>
   <v>       0.00901578 </v>
   <v>       0.00901578 </v>
   <v>       0.01803156 </v>
   <v>       0.01803156 </v>
   <v>       0.00901578 </v>
   <v>       0.00901578 </v>
  </varray>
 </kpoints>
 <parameters>
  <separator name="general" >
   <i type="string" name="SYSTEM">unknown system</i>
   <i type="logical" name="LCOMPAT"> F  </i>
  </separator>
  <separator name="electronic" >
   <i type="string" name="PREC">normal</i>
   <i name="ENMAX">    280.00000000</i>
   <i name="ENAUG">    511.36800000</i>
   <i name="EDIFF">      0.00000100</i>
   <i type="int" name="IALGO">    38</i>
   <i type="int" name="IWAVPR">     0</i>
   <i type="int" name="NBANDS">    40</i>
   <i type="int" name="NBANDSLOW">    -1</i>
   <i type="int" name="NBANDSHIGH">    -1</i>
   <i name="NELECT">     16.00000000</i>
   <i type="int" name="TURBO">     0</i>
   <i type="int" name="IRESTART">     0</i>
   <i type="int" name="NREBOOT">     0</i>
   <i type="int" name="NMIN">     0</i>
   <i name="EREF">      0.00000000</i>
   <separator name="electronic smearing" >
    <i type="int" name="ISMEAR">     1</i>
    <i name="SIGMA">      0.20000000</i>
    <i name="KSPACING">      0.50000000</i>
    <i type="logical" name="KGAMMA"> T  </i>
    <i type="logical" name="KBLOWUP"> T  </i>
   </separator>
   <separator name="electronic projectors" >
    <i type="logical" name="LREAL"> F  </i>
    <v name="ROPT">      0.00000000</v>
    <i type="int" name="LMAXPAW">  -100</i>
    <i type="int" name="LMAXMIX">     2</i>
    <i type="logical" name="NLSPLINE"> F  </i>
   </separator>
   <separator name="electronic startup" >
    <i type="int" name="ISTART">     0</i>
    <i type="int" name="ICHARG">     1</i>
    <i type="int" name="INIWAV">     1</i>
   </separator>
   <separator name="electronic spin" >
    <i type="int" name="ISPIN">     1</i>
    <i type="logical" name="LNONCOLLINEAR"> F  </i>
    <v name="MAGMOM">      1.00000000      1.00000000</v>
    <i name="NUPDOWN">     -1.00000000</i>
    <i type="logical" name="LSORBIT"> F  </i>
    <v name="SAXIS">      0.00000000      0.00000000      1.00000000</v>
    <i type="logical" name="LSPIRAL"> F  </i>
    <v name="QSPIRAL">      0.00000000      0.00000000      0.00000000</v>
    <i type="logical" name="LZEROZ"> F  </i>
   </separator>
   <separator name="electronic exchange-correlation" >
    <i type="logical" name="LASPH"> F  </i>
    <i type="logical" name="LMETAGGA"> F  </i>
   </separator>
   <separator name="electronic convergence" >
    <i type="int" name="NELM">    60</i>
    <i type="int" name="NELMDL">    -5</i>
    <i type="int" name="NELMIN">     2</i>
    <i name="ENINI">    280.00000000</i>
    <separator name="electronic convergence detail" >
     <i type="logical" name="LDIAG"> T  </i>
     <i type="logical" name="LSUBROT"> F  </i>
     <i name="WEIMIN">      0.00000000</i>
     <i name="EBREAK">      0.00000001</i>
     <i name="DEPER">      0.30000000</i>
     <i type="int" name="NRMM">     4</i>
     <i name="TIME">      0.40000000</i>
    </separator>
   </separator>
   <separator name="electronic mixer" >
    <i name="AMIX">      0.40000000</i>
    <i name="BMIX">      1.00000000</i>
    <i name="AMIN">      0.10000000</i>
    <i name="AMIX_MAG">      1.60000000</i>
    <i name="BMIX_MAG">      1.00000000</i>
    <separator name="electronic mixer details" >
     <i type="int" name="IMIX">     4</i>
     <i type="logical" name="MIXFIRST"> F  </i>
     <i type="int" name="MAXMIX">   -45</i>
     <i name="WC">    100.00000000</i>
     <i type="int" name="INIMIX">     1</i>
     <i type="int" name="MIXPRE">     1</i>
     <i type="int" name="MREMOVE">     5</i>
    </separator>
   </separator>
   <separator name="electronic dipolcorrection" >
    <i type="logical" name="LDIPOL"> F  </i>
    <i type="logical" name="LMONO"> F  </i>
    <i type="int" name="IDIPOL">     0</i>
    <i name="EPSILON">      1.00000000</i>
    <v name="DIPOL">   -100.00000000   -100.00000000   -100.00000000</v>
    <i name="EFIELD">      0.00000000</i>
   </separator>
  </separator>
  <separator name="grids" >
   <i type="int" name="NGX">    10</i>
   <i type="int" name="NGY">    10</i>
   <i type="int" name="NGZ">    18</i>
   <i type="int" name="NGXF">    20</i>
   <i type="int" name="NGYF">    20</i>
   <i type="int" name="NGZF">    36</i>
   <i type="logical" name="ADDGRID"> F  </i>
  </separator>
  <separator name="ionic" >
   <i type="int" name="NSW">     0</i>
   <i type="int" name="IBRION">    -1</i>
   <i type="int" name="MDALGO">     0</i>
   <i type="int" name="ISIF">     2</i>
   <i name="PSTRESS">      0.00000000</i>
   <i name="EDIFFG">      0.00001000</i>
   <i type="int" name="NFREE">     0</i>
   <i name="POTIM">      0.50000000</i>
   <i name="SMASS">     -3.00000000</i>
   <i name="SCALEE">      1.00000000</i>
  </separator>
  <separator name="ionic md" >
   <i name="TEBEG">      0.00010000</i>
   <i name="TEEND">      0.00010000</i>
   <i type="int" name="NBLOCK">     1</i>
   <i type="int" name="KBLOCK">     1</i>
   <i type="int" name="NPACO">   256</i>
   <i name="APACO">     16.00000000</i>
  </separator>
  <separator name="symmetry" >
   <i type="int" name="ISYM">     2</i>
   <i name="SYMPREC">      0.00001000</i>
  </separator>
  <separator name="dos" >
   <i type="int" name="LORBIT">     0</i>
   <v name="RWIGS">     -1.00000000</v>
   <i type="int" name="NEDOS">   301</i>
   <i name="EMIN">     10.00000000</i>
   <i name="EMAX">    -10.00000000</i>
   <i name="EFERMI">      0.00000000</i>
  </separator>
  <separator name="writing" >
   <i type="int" name="NWRITE">     2</i>
   <i type="logical" name="LWAVE"> T  </i>
   <i type="logical" name="LDOWNSAMPLE"> F  </i>
   <i type="logical" name="LCHARG"> T  </i>
   <i type="logical" name="LPARD"> F  </i>
   <i type="logical" name="LVTOT"> F  </i>
   <i type="logical" name="LVHAR"> F  </i>
   <i type="logical" name="LELF"> F  </i>
   <i type="logical" name="LOPTICS"> F  </i>
   <v name="STM">      0.00000000      0.00000000      0.00000000      0.00000000      0.00000000      0.00000000      0.00000000</v>
  </separator>
  <separator name="performance" >
   <i type="int" name="NPAR">     1</i>
   <i type="int" name="NSIM">     4</i>
   <i type="int" name="NBLK">    -1</i>
   <i type="logical" name="LPLANE"> T  </i>
   <i type="logical" name="LSCALAPACK"> F  </i>
   <i type="logical" name="LSCAAWARE"> F  </i>
   <i type="logical" name="LSCALU"> F  </i>
   <i type="logical" name="LASYNC"> F  </i>
   <i type="logical" name="LORBITALREAL"> F  </i>
  </separator>
  <separator name="miscellaneous" >
   <i type="int" name="IDIOT">     3</i>
   <i type="int" name="PHON_NSTRUCT">    -1</i>
   <i type="logical" name="LMUSIC"> F  </i>
   <v name="POMASS">     55.84700000</v>
   <v name="DARWINR">      0.00000000</v>
   <v name="DARWINV">      1.00000000</v>
   <i type="logical" name="LCORR"> T  </i>
  </separator>
  <i type="logical" name="GGA_COMPAT"> T  </i>
  <i type="logical" name="LBERRY"> F  </i>
  <i type="int" name="ICORELEVEL">     0</i>
  <i type="logical" name="LDAU"> F  </i>
  <i type="int" name="I_CONSTRAINED_M">     0</i>
  <separator name="electronic exchange-correlation" >
   <i type="string" name="GGA">PE</i>
   <i type="int" name="VOSKOWN">     0</i>
   <i type="logical" name="LHFCALC"> F  </i>
   <i type="string" name="PRECFOCK"></i>
   <i type="logical" name="LSYMGRAD"> F  </i>
   <i type="logical" name="LHFONE"> F  </i>
   <i type="logical" name="LRHFCALC"> F  </i>
   <i type="logical" name="LTHOMAS"> F  </i>
   <i type="logical" name="LMODELHF"> F  </i>
   <i type="logical" name="LFOCKACE"> F  </i>
   <i name="ENCUT4O">     -1.00000000</i>
   <i type="int" name="EXXOEP">     0</i>
   <i type="int" name="FOURORBIT">     0</i>
   <i name="AEXX">      0.00000000</i>
   <i name="HFALPHA">      0.00000000</i>
   <i name="MCALPHA">      0.00000000</i>
   <i name="ALDAX">      1.00000000</i>
   <i name="AGGAX">      1.00000000</i>
   <i name="ALDAC">      1.00000000</i>
   <i name="AGGAC">      1.00000000</i>
   <i type="int" name="NKREDX">     1</i>
   <i type="int" name="NKREDY">     1</i>
   <i type="int" name="NKREDZ">     1</i>
   <i type="logical" name="SHIFTRED"> F  </i>
   <i type="logical" name="ODDONLY"> F  </i>
   <i type="logical" name="EVENONLY"> F  </i>
   <i type="int" name="LMAXFOCK">     0</i>
   <i type="int" name="NMAXFOCKAE">     0</i>
   <i type="logical" name="LFOCKAEDFT"> F  </i>
   <i name="HFSCREEN">      0.00000000</i>
   <i name="HFSCREENC">      0.00000000</i>
   <i type="int" name="NBANDSGWLOW">     0</i>
  </separator>
  <separator name="vdW DFT" >
   <i type="logical" name="LUSE_VDW"> F  </i>
   <i name="Zab_VDW">     -0.84910000</i>
   <i name="PARAM1">      0.12340000</i>
   <i name="PARAM2">      1.00000000</i>
   <i name="PARAM3">      0.00000000</i>
  </separator>
  <separator name="model GW" >
   <i type="int" name="MODEL_GW">     0</i>
   <i name="MODEL_EPS0">      6.37490444</i>
   <i name="MODEL_ALPHA">      1.00000000</i>
  </separator>
  <separator name="linear response parameters" >
   <i type="logical" name="LEPSILON"> F  </i>
   <i type="logical" name="LRPA"> F  </i>
   <i type="logical" name="LNABLA"> F  </i>
   <i type="logical" name="LVEL"> F  </i>
   <i type="int" name="KINTER">     0</i>
   <i name="CSHIFT">      0.10000000</i>
   <i name="OMEGAMAX">     -1.00000000</i>
   <i name="DEG_THRESHOLD">      0.00200000</i>
   <i name="RTIME">     -0.10000000</i>
   <i name="WPLASMAI">      0.00000000</i>
   <v name="DFIELD">      0.00000000      0.00000000      0.00000000</v>
   <v name="WPLASMA">      0.00000000      0.00000000      0.00000000      0.00000000      0.00000000      0.00000000      0.00000000      0.00000000      0.00000000</v>
  </separator>
  <separator name="orbital magnetization" >
   <i type="logical" name="NUCIND"> F  </i>
   <v name="MAGPOS">      0.00000000      0.00000000      0.00000000</v>
   <i type="logical" name="LNICSALL"> T  </i>
   <i type="logical" name="ORBITALMAG"> F  </i>
   <i type="logical" name="LMAGBLOCH"> F  </i>
   <i type="logical" name="LCHIMAG"> F  </i>
   <i type="logical" name="LGAUGE"> T  </i>
   <i type="int" name="MAGATOM">     0</i>
   <v name="MAGDIPOL">      0.00000000      0.00000000      0.00000000</v>
   <v name="AVECCONST">      0.00000000      0.00000000      0.00000000</v>
  </separator>
  <separator name="response functions" >
   <i type="logical" name="LFINITE_TEMPERATURE"> F  </i>
   <i type="logical" name="LADDER"> F  </i>
   <i type="logical" name="LRPAFORCE"> F  </i>
   <i type="logical" name="LFXC"> F  </i>
   <i type="logical" name="LHARTREE"> T  </i>
   <i type="int" name="IBSE">     0</i>
   <v type="int" name="KPOINT">    -1     0     0     0</v>
   <i type="logical" name="LTCTC"> F  </i>
   <i type="logical" name="LTCTE"> F  </i>
   <i type="logical" name="LTETE"> F  </i>
   <i type="logical" name="LTRIPLET"> F  </i>
   <i type="logical" name="LFXCEPS"> F  </i>
   <i type="logical" name="LFXHEG"> F  </i>
   <i type="int" name="NATURALO">     2</i>
   <i type="logical" name="LHOLEGF"> F  </i>
   <i type="logical" name="L2ORDER"> F  </i>
   <i type="logical" name="LDMP1"> F  </i>
   <i type="logical" name="LMP2LT"> F  </i>
   <i type="logical" name="LSMP2LT"> F  </i>
   <i type="logical" name="LGWLF"> F  </i>
   <i name="ENCUTGW">     -2.00000000</i>
   <i name="ENCUTGWSOFT">     -2.00000000</i>
   <i name="ENCUTLF">     -1.00000000</i>
   <i type="logical" name="LESF_SPLINES"> F  </i>
   <i type="int" name="LMAXMP2">    -1</i>
   <i name="SCISSOR">      0.00000000</i>
   <i type="int" name="NOMEGA">     0</i>
   <i type="int" name="NOMEGAR">     0</i>
   <i type="int" name="NBANDSGW">    -1</i>
   <i type="int" name="NBANDSO">    -1</i>
   <i type="int" name="NBANDSV">    -1</i>
   <i type="int" name="NELM">     1</i>
   <i type="int" name="NELMHF">     1</i>
   <i type="int" name="DIM">     3</i>
   <i type="int" name="IESPILON">     4</i>
   <i type="int" name="ANTIRES">     0</i>
   <i name="OMEGAMAX">    -30.00000000</i>
   <i name="OMEGAMIN">    -30.00000000</i>
   <i name="OMEGATL">   -200.00000000</i>
   <i type="int" name="OMEGAGRID">     0</i>
   <i name="CSHIFT">     -0.10000000</i>
   <i type="logical" name="LSELFENERGY"> F  </i>
   <i type="logical" name="LSPECTRAL"> F  </i>
   <i type="logical" name="LSPECTRALGW"> F  </i>
   <i type="logical" name="LSINGLES"> F  </i>
   <i type="logical" name="LFERMIGW"> F  </i>
   <i type="logical" name="ODDONLYGW"> F  </i>
   <i type="logical" name="EVENONLYGW"> F  </i>
   <i type="int" name="NKREDLFX">     1</i>
   <i type="int" name="NKREDLFY">     1</i>
   <i type="int" name="NKREDLFZ">     1</i>
   <i type="int" name="MAXMEM">  2800</i>
   <i type="int" name="TELESCOPE">     0</i>
   <i type="int" name="NTAUPAR">    -1</i>
   <i type="int" name="NOMEGAPAR">    -1</i>
   <i name="DAMP_NEWTON">      0.80000001</i>
   <i name="LAMBDA">      1.00000000</i>
  </separator>
  <separator name="External order field" >
   <i name="OFIELD_KAPPA">      0.00000000</i>
   <v name="OFIELD_K">      0.00000000      0.00000000      0.00000000</v>
   <i name="OFIELD_Q6_NEAR">      0.00000000</i>
   <i name="OFIELD_Q6_FAR">      0.00000000</i>
   <i name="OFIELD_A">      0.00000000</i>
  </separator>
 </parameters>
 <atominfo>
  <atoms>       2 </atoms>
  <types>       1 </types>
  <array name="atoms" >
   <dimension dim="1">ion</dimension>
   <field type="string">element</field>
   <field type="int">atomtype</field>
   <set>
    <rc><c>Fe</c><c>   1</c></rc>
    <rc><c>Fe</c><c>   1</c></rc>
   </set>
  </array>
  <array name="atomtypes" >
   <dimension dim="1">type</dimension>
   <field type="int">atomspertype</field>
   <field type="string">element</field>
   <field>mass</field>
   <field>valence</field>
   <field type="string">pseudopotential</field>
   <set>
    <rc><c>   2</c><c>Fe</c><c>     55.84700000</c><c>      8.00000000</c><c>  PAW_PBE Fe 06Sep2000                  </c></rc>
   </set>
  </array>
 </atominfo>
 <structure name="initialpos" >
  <crystal>
   <varray name="basis" >
    <v>       2.42320000       0.00000000       0.00000000 </v>
    <v>      -1.21160000       2.09855276       0.00000000 </v>
    <v>       0.00000000       0.00000000       4.17872000 </v>
   </varray>
   <i name="volume">     21.24968145 </i>
   <varray name="rec_basis" >
    <v>       0.41267745       0.23825944       0.00000000 </v>
    <v>       0.00000000       0.47651888       0.00000000 </v>
    <v>       0.00000000       0.00000000       0.23930773 </v>
   </varray>
  </crystal>
  <varray name="positions" >
   <v>       0.00000000       0.00000000       0.00000000 </v>
   <v>       0.33333333       0.66666667       0.50000000 </v>
  </varray>
 </structure>
 <calculation>
  <scstep>
   <time name="dav">    0.82    0.84</time>
   <time name="total">    0.83    0.85</time>
   <energy>
    <i name="alphaZ">    130.09846977 </i>
    <i name="ewald">  -1210.23267037 </i>
    <i name="hartreedc">   -213.46254581 </i>
    <i name="XCdc">      8.22815960 </i>
    <i name="pawpsdc">   1109.69170683 </i>
    <i name="pawaedc">  -1125.09647265 </i>
    <i name="eentropy">      0.00123295 </i>
    <i name="bandstr">    172.69488452 </i>
    <i name="atom">   1188.57490811 </i>
    <i name="e_fr_energy">     60.49767295 </i>
    <i name="e_wo_entrp">     60.49644000 </i>
    <i name="e_0_energy">     60.49726197 </i>
   </energy>
  </scstep>
  <scstep>
   <time name="dav">    0.73    0.73</time>
   <time name="total">    0.73    0.73</time>
   <energy>
    <i name="e_fr_energy">    -14.71788764 </i>
    <i name="e_wo_entrp">    -14.71934979 </i>
    <i name="e_0_energy">    -14.71837502 </i>
   </energy>
  </scstep>
  <scstep>
   <time name="dav">    0.79    0.79</time>
   <time name="total">    0.80    0.80</time>
   <energy>
    <i name="e_fr_energy">    -19.33735471 </i>
    <i name="e_wo_entrp">    -19.33730812 </i>
    <i name="e_0_energy">    -19.33733918 </i>
   </energy>
  </scstep>
  <scstep>
   <time name="dav">    0.76    0.76</time>
   <time name="total">    0.77    0.77</time>
   <energy>
    <i name="e_fr_energy">    -19.36110098 </i>
    <i name="e_wo_entrp">    -19.36099816 </i>
    <i name="e_0_energy">    -19.36106671 </i>
   </energy>
  </scstep>
  <scstep>
   <time name="dav">    0.76    0.76</time>
   <time name="total">    0.79    0.79</time>
   <energy>
    <i name="e_fr_energy">    -19.36113645 </i>
    <i name="e_wo_entrp">    -19.36103356 </i>
    <i name="e_0_energy">    -19.36110215 </i>
   </energy>
  </scstep>
  <scstep>
   <time name="dav">    0.91    0.91</time>
   <time name="total">    0.94    0.94</time>
   <energy>
    <i name="e_fr_energy">    -16.43758835 </i>
    <i name="e_wo_entrp">    -16.43996738 </i>
    <i name="e_0_energy">    -16.43838136 </i>
   </energy>
  </scstep>
  <scstep>
   <time name="dav">    0.84    0.84</time>
   <time name="total">    0.87    0.87</time>
   <energy>
    <i name="e_fr_energy">    -16.18777137 </i>
    <i name="e_wo_entrp">    -16.19010331 </i>
    <i name="e_0_energy">    -16.18854868 </i>
   </energy>
  </scstep>
  <scstep>
   <time name="dav">    0.83    0.83</time>
   <time name="total">    0.86    0.86</time>
   <energy>
    <i name="e_fr_energy">    -16.16293211 </i>
    <i name="e_wo_entrp">    -16.16533877 </i>
    <i name="e_0_energy">    -16.16373433 </i>
   </energy>
  </scstep>
  <scstep>
   <time name="dav">    0.93    0.93</time>
   <time name="total">    0.96    0.96</time>
   <energy>
    <i name="e_fr_energy">    -16.15166564 </i>
    <i name="e_wo_entrp">    -16.15407430 </i>
    <i name="e_0_energy">    -16.15246852 </i>
   </energy>
  </scstep>
  <scstep>
   <time name="dav">    0.75    0.75</time>
   <time name="total">    0.79    0.79</time>
   <energy>
    <i name="e_fr_energy">    -16.15169212 </i>
    <i name="e_wo_entrp">    -16.15409516 </i>
    <i name="e_0_energy">    -16.15249313 </i>
   </energy>
  </scstep>
  <scstep>
   <time name="dav">    0.76    0.76</time>
   <time name="total">    0.79    0.79</time>
   <energy>
    <i name="e_fr_energy">    -16.15168680 </i>
    <i name="e_wo_entrp">    -16.15408971 </i>
    <i name="e_0_energy">    -16.15248777 </i>
   </energy>
  </scstep>
  <scstep>
   <time name="dav">    0.57    0.57</time>
   <time name="total">    0.58    0.58</time>
   <energy>
    <i name="alphaZ">    130.09846977 </i>
    <i name="ewald">  -1210.23267037 </i>
    <i name="hartreedc">   -178.91912060 </i>
    <i name="XCdc">      6.62421920 </i>
    <i name="pawpsdc">   1428.47074768 </i>
    <i name="pawaedc">  -1445.54905003 </i>
    <i name="eentropy">      0.00240326 </i>
    <i name="bandstr">     64.77840640 </i>
    <i name="atom">   1188.57490811 </i>
    <i name="e_fr_energy">    -16.15168659 </i>
    <i name="e_wo_entrp">    -16.15408984 </i>
    <i name="e_0_energy">    -16.15248767 </i>
   </energy>
  </scstep>
  <structure>
   <crystal>
    <varray name="basis" >
     <v>       2.42320000       0.00000000       0.00000000 </v>
     <v>      -1.21160000       2.09855276       0.00000000 </v>
     <v>       0.00000000       0.00000000       4.17872000 </v>
    </varray>
    <i name="volume">     21.24968145 </i>
    <varray name="rec_basis" >
     <v>       0.41267745       0.23825944       0.00000000 </v>
     <v>       0.00000000       0.47651888       0.00000000 </v>
     <v>       0.00000000       0.00000000       0.23930773 </v>
    </varray>
   </crystal>
   <varray name="positions" >
    <v>       0.00000000       0.00000000       0.00000000 </v>
    <v>       0.33333333       0.66666667       0.50000000 </v>
   </varray>
  </structure>
  <varray name="forces" >
   <v>      -0.00000000       0.00000000       0.00000000 </v>
   <v>       0.00000000      -0.00000000      -0.00000000 </v>
  </varray>
  <varray name="stress" >
   <v>      -4.69756509      -0.00000000       0.00000000 </v>
   <v>      -0.00000000      -4.69756509       0.00000000 </v>
   <v>       0.00000000       0.00000000    -342.34697598 </v>
  </varray>
  <energy>
   <i name="e_fr_energy">    -16.15168659 </i>
   <i name="e_wo_entrp">    -16.15408984 </i>
   <i name="e_0_energy">    -16.15248767 </i>
  </energy>
  <time name="totalsc">   10.04   10.06</time>
  <eigenvalues>
   <array>
    <dimension dim="1">band</dimension>
    <dimension dim="2">kpoint</dimension>
    <dimension dim="3">spin</dimension>
    <field>eigene</field>
    <field>occ</field>
    <set>
     <set comment="spin 1">
      <set comment="kpoint 1">
       <r>   -2.2295    1.0000 </r>
       <r>    1.6764    1.0000 </r>
       <r>    4.4833    1.0000 </r>
       <r>    4.9410    1.0000 </r>
       <r>    4.9412    1.0000 </r>
       <r>    5.2540    1.0000 </r>
       <r>    5.2542    1.0000 </r>
       <r>    5.9829    1.0047 </r>
       <r>    6.0311    1.0104 </r>
       <r>    6.0312    1.0104 </r>
       <r>    7.1085   -0.0000 </r>
       <r>    7.1086   -0.0000 </r>
       <r>   13.5935    0.0000 </r>
       <r>   29.1824    0.0000 </r>
       <r>   30.0953    0.0000 </r>
       <r>   32.1727    0.0000 </r>
       <r>   33.7054    0.0000 </r>
       <r>   33.7055    0.0000 </r>
       <r>   34.5746    0.0000 </r>
       <r>   34.5749    0.0000 </r>
       <r>   36.3917    0.0000 </r>
       <r>   37.8138    0.0000 </r>
       <r>   37.8138    0.0000 </r>
       <r>   38.8641    0.0000 </r>
       <r>   41.2234    0.0000 </r>
       <r>   41.2234    0.0000 </r>
       <r>   41.9673    0.0000 </r>
       <r>   44.5198    0.0000 </r>
       <r>   44.5202    0.0000 </r>
       <r>   46.2270    0.0000 </r>
       <r>   46.2272    0.0000 </r>
       <r>   48.9124    0.0000 </r>
       <r>   56.9596    0.0000 </r>
       <r>   60.4789    0.0000 </r>
       <r>   60.4802    0.0000 </r>
       <r>   61.1679    0.0000 </r>
       <r>   61.8272    0.0000 </r>
       <r>   62.3679    0.0000 </r>
       <r>   62.3682    0.0000 </r>
       <r>   62.9701    0.0000 </r>
      </set>
      <set comment="kpoint 2">
       <r>   -1.9151    1.0000 </r>
       <r>    1.9037    1.0000 </r>
       <r>    4.4442    1.0000 </r>
       <r>    4.9316    1.0000 </r>
       <r>    5.0906    1.0000 </r>
       <r>    5.1185    1.0000 </r>
       <r>    5.1565    1.0000 </r>
       <r>    5.4166    1.0000 </r>
       <r>    5.9179    1.0013 </r>
       <r>    5.9272    1.0015 </r>
       <r>    7.1460   -0.0000 </r>
       <r>    8.2578   -0.0000 </r>
       <r>   13.6209    0.0000 </r>
       <r>   27.7511    0.0000 </r>
       <r>   30.2690    0.0000 </r>
       <r>   30.3863    0.0000 </r>
       <r>   31.0736    0.0000 </r>
       <r>   33.7189    0.0000 </r>
       <r>   33.9818    0.0000 </r>
       <r>   36.1782    0.0000 </r>
       <r>   37.2192    0.0000 </r>
       <r>   37.4259    0.0000 </r>
       <r>   38.0806    0.0000 </r>
       <r>   38.1583    0.0000 </r>
       <r>   41.9678    0.0000 </r>
       <r>   42.2057    0.0000 </r>
       <r>   42.3988    0.0000 </r>
       <r>   42.8369    0.0000 </r>
       <r>   46.1392    0.0000 </r>
       <r>   47.6550    0.0000 </r>
       <r>   48.7275    0.0000 </r>
       <r>   50.8773    0.0000 </r>
       <r>   56.5505    0.0000 </r>
       <r>   59.0838    0.0000 </r>
       <r>   59.1426    0.0000 </r>
       <r>   59.6309    0.0000 </r>
       <r>   60.6601    0.0000 </r>
       <r>   62.9283    0.0000 </r>
       <r>   63.5593    0.0000 </r>
       <r>   64.3346    0.0000 </r>
      </set>
      <set comment="kpoint 3">
       <r>   -1.0203    1.0000 </r>
       <r>    2.4446    1.0000 </r>
       <r>    4.0565    1.0000 </r>
       <r>    4.1990    1.0000 </r>
       <r>    4.7903    1.0000 </r>
       <r>    5.3174    1.0000 </r>
       <r>    5.6102    1.0000 </r>
       <r>    5.6238    1.0000 </r>
       <r>    5.6806    1.0000 </r>
       <r>    5.8659    1.0004 </r>
       <r>    7.2061   -0.0000 </r>
       <r>   10.0379   -0.0000 </r>
       <r>   13.7273    0.0000 </r>
       <r>   23.9335    0.0000 </r>
       <r>   28.3550    0.0000 </r>
       <r>   29.0818    0.0000 </r>
       <r>   29.7211    0.0000 </r>
       <r>   31.1769    0.0000 </r>
       <r>   34.1689    0.0000 </r>
       <r>   35.5481    0.0000 </r>
       <r>   35.9523    0.0000 </r>
       <r>   36.3405    0.0000 </r>
       <r>   38.5052    0.0000 </r>
       <r>   39.5616    0.0000 </r>
       <r>   41.7953    0.0000 </r>
       <r>   43.2375    0.0000 </r>
       <r>   44.9595    0.0000 </r>
       <r>   47.1192    0.0000 </r>
       <r>   48.6534    0.0000 </r>
       <r>   51.4549    0.0000 </r>
       <r>   51.6664    0.0000 </r>
       <r>   54.3854    0.0000 </r>
       <r>   55.1895    0.0000 </r>
       <r>   55.8508    0.0000 </r>
       <r>   57.3883    0.0000 </r>
       <r>   59.2317    0.0000 </r>
       <r>   60.0870    0.0000 </r>
       <r>   62.6529    0.0000 </r>
       <r>   64.8948    0.0000 </r>
       <r>   65.6904    0.0000 </r>
      </set>
      <set comment="kpoint 4">
       <r>    0.2723    1.0000 </r>
       <r>    2.7454    1.0000 </r>
       <r>    3.2692    1.0000 </r>
       <r>    4.1019    1.0000 </r>
       <r>    4.6312    1.0000 </r>
       <r>    5.2500    1.0000 </r>
       <r>    5.3992    1.0000 </r>
       <r>    5.9934    1.0056 </r>
       <r>    6.3084    0.8853 </r>
       <r>    6.4949    0.1870 </r>
       <r>    7.2459   -0.0000 </r>
       <r>   12.0448    0.0000 </r>
       <r>   13.9602    0.0000 </r>
       <r>   20.0367    0.0000 </r>
       <r>   26.0381    0.0000 </r>
       <r>   26.1550    0.0000 </r>
       <r>   27.4580    0.0000 </r>
       <r>   30.8296    0.0000 </r>
       <r>   32.1666    0.0000 </r>
       <r>   35.6714    0.0000 </r>
       <r>   36.0575    0.0000 </r>
       <r>   36.1923    0.0000 </r>
       <r>   36.3560    0.0000 </r>
       <r>   40.2069    0.0000 </r>
       <r>   45.3603    0.0000 </r>
       <r>   47.1547    0.0000 </r>
       <r>   48.3184    0.0000 </r>
       <r>   49.7053    0.0000 </r>
       <r>   51.0224    0.0000 </r>
       <r>   51.8775    0.0000 </r>
       <r>   53.3687    0.0000 </r>
       <r>   54.3562    0.0000 </r>
       <r>   56.9981    0.0000 </r>
       <r>   57.4355    0.0000 </r>
       <r>   57.7797    0.0000 </r>
       <r>   58.8127    0.0000 </r>
       <r>   61.4504    0.0000 </r>
       <r>   62.3107    0.0000 </r>
       <r>   64.5689    0.0000 </r>
       <r>   65.5508    0.0000 </r>
      </set>
      <set comment="kpoint 5">
       <r>    1.5012    1.0000 </r>
       <r>    2.5290    1.0000 </r>
       <r>    2.7510    1.0000 </r>
       <r>    4.2620    1.0000 </r>
       <r>    4.9166    1.0000 </r>
       <r>    4.9358    1.0000 </r>
       <r>    5.1649    1.0000 </r>
       <r>    7.0066   -0.0001 </r>
       <r>    7.0900   -0.0000 </r>
       <r>    7.1245   -0.0000 </r>
       <r>    7.2612   -0.0000 </r>
       <r>   13.8246    0.0000 </r>
       <r>   14.2009    0.0000 </r>
       <r>   17.2883    0.0000 </r>
       <r>   22.9658    0.0000 </r>
       <r>   24.2735    0.0000 </r>
       <r>   24.6782    0.0000 </r>
       <r>   29.8895    0.0000 </r>
       <r>   31.0710    0.0000 </r>
       <r>   34.2622    0.0000 </r>
       <r>   35.2411    0.0000 </r>
       <r>   37.1565    0.0000 </r>
       <r>   38.1012    0.0000 </r>
       <r>   40.7020    0.0000 </r>
       <r>   47.9890    0.0000 </r>
       <r>   48.7273    0.0000 </r>
       <r>   48.9930    0.0000 </r>
       <r>   52.2928    0.0000 </r>
       <r>   52.2963    0.0000 </r>
       <r>   53.3145    0.0000 </r>
       <r>   55.5014    0.0000 </r>
       <r>   56.1209    0.0000 </r>
       <r>   56.7048    0.0000 </r>
       <r>   58.4308    0.0000 </r>
       <r>   60.2613    0.0000 </r>
       <r>   61.8940    0.0000 </r>
       <r>   62.0838    0.0000 </r>
       <r>   63.2320    0.0000 </r>
       <r>   64.6908    0.0000 </r>
       <r>   65.1662    0.0000 </r>
      </set>
      <set comment="kpoint 6">
       <r>    2.0814    1.0000 </r>
       <r>    2.2888    1.0000 </r>
       <r>    2.4959    1.0000 </r>
       <r>    4.7182    1.0000 </r>
       <r>    4.7217    1.0000 </r>
       <r>    5.0340    1.0000 </r>
       <r>    5.1592    1.0000 </r>
       <r>    7.2624   -0.0000 </r>
       <r>    7.4319   -0.0000 </r>
       <r>    7.5520   -0.0000 </r>
       <r>    8.6313   -0.0000 </r>
       <r>   11.8952    0.0000 </r>
       <r>   16.2522    0.0000 </r>
       <r>   17.4099    0.0000 </r>
       <r>   20.4114    0.0000 </r>
       <r>   22.0671    0.0000 </r>
       <r>   23.2924    0.0000 </r>
       <r>   29.2753    0.0000 </r>
       <r>   30.7276    0.0000 </r>
       <r>   33.2014    0.0000 </r>
       <r>   35.0330    0.0000 </r>
       <r>   37.8750    0.0000 </r>
       <r>   40.3376    0.0000 </r>
       <r>   40.8679    0.0000 </r>
       <r>   44.6597    0.0000 </r>
       <r>   49.1113    0.0000 </r>
       <r>   50.8815    0.0000 </r>
       <r>   54.6010    0.0000 </r>
       <r>   55.3415    0.0000 </r>
       <r>   55.4349    0.0000 </r>
       <r>   56.5080    0.0000 </r>
       <r>   58.3556    0.0000 </r>
       <r>   58.7248    0.0000 </r>
       <r>   60.0585    0.0000 </r>
       <r>   60.3196    0.0000 </r>
       <r>   60.7008    0.0000 </r>
       <r>   63.4275    0.0000 </r>
       <r>   63.6435    0.0000 </r>
       <r>   64.0324    0.0000 </r>
       <r>   64.6058    0.0000 </r>
      </set>
      <set comment="kpoint 7">
       <r>   -1.3084    1.0000 </r>
       <r>    2.3027    1.0000 </r>
       <r>    4.2483    1.0000 </r>
       <r>    4.3262    1.0000 </r>
       <r>    4.9650    1.0000 </r>
       <r>    5.0499    1.0000 </r>
       <r>    5.4772    1.0000 </r>
       <r>    5.5586    1.0000 </r>
       <r>    5.7659    1.0000 </r>
       <r>    5.9121    1.0011 </r>
       <r>    7.1655   -0.0000 </r>
       <r>    9.5423   -0.0000 </r>
       <r>   13.6910    0.0000 </r>
       <r>   25.6931    0.0000 </r>
       <r>   26.7877    0.0000 </r>
       <r>   30.7034    0.0000 </r>
       <r>   31.3183    0.0000 </r>
       <r>   32.3143    0.0000 </r>
       <r>   32.7504    0.0000 </r>
       <r>   34.4594    0.0000 </r>
       <r>   35.6635    0.0000 </r>
       <r>   39.0033    0.0000 </r>
       <r>   39.8162    0.0000 </r>
       <r>   40.2090    0.0000 </r>
       <r>   41.2746    0.0000 </r>
       <r>   41.3765    0.0000 </r>
       <r>   41.3994    0.0000 </r>
       <r>   47.6610    0.0000 </r>
       <r>   49.5661    0.0000 </r>
       <r>   49.6064    0.0000 </r>
       <r>   49.6511    0.0000 </r>
       <r>   53.8248    0.0000 </r>
       <r>   55.7762    0.0000 </r>
       <r>   56.7918    0.0000 </r>
       <r>   57.4311    0.0000 </r>
       <r>   59.1312    0.0000 </r>
       <r>   59.9040    0.0000 </r>
       <r>   63.2215    0.0000 </r>
       <r>   64.8232    0.0000 </r>
       <r>   65.7930    0.0000 </r>
      </set>
      <set comment="kpoint 8">
       <r>   -0.1950    1.0000 </r>
       <r>    2.8252    1.0000 </r>
       <r>    3.5538    1.0000 </r>
       <r>    3.9319    1.0000 </r>
       <r>    4.7156    1.0000 </r>
       <r>    5.1812    1.0000 </r>
       <r>    5.4445    1.0000 </r>
       <r>    5.6891    1.0000 </r>
       <r>    6.1197    1.0289 </r>
       <r>    6.4136    0.5018 </r>
       <r>    7.1807   -0.0000 </r>
       <r>   11.3358   -0.0000 </r>
       <r>   13.9020    0.0000 </r>
       <r>   22.0284    0.0000 </r>
       <r>   24.5125    0.0000 </r>
       <r>   27.9466    0.0000 </r>
       <r>   30.1423    0.0000 </r>
       <r>   30.1495    0.0000 </r>
       <r>   33.1727    0.0000 </r>
       <r>   34.1164    0.0000 </r>
       <r>   34.4211    0.0000 </r>
       <r>   38.8936    0.0000 </r>
       <r>   39.2152    0.0000 </r>
       <r>   39.7174    0.0000 </r>
       <r>   42.9455    0.0000 </r>
       <r>   44.0695    0.0000 </r>
       <r>   45.7366    0.0000 </r>
       <r>   49.7849    0.0000 </r>
       <r>   52.0121    0.0000 </r>
       <r>   52.5555    0.0000 </r>
       <r>   52.9039    0.0000 </r>
       <r>   54.9045    0.0000 </r>
       <r>   55.7647    0.0000 </r>
       <r>   56.1633    0.0000 </r>
       <r>   57.3770    0.0000 </r>
       <r>   57.3849    0.0000 </r>
       <r>   60.7011    0.0000 </r>
       <r>   63.4851    0.0000 </r>
       <r>   64.9232    0.0000 </r>
       <r>   65.9673    0.0000 </r>
      </set>
      <set comment="kpoint 9">
       <r>    1.1399    1.0000 </r>
       <r>    2.8207    1.0000 </r>
       <r>    2.9788    1.0000 </r>
       <r>    3.9624    1.0000 </r>
       <r>    4.7649    1.0000 </r>
       <r>    4.8840    1.0000 </r>
       <r>    5.3574    1.0000 </r>
       <r>    6.1243    1.0299 </r>
       <r>    6.8245   -0.0067 </r>
       <r>    7.1847   -0.0000 </r>
       <r>    7.2590   -0.0000 </r>
       <r>   13.3897    0.0000 </r>
       <r>   14.2299    0.0000 </r>
       <r>   18.4508    0.0000 </r>
       <r>   22.8669    0.0000 </r>
       <r>   24.6427    0.0000 </r>
       <r>   26.8872    0.0000 </r>
       <r>   28.9504    0.0000 </r>
       <r>   32.3536    0.0000 </r>
       <r>   33.3849    0.0000 </r>
       <r>   35.5084    0.0000 </r>
       <r>   38.7154    0.0000 </r>
       <r>   38.8443    0.0000 </r>
       <r>   41.2886    0.0000 </r>
       <r>   44.8289    0.0000 </r>
       <r>   47.7255    0.0000 </r>
       <r>   49.2785    0.0000 </r>
       <r>   50.0233    0.0000 </r>
       <r>   50.7527    0.0000 </r>
       <r>   53.4851    0.0000 </r>
       <r>   55.2159    0.0000 </r>
       <r>   55.7915    0.0000 </r>
       <r>   56.7443    0.0000 </r>
       <r>   57.6858    0.0000 </r>
       <r>   59.5277    0.0000 </r>
       <r>   61.5333    0.0000 </r>
       <r>   61.9648    0.0000 </r>
       <r>   63.2400    0.0000 </r>
       <r>   63.8613    0.0000 </r>
       <r>   65.9411    0.0000 </r>
      </set>
      <set comment="kpoint 10">
       <r>    2.0734    1.0000 </r>
       <r>    2.5373    1.0000 </r>
       <r>    2.6363    1.0000 </r>
       <r>    4.3028    1.0000 </r>
       <r>    4.7205    1.0000 </r>
       <r>    5.0540    1.0000 </r>
       <r>    5.0829    1.0000 </r>
       <r>    6.9326   -0.0008 </r>
       <r>    7.1788   -0.0000 </r>
       <r>    7.3195   -0.0000 </r>
       <r>    8.3639   -0.0000 </r>
       <r>   13.2850    0.0000 </r>
       <r>   15.5639    0.0000 </r>
       <r>   17.1677    0.0000 </r>
       <r>   21.6093    0.0000 </r>
       <r>   21.7215    0.0000 </r>
       <r>   23.7422    0.0000 </r>
       <r>   28.0905    0.0000 </r>
       <r>   31.4025    0.0000 </r>
       <r>   32.8523    0.0000 </r>
       <r>   36.3691    0.0000 </r>
       <r>   39.1859    0.0000 </r>
       <r>   40.0903    0.0000 </r>
       <r>   41.2251    0.0000 </r>
       <r>   46.5825    0.0000 </r>
       <r>   47.6053    0.0000 </r>
       <r>   49.6546    0.0000 </r>
       <r>   51.4338    0.0000 </r>
       <r>   52.6261    0.0000 </r>
       <r>   55.2564    0.0000 </r>
       <r>   55.5812    0.0000 </r>
       <r>   57.4456    0.0000 </r>
       <r>   58.7370    0.0000 </r>
       <r>   60.4547    0.0000 </r>
       <r>   60.9321    0.0000 </r>
       <r>   61.9306    0.0000 </r>
       <r>   62.6810    0.0000 </r>
       <r>   63.4573    0.0000 </r>
       <r>   64.7327    0.0000 </r>
       <r>   64.9111    0.0000 </r>
      </set>
      <set comment="kpoint 11">
       <r>    2.3221    1.0000 </r>
       <r>    2.3962    1.0000 </r>
       <r>    2.5237    1.0000 </r>
       <r>    4.6247    1.0000 </r>
       <r>    4.6852    1.0000 </r>
       <r>    4.9178    1.0000 </r>
       <r>    5.1969    1.0000 </r>
       <r>    7.1749   -0.0000 </r>
       <r>    7.3879   -0.0000 </r>
       <r>    7.4025   -0.0000 </r>
       <r>    9.5349   -0.0000 </r>
       <r>   11.5597   -0.0000 </r>
       <r>   17.0481    0.0000 </r>
       <r>   17.8608    0.0000 </r>
       <r>   19.9942    0.0000 </r>
       <r>   20.8465    0.0000 </r>
       <r>   22.2998    0.0000 </r>
       <r>   27.7909    0.0000 </r>
       <r>   31.0203    0.0000 </r>
       <r>   32.6916    0.0000 </r>
       <r>   36.4821    0.0000 </r>
       <r>   39.9725    0.0000 </r>
       <r>   40.3411    0.0000 </r>
       <r>   41.9636    0.0000 </r>
       <r>   44.2225    0.0000 </r>
       <r>   49.2880    0.0000 </r>
       <r>   49.6111    0.0000 </r>
       <r>   52.6014    0.0000 </r>
       <r>   54.2962    0.0000 </r>
       <r>   54.7450    0.0000 </r>
       <r>   57.7935    0.0000 </r>
       <r>   58.5215    0.0000 </r>
       <r>   59.0055    0.0000 </r>
       <r>   59.1896    0.0000 </r>
       <r>   60.3736    0.0000 </r>
       <r>   62.5908    0.0000 </r>
       <r>   64.2759    0.0000 </r>
       <r>   64.2854    0.0000 </r>
       <r>   64.7477    0.0000 </r>
       <r>   65.9436    0.0000 </r>
      </set>
      <set comment="kpoint 12">
       <r>    1.0196    1.0000 </r>
       <r>    3.1132    1.0000 </r>
       <r>    3.2376    1.0000 </r>
       <r>    3.5196    1.0000 </r>
       <r>    4.7637    1.0000 </r>
       <r>    4.7873    1.0000 </r>
       <r>    5.4974    1.0000 </r>
       <r>    5.6746    1.0000 </r>
       <r>    6.8032   -0.0095 </r>
       <r>    7.1014   -0.0000 </r>
       <r>    7.3140   -0.0000 </r>
       <r>   13.1286    0.0000 </r>
       <r>   14.3661    0.0000 </r>
       <r>   20.1336    0.0000 </r>
       <r>   20.7979    0.0000 </r>
       <r>   26.1882    0.0000 </r>
       <r>   27.3821    0.0000 </r>
       <r>   29.1092    0.0000 </r>
       <r>   29.8187    0.0000 </r>
       <r>   35.2610    0.0000 </r>
       <r>   36.2005    0.0000 </r>
       <r>   39.5878    0.0000 </r>
       <r>   39.9248    0.0000 </r>
       <r>   42.5234    0.0000 </r>
       <r>   43.1186    0.0000 </r>
       <r>   45.0531    0.0000 </r>
       <r>   46.4652    0.0000 </r>
       <r>   51.5288    0.0000 </r>
       <r>   51.5512    0.0000 </r>
       <r>   53.3842    0.0000 </r>
       <r>   53.6586    0.0000 </r>
       <r>   56.4500    0.0000 </r>
       <r>   56.5981    0.0000 </r>
       <r>   58.9538    0.0000 </r>
       <r>   59.3596    0.0000 </r>
       <r>   60.2233    0.0000 </r>
       <r>   60.3710    0.0000 </r>
       <r>   64.1551    0.0000 </r>
       <r>   64.2600    0.0000 </r>
       <r>   66.5963    0.0000 </r>
      </set>
      <set comment="kpoint 13">
       <r>    2.2206    1.0000 </r>
       <r>    2.8250    1.0000 </r>
       <r>    3.0273    1.0000 </r>
       <r>    3.6545    1.0000 </r>
       <r>    4.5684    1.0000 </r>
       <r>    5.0138    1.0000 </r>
       <r>    5.1487    1.0000 </r>
       <r>    6.1773    1.0352 </r>
       <r>    7.0340   -0.0001 </r>
       <r>    7.2743   -0.0000 </r>
       <r>    8.4754   -0.0000 </r>
       <r>   14.7919    0.0000 </r>
       <r>   15.2213    0.0000 </r>
       <r>   17.3813    0.0000 </r>
       <r>   19.2826    0.0000 </r>
       <r>   23.5610    0.0000 </r>
       <r>   25.7515    0.0000 </r>
       <r>   25.8791    0.0000 </r>
       <r>   28.4988    0.0000 </r>
       <r>   36.6267    0.0000 </r>
       <r>   37.2533    0.0000 </r>
       <r>   40.0165    0.0000 </r>
       <r>   42.1625    0.0000 </r>
       <r>   42.8111    0.0000 </r>
       <r>   44.4943    0.0000 </r>
       <r>   46.3181    0.0000 </r>
       <r>   47.6698    0.0000 </r>
       <r>   49.2128    0.0000 </r>
       <r>   52.3761    0.0000 </r>
       <r>   52.6546    0.0000 </r>
       <r>   54.7551    0.0000 </r>
       <r>   57.4929    0.0000 </r>
       <r>   58.9287    0.0000 </r>
       <r>   59.9634    0.0000 </r>
       <r>   62.0529    0.0000 </r>
       <r>   62.3505    0.0000 </r>
       <r>   63.1454    0.0000 </r>
       <r>   64.3606    0.0000 </r>
       <r>   64.9890    0.0000 </r>
       <r>   66.2251    0.0000 </r>
      </set>
      <set comment="kpoint 14">
       <r>    2.6908    1.0000 </r>
       <r>    2.7267    1.0000 </r>
       <r>    2.8085    1.0000 </r>
       <r>    4.0696    1.0000 </r>
       <r>    4.5739    1.0000 </r>
       <r>    4.7979    1.0000 </r>
       <r>    5.2586    1.0000 </r>
       <r>    6.7999   -0.0100 </r>
       <r>    6.9961   -0.0002 </r>
       <r>    7.3088   -0.0000 </r>
       <r>    9.9840   -0.0000 </r>
       <r>   12.8917    0.0000 </r>
       <r>   17.3774    0.0000 </r>
       <r>   17.7489    0.0000 </r>
       <r>   18.5720    0.0000 </r>
       <r>   20.9636    0.0000 </r>
       <r>   22.9132    0.0000 </r>
       <r>   25.3189    0.0000 </r>
       <r>   27.8652    0.0000 </r>
       <r>   36.4753    0.0000 </r>
       <r>   38.9094    0.0000 </r>
       <r>   40.6339    0.0000 </r>
       <r>   42.2672    0.0000 </r>
       <r>   42.8893    0.0000 </r>
       <r>   46.4274    0.0000 </r>
       <r>   46.6733    0.0000 </r>
       <r>   48.8254    0.0000 </r>
       <r>   48.8276    0.0000 </r>
       <r>   52.2705    0.0000 </r>
       <r>   53.7177    0.0000 </r>
       <r>   54.0156    0.0000 </r>
       <r>   57.8138    0.0000 </r>
       <r>   58.1238    0.0000 </r>
       <r>   59.5748    0.0000 </r>
       <r>   63.0684    0.0000 </r>
       <r>   64.1175    0.0000 </r>
       <r>   64.9231    0.0000 </r>
       <r>   65.3321    0.0000 </r>
       <r>   65.3548    0.0000 </r>
       <r>   65.8846    0.0000 </r>
      </set>
      <set comment="kpoint 15">
       <r>    2.8054    1.0000 </r>
       <r>    3.0199    1.0000 </r>
       <r>    3.3548    1.0000 </r>
       <r>    3.3879    1.0000 </r>
       <r>    4.4297    1.0000 </r>
       <r>    4.8109    1.0000 </r>
       <r>    5.3029    1.0000 </r>
       <r>    6.4217    0.4675 </r>
       <r>    6.9037   -0.0015 </r>
       <r>    7.2844   -0.0000 </r>
       <r>   10.0902   -0.0000 </r>
       <r>   14.9413    0.0000 </r>
       <r>   15.4428    0.0000 </r>
       <r>   17.3973    0.0000 </r>
       <r>   18.4352    0.0000 </r>
       <r>   22.8782    0.0000 </r>
       <r>   22.9575    0.0000 </r>
       <r>   24.5557    0.0000 </r>
       <r>   25.4286    0.0000 </r>
       <r>   38.7650    0.0000 </r>
       <r>   39.6956    0.0000 </r>
       <r>   42.1972    0.0000 </r>
       <r>   43.1324    0.0000 </r>
       <r>   44.6349    0.0000 </r>
       <r>   44.6595    0.0000 </r>
       <r>   44.9648    0.0000 </r>
       <r>   47.2413    0.0000 </r>
       <r>   49.6857    0.0000 </r>
       <r>   50.0217    0.0000 </r>
       <r>   53.1404    0.0000 </r>
       <r>   53.8342    0.0000 </r>
       <r>   56.1143    0.0000 </r>
       <r>   57.9343    0.0000 </r>
       <r>   59.8093    0.0000 </r>
       <r>   63.1113    0.0000 </r>
       <r>   64.3445    0.0000 </r>
       <r>   64.6936    0.0000 </r>
       <r>   66.1253    0.0000 </r>
       <r>   66.2833    0.0000 </r>
       <r>   66.3281    0.0000 </r>
      </set>
      <set comment="kpoint 16">
       <r>    2.8224    1.0000 </r>
       <r>    3.2097    1.0000 </r>
       <r>    3.2111    1.0000 </r>
       <r>    3.6835    1.0000 </r>
       <r>    4.4877    1.0000 </r>
       <r>    4.5537    1.0000 </r>
       <r>    5.4411    1.0000 </r>
       <r>    6.7510   -0.0192 </r>
       <r>    6.8529   -0.0041 </r>
       <r>    7.0198   -0.0001 </r>
       <r>   11.7981   -0.0000 </r>
       <r>   12.9664    0.0000 </r>
       <r>   15.0664    0.0000 </r>
       <r>   19.2906    0.0000 </r>
       <r>   19.4200    0.0000 </r>
       <r>   20.7538    0.0000 </r>
       <r>   22.7265    0.0000 </r>
       <r>   22.9604    0.0000 </r>
       <r>   24.8339    0.0000 </r>
       <r>   39.2255    0.0000 </r>
       <r>   41.7969    0.0000 </r>
       <r>   42.5489    0.0000 </r>
       <r>   43.1415    0.0000 </r>
       <r>   43.8792    0.0000 </r>
       <r>   45.5918    0.0000 </r>
       <r>   45.7909    0.0000 </r>
       <r>   48.4557    0.0000 </r>
       <r>   48.7053    0.0000 </r>
       <r>   49.0030    0.0000 </r>
       <r>   52.5194    0.0000 </r>
       <r>   54.1084    0.0000 </r>
       <r>   54.4060    0.0000 </r>
       <r>   57.7713    0.0000 </r>
       <r>   58.4772    0.0000 </r>
       <r>   64.4400    0.0000 </r>
       <r>   64.8405    0.0000 </r>
       <r>   65.8358    0.0000 </r>
       <r>   66.0546    0.0000 </r>
       <r>   66.4690    0.0000 </r>
       <r>   66.5354    0.0000 </r>
      </set>
      <set comment="kpoint 17">
       <r>   -2.1503    1.0000 </r>
       <r>    1.6436    1.0000 </r>
       <r>    4.4613    1.0000 </r>
       <r>    4.9299    1.0000 </r>
       <r>    4.9301    1.0000 </r>
       <r>    5.2357    1.0000 </r>
       <r>    5.2358    1.0000 </r>
       <r>    5.7546    1.0000 </r>
       <r>    6.0726    1.0182 </r>
       <r>    6.0726    1.0182 </r>
       <r>    7.1030   -0.0000 </r>
       <r>    7.1031   -0.0000 </r>
       <r>   13.9870    0.0000 </r>
       <r>   28.9027    0.0000 </r>
       <r>   29.7502    0.0000 </r>
       <r>   32.0040    0.0000 </r>
       <r>   33.7639    0.0000 </r>
       <r>   33.7640    0.0000 </r>
       <r>   34.5968    0.0000 </r>
       <r>   34.5970    0.0000 </r>
       <r>   36.8938    0.0000 </r>
       <r>   37.7027    0.0000 </r>
       <r>   37.7027    0.0000 </r>
       <r>   39.1059    0.0000 </r>
       <r>   40.8356    0.0000 </r>
       <r>   40.8357    0.0000 </r>
       <r>   42.2332    0.0000 </r>
       <r>   44.8047    0.0000 </r>
       <r>   44.8050    0.0000 </r>
       <r>   46.7081    0.0000 </r>
       <r>   46.7083    0.0000 </r>
       <r>   48.8504    0.0000 </r>
       <r>   56.4433    0.0000 </r>
       <r>   60.1916    0.0000 </r>
       <r>   60.1927    0.0000 </r>
       <r>   60.4974    0.0000 </r>
       <r>   60.4978    0.0000 </r>
       <r>   61.2568    0.0000 </r>
       <r>   62.4295    0.0000 </r>
       <r>   63.7597    0.0000 </r>
      </set>
      <set comment="kpoint 18">
       <r>   -1.8374    1.0000 </r>
       <r>    1.8755    1.0000 </r>
       <r>    4.4384    1.0000 </r>
       <r>    4.8920    1.0000 </r>
       <r>    4.9068    1.0000 </r>
       <r>    5.1027    1.0000 </r>
       <r>    5.2204    1.0000 </r>
       <r>    5.3959    1.0000 </r>
       <r>    5.9637    1.0033 </r>
       <r>    5.9765    1.0042 </r>
       <r>    7.1335   -0.0000 </r>
       <r>    8.0913   -0.0000 </r>
       <r>   14.0483    0.0000 </r>
       <r>   27.7608    0.0000 </r>
       <r>   29.6487    0.0000 </r>
       <r>   30.3536    0.0000 </r>
       <r>   31.1425    0.0000 </r>
       <r>   33.0815    0.0000 </r>
       <r>   34.4889    0.0000 </r>
       <r>   36.4432    0.0000 </r>
       <r>   36.8483    0.0000 </r>
       <r>   37.5487    0.0000 </r>
       <r>   38.0360    0.0000 </r>
       <r>   38.6044    0.0000 </r>
       <r>   41.9231    0.0000 </r>
       <r>   41.9965    0.0000 </r>
       <r>   42.8519    0.0000 </r>
       <r>   43.1863    0.0000 </r>
       <r>   45.9669    0.0000 </r>
       <r>   47.9984    0.0000 </r>
       <r>   49.0706    0.0000 </r>
       <r>   50.8870    0.0000 </r>
       <r>   55.4405    0.0000 </r>
       <r>   58.4019    0.0000 </r>
       <r>   59.0166    0.0000 </r>
       <r>   60.0727    0.0000 </r>
       <r>   60.8487    0.0000 </r>
       <r>   61.9791    0.0000 </r>
       <r>   63.3072    0.0000 </r>
       <r>   64.0538    0.0000 </r>
      </set>
      <set comment="kpoint 19">
       <r>   -0.9493    1.0000 </r>
       <r>    2.4312    1.0000 </r>
       <r>    3.9730    1.0000 </r>
       <r>    4.2165    1.0000 </r>
       <r>    4.7607    1.0000 </r>
       <r>    5.2285    1.0000 </r>
       <r>    5.5324    1.0000 </r>
       <r>    5.7480    1.0000 </r>
       <r>    5.7564    1.0000 </r>
       <r>    5.8834    1.0006 </r>
       <r>    7.1887   -0.0000 </r>
       <r>    9.6775   -0.0000 </r>
       <r>   14.2787    0.0000 </r>
       <r>   23.9961    0.0000 </r>
       <r>   28.4454    0.0000 </r>
       <r>   28.6433    0.0000 </r>
       <r>   29.9557    0.0000 </r>
       <r>   30.5573    0.0000 </r>
       <r>   34.0220    0.0000 </r>
       <r>   35.4901    0.0000 </r>
       <r>   35.7570    0.0000 </r>
       <r>   36.5013    0.0000 </r>
       <r>   38.9536    0.0000 </r>
       <r>   40.2581    0.0000 </r>
       <r>   42.0670    0.0000 </r>
       <r>   43.2326    0.0000 </r>
       <r>   44.7308    0.0000 </r>
       <r>   47.1391    0.0000 </r>
       <r>   48.5927    0.0000 </r>
       <r>   51.4429    0.0000 </r>
       <r>   52.0063    0.0000 </r>
       <r>   53.4281    0.0000 </r>
       <r>   54.3369    0.0000 </r>
       <r>   56.6788    0.0000 </r>
       <r>   57.4224    0.0000 </r>
       <r>   58.9409    0.0000 </r>
       <r>   60.5195    0.0000 </r>
       <r>   62.8173    0.0000 </r>
       <r>   64.3670    0.0000 </r>
       <r>   65.1186    0.0000 </r>
      </set>
      <set comment="kpoint 20">
       <r>    0.3246    1.0000 </r>
       <r>    2.7459    1.0000 </r>
       <r>    3.2399    1.0000 </r>
       <r>    4.1148    1.0000 </r>
       <r>    4.5825    1.0000 </r>
       <r>    5.2649    1.0000 </r>
       <r>    5.4183    1.0000 </r>
       <r>    6.0303    1.0103 </r>
       <r>    6.3188    0.8568 </r>
       <r>    6.4776    0.2455 </r>
       <r>    7.2254   -0.0000 </r>
       <r>   11.3392   -0.0000 </r>
       <r>   14.8025    0.0000 </r>
       <r>   20.1028    0.0000 </r>
       <r>   25.6296    0.0000 </r>
       <r>   26.1449    0.0000 </r>
       <r>   27.8895    0.0000 </r>
       <r>   30.5829    0.0000 </r>
       <r>   32.1958    0.0000 </r>
       <r>   34.4909    0.0000 </r>
       <r>   34.8679    0.0000 </r>
       <r>   37.3282    0.0000 </r>
       <r>   37.3812    0.0000 </r>
       <r>   41.0515    0.0000 </r>
       <r>   45.4562    0.0000 </r>
       <r>   47.0094    0.0000 </r>
       <r>   47.9717    0.0000 </r>
       <r>   48.3428    0.0000 </r>
       <r>   51.6800    0.0000 </r>
       <r>   52.0551    0.0000 </r>
       <r>   53.6430    0.0000 </r>
       <r>   55.0363    0.0000 </r>
       <r>   56.2415    0.0000 </r>
       <r>   56.5101    0.0000 </r>
       <r>   58.0300    0.0000 </r>
       <r>   59.2349    0.0000 </r>
       <r>   61.7012    0.0000 </r>
       <r>   62.7956    0.0000 </r>
       <r>   63.9699    0.0000 </r>
       <r>   65.5388    0.0000 </r>
      </set>
      <set comment="kpoint 21">
       <r>    1.5017    1.0000 </r>
       <r>    2.5052    1.0000 </r>
       <r>    2.8202    1.0000 </r>
       <r>    4.0988    1.0000 </r>
       <r>    4.9385    1.0000 </r>
       <r>    5.1309    1.0000 </r>
       <r>    5.1978    1.0000 </r>
       <r>    7.0111   -0.0001 </r>
       <r>    7.0569   -0.0000 </r>
       <r>    7.0649   -0.0000 </r>
       <r>    7.2698   -0.0000 </r>
       <r>   12.6585    0.0000 </r>
       <r>   15.3389    0.0000 </r>
       <r>   17.4396    0.0000 </r>
       <r>   22.4775    0.0000 </r>
       <r>   24.3925    0.0000 </r>
       <r>   25.2158    0.0000 </r>
       <r>   29.8266    0.0000 </r>
       <r>   31.0797    0.0000 </r>
       <r>   33.2041    0.0000 </r>
       <r>   35.9430    0.0000 </r>
       <r>   36.3335    0.0000 </r>
       <r>   38.5088    0.0000 </r>
       <r>   41.7209    0.0000 </r>
       <r>   46.3408    0.0000 </r>
       <r>   48.9303    0.0000 </r>
       <r>   50.1867    0.0000 </r>
       <r>   51.3633    0.0000 </r>
       <r>   52.3387    0.0000 </r>
       <r>   54.1349    0.0000 </r>
       <r>   54.9306    0.0000 </r>
       <r>   56.3569    0.0000 </r>
       <r>   56.8640    0.0000 </r>
       <r>   58.1551    0.0000 </r>
       <r>   60.4328    0.0000 </r>
       <r>   62.0548    0.0000 </r>
       <r>   62.4131    0.0000 </r>
       <r>   62.9100    0.0000 </r>
       <r>   64.8584    0.0000 </r>
       <r>   65.1599    0.0000 </r>
      </set>
      <set comment="kpoint 22">
       <r>    1.9964    1.0000 </r>
       <r>    2.2326    1.0000 </r>
       <r>    2.6987    1.0000 </r>
       <r>    4.1683    1.0000 </r>
       <r>    5.0715    1.0000 </r>
       <r>    5.1419    1.0000 </r>
       <r>    5.3687    1.0000 </r>
       <r>    7.2003   -0.0000 </r>
       <r>    7.4386   -0.0000 </r>
       <r>    7.5540   -0.0000 </r>
       <r>    8.5502   -0.0000 </r>
       <r>   11.7340   -0.0000 </r>
       <r>   16.0056    0.0000 </r>
       <r>   17.5207    0.0000 </r>
       <r>   20.4619    0.0000 </r>
       <r>   22.5362    0.0000 </r>
       <r>   23.4191    0.0000 </r>
       <r>   29.2566    0.0000 </r>
       <r>   30.7291    0.0000 </r>
       <r>   32.3668    0.0000 </r>
       <r>   35.9164    0.0000 </r>
       <r>   37.4577    0.0000 </r>
       <r>   38.7569    0.0000 </r>
       <r>   42.4594    0.0000 </r>
       <r>   44.5115    0.0000 </r>
       <r>   50.0271    0.0000 </r>
       <r>   50.3602    0.0000 </r>
       <r>   54.0550    0.0000 </r>
       <r>   54.3889    0.0000 </r>
       <r>   55.7845    0.0000 </r>
       <r>   57.1901    0.0000 </r>
       <r>   58.3879    0.0000 </r>
       <r>   58.4547    0.0000 </r>
       <r>   60.3997    0.0000 </r>
       <r>   60.6453    0.0000 </r>
       <r>   61.1138    0.0000 </r>
       <r>   63.3897    0.0000 </r>
       <r>   63.6845    0.0000 </r>
       <r>   64.3026    0.0000 </r>
       <r>   64.5050    0.0000 </r>
      </set>
      <set comment="kpoint 23">
       <r>   -1.2348    1.0000 </r>
       <r>    2.2845    1.0000 </r>
       <r>    4.2224    1.0000 </r>
       <r>    4.2606    1.0000 </r>
       <r>    4.9475    1.0000 </r>
       <r>    4.9943    1.0000 </r>
       <r>    5.4415    1.0000 </r>
       <r>    5.6186    1.0000 </r>
       <r>    5.7956    1.0001 </r>
       <r>    5.9635    1.0033 </r>
       <r>    7.1530   -0.0000 </r>
       <r>    9.2432   -0.0000 </r>
       <r>   14.1977    0.0000 </r>
       <r>   25.7389    0.0000 </r>
       <r>   26.8500    0.0000 </r>
       <r>   30.0041    0.0000 </r>
       <r>   30.8109    0.0000 </r>
       <r>   32.5225    0.0000 </r>
       <r>   33.2571    0.0000 </r>
       <r>   33.7661    0.0000 </r>
       <r>   36.2594    0.0000 </r>
       <r>   39.0564    0.0000 </r>
       <r>   39.9055    0.0000 </r>
       <r>   40.3727    0.0000 </r>
       <r>   40.6937    0.0000 </r>
       <r>   41.6519    0.0000 </r>
       <r>   42.3324    0.0000 </r>
       <r>   47.4702    0.0000 </r>
       <r>   49.1220    0.0000 </r>
       <r>   49.8520    0.0000 </r>
       <r>   50.2022    0.0000 </r>
       <r>   53.7488    0.0000 </r>
       <r>   54.0884    0.0000 </r>
       <r>   56.6032    0.0000 </r>
       <r>   58.3194    0.0000 </r>
       <r>   59.7418    0.0000 </r>
       <r>   59.7646    0.0000 </r>
       <r>   62.7078    0.0000 </r>
       <r>   64.2744    0.0000 </r>
       <r>   65.0595    0.0000 </r>
      </set>
      <set comment="kpoint 24">
       <r>   -0.1329    1.0000 </r>
       <r>    2.8274    1.0000 </r>
       <r>    3.4926    1.0000 </r>
       <r>    3.9523    1.0000 </r>
       <r>    4.6913    1.0000 </r>
       <r>    5.0943    1.0000 </r>
       <r>    5.5481    1.0000 </r>
       <r>    5.6710    1.0000 </r>
       <r>    6.1721    1.0354 </r>
       <r>    6.3957    0.5774 </r>
       <r>    7.1655   -0.0000 </r>
       <r>   10.7858   -0.0000 </r>
       <r>   14.6092    0.0000 </r>
       <r>   22.0925    0.0000 </r>
       <r>   24.5771    0.0000 </r>
       <r>   27.5269    0.0000 </r>
       <r>   29.6576    0.0000 </r>
       <r>   30.6217    0.0000 </r>
       <r>   32.9026    0.0000 </r>
       <r>   33.6046    0.0000 </r>
       <r>   34.9257    0.0000 </r>
       <r>   38.4155    0.0000 </r>
       <r>   39.7932    0.0000 </r>
       <r>   40.4604    0.0000 </r>
       <r>   43.0112    0.0000 </r>
       <r>   43.9227    0.0000 </r>
       <r>   45.9846    0.0000 </r>
       <r>   49.3091    0.0000 </r>
       <r>   51.3841    0.0000 </r>
       <r>   52.5717    0.0000 </r>
       <r>   53.0360    0.0000 </r>
       <r>   54.8094    0.0000 </r>
       <r>   55.0423    0.0000 </r>
       <r>   56.6230    0.0000 </r>
       <r>   57.2240    0.0000 </r>
       <r>   58.5099    0.0000 </r>
       <r>   60.7445    0.0000 </r>
       <r>   63.3009    0.0000 </r>
       <r>   64.4649    0.0000 </r>
       <r>   64.9973    0.0000 </r>
      </set>
      <set comment="kpoint 25">
       <r>    1.1706    1.0000 </r>
       <r>    2.8152    1.0000 </r>
       <r>    2.9840    1.0000 </r>
       <r>    3.9571    1.0000 </r>
       <r>    4.6766    1.0000 </r>
       <r>    5.0082    1.0000 </r>
       <r>    5.3561    1.0000 </r>
       <r>    6.1361    1.0321 </r>
       <r>    6.8464   -0.0046 </r>
       <r>    7.0664   -0.0000 </r>
       <r>    7.3274   -0.0000 </r>
       <r>   12.3538    0.0000 </r>
       <r>   15.3646    0.0000 </r>
       <r>   18.5245    0.0000 </r>
       <r>   22.9244    0.0000 </r>
       <r>   24.2228    0.0000 </r>
       <r>   27.3472    0.0000 </r>
       <r>   28.6618    0.0000 </r>
       <r>   32.6728    0.0000 </r>
       <r>   33.2412    0.0000 </r>
       <r>   34.6741    0.0000 </r>
       <r>   38.1496    0.0000 </r>
       <r>   39.9469    0.0000 </r>
       <r>   41.9919    0.0000 </r>
       <r>   44.7022    0.0000 </r>
       <r>   46.7998    0.0000 </r>
       <r>   48.6199    0.0000 </r>
       <r>   50.5209    0.0000 </r>
       <r>   51.5335    0.0000 </r>
       <r>   53.0579    0.0000 </r>
       <r>   55.4114    0.0000 </r>
       <r>   55.8971    0.0000 </r>
       <r>   56.6054    0.0000 </r>
       <r>   57.9107    0.0000 </r>
       <r>   59.7880    0.0000 </r>
       <r>   60.9420    0.0000 </r>
       <r>   62.3559    0.0000 </r>
       <r>   63.0238    0.0000 </r>
       <r>   63.9026    0.0000 </r>
       <r>   65.3916    0.0000 </r>
      </set>
      <set comment="kpoint 26">
       <r>    2.0197    1.0000 </r>
       <r>    2.4947    1.0000 </r>
       <r>    2.7889    1.0000 </r>
       <r>    4.0551    1.0000 </r>
       <r>    4.9114    1.0000 </r>
       <r>    5.0673    1.0000 </r>
       <r>    5.1969    1.0000 </r>
       <r>    6.9190   -0.0010 </r>
       <r>    7.1193   -0.0000 </r>
       <r>    7.3346   -0.0000 </r>
       <r>    8.3494   -0.0000 </r>
       <r>   12.8651    0.0000 </r>
       <r>   15.6264    0.0000 </r>
       <r>   17.5582    0.0000 </r>
       <r>   21.2031    0.0000 </r>
       <r>   21.9270    0.0000 </r>
       <r>   24.2457    0.0000 </r>
       <r>   27.8085    0.0000 </r>
       <r>   31.6815    0.0000 </r>
       <r>   32.8484    0.0000 </r>
       <r>   35.7420    0.0000 </r>
       <r>   38.1868    0.0000 </r>
       <r>   40.5929    0.0000 </r>
       <r>   42.3040    0.0000 </r>
       <r>   45.6342    0.0000 </r>
       <r>   47.8733    0.0000 </r>
       <r>   49.7253    0.0000 </r>
       <r>   51.5288    0.0000 </r>
       <r>   53.3541    0.0000 </r>
       <r>   54.9997    0.0000 </r>
       <r>   55.5533    0.0000 </r>
       <r>   57.2646    0.0000 </r>
       <r>   58.7652    0.0000 </r>
       <r>   60.4396    0.0000 </r>
       <r>   61.2361    0.0000 </r>
       <r>   61.7985    0.0000 </r>
       <r>   62.8816    0.0000 </r>
       <r>   63.2587    0.0000 </r>
       <r>   64.6550    0.0000 </r>
       <r>   65.3531    0.0000 </r>
      </set>
      <set comment="kpoint 27">
       <r>    2.1926    1.0000 </r>
       <r>    2.3371    1.0000 </r>
       <r>    2.7835    1.0000 </r>
       <r>    4.1350    1.0000 </r>
       <r>    4.8833    1.0000 </r>
       <r>    5.2102    1.0000 </r>
       <r>    5.2691    1.0000 </r>
       <r>    7.1122   -0.0000 </r>
       <r>    7.3839   -0.0000 </r>
       <r>    7.4090   -0.0000 </r>
       <r>    9.4803   -0.0000 </r>
       <r>   11.4915   -0.0000 </r>
       <r>   16.8439    0.0000 </r>
       <r>   17.4449    0.0000 </r>
       <r>   20.5642    0.0000 </r>
       <r>   21.0676    0.0000 </r>
       <r>   22.5699    0.0000 </r>
       <r>   27.5100    0.0000 </r>
       <r>   31.2871    0.0000 </r>
       <r>   32.6976    0.0000 </r>
       <r>   36.1587    0.0000 </r>
       <r>   38.5906    0.0000 </r>
       <r>   40.2414    0.0000 </r>
       <r>   43.7360    0.0000 </r>
       <r>   43.8629    0.0000 </r>
       <r>   48.7337    0.0000 </r>
       <r>   50.0615    0.0000 </r>
       <r>   52.9778    0.0000 </r>
       <r>   54.3866    0.0000 </r>
       <r>   54.9964    0.0000 </r>
       <r>   57.4015    0.0000 </r>
       <r>   58.0366    0.0000 </r>
       <r>   59.0751    0.0000 </r>
       <r>   59.4043    0.0000 </r>
       <r>   60.2953    0.0000 </r>
       <r>   63.1606    0.0000 </r>
       <r>   64.1757    0.0000 </r>
       <r>   64.5672    0.0000 </r>
       <r>   64.8742    0.0000 </r>
       <r>   65.8653    0.0000 </r>
      </set>
      <set comment="kpoint 28">
       <r>    1.0614    1.0000 </r>
       <r>    3.0659    1.0000 </r>
       <r>    3.2717    1.0000 </r>
       <r>    3.5383    1.0000 </r>
       <r>    4.7579    1.0000 </r>
       <r>    4.7623    1.0000 </r>
       <r>    5.4675    1.0000 </r>
       <r>    5.7332    1.0000 </r>
       <r>    6.8400   -0.0051 </r>
       <r>    6.9994   -0.0001 </r>
       <r>    7.3733   -0.0000 </r>
       <r>   12.2301    0.0000 </r>
       <r>   15.3836    0.0000 </r>
       <r>   20.2025    0.0000 </r>
       <r>   20.8772    0.0000 </r>
       <r>   25.7929    0.0000 </r>
       <r>   26.9024    0.0000 </r>
       <r>   29.6193    0.0000 </r>
       <r>   30.2480    0.0000 </r>
       <r>   34.1183    0.0000 </r>
       <r>   36.5917    0.0000 </r>
       <r>   39.5492    0.0000 </r>
       <r>   40.7836    0.0000 </r>
       <r>   42.3955    0.0000 </r>
       <r>   42.4838    0.0000 </r>
       <r>   45.7236    0.0000 </r>
       <r>   46.4166    0.0000 </r>
       <r>   50.5051    0.0000 </r>
       <r>   51.4727    0.0000 </r>
       <r>   52.7134    0.0000 </r>
       <r>   55.4889    0.0000 </r>
       <r>   56.6242    0.0000 </r>
       <r>   56.6976    0.0000 </r>
       <r>   58.3714    0.0000 </r>
       <r>   58.9609    0.0000 </r>
       <r>   60.7817    0.0000 </r>
       <r>   60.8073    0.0000 </r>
       <r>   64.0629    0.0000 </r>
       <r>   64.0655    0.0000 </r>
       <r>   64.8640    0.0000 </r>
      </set>
      <set comment="kpoint 29">
       <r>    2.2120    1.0000 </r>
       <r>    2.8255    1.0000 </r>
       <r>    3.0540    1.0000 </r>
       <r>    3.6667    1.0000 </r>
       <r>    4.5878    1.0000 </r>
       <r>    4.9857    1.0000 </r>
       <r>    5.1725    1.0000 </r>
       <r>    6.1991    1.0312 </r>
       <r>    6.9651   -0.0003 </r>
       <r>    7.3028   -0.0000 </r>
       <r>    8.4943   -0.0000 </r>
       <r>   13.6823    0.0000 </r>
       <r>   16.2498    0.0000 </r>
       <r>   17.6092    0.0000 </r>
       <r>   19.3603    0.0000 </r>
       <r>   23.1001    0.0000 </r>
       <r>   25.4183    0.0000 </r>
       <r>   26.3334    0.0000 </r>
       <r>   29.0355    0.0000 </r>
       <r>   35.5997    0.0000 </r>
       <r>   37.2314    0.0000 </r>
       <r>   40.3508    0.0000 </r>
       <r>   42.1091    0.0000 </r>
       <r>   43.0264    0.0000 </r>
       <r>   44.5276    0.0000 </r>
       <r>   45.5244    0.0000 </r>
       <r>   48.4059    0.0000 </r>
       <r>   49.1950    0.0000 </r>
       <r>   51.6982    0.0000 </r>
       <r>   53.7485    0.0000 </r>
       <r>   55.1707    0.0000 </r>
       <r>   57.5299    0.0000 </r>
       <r>   58.8889    0.0000 </r>
       <r>   59.8961    0.0000 </r>
       <r>   61.9808    0.0000 </r>
       <r>   62.2781    0.0000 </r>
       <r>   63.0321    0.0000 </r>
       <r>   64.1977    0.0000 </r>
       <r>   64.8227    0.0000 </r>
       <r>   65.9361    0.0000 </r>
      </set>
      <set comment="kpoint 30">
       <r>    2.5194    1.0000 </r>
       <r>    2.7863    1.0000 </r>
       <r>    2.9911    1.0000 </r>
       <r>    3.9102    1.0000 </r>
       <r>    4.6296    1.0000 </r>
       <r>    4.8333    1.0000 </r>
       <r>    5.3241    1.0000 </r>
       <r>    6.8028   -0.0095 </r>
       <r>    6.9261   -0.0009 </r>
       <r>    7.3267   -0.0000 </r>
       <r>   10.0019   -0.0000 </r>
       <r>   12.8143    0.0000 </r>
       <r>   16.7256    0.0000 </r>
       <r>   18.3196    0.0000 </r>
       <r>   18.4913    0.0000 </r>
       <r>   21.0338    0.0000 </r>
       <r>   23.4223    0.0000 </r>
       <r>   24.8479    0.0000 </r>
       <r>   28.4430    0.0000 </r>
       <r>   36.2890    0.0000 </r>
       <r>   38.0064    0.0000 </r>
       <r>   39.6243    0.0000 </r>
       <r>   42.9934    0.0000 </r>
       <r>   43.6965    0.0000 </r>
       <r>   45.8400    0.0000 </r>
       <r>   46.4203    0.0000 </r>
       <r>   48.3558    0.0000 </r>
       <r>   50.3276    0.0000 </r>
       <r>   52.7461    0.0000 </r>
       <r>   53.5683    0.0000 </r>
       <r>   54.1784    0.0000 </r>
       <r>   57.7009    0.0000 </r>
       <r>   58.0116    0.0000 </r>
       <r>   59.8994    0.0000 </r>
       <r>   62.6149    0.0000 </r>
       <r>   63.8345    0.0000 </r>
       <r>   64.6511    0.0000 </r>
       <r>   64.9060    0.0000 </r>
       <r>   65.9140    0.0000 </r>
       <r>   66.0136    0.0000 </r>
      </set>
      <set comment="kpoint 31">
       <r>    2.7963    1.0000 </r>
       <r>    3.0227    1.0000 </r>
       <r>    3.3343    1.0000 </r>
       <r>    3.4400    1.0000 </r>
       <r>    4.4738    1.0000 </r>
       <r>    4.7499    1.0000 </r>
       <r>    5.3175    1.0000 </r>
       <r>    6.4491    0.3542 </r>
       <r>    6.8305   -0.0061 </r>
       <r>    7.3079   -0.0000 </r>
       <r>   10.1302   -0.0000 </r>
       <r>   14.6473    0.0000 </r>
       <r>   15.5184    0.0000 </r>
       <r>   17.1697    0.0000 </r>
       <r>   18.9837    0.0000 </r>
       <r>   22.3904    0.0000 </r>
       <r>   22.5308    0.0000 </r>
       <r>   25.2530    0.0000 </r>
       <r>   26.0150    0.0000 </r>
       <r>   37.3942    0.0000 </r>
       <r>   40.1407    0.0000 </r>
       <r>   41.8869    0.0000 </r>
       <r>   42.3718    0.0000 </r>
       <r>   44.2220    0.0000 </r>
       <r>   44.6006    0.0000 </r>
       <r>   46.3668    0.0000 </r>
       <r>   47.9329    0.0000 </r>
       <r>   49.6568    0.0000 </r>
       <r>   49.9703    0.0000 </r>
       <r>   53.2712    0.0000 </r>
       <r>   54.3559    0.0000 </r>
       <r>   56.3874    0.0000 </r>
       <r>   57.5748    0.0000 </r>
       <r>   60.1251    0.0000 </r>
       <r>   63.1024    0.0000 </r>
       <r>   64.2925    0.0000 </r>
       <r>   64.5444    0.0000 </r>
       <r>   65.9402    0.0000 </r>
       <r>   66.1850    0.0000 </r>
       <r>   66.3362    0.0000 </r>
      </set>
      <set comment="kpoint 32">
       <r>    2.8184    1.0000 </r>
       <r>    3.2328    1.0000 </r>
       <r>    3.2538    1.0000 </r>
       <r>    3.6448    1.0000 </r>
       <r>    4.4676    1.0000 </r>
       <r>    4.5573    1.0000 </r>
       <r>    5.4514    1.0000 </r>
       <r>    6.7735   -0.0145 </r>
       <r>    6.7789   -0.0135 </r>
       <r>    7.0447   -0.0000 </r>
       <r>   11.8712   -0.0000 </r>
       <r>   12.9678    0.0000 </r>
       <r>   15.0877    0.0000 </r>
       <r>   18.8032    0.0000 </r>
       <r>   19.0022    0.0000 </r>
       <r>   21.1376    0.0000 </r>
       <r>   22.5806    0.0000 </r>
       <r>   23.4400    0.0000 </r>
       <r>   25.4655    0.0000 </r>
       <r>   38.3733    0.0000 </r>
       <r>   40.5495    0.0000 </r>
       <r>   41.8300    0.0000 </r>
       <r>   42.9959    0.0000 </r>
       <r>   44.9086    0.0000 </r>
       <r>   45.7365    0.0000 </r>
       <r>   46.9791    0.0000 </r>
       <r>   48.3855    0.0000 </r>
       <r>   48.8033    0.0000 </r>
       <r>   49.7035    0.0000 </r>
       <r>   52.2907    0.0000 </r>
       <r>   53.8404    0.0000 </r>
       <r>   54.7600    0.0000 </r>
       <r>   58.0276    0.0000 </r>
       <r>   58.7061    0.0000 </r>
       <r>   64.3463    0.0000 </r>
       <r>   64.8181    0.0000 </r>
       <r>   65.8511    0.0000 </r>
       <r>   65.8539    0.0000 </r>
       <r>   66.5150    0.0000 </r>
       <r>   66.6883    0.0000 </r>
      </set>
      <set comment="kpoint 33">
       <r>   -1.9155    1.0000 </r>
       <r>    1.5242    1.0000 </r>
       <r>    4.3992    1.0000 </r>
       <r>    4.9074    1.0000 </r>
       <r>    4.9076    1.0000 </r>
       <r>    5.1858    1.0000 </r>
       <r>    5.1859    1.0000 </r>
       <r>    5.2245    1.0000 </r>
       <r>    6.1828    1.0347 </r>
       <r>    6.1829    1.0347 </r>
       <r>    7.0774   -0.0000 </r>
       <r>    7.0775   -0.0000 </r>
       <r>   15.0298    0.0000 </r>
       <r>   27.6677    0.0000 </r>
       <r>   29.5138    0.0000 </r>
       <r>   31.5783    0.0000 </r>
       <r>   33.9365    0.0000 </r>
       <r>   33.9365    0.0000 </r>
       <r>   34.6715    0.0000 </r>
       <r>   34.6717    0.0000 </r>
       <r>   37.4420    0.0000 </r>
[...]
       <r>   20.5317    0.0000 </r>
       <r>   21.2698    0.0000 </r>
       <r>   26.0302    0.0000 </r>
       <r>   27.1326    0.0000 </r>
       <r>   31.3397    0.0000 </r>
       <r>   32.3957    0.0000 </r>
       <r>   34.5028    0.0000 </r>
       <r>   35.9382    0.0000 </r>
       <r>   40.3526    0.0000 </r>
       <r>   40.6621    0.0000 </r>
       <r>   49.5683    0.0000 </r>
       <r>   50.2063    0.0000 </r>
       <r>   51.0624    0.0000 </r>
       <r>   52.7606    0.0000 </r>
       <r>   54.3425    0.0000 </r>
       <r>   54.9427    0.0000 </r>
       <r>   56.2209    0.0000 </r>
       <r>   57.9408    0.0000 </r>
       <r>   59.8573    0.0000 </r>
       <r>   60.3578    0.0000 </r>
       <r>   61.8910    0.0000 </r>
       <r>   62.2662    0.0000 </r>
       <r>   63.2624    0.0000 </r>
       <r>   63.5086    0.0000 </r>
       <r>   64.2860    0.0000 </r>
       <r>   64.6780    0.0000 </r>
      </set>
      <set comment="kpoint 95">
       <r>    2.7879    1.0000 </r>
       <r>    2.8237    1.0000 </r>
       <r>    3.7149    1.0000 </r>
       <r>    3.9262    1.0000 </r>
       <r>    4.2613    1.0000 </r>
       <r>    4.4609    1.0000 </r>
       <r>    5.6047    1.0000 </r>
       <r>    5.7968    1.0001 </r>
       <r>    7.1727   -0.0000 </r>
       <r>    7.3381   -0.0000 </r>
       <r>   11.0464   -0.0000 </r>
       <r>   11.5680   -0.0000 </r>
       <r>   17.0503    0.0000 </r>
       <r>   17.4597    0.0000 </r>
       <r>   18.7400    0.0000 </r>
       <r>   19.1158    0.0000 </r>
       <r>   26.1590    0.0000 </r>
       <r>   27.7659    0.0000 </r>
       <r>   31.4574    0.0000 </r>
       <r>   32.8277    0.0000 </r>
       <r>   34.3457    0.0000 </r>
       <r>   35.4090    0.0000 </r>
       <r>   42.4279    0.0000 </r>
       <r>   42.8157    0.0000 </r>
       <r>   46.4503    0.0000 </r>
       <r>   46.5749    0.0000 </r>
       <r>   53.5359    0.0000 </r>
       <r>   54.1979    0.0000 </r>
       <r>   54.3769    0.0000 </r>
       <r>   55.8421    0.0000 </r>
       <r>   57.1141    0.0000 </r>
       <r>   57.4587    0.0000 </r>
       <r>   58.3464    0.0000 </r>
       <r>   58.7633    0.0000 </r>
       <r>   60.8408    0.0000 </r>
       <r>   61.8197    0.0000 </r>
       <r>   63.2386    0.0000 </r>
       <r>   63.2448    0.0000 </r>
       <r>   64.2960    0.0000 </r>
       <r>   64.4075    0.0000 </r>
      </set>
      <set comment="kpoint 96">
       <r>    2.9775    1.0000 </r>
       <r>    3.0961    1.0000 </r>
       <r>    3.6453    1.0000 </r>
       <r>    3.7247    1.0000 </r>
       <r>    4.2836    1.0000 </r>
       <r>    4.3935    1.0000 </r>
       <r>    5.6693    1.0000 </r>
       <r>    5.8165    1.0001 </r>
       <r>    7.1459   -0.0000 </r>
       <r>    7.2078   -0.0000 </r>
       <r>   12.8075    0.0000 </r>
       <r>   12.9251    0.0000 </r>
       <r>   15.4312    0.0000 </r>
       <r>   15.7552    0.0000 </r>
       <r>   18.1003    0.0000 </r>
       <r>   18.5508    0.0000 </r>
       <r>   27.8284    0.0000 </r>
       <r>   28.4935    0.0000 </r>
       <r>   30.5678    0.0000 </r>
       <r>   30.9678    0.0000 </r>
       <r>   34.0764    0.0000 </r>
       <r>   34.8985    0.0000 </r>
       <r>   43.5511    0.0000 </r>
       <r>   44.1756    0.0000 </r>
       <r>   48.1388    0.0000 </r>
       <r>   48.5460    0.0000 </r>
       <r>   50.6219    0.0000 </r>
       <r>   51.0012    0.0000 </r>
       <r>   55.0375    0.0000 </r>
       <r>   56.5684    0.0000 </r>
       <r>   57.4598    0.0000 </r>
       <r>   58.8383    0.0000 </r>
       <r>   58.9863    0.0000 </r>
       <r>   59.4854    0.0000 </r>
       <r>   60.2113    0.0000 </r>
       <r>   61.2169    0.0000 </r>
       <r>   62.6856    0.0000 </r>
       <r>   63.3285    0.0000 </r>
       <r>   65.8783    0.0000 </r>
       <r>   65.9212    0.0000 </r>
      </set>
     </set>
    </set>
   </array>
  </eigenvalues>
  <separator name="orbital magnetization" >
   <v name="MAGDIPOLOUT">      0.00000000      0.00000000      0.00000000</v>
  </separator>
  <dos>
   <i name="efermi">      6.41405776 </i>
   <total>
    <array>
     <dimension dim="1">gridpoints</dimension>
     <dimension dim="2">spin</dimension>
     <field>energy</field>
     <field>total</field>
     <field>integrated</field>
     <set>
      <set comment="spin 1">
       <r>    -5.7073     0.0000     0.0000 </r>
       <r>    -5.4522     0.0000     0.0000 </r>
       <r>    -5.1972     0.0000     0.0000 </r>
       <r>    -4.9422     0.0000     0.0000 </r>
       <r>    -4.6871     0.0000     0.0000 </r>
       <r>    -4.4321     0.0000     0.0000 </r>
       <r>    -4.1771     0.0000     0.0000 </r>
       <r>    -3.9220    -0.0000    -0.0000 </r>
       <r>    -3.6670    -0.0000    -0.0000 </r>
       <r>    -3.4119    -0.0000    -0.0000 </r>
       <r>    -3.1569    -0.0000    -0.0000 </r>
       <r>    -2.9019    -0.0000    -0.0000 </r>
       <r>    -2.6468    -0.0000    -0.0000 </r>
       <r>    -2.3918    -0.0004    -0.0001 </r>
       <r>    -2.1368     0.0085     0.0020 </r>
       <r>    -1.8817     0.0602     0.0174 </r>
       <r>    -1.6267     0.1002     0.0430 </r>
       <r>    -1.3717     0.0651     0.0596 </r>
       <r>    -1.1166     0.1646     0.1015 </r>
       <r>    -0.8616     0.1821     0.1480 </r>
       <r>    -0.6066     0.1870     0.1957 </r>
       <r>    -0.3515     0.0836     0.2170 </r>
       <r>    -0.0965     0.2973     0.2928 </r>
       <r>     0.1585     0.2790     0.3640 </r>
       <r>     0.4136     0.3098     0.4430 </r>
       <r>     0.6686     0.2926     0.5176 </r>
       <r>     0.9236     0.2024     0.5692 </r>
       <r>     1.1787     0.5476     0.7089 </r>
       <r>     1.4337     0.6377     0.8715 </r>
       <r>     1.6887     0.7920     1.0735 </r>
       <r>     1.9438     1.4137     1.4340 </r>
       <r>     2.1988     2.0069     1.9459 </r>
       <r>     2.4538     2.7186     2.6392 </r>
       <r>     2.7089     2.2818     3.2211 </r>
       <r>     2.9639     3.1653     4.0284 </r>
       <r>     3.2189     2.2756     4.6088 </r>
       <r>     3.4740     3.3321     5.4586 </r>
       <r>     3.7290     3.3976     6.3251 </r>
       <r>     3.9840     3.2050     7.1425 </r>
       <r>     4.2391     2.3338     7.7377 </r>
       <r>     4.4941     3.0541     8.5166 </r>
       <r>     4.7491     4.3745     9.6322 </r>
       <r>     5.0042     4.2126    10.7066 </r>
       <r>     5.2592     4.3715    11.8215 </r>
       <r>     5.5142     4.3207    12.9234 </r>
       <r>     5.7693     3.7801    13.8874 </r>
       <r>     6.0243     3.1098    14.6805 </r>
       <r>     6.2793     3.4937    15.5715 </r>
       <r>     6.5344     2.8848    16.3073 </r>
       <r>     6.7894     3.1378    17.1075 </r>
       <r>     7.0444     5.3028    18.4599 </r>
       <r>     7.2995     5.5874    19.8849 </r>
       <r>     7.5545     4.4973    21.0318 </r>
       <r>     7.8095     0.8481    21.2481 </r>
       <r>     8.0646     0.1250    21.2800 </r>
       <r>     8.3196     0.9206    21.5148 </r>
       <r>     8.5747     0.9510    21.7573 </r>
       <r>     8.8297     0.5244    21.8910 </r>
       <r>     9.0847     0.5558    22.0328 </r>
       <r>     9.3398     0.5728    22.1789 </r>
       <r>     9.5948     0.3529    22.2689 </r>
       <r>     9.8498     0.2800    22.3403 </r>
       <r>    10.1049     0.8591    22.5594 </r>
       <r>    10.3599     0.6695    22.7301 </r>
       <r>    10.6149     0.3464    22.8185 </r>
       <r>    10.8700     0.3261    22.9016 </r>
       <r>    11.1250     0.4915    23.0270 </r>
       <r>    11.3800     0.5094    23.1569 </r>
       <r>    11.6351     0.3777    23.2532 </r>
       <r>    11.8901     0.2498    23.3169 </r>
       <r>    12.1451     0.3489    23.4059 </r>
       <r>    12.4002     0.4060    23.5095 </r>
       <r>    12.6552     0.3575    23.6006 </r>
       <r>    12.9102     0.5226    23.7339 </r>
       <r>    13.1653     0.4792    23.8561 </r>
       <r>    13.4203     0.1052    23.8829 </r>
       <r>    13.6753     0.1537    23.9221 </r>
       <r>    13.9304     0.2711    23.9913 </r>
       <r>    14.1854     0.2403    24.0525 </r>
       <r>    14.4404     0.1950    24.1023 </r>
       <r>    14.6955     0.1883    24.1503 </r>
       <r>    14.9505     0.1884    24.1983 </r>
       <r>    15.2055     0.3033    24.2757 </r>
       <r>    15.4606     0.6180    24.4333 </r>
       <r>    15.7156     0.9411    24.6733 </r>
       <r>    15.9706     0.8326    24.8857 </r>
       <r>    16.2257     0.7708    25.0822 </r>
       <r>    16.4807     0.6630    25.2513 </r>
       <r>    16.7357     0.3556    25.3420 </r>
       <r>    16.9908     0.8071    25.5479 </r>
       <r>    17.2458     0.7103    25.7290 </r>
       <r>    17.5008     0.8990    25.9583 </r>
       <r>    17.7559     0.7454    26.1484 </r>
       <r>    18.0109     0.5863    26.2979 </r>
       <r>    18.2659     0.6340    26.4596 </r>
       <r>    18.5210     0.9331    26.6976 </r>
       <r>    18.7760     0.7345    26.8849 </r>
       <r>    19.0310     0.6240    27.0440 </r>
       <r>    19.2861     0.6458    27.2087 </r>
       <r>    19.5411     0.6556    27.3759 </r>
       <r>    19.7961     0.7061    27.5560 </r>
       <r>    20.0512     0.4262    27.6647 </r>
       <r>    20.3062     0.4812    27.7874 </r>
       <r>    20.5613     0.6724    27.9589 </r>
       <r>    20.8163     0.5026    28.0871 </r>
       <r>    21.0713     0.6671    28.2572 </r>
       <r>    21.3264     0.7813    28.4565 </r>
       <r>    21.5814     0.5710    28.6021 </r>
       <r>    21.8364     0.6357    28.7642 </r>
       <r>    22.0915     0.9055    28.9952 </r>
       <r>    22.3465     0.9275    29.2317 </r>
       <r>    22.6015     0.8493    29.4483 </r>
       <r>    22.8566     0.8847    29.6739 </r>
       <r>    23.1116     1.0658    29.9458 </r>
       <r>    23.3666     0.6802    30.1192 </r>
       <r>    23.6217     0.9171    30.3531 </r>
       <r>    23.8767     0.8906    30.5803 </r>
       <r>    24.1317     0.5055    30.7092 </r>
       <r>    24.3868     0.8774    30.9329 </r>
       <r>    24.6418     1.6116    31.3440 </r>
       <r>    24.8968     1.1673    31.6417 </r>
       <r>    25.1519     0.6282    31.8019 </r>
       <r>    25.4069     0.7434    31.9915 </r>
       <r>    25.6619     0.6830    32.1657 </r>
       <r>    25.9170     0.7421    32.3549 </r>
       <r>    26.1720     1.7339    32.7971 </r>
       <r>    26.4270     0.7093    32.9780 </r>
       <r>    26.6821     0.5969    33.1302 </r>
       <r>    26.9371     0.9641    33.3761 </r>
       <r>    27.1921     0.8505    33.5930 </r>
       <r>    27.4472     0.9778    33.8424 </r>
       <r>    27.7022     0.7357    34.0300 </r>
       <r>    27.9572     0.8593    34.2492 </r>
       <r>    28.2123     0.4243    34.3574 </r>
       <r>    28.4673     0.8961    34.5859 </r>
       <r>    28.7223     0.9080    34.8175 </r>
       <r>    28.9774     0.4955    34.9439 </r>
       <r>    29.2324     0.7936    35.1463 </r>
       <r>    29.4874     0.6215    35.3048 </r>
       <r>    29.7425     0.9592    35.5494 </r>
       <r>    29.9975     0.7138    35.7314 </r>
       <r>    30.2525     0.6922    35.9080 </r>
       <r>    30.5076     0.6021    36.0615 </r>
       <r>    30.7626     1.0095    36.3190 </r>
       <r>    31.0176     1.0915    36.5973 </r>
       <r>    31.2727     0.7798    36.7962 </r>
       <r>    31.5277     0.8105    37.0029 </r>
       <r>    31.7828     0.8499    37.2197 </r>
       <r>    32.0378     0.5678    37.3645 </r>
       <r>    32.2928     0.8720    37.5869 </r>
       <r>    32.5479     1.0752    37.8611 </r>
       <r>    32.8029     0.8954    38.0895 </r>
       <r>    33.0579     1.1012    38.3703 </r>
       <r>    33.3130     0.7210    38.5542 </r>
       <r>    33.5680     0.9756    38.8030 </r>
       <r>    33.8230     0.9769    39.0521 </r>
       <r>    34.0781     0.8667    39.2732 </r>
       <r>    34.3331     1.1629    39.5697 </r>
       <r>    34.5881     1.4043    39.9279 </r>
       <r>    34.8432     0.9457    40.1691 </r>
       <r>    35.0982     0.7419    40.3583 </r>
       <r>    35.3532     0.5585    40.5007 </r>
       <r>    35.6083     0.9831    40.7515 </r>
       <r>    35.8633     0.8114    40.9584 </r>
       <r>    36.1183     0.6212    41.1168 </r>
       <r>    36.3734     0.8310    41.3287 </r>
       <r>    36.6284     0.8433    41.5438 </r>
       <r>    36.8834     0.7061    41.7239 </r>
       <r>    37.1385     0.8894    41.9507 </r>
       <r>    37.3935     1.0154    42.2097 </r>
       <r>    37.6485     1.0327    42.4730 </r>
       <r>    37.9036     0.8696    42.6948 </r>
       <r>    38.1586     1.1116    42.9783 </r>
       <r>    38.4136     0.9200    43.2129 </r>
       <r>    38.6687     0.8231    43.4229 </r>
       <r>    38.9237     1.0226    43.6837 </r>
       <r>    39.1787     0.7909    43.8854 </r>
       <r>    39.4338     0.4782    44.0073 </r>
       <r>    39.6888     0.8872    44.2336 </r>
       <r>    39.9438     1.0795    44.5089 </r>
       <r>    40.1989     0.9683    44.7559 </r>
       <r>    40.4539     1.3516    45.1006 </r>
       <r>    40.7089     1.2735    45.4253 </r>
       <r>    40.9640     0.8588    45.6444 </r>
       <r>    41.2190     0.6942    45.8214 </r>
       <r>    41.4740     1.2827    46.1485 </r>
       <r>    41.7291     0.8321    46.3607 </r>
       <r>    41.9841     0.9849    46.6119 </r>
       <r>    42.2391     1.5733    47.0131 </r>
       <r>    42.4942     1.4093    47.3726 </r>
       <r>    42.7492     0.6153    47.5295 </r>
       <r>    43.0042     1.2888    47.8582 </r>
       <r>    43.2593     1.5221    48.2464 </r>
       <r>    43.5143     0.7409    48.4353 </r>
       <r>    43.7694     0.8913    48.6626 </r>
       <r>    44.0244     1.0481    48.9299 </r>
       <r>    44.2794     0.6641    49.0993 </r>
       <r>    44.5345     0.6434    49.2634 </r>
       <r>    44.7895     0.8130    49.4707 </r>
       <r>    45.0445     0.9790    49.7204 </r>
       <r>    45.2996     0.4957    49.8468 </r>
       <r>    45.5546     0.9362    50.0856 </r>
       <r>    45.8096     1.6321    50.5019 </r>
       <r>    46.0647     1.1006    50.7826 </r>
       <r>    46.3197     0.7128    50.9643 </r>
       <r>    46.5747     1.3890    51.3186 </r>
       <r>    46.8298     0.8903    51.5456 </r>
       <r>    47.0848     1.2056    51.8531 </r>
       <r>    47.3398     1.6476    52.2733 </r>
       <r>    47.5949     0.8763    52.4968 </r>
       <r>    47.8499     0.7071    52.6771 </r>
       <r>    48.1049     0.6834    52.8514 </r>
       <r>    48.3600     1.2166    53.1616 </r>
       <r>    48.6150     1.3583    53.5081 </r>
       <r>    48.8700     1.3641    53.8560 </r>
       <r>    49.1251     1.4633    54.2291 </r>
       <r>    49.3801     1.0181    54.4888 </r>
       <r>    49.6351     1.0673    54.7610 </r>
       <r>    49.8902     1.1472    55.0536 </r>
       <r>    50.1452     1.0327    55.3170 </r>
       <r>    50.4002     1.1025    55.5981 </r>
       <r>    50.6553     1.1593    55.8938 </r>
       <r>    50.9103     1.3131    56.2287 </r>
       <r>    51.1653     0.7345    56.4160 </r>
       <r>    51.4204     1.1976    56.7214 </r>
       <r>    51.6754     1.6508    57.1424 </r>
       <r>    51.9304     1.0644    57.4139 </r>
       <r>    52.1855     0.8845    57.6395 </r>
       <r>    52.4405     1.2341    57.9542 </r>
       <r>    52.6955     1.3091    58.2881 </r>
       <r>    52.9506     1.6171    58.7005 </r>
       <r>    53.2056     1.0143    58.9591 </r>
       <r>    53.4606     0.9912    59.2119 </r>
       <r>    53.7157     1.3156    59.5474 </r>
       <r>    53.9707     1.1150    59.8318 </r>
       <r>    54.2257     1.3104    60.1660 </r>
       <r>    54.4808     1.7787    60.6196 </r>
       <r>    54.7358     1.3102    60.9538 </r>
       <r>    54.9909     1.9930    61.4620 </r>
       <r>    55.2459     1.6240    61.8762 </r>
       <r>    55.5009     1.1129    62.1600 </r>
       <r>    55.7560     1.0806    62.4356 </r>
       <r>    56.0110     1.3618    62.7829 </r>
       <r>    56.2660     1.5383    63.1752 </r>
       <r>    56.5211     1.5985    63.5829 </r>
       <r>    56.7761     1.9941    64.0915 </r>
       <r>    57.0311     1.1771    64.3917 </r>
       <r>    57.2862     1.2363    64.7070 </r>
       <r>    57.5412     1.8951    65.1903 </r>
       <r>    57.7962     1.8725    65.6679 </r>
       <r>    58.0513     2.2178    66.2335 </r>
       <r>    58.3063     1.5210    66.6214 </r>
       <r>    58.5613     1.2052    66.9287 </r>
       <r>    58.8164     1.4285    67.2930 </r>
       <r>    59.0714     1.6647    67.7176 </r>
       <r>    59.3264     0.9097    67.9496 </r>
       <r>    59.5815     0.8473    68.1657 </r>
       <r>    59.8365     1.6676    68.5910 </r>
       <r>    60.0915     1.3820    68.9434 </r>
       <r>    60.3466     1.7535    69.3906 </r>
       <r>    60.6016     1.6096    69.8012 </r>
       <r>    60.8566     1.7349    70.2436 </r>
       <r>    61.1117     1.3755    70.5944 </r>
       <r>    61.3667     1.7936    71.0518 </r>
       <r>    61.6217     1.8368    71.5203 </r>
       <r>    61.8768     1.7828    71.9750 </r>
       <r>    62.1318     2.0433    72.4961 </r>
       <r>    62.3868     1.7246    72.9359 </r>
       <r>    62.6419     1.2350    73.2509 </r>
       <r>    62.8969     1.6561    73.6732 </r>
       <r>    63.1519     1.6926    74.1049 </r>
       <r>    63.4070     2.8553    74.8331 </r>
       <r>    63.6620     1.8613    75.3078 </r>
       <r>    63.9170     1.5991    75.7156 </r>
       <r>    64.1721     1.7842    76.1707 </r>
       <r>    64.4271     2.3610    76.7728 </r>
       <r>    64.6821     2.1009    77.3086 </r>
       <r>    64.9372     2.1115    77.8471 </r>
       <r>    65.1922     1.6270    78.2620 </r>
       <r>    65.4472     1.8249    78.7274 </r>
       <r>    65.7023     1.1982    79.0330 </r>
       <r>    65.9573     1.5534    79.4292 </r>
       <r>    66.2123     1.1981    79.7347 </r>
       <r>    66.4674     0.6361    79.8969 </r>
       <r>    66.7224     0.2395    79.9580 </r>
       <r>    66.9775     0.0769    79.9776 </r>
       <r>    67.2325     0.0294    79.9851 </r>
       <r>    67.4875     0.0578    79.9999 </r>
       <r>    67.7426     0.0009    80.0001 </r>
       <r>    67.9976    -0.0004    80.0000 </r>
       <r>    68.2526    -0.0000    80.0000 </r>
       <r>    68.5077    -0.0000    80.0000 </r>
       <r>    68.7627    -0.0000    80.0000 </r>
       <r>    69.0177     0.0000    80.0000 </r>
       <r>    69.2728     0.0000    80.0000 </r>
       <r>    69.5278     0.0000    80.0000 </r>
       <r>    69.7828     0.0000    80.0000 </r>
       <r>    70.0379     0.0000    80.0000 </r>
       <r>    70.2929     0.0000    80.0000 </r>
       <r>    70.5479     0.0000    80.0000 </r>
       <r>    70.8030     0.0000    80.0000 </r>
      </set>
     </set>
    </array>
   </total>
  </dos>
 </calculation>
 <structure name="finalpos" >
  <crystal>
   <varray name="basis" >
    <v>       2.42320000       0.00000000       0.00000000 </v>
    <v>      -1.21160000       2.09855276       0.00000000 </v>
    <v>       0.00000000       0.00000000       4.17872000 </v>
   </varray>
   <i name="volume">     21.24968145 </i>
   <varray name="rec_basis" >
    <v>       0.41267745       0.23825944       0.00000000 </v>
    <v>       0.00000000       0.47651888       0.00000000 </v>
    <v>       0.00000000       0.00000000       0.23930773 </v>
   </varray>
  </crystal>
  <varray name="positions" >
   <v>       0.00000000       0.00000000       0.00000000 </v>
   <v>       0.33333333       0.66666667       0.50000000 </v>
  </varray>
 </structure>
</modeling>
