unknown system                          
   1.00000000000000     
     3.635000    0.000000    0.000000
     0.000000    3.635000    0.000000
     0.000000    0.000000    3.635000
   Pd   Ir   Pt   Cu
     1     1     1     1
Direct
  0.000000  0.000000  0.000000
  0.500000  0.500000  0.000000
  0.500000  0.000000  0.500000
  0.000000  0.500000  0.500000
 
   32   32   32
  296.96      284.83      253.29      212.83      171.85      133.16      96.988      65.210      41.372      27.094    
  19.754      15.388      12.912      11.628      10.949      10.560      10.419      10.560      10.949      11.628    
  12.912      15.388      19.754      27.094      41.372      65.210      96.988      133.16      171.85      212.83    
  253.29      284.83      284.98      273.41      243.27      204.49      165.08      127.82      93.078      62.734    
  40.118      26.632      19.626      15.410      13.022      11.782      11.127      10.751      10.615      10.751    
  11.127      11.782      13.022      15.410      19.626      26.632      40.118      62.734      93.078      127.82    
  165.08      204.49      243.27      273.41      253.37      243.23      216.68      182.24      146.92      113.47    
  82.615      56.157      36.829      25.437      19.296      15.513      13.380      12.276      11.696      11.366    
  11.246      11.366      11.696      12.276      13.380      15.513      19.296      25.437      36.829      56.157    
  82.615      113.47      146.92      182.24      216.68      243.23      211.76      203.40      181.37      152.43    
  122.45      94.167      68.666      47.544      32.636      23.956      18.929      15.806      14.083      13.220    
  12.788      12.550      12.465      12.550      12.788      13.220      14.083      15.806      18.929      23.956    
  32.636      47.544      68.666      94.167      122.45      152.43      181.37      203.40      168.64      162.01    
  144.42      121.07      96.744      74.129      54.520      39.099      28.710      22.619      18.771      16.483    
  15.321      14.832      14.656      14.585      14.560      14.585      14.656      14.832      15.321      16.483    
  18.771      22.619      28.710      39.099      54.520      74.129      96.744      121.07      144.42      162.01    
  128.08      123.04      109.61      91.676      73.088      56.276      42.455      32.279      25.740      21.673    
  19.108      17.803      17.367      17.421      17.651      17.850      17.924      17.850      17.651      17.421    
  17.367      17.803      19.108      21.673      25.740      32.279      42.455      56.276      73.088      91.676    
  109.61      123.04      91.598      88.058      78.611      66.036      53.208      42.046      33.439      27.538    
  23.791      21.381      20.200      20.007      20.493      21.382      22.357      23.099      23.375      23.099    
  22.357      21.382      20.493      20.007      20.200      21.381      23.791      27.538      33.439      42.046    
  53.208      66.036      78.611      88.058      61.111      58.945      53.188      45.617      38.102      31.885    
  27.426      24.526      22.695      21.941      22.201      23.378      25.297      27.635      29.912      31.580    
  32.193      31.580      29.912      27.635      25.297      23.378      22.201      21.941      22.695      24.526    
  27.426      31.885      38.102      45.617      53.188      58.945      39.000      37.932      35.120      31.506    
  28.068      25.408      23.625      22.623      22.538      23.426      25.390      28.414      32.279      36.533    
  40.483      43.315      44.348      43.315      40.483      36.533      32.279      28.414      25.390      23.426    
  22.538      22.623      23.625      25.408      28.068      31.506      35.120      37.932      25.766      25.385    
  24.398      23.171      22.064      21.299      21.132      21.771      23.322      26.018      29.976      35.082    
  41.008      47.183      52.752      56.690      58.119      56.690      52.752      47.183      41.008      35.082    
  29.976      26.018      23.322      21.771      21.132      21.299      22.064      23.171      24.398      25.385    
  18.701      18.611      18.385      18.161      18.153      18.620      19.806      21.870      25.095      29.753    
  35.763      42.801      50.422      58.036      64.772      69.510      71.230      69.510      64.772      58.036    
  50.422      42.801      35.763      29.753      25.095      21.870      19.806      18.620      18.153      18.161    
  18.385      18.611      14.358      14.403      14.567      14.951      15.729      17.140      19.408      22.793    
  27.784      34.447      42.357      50.913      59.626      68.054      75.472      80.729      82.651      80.729    
  75.472      68.054      59.626      50.913      42.357      34.447      27.784      22.793      19.408      17.140    
  15.729      14.951      14.567      14.403      11.812      11.935      12.331      13.092      14.396      16.495    
  19.638      24.360      31.161      39.781      49.363      59.047      68.429      77.380      85.393      91.217    
  93.380      91.217      85.393      77.380      68.429      59.047      49.363      39.781      31.161      24.360    
  19.638      16.495      14.396      13.092      12.331      11.935      10.429      10.591      11.108      12.087    
  13.734      16.335      20.242      26.277      34.834      45.282      56.341      66.978      77.009      86.707    
  95.724      102.51      105.08      102.51      95.724      86.707      77.009      66.978      56.341      45.282    
  34.834      26.277      20.242      16.335      13.734      12.087      11.108      10.591      9.6641      9.8456    
  10.427      11.536      13.411      16.377      20.948      28.142      38.228      50.243      62.574      74.125    
  84.998      95.844      106.35      114.49      117.62      114.49      106.35      95.844      84.998      74.125    
  62.574      50.243      38.228      28.142      20.948      16.377      13.411      11.536      10.427      9.8456    
  9.2217      9.4141      10.033      11.221      13.242      16.446      21.493      29.506      40.659      53.766    
  67.013      79.310      91.002      103.00      114.94      124.34      127.98      124.34      114.94      103.00    
  91.002      79.310      67.013      53.766      40.659      29.506      21.493      16.446      13.242      11.221    
  10.033      9.4141      9.0636      9.2600      9.8932      11.110      13.183      16.473      21.696      30.007    
  41.545      55.049      68.637      81.230      93.271      105.76      118.29      128.22      132.07      128.22    
  118.29      105.76      93.271      81.230      68.637      55.049      41.545      30.007      21.696      16.473    
  13.183      11.110      9.8932      9.2600      9.2217      9.4141      10.033      11.221      13.242      16.446    
  21.493      29.506      40.659      53.766      67.013      79.310      91.002      103.00      114.94      124.34    
  127.98      124.34      114.94      103.00      91.002      79.310      67.013      53.766      40.659      29.506    
  21.493      16.446      13.242      11.221      10.033      9.4141      9.6641      9.8456      10.427      11.536    
  13.411      16.377      20.948      28.142      38.228      50.243      62.574      74.125      84.998      95.844    
  106.35      114.49      117.62      114.49      106.35      95.844      84.998      74.125      62.574      50.243    
  38.228      28.142      20.948      16.377      13.411      11.536      10.427      9.8456      10.429      10.591    
  11.108      12.087      13.734      16.335      20.242      26.277      34.834      45.282      56.341      66.978    
  77.009      86.707      95.724      102.51      105.08      102.51      95.724      86.707      77.009      66.978    
  56.341      45.282      34.834      26.277      20.242      16.335      13.734      12.087      11.108      10.591    
  11.812      11.935      12.331      13.092      14.396      16.495      19.638      24.360      31.161      39.781    
  49.363      59.047      68.429      77.380      85.393      91.217      93.380      91.217      85.393      77.380    
  68.429      59.047      49.363      39.781      31.161      24.360      19.638      16.495      14.396      13.092    
  12.331      11.935      14.358      14.403      14.567      14.951      15.729      17.140      19.408      22.793    
  27.784      34.447      42.357      50.913      59.626      68.054      75.472      80.729      82.651      80.729    
  75.472      68.054      59.626      50.913      42.357      34.447      27.784      22.793      19.408      17.140    
  15.729      14.951      14.567      14.403      18.701      18.611      18.385      18.161      18.153      18.620    
  19.806      21.870      25.095      29.753      35.763      42.801      50.422      58.036      64.772      69.510    
  71.230      69.510      64.772      58.036      50.422      42.801      35.763      29.753      25.095      21.870    
  19.806      18.620      18.153      18.161      18.385      18.611      25.766      25.385      24.398      23.171    
  22.064      21.299      21.132      21.771      23.322      26.018      29.976      35.082      41.008      47.183    
  52.752      56.690      58.119      56.690      52.752      47.183      41.008      35.082      29.976      26.018    
  23.322      21.771      21.132      21.299      22.064      23.171      24.398      25.385      39.000      37.932    
  35.120      31.506      28.068      25.408      23.625      22.623      22.538      23.426      25.390      28.414    
  32.279      36.533      40.483      43.315      44.348      43.315      40.483      36.533      32.279      28.414    
  25.390      23.426      22.538      22.623      23.625      25.408      28.068      31.506      35.120      37.932    
  61.111      58.945      53.188      45.617      38.102      31.885      27.426      24.526      22.695      21.941    
  22.201      23.378      25.297      27.635      29.912      31.580      32.193      31.580      29.912      27.635    
  25.297      23.378      22.201      21.941      22.695      24.526      27.426      31.885      38.102      45.617    
  53.188      58.945      91.598      88.058      78.611      66.036      53.208      42.046      33.439      27.538    
  23.791      21.381      20.200      20.007      20.493      21.382      22.357      23.099      23.375      23.099    
  22.357      21.382      20.493      20.007      20.200      21.381      23.791      27.538      33.439      42.046    
  53.208      66.036      78.611      88.058      128.08      123.04      109.61      91.676      73.088      56.276    
  42.455      32.279      25.740      21.673      19.108      17.803      17.367      17.421      17.651      17.850    
  17.924      17.850      17.651      17.421      17.367      17.803      19.108      21.673      25.740      32.279    
  42.455      56.276      73.088      91.676      109.61      123.04      168.64      162.01      144.42      121.07    
  96.744      74.129      54.520      39.099      28.710      22.619      18.771      16.483      15.321      14.832    
  14.656      14.585      14.560      14.585      14.656      14.832      15.321      16.483      18.771      22.619    
  28.710      39.099      54.520      74.129      96.744      121.07      144.42      162.01      211.76      203.40    
  181.37      152.43      122.45      94.167      68.666      47.544      32.636      23.956      18.929      15.806    
  14.083      13.220      12.788      12.550      12.465      12.550      12.788      13.220      14.083      15.806    
  18.929      23.956      32.636      47.544      68.666      94.167      122.45      152.43      181.37      203.40    
  253.37      243.23      216.68      182.24      146.92      113.47      82.615      56.157      36.829      25.437    
  19.296      15.513      13.380      12.276      11.696      11.366      11.246      11.366      11.696      12.276    
  13.380      15.513      19.296      25.437      36.829      56.157      82.615      113.47      146.92      182.24    
  216.68      243.23      284.98      273.41      243.27      204.49      165.08      127.82      93.078      62.734    
  40.118      26.632      19.626      15.410      13.022      11.782      11.127      10.751      10.615      10.751    
  11.127      11.782      13.022      15.410      19.626      26.632      40.118      62.734      93.078      127.82    
  165.08      204.49      243.27      273.41      285.11      273.55      243.45      204.71      165.29      127.98    
  93.171      62.768      40.119      26.623      19.619      15.409      13.025      11.789      11.136      10.761    
  10.626      10.761      11.136      11.789      13.025      15.409      19.619      26.623      40.119      62.768    
  93.171      127.98      165.29      204.71      243.45      273.55      273.98      262.94      234.11      196.89    
  158.91      122.93      89.472      60.429      38.939      26.188      19.494      15.431      13.132      11.939    
  11.309      10.947      10.817      10.947      11.309      11.939      13.132      15.431      19.494      26.188    
  38.939      60.429      89.472      122.93      158.91      196.89      234.11      262.94      244.50      234.75    
  209.21      175.96      141.75      109.34      79.561      54.214      35.841      25.059      19.173      15.530    
  13.480      12.420      11.864      11.547      11.433      11.547      11.864      12.420      13.480      15.530    
  19.173      25.059      35.841      54.214      79.561      109.34      141.75      175.96      209.21      234.75    
  205.31      197.21      175.84      147.70      118.49      90.974      66.315      46.063      31.887      23.651    
  18.814      15.813      14.162      13.337      12.925      12.699      12.618      12.699      12.925      13.337    
  14.162      15.813      18.814      23.651      31.887      46.063      66.315      90.974      118.49      147.70    
  175.84      197.21      164.12      157.65      140.48      117.64      93.856      71.814      52.840      38.055    
  28.172      22.360      18.657      16.467      15.361      14.901      14.740      14.676      14.655      14.676    
  14.740      14.901      15.361      16.467      18.657      22.360      28.172      38.055      52.840      71.814    
  93.856      117.64      140.48      157.65      124.82      119.90      106.75      89.195      71.026      54.663    
  41.314      31.572      25.342      21.432      18.977      17.741      17.342      17.411      17.647      17.847    
  17.921      17.847      17.647      17.411      17.342      17.741      18.977      21.432      25.342      31.572    
  41.314      54.663      71.026      89.195      106.75      119.90      89.203      85.747      76.526      64.262    
  51.778      40.967      32.687      27.046      23.450      21.140      20.028      19.875      20.367      21.237    
  22.184      22.904      23.171      22.904      22.184      21.237      20.367      19.875      20.028      21.140    
  23.450      27.046      32.687      40.967      51.778      64.262      76.526      85.747      59.466      57.364    
  51.780      44.446      37.184      31.200      26.925      24.135      22.376      21.677      21.964      23.124    
  24.991      27.253      29.450      31.057      31.648      31.057      29.450      27.253      24.991      23.124    
  21.964      21.677      22.376      24.135      26.925      31.200      37.184      44.446      51.780      57.364    
  38.047      37.018      34.312      30.838      27.536      24.978      23.248      22.283      22.226      23.116    
  25.041      27.984      31.730      35.842      39.653      42.380      43.374      42.380      39.653      35.842    
  31.730      27.984      25.041      23.116      22.226      22.283      23.248      24.978      27.536      30.838    
  34.312      37.018      25.326      24.960      24.012      22.828      21.747      20.994      20.833      21.468    
  22.995      25.628      29.488      34.460      40.216      46.194      51.568      55.358      56.733      55.358    
  51.568      46.194      40.216      34.460      29.488      25.628      22.995      21.468      20.833      20.994    
  21.747      22.828      24.012      24.960      18.508      18.417      18.193      17.969      17.955      18.407    
  19.565      21.584      24.727      29.273      35.149      42.029      49.457      56.839      63.334      67.882    
  69.528      67.882      63.334      56.839      49.457      42.029      35.149      29.273      24.727      21.584    
  19.565      18.407      17.955      17.969      18.193      18.417      14.297      14.340      14.497      14.867    
  15.621      16.992      19.205      22.500      27.364      33.886      41.658      50.069      58.592      66.762    
  73.882      78.891      80.715      78.891      73.882      66.762      58.592      50.069      41.658      33.886    
  27.364      22.500      19.205      16.992      15.621      14.867      14.497      14.340      11.842      11.961    
  12.344      13.081      14.346      16.389      19.452      24.046      30.690      39.163      48.631      58.202    
  67.399      76.045      83.665      89.145      91.169      89.145      83.665      76.045      67.399      58.202    
  48.631      39.163      30.690      24.046      19.452      16.389      14.346      13.081      12.344      11.961    
  10.514      10.671      11.171      12.120      13.720      16.254      20.059      25.936      34.319      44.631    
  55.610      66.164      75.993      85.290      93.763      100.06      102.44      100.06      93.763      85.290    
  75.993      66.164      55.610      44.631      34.319      25.936      20.059      16.254      13.720      12.120    
  11.171      10.671      9.7831      9.9587      10.522      11.597      13.420      16.312      20.760      27.775    
  37.679      49.572      61.853      73.333      83.958      94.272      104.05      111.53      114.40      111.53    
  104.05      94.272      83.958      73.333      61.853      49.572      37.679      27.775      20.760      16.312    
  13.420      11.597      10.522      9.9587      9.3619      9.5479      10.147      11.299      13.265      16.391    
  21.302      29.122      40.088      53.085      66.299      78.524      89.914      101.26      112.30      120.92    
  124.23      120.92      112.30      101.26      89.914      78.524      66.299      53.085      40.088      29.122    
  21.302      16.391      13.265      11.299      10.147      9.5479      9.2115      9.4014      10.014      11.194    
  13.211      16.421      21.503      29.617      40.967      54.364      67.924      80.443      92.159      103.95    
  115.53      124.60      128.11      124.60      115.53      103.95      92.159      80.443      67.924      54.364    
  40.967      29.617      21.503      16.421      13.211      11.194      10.014      9.4014      9.3619      9.5479    
  10.147      11.299      13.265      16.391      21.302      29.122      40.088      53.085      66.299      78.524    
  89.914      101.26      112.30      120.92      124.23      120.92      112.30      101.26      89.914      78.524    
  66.299      53.085      40.088      29.122      21.302      16.391      13.265      11.299      10.147      9.5479    
  9.7831      9.9587      10.522      11.597      13.420      16.312      20.760      27.775      37.679      49.572    
  61.853      73.333      83.958      94.272      104.05      111.53      114.40      111.53      104.05      94.272    
  83.958      73.333      61.853      49.572      37.679      27.775      20.760      16.312      13.420      11.597    
  10.522      9.9587      10.514      10.671      11.171      12.120      13.720      16.254      20.059      25.936    
  34.319      44.631      55.610      66.164      75.993      85.290      93.763      100.06      102.44      100.06    
  93.763      85.290      75.993      66.164      55.610      44.631      34.319      25.936      20.059      16.254    
  13.720      12.120      11.171      10.671      11.842      11.961      12.344      13.081      14.346      16.389    
  19.452      24.046      30.690      39.163      48.631      58.202      67.399      76.045      83.665      89.145    
  91.169      89.145      83.665      76.045      67.399      58.202      48.631      39.163      30.690      24.046    
  19.452      16.389      14.346      13.081      12.344      11.961      14.297      14.340      14.497      14.867    
  15.621      16.992      19.205      22.500      27.364      33.886      41.658      50.069      58.592      66.762    
  73.882      78.891      80.715      78.891      73.882      66.762      58.592      50.069      41.658      33.886    
  27.364      22.500      19.205      16.992      15.621      14.867      14.497      14.340      18.508      18.417    
  18.193      17.969      17.955      18.407      19.565      21.584      24.727      29.273      35.149      42.029    
  49.457      56.839      63.334      67.882      69.528      67.882      63.334      56.839      49.457      42.029    
  35.149      29.273      24.727      21.584      19.565      18.407      17.955      17.969      18.193      18.417    
  25.326      24.960      24.012      22.828      21.747      20.994      20.833      21.468      22.995      25.628    
  29.488      34.460      40.216      46.194      51.568      55.358      56.733      55.358      51.568      46.194    
  40.216      34.460      29.488      25.628      22.995      21.468      20.833      20.994      21.747      22.828    
  24.012      24.960      38.047      37.018      34.312      30.838      27.536      24.978      23.248      22.283    
  22.226      23.116      25.041      27.984      31.730      35.842      39.653      42.380      43.374      42.380    
  39.653      35.842      31.730      27.984      25.041      23.116      22.226      22.283      23.248      24.978    
  27.536      30.838      34.312      37.018      59.466      57.364      51.780      44.446      37.184      31.200    
  26.925      24.135      22.376      21.677      21.964      23.124      24.991      27.253      29.450      31.057    
  31.648      31.057      29.450      27.253      24.991      23.124      21.964      21.677      22.376      24.135    
  26.925      31.200      37.184      44.446      51.780      57.364      89.203      85.747      76.526      64.262    
  51.778      40.967      32.687      27.046      23.450      21.140      20.028      19.875      20.367      21.237    
  22.184      22.904      23.171      22.904      22.184      21.237      20.367      19.875      20.028      21.140    
  23.450      27.046      32.687      40.967      51.778      64.262      76.526      85.747      124.82      119.90    
  106.75      89.195      71.026      54.663      41.314      31.572      25.342      21.432      18.977      17.741    
  17.342      17.411      17.647      17.847      17.921      17.847      17.647      17.411      17.342      17.741    
  18.977      21.432      25.342      31.572      41.314      54.663      71.026      89.195      106.75      119.90    
  164.12      157.65      140.48      117.64      93.856      71.814      52.840      38.055      28.172      22.360    
  18.657      16.467      15.361      14.901      14.740      14.676      14.655      14.676      14.740      14.901    
  15.361      16.467      18.657      22.360      28.172      38.055      52.840      71.814      93.856      117.64    
  140.48      157.65      205.31      197.21      175.84      147.70      118.49      90.974      66.315      46.063    
  31.887      23.651      18.814      15.813      14.162      13.337      12.925      12.699      12.618      12.699    
  12.925      13.337      14.162      15.813      18.814      23.651      31.887      46.063      66.315      90.974    
  118.49      147.70      175.84      197.21      244.50      234.75      209.21      175.96      141.75      109.34    
  79.561      54.214      35.841      25.059      19.173      15.530      13.480      12.420      11.864      11.547    
  11.433      11.547      11.864      12.420      13.480      15.530      19.173      25.059      35.841      54.214    
  79.561      109.34      141.75      175.96      209.21      234.75      273.98      262.94      234.11      196.89    
  158.91      122.93      89.472      60.429      38.939      26.188      19.494      15.431      13.132      11.939    
  11.309      10.947      10.817      10.947      11.309      11.939      13.132      15.431      19.494      26.188    
  38.939      60.429      89.472      122.93      158.91      196.89      234.11      262.94      253.77      243.69    
  217.29      182.95      147.60      113.98      82.894      56.247      36.817      25.399      19.267      15.499    
  13.379      12.284      11.709      11.380      11.262      11.380      11.709      12.284      13.379      15.499    
  19.267      25.399      36.817      56.247      82.894      113.98      147.60      182.95      217.29      243.69    
  244.77      235.07      209.63      176.46      142.22      109.69      79.751      54.272      35.829      25.030    
  19.151      15.518      13.477      12.422      11.868      11.552      11.438      11.552      11.868      12.422    
  13.477      15.518      19.151      25.030      35.829      54.272      79.751      109.69      142.22      176.46    
  209.63      235.07      220.58      211.88      188.96      158.86      127.64      98.072      71.295      49.011    
  33.231      24.066      18.852      15.605      13.793      12.862      12.378      12.103      12.005      12.103    
  12.378      12.862      13.793      15.605      18.852      24.066      33.231      49.011      71.295      98.072    
  127.64      158.86      188.96      211.88      187.46      180.07      160.49      134.54      107.51      82.189    
  59.916      42.084      29.897      22.836      18.514      15.856      14.410      13.698      13.349      13.160    
  13.092      13.160      13.349      13.698      14.410      15.856      18.514      22.836      29.897      42.084    
  59.916      82.189      107.51      134.54      160.49      180.07      151.20      145.20      129.22      107.91    
  85.725      65.383      48.242      35.238      26.732      21.650      18.354      16.439      15.495      15.120    
  15.005      14.968      14.956      14.968      15.005      15.120      15.495      16.439      18.354      21.650    
  26.732      35.238      48.242      65.383      85.725      107.91      129.22      145.20      115.30      110.71    
  98.433      82.050      65.170      50.163      38.183      29.654      24.256      20.771      18.624      17.583    
  17.289      17.405      17.660      17.869      17.945      17.869      17.660      17.405      17.289      17.583    
  18.624      20.771      24.256      29.654      38.183      50.163      65.170      82.050      98.433      110.71    
  82.202      79.005      70.480      59.171      47.737      37.965      30.624      25.699      22.502      20.475    
  19.560      19.513      20.031      20.860      21.738      22.398      22.642      22.398      21.738      20.860    
  20.031      19.513      19.560      20.475      22.502      25.699      30.624      37.965      47.737      59.171    
  70.480      79.005      54.744      52.835      47.769      41.141      34.624      29.311      25.546      23.047    
  21.494      20.949      21.310      22.431      24.160      26.219      28.203      29.649      30.179      29.649    
  28.203      26.219      24.160      22.431      21.310      20.949      21.494      23.047      25.546      29.311    
  34.624      41.141      47.769      52.835      35.379      34.466      32.065      28.989      26.069      23.791    
  22.201      21.343      21.361      22.259      24.074      26.793      30.217      33.945      37.377      39.823    
  40.713      39.823      37.377      33.945      30.217      26.793      24.074      22.259      21.361      21.343    
  22.201      23.791      26.069      28.989      32.065      34.466      24.114      23.791      22.948      21.878    
  20.863      20.150      20.008      20.629      22.090      24.546      28.124      32.716      38.002      43.445    
  48.295      51.692      52.919      51.692      48.295      43.445      38.002      32.716      28.124      24.546    
  22.090      20.629      20.008      20.150      20.863      21.878      22.948      23.791      17.953      17.867    
  17.650      17.432      17.410      17.823      18.901      20.793      23.704      27.919      33.402      39.830    
  46.724      53.484      59.341      63.391      64.846      63.391      59.341      53.484      46.724      39.830    
  33.402      27.919      23.704      20.793      18.901      17.823      17.410      17.432      17.650      17.867    
  14.107      14.146      14.291      14.630      15.322      16.586      18.641      21.688      26.180      32.280    
  39.633      47.615      55.620      63.118      69.477      73.854      75.429      73.854      69.477      63.118    
  55.620      47.615      39.633      32.280      26.180      21.688      18.641      16.586      15.322      14.630    
  14.291      14.146      11.885      11.995      12.351      13.032      14.200      16.090      18.936      23.163    