unknown system                          
   1.00000000000000     
     3.635000    0.000000    0.000000
     0.000000    3.635000    0.000000
     0.000000    0.000000    3.635000
   Pd   Ir   Pt   Cu
     1     1     1     1
Direct
  0.000000  0.000000  0.000000
  0.500000  0.500000  0.000000
  0.500000  0.000000  0.500000
  0.000000  0.500000  0.500000
 
   32   32   32
 0.29695818844E+03 0.28482751110E+03 0.25328659849E+03 0.21282892811E+03 0.17184813386E+03
 0.13315936489E+03 0.96987948879E+02 0.65210259929E+02 0.41371863540E+02 0.27094007590E+02
 0.19754354774E+02 0.15387792581E+02 0.12911750575E+02 0.11627619715E+02 0.10949337063E+02
 0.10560088701E+02 0.10419101927E+02 0.10560088701E+02 0.10949337063E+02 0.11627619715E+02
 0.12911750575E+02 0.15387792581E+02 0.19754354774E+02 0.27094007590E+02 0.41371863540E+02
 0.65210259929E+02 0.96987948879E+02 0.13315936489E+03 0.17184813386E+03 0.21282892811E+03
 0.25328659849E+03 0.28482751110E+03 0.28498126714E+03 0.27340651950E+03 0.24326521532E+03
 0.20448840879E+03 0.16507516979E+03 0.12781637016E+03 0.93078345567E+02 0.62734047417E+02
 0.40118213196E+02 0.26631957279E+02 0.19625590225E+02 0.15410337678E+02 0.13021804534E+02
 0.11782077980E+02 0.11126690910E+02 0.10750869396E+02 0.10614905977E+02 0.10750869396E+02
 0.11126690910E+02 0.11782077980E+02 0.13021804534E+02 0.15410337678E+02 0.19625590225E+02
 0.26631957279E+02 0.40118213196E+02 0.62734047417E+02 0.93078345567E+02 0.12781637016E+03
 0.16507516979E+03 0.20448840879E+03 0.24326521532E+03 0.27340651950E+03 0.25337261903E+03
 0.24322543921E+03 0.21668132435E+03 0.18224193529E+03 0.14692208747E+03 0.11347409323E+03
 0.82615151393E+02 0.56156648067E+02 0.36828819156E+02 0.25436780330E+02 0.19296003078E+02
 0.15512749961E+02 0.13379754428E+02 0.12276375345E+02 0.11696138391E+02 0.11365590714E+02
 0.11246431181E+02 0.11365590714E+02 0.11696138391E+02 0.12276375345E+02 0.13379754428E+02
 0.15512749961E+02 0.19296003078E+02 0.25436780330E+02 0.36828819156E+02 0.56156648067E+02
 0.82615151393E+02 0.11347409323E+03 0.14692208747E+03 0.18224193529E+03 0.21668132435E+03
 0.24322543921E+03 0.21176463981E+03 0.20340012208E+03 0.18136598361E+03 0.15243231374E+03
 0.12245411806E+03 0.94166770243E+02 0.68665605798E+02 0.47543567966E+02 0.32636089285E+02
 0.23955983137E+02 0.18929006967E+02 0.15805837179E+02 0.14082841795E+02 0.13220224776E+02
 0.12787910692E+02 0.12550038884E+02 0.12464895272E+02 0.12550038884E+02 0.12787910692E+02
 0.13220224776E+02 0.14082841795E+02 0.15805837179E+02 0.18929006967E+02 0.23955983137E+02
 0.32636089285E+02 0.47543567966E+02 0.68665605798E+02 0.94166770243E+02 0.12245411806E+03
 0.15243231374E+03 0.18136598361E+03 0.20340012208E+03 0.16863796631E+03 0.16201079446E+03
 0.14442280854E+03 0.12106749109E+03 0.96744354673E+02 0.74128880387E+02 0.54520260901E+02
 0.39098818858E+02 0.28709582817E+02 0.22618820527E+02 0.18771158814E+02 0.16483444190E+02
 0.15321494356E+02 0.14831944261E+02 0.14656123292E+02 0.14584577902E+02 0.14559852712E+02
 0.14584577902E+02 0.14656123292E+02 0.14831944261E+02 0.15321494356E+02 0.16483444190E+02
 0.18771158814E+02 0.22618820527E+02 0.28709582817E+02 0.39098818858E+02 0.54520260901E+02
 0.74128880387E+02 0.96744354673E+02 0.12106749109E+03 0.14442280854E+03 0.16201079446E+03
 0.12807851063E+03 0.12304243826E+03 0.10960969495E+03 0.91676129975E+02 0.73088274357E+02
 0.56275668045E+02 0.42455383506E+02 0.32279198204E+02 0.25739953396E+02 0.21672904455E+02
 0.19108237123E+02 0.17802784238E+02 0.17367128536E+02 0.17420767179E+02 0.17650631511E+02
 0.17849826338E+02 0.17923799728E+02 0.17849826338E+02 0.17650631511E+02 0.17420767179E+02
 0.17367128536E+02 0.17802784238E+02 0.19108237123E+02 0.21672904455E+02 0.25739953396E+02
 0.32279198204E+02 0.42455383506E+02 0.56275668045E+02 0.73088274357E+02 0.91676129975E+02
 0.10960969495E+03 0.12304243826E+03 0.91598019569E+02 0.88058454752E+02 0.78610783641E+02
 0.66036112229E+02 0.53207642111E+02 0.42046440182E+02 0.33438907044E+02 0.27538151137E+02
 0.23791216851E+02 0.21381337275E+02 0.20199584800E+02 0.20007478889E+02 0.20493252915E+02
 0.21381573804E+02 0.22356586137E+02 0.23099242184E+02 0.23375075126E+02 0.23099242184E+02
 0.22356586137E+02 0.21381573804E+02 0.20493252915E+02 0.20007478889E+02 0.20199584800E+02
 0.21381337275E+02 0.23791216851E+02 0.27538151137E+02 0.33438907044E+02 0.42046440182E+02
 0.53207642111E+02 0.66036112229E+02 0.78610783641E+02 0.88058454752E+02 0.61110623663E+02
 0.58944671553E+02 0.53187554464E+02 0.45617153332E+02 0.38101956302E+02 0.31885388847E+02
 0.27425899597E+02 0.24525658822E+02 0.22695165408E+02 0.21940863894E+02 0.22201455813E+02
 0.23377708474E+02 0.25297341449E+02 0.27635180280E+02 0.29912066498E+02 0.31579806532E+02
 0.32193026515E+02 0.31579806532E+02 0.29912066498E+02 0.27635180280E+02 0.25297341449E+02
 0.23377708474E+02 0.22201455813E+02 0.21940863894E+02 0.22695165408E+02 0.24525658822E+02
 0.27425899597E+02 0.31885388847E+02 0.38101956302E+02 0.45617153332E+02 0.53187554464E+02
 0.58944671553E+02 0.38999989171E+02 0.37931886992E+02 0.35120194707E+02 0.31506331739E+02
 0.28068022714E+02 0.25407899496E+02 0.23624895761E+02 0.22622567606E+02 0.22538084696E+02
 0.23425751153E+02 0.25390302373E+02 0.28414227222E+02 0.32278982451E+02 0.36532562674E+02
 0.40482846725E+02 0.43314658190E+02 0.44347636369E+02 0.43314658190E+02 0.40482846725E+02
 0.36532562674E+02 0.32278982451E+02 0.28414227222E+02 0.25390302373E+02 0.23425751153E+02
 0.22538084696E+02 0.22622567606E+02 0.23624895761E+02 0.25407899496E+02 0.28068022714E+02
 0.31506331739E+02 0.35120194707E+02 0.37931886992E+02 0.25766013699E+02 0.25385138358E+02
 0.24397737166E+02 0.23170524024E+02 0.22063671203E+02 0.21299021653E+02 0.21131622757E+02
 0.21770779997E+02 0.23322432830E+02 0.26017651004E+02 0.29975989323E+02 0.35081959539E+02
 0.41008303459E+02 0.47182560554E+02 0.52751523036E+02 0.56689900847E+02 0.58119438594E+02
 0.56689900847E+02 0.52751523036E+02 0.47182560554E+02 0.41008303459E+02 0.35081959539E+02
 0.29975989323E+02 0.26017651004E+02 0.23322432830E+02 0.21770779997E+02 0.21131622757E+02
 0.21299021653E+02 0.22063671203E+02 0.23170524024E+02 0.24397737166E+02 0.25385138358E+02
 0.18701282567E+02 0.18610648793E+02 0.18384967884E+02 0.18160941572E+02 0.18153053487E+02
 0.18620103309E+02 0.19806498414E+02 0.21869713285E+02 0.25094944322E+02 0.29752929159E+02
 0.35763144762E+02 0.42800964881E+02 0.50422306995E+02 0.58035695543E+02 0.64772110016E+02
 0.69510276894E+02 0.71229562695E+02 0.69510276894E+02 0.64772110016E+02 0.58035695543E+02
 0.50422306995E+02 0.42800964881E+02 0.35763144762E+02 0.29752929159E+02 0.25094944322E+02
 0.21869713285E+02 0.19806498414E+02 0.18620103309E+02 0.18153053487E+02 0.18160941572E+02
 0.18384967884E+02 0.18610648793E+02 0.14358302224E+02 0.14402865233E+02 0.14567239275E+02
 0.14950620220E+02 0.15729359031E+02 0.17139980791E+02 0.19408087619E+02 0.22793026517E+02
 0.27783946239E+02 0.34446784624E+02 0.42356594330E+02 0.50913227986E+02 0.59626120402E+02
 0.68053934606E+02 0.75471503668E+02 0.80729071204E+02 0.82650755700E+02 0.80729071204E+02
 0.75471503668E+02 0.68053934606E+02 0.59626120402E+02 0.50913227986E+02 0.42356594330E+02
 0.34446784624E+02 0.27783946239E+02 0.22793026517E+02 0.19408087619E+02 0.17139980791E+02
 0.15729359031E+02 0.14950620220E+02 0.14567239275E+02 0.14402865233E+02 0.11811929279E+02
 0.11935007276E+02 0.12330835690E+02 0.13091677722E+02 0.14396062279E+02 0.16495311487E+02
 0.19637970073E+02 0.24359977795E+02 0.31161117263E+02 0.39780716548E+02 0.49362986104E+02
 0.59047392302E+02 0.68428619024E+02 0.77380048637E+02 0.85393022021E+02 0.91217019740E+02
 0.93380092878E+02 0.91217019740E+02 0.85393022021E+02 0.77380048637E+02 0.68428619024E+02
 0.59047392302E+02 0.49362986104E+02 0.39780716548E+02 0.31161117263E+02 0.24359977795E+02
 0.19637970073E+02 0.16495311487E+02 0.14396062279E+02 0.13091677722E+02 0.12330835690E+02
 0.11935007276E+02 0.10428628373E+02 0.10590842094E+02 0.11108109285E+02 0.12086872623E+02
 0.13733733293E+02 0.16334829693E+02 0.20242405627E+02 0.26277321249E+02 0.34834323765E+02
 0.45282191462E+02 0.56341189439E+02 0.66978459750E+02 0.77009205574E+02 0.86707117846E+02
 0.95724393127E+02 0.10251326406E+03 0.10508300344E+03 0.10251326406E+03 0.95724393127E+02
 0.86707117846E+02 0.77009205574E+02 0.66978459750E+02 0.56341189439E+02 0.45282191462E+02
 0.34834323765E+02 0.26277321249E+02 0.20242405627E+02 0.16334829693E+02 0.13733733293E+02
 0.12086872623E+02 0.11108109285E+02 0.10590842094E+02 0.96641261509E+01 0.98456102578E+01
 0.10427259687E+02 0.11535754690E+02 0.13411449650E+02 0.16376755546E+02 0.20947759318E+02
 0.28142319407E+02 0.38228043651E+02 0.50243062161E+02 0.62573995927E+02 0.74124625790E+02
 0.84998335743E+02 0.95843692662E+02 0.10634928111E+03 0.11449481374E+03 0.11762123486E+03
 0.11449481374E+03 0.10634928111E+03 0.95843692662E+02 0.84998335743E+02 0.74124625790E+02
 0.62573995927E+02 0.50243062161E+02 0.38228043651E+02 0.28142319407E+02 0.20947759318E+02
 0.16376755546E+02 0.13411449650E+02 0.11535754690E+02 0.10427259687E+02 0.98456102578E+01
 0.92217033004E+01 0.94140808457E+01 0.10033365849E+02 0.11221242127E+02 0.13242325438E+02
 0.16445925309E+02 0.21493239233E+02 0.29506119508E+02 0.40658528761E+02 0.53765919626E+02
 0.67013136836E+02 0.79309719037E+02 0.91002345310E+02 0.10299713247E+03 0.11493535504E+03
 0.12434379829E+03 0.12798009269E+03 0.12434379829E+03 0.11493535504E+03 0.10299713247E+03
 0.91002345310E+02 0.79309719037E+02 0.67013136836E+02 0.53765919626E+02 0.40658528761E+02
 0.29506119508E+02 0.21493239233E+02 0.16445925309E+02 0.13242325438E+02 0.11221242127E+02
 0.10033365849E+02 0.94140808457E+01 0.90635659498E+01 0.92599975425E+01 0.98931659830E+01
 0.11109974893E+02 0.13183466247E+02 0.16473216542E+02 0.21696386000E+02 0.30007132387E+02
 0.41545428469E+02 0.55049012016E+02 0.68636877563E+02 0.81230451426E+02 0.93271403904E+02
 0.10575635470E+03 0.11829395881E+03 0.12822301501E+03 0.13206799620E+03 0.12822301501E+03
 0.11829395881E+03 0.10575635470E+03 0.93271403904E+02 0.81230451426E+02 0.68636877563E+02
 0.55049012016E+02 0.41545428469E+02 0.30007132387E+02 0.21696386000E+02 0.16473216542E+02
 0.13183466247E+02 0.11109974893E+02 0.98931659830E+01 0.92599975425E+01 0.92217033004E+01
 0.94140808457E+01 0.10033365849E+02 0.11221242127E+02 0.13242325438E+02 0.16445925309E+02
 0.21493239233E+02 0.29506119508E+02 0.40658528761E+02 0.53765919626E+02 0.67013136836E+02
 0.79309719037E+02 0.91002345310E+02 0.10299713247E+03 0.11493535504E+03 0.12434379829E+03
 0.12798009269E+03 0.12434379829E+03 0.11493535504E+03 0.10299713247E+03 0.91002345310E+02
 0.79309719037E+02 0.67013136836E+02 0.53765919626E+02 0.40658528761E+02 0.29506119508E+02
 0.21493239233E+02 0.16445925309E+02 0.13242325438E+02 0.11221242127E+02 0.10033365849E+02
 0.94140808457E+01 0.96641261509E+01 0.98456102578E+01 0.10427259687E+02 0.11535754690E+02
 0.13411449650E+02 0.16376755546E+02 0.20947759318E+02 0.28142319407E+02 0.38228043651E+02
 0.50243062161E+02 0.62573995927E+02 0.74124625790E+02 0.84998335743E+02 0.95843692662E+02
 0.10634928111E+03 0.11449481374E+03 0.11762123486E+03 0.11449481374E+03 0.10634928111E+03
 0.95843692662E+02 0.84998335743E+02 0.74124625790E+02 0.62573995927E+02 0.50243062161E+02
 0.38228043651E+02 0.28142319407E+02 0.20947759318E+02 0.16376755546E+02 0.13411449650E+02
 0.11535754690E+02 0.10427259687E+02 0.98456102578E+01 0.10428628373E+02 0.10590842094E+02
 0.11108109285E+02 0.12086872623E+02 0.13733733293E+02 0.16334829693E+02 0.20242405627E+02
 0.26277321249E+02 0.34834323765E+02 0.45282191462E+02 0.56341189439E+02 0.66978459750E+02
 0.77009205574E+02 0.86707117846E+02 0.95724393127E+02 0.10251326406E+03 0.10508300344E+03
 0.10251326406E+03 0.95724393127E+02 0.86707117846E+02 0.77009205574E+02 0.66978459750E+02
 0.56341189439E+02 0.45282191462E+02 0.34834323765E+02 0.26277321249E+02 0.20242405627E+02
 0.16334829693E+02 0.13733733293E+02 0.12086872623E+02 0.11108109285E+02 0.10590842094E+02
 0.11811929279E+02 0.11935007276E+02 0.12330835690E+02 0.13091677722E+02 0.14396062279E+02
 0.16495311487E+02 0.19637970073E+02 0.24359977795E+02 0.31161117263E+02 0.39780716548E+02
 0.49362986104E+02 0.59047392302E+02 0.68428619024E+02 0.77380048637E+02 0.85393022021E+02
 0.91217019740E+02 0.93380092878E+02 0.91217019740E+02 0.85393022021E+02 0.77380048637E+02
 0.68428619024E+02 0.59047392302E+02 0.49362986104E+02 0.39780716548E+02 0.31161117263E+02
 0.24359977795E+02 0.19637970073E+02 0.16495311487E+02 0.14396062279E+02 0.13091677722E+02
 0.12330835690E+02 0.11935007276E+02 0.14358302224E+02 0.14402865233E+02 0.14567239275E+02
 0.14950620220E+02 0.15729359031E+02 0.17139980791E+02 0.19408087619E+02 0.22793026517E+02
 0.27783946239E+02 0.34446784624E+02 0.42356594330E+02 0.50913227986E+02 0.59626120402E+02
 0.68053934606E+02 0.75471503668E+02 0.80729071204E+02 0.82650755700E+02 0.80729071204E+02
 0.75471503668E+02 0.68053934606E+02 0.59626120402E+02 0.50913227986E+02 0.42356594330E+02
 0.34446784624E+02 0.27783946239E+02 0.22793026517E+02 0.19408087619E+02 0.17139980791E+02
 0.15729359031E+02 0.14950620220E+02 0.14567239275E+02 0.14402865233E+02 0.18701282567E+02
 0.18610648793E+02 0.18384967884E+02 0.18160941572E+02 0.18153053487E+02 0.18620103309E+02
 0.19806498414E+02 0.21869713285E+02 0.25094944322E+02 0.29752929159E+02 0.35763144762E+02
 0.42800964881E+02 0.50422306995E+02 0.58035695543E+02 0.64772110016E+02 0.69510276894E+02
 0.71229562695E+02 0.69510276894E+02 0.64772110016E+02 0.58035695543E+02 0.50422306995E+02
 0.42800964881E+02 0.35763144762E+02 0.29752929159E+02 0.25094944322E+02 0.21869713285E+02
 0.19806498414E+02 0.18620103309E+02 0.18153053487E+02 0.18160941572E+02 0.18384967884E+02
 0.18610648793E+02 0.25766013699E+02 0.25385138358E+02 0.24397737166E+02 0.23170524024E+02
 0.22063671203E+02 0.21299021653E+02 0.21131622757E+02 0.21770779997E+02 0.23322432830E+02
 0.26017651004E+02 0.29975989323E+02 0.35081959539E+02 0.41008303459E+02 0.47182560554E+02
 0.52751523036E+02 0.56689900847E+02 0.58119438594E+02 0.56689900847E+02 0.52751523036E+02
 0.47182560554E+02 0.41008303459E+02 0.35081959539E+02 0.29975989323E+02 0.26017651004E+02
 0.23322432830E+02 0.21770779997E+02 0.21131622757E+02 0.21299021653E+02 0.22063671203E+02
 0.23170524024E+02 0.24397737166E+02 0.25385138358E+02 0.38999989171E+02 0.37931886992E+02
 0.35120194707E+02 0.31506331739E+02 0.28068022714E+02 0.25407899496E+02 0.23624895761E+02
 0.22622567606E+02 0.22538084696E+02 0.23425751153E+02 0.25390302373E+02 0.28414227222E+02
 0.32278982451E+02 0.36532562674E+02 0.40482846725E+02 0.43314658190E+02 0.44347636369E+02
 0.43314658190E+02 0.40482846725E+02 0.36532562674E+02 0.32278982451E+02 0.28414227222E+02
 0.25390302373E+02 0.23425751153E+02 0.22538084696E+02 0.22622567606E+02 0.23624895761E+02
 0.25407899496E+02 0.28068022714E+02 0.31506331739E+02 0.35120194707E+02 0.37931886992E+02
 0.61110623663E+02 0.58944671553E+02 0.53187554464E+02 0.45617153332E+02 0.38101956302E+02
 0.31885388847E+02 0.27425899597E+02 0.24525658822E+02 0.22695165408E+02 0.21940863894E+02
 0.22201455813E+02 0.23377708474E+02 0.25297341449E+02 0.27635180280E+02 0.29912066498E+02
 0.31579806532E+02 0.32193026515E+02 0.31579806532E+02 0.29912066498E+02 0.27635180280E+02
 0.25297341449E+02 0.23377708474E+02 0.22201455813E+02 0.21940863894E+02 0.22695165408E+02
 0.24525658822E+02 0.27425899597E+02 0.31885388847E+02 0.38101956302E+02 0.45617153332E+02
 0.53187554464E+02 0.58944671553E+02 0.91598019569E+02 0.88058454752E+02 0.78610783641E+02
 0.66036112229E+02 0.53207642111E+02 0.42046440182E+02 0.33438907044E+02 0.27538151137E+02
 0.23791216851E+02 0.21381337275E+02 0.20199584800E+02 0.20007478889E+02 0.20493252915E+02
 0.21381573804E+02 0.22356586137E+02 0.23099242184E+02 0.23375075126E+02 0.23099242184E+02
 0.22356586137E+02 0.21381573804E+02 0.20493252915E+02 0.20007478889E+02 0.20199584800E+02
 0.21381337275E+02 0.23791216851E+02 0.27538151137E+02 0.33438907044E+02 0.42046440182E+02
 0.53207642111E+02 0.66036112229E+02 0.78610783641E+02 0.88058454752E+02 0.12807851063E+03
 0.12304243826E+03 0.10960969495E+03 0.91676129975E+02 0.73088274357E+02 0.56275668045E+02
 0.42455383506E+02 0.32279198204E+02 0.25739953396E+02 0.21672904455E+02 0.19108237123E+02
 0.17802784238E+02 0.17367128536E+02 0.17420767179E+02 0.17650631511E+02 0.17849826338E+02
 0.17923799728E+02 0.17849826338E+02 0.17650631511E+02 0.17420767179E+02 0.17367128536E+02
 0.17802784238E+02 0.19108237123E+02 0.21672904455E+02 0.25739953396E+02 0.32279198204E+02
 0.42455383506E+02 0.56275668045E+02 0.73088274357E+02 0.91676129975E+02 0.10960969495E+03
 0.12304243826E+03 0.16863796631E+03 0.16201079446E+03 0.14442280854E+03 0.12106749109E+03
 0.96744354673E+02 0.74128880387E+02 0.54520260901E+02 0.39098818858E+02 0.28709582817E+02
 0.22618820527E+02 0.18771158814E+02 0.16483444190E+02 0.15321494356E+02 0.14831944261E+02
 0.14656123292E+02 0.14584577902E+02 0.14559852712E+02 0.14584577902E+02 0.14656123292E+02
 0.14831944261E+02 0.15321494356E+02 0.16483444190E+02 0.18771158814E+02 0.22618820527E+02
 0.28709582817E+02 0.39098818858E+02 0.54520260901E+02 0.74128880387E+02 0.96744354673E+02
 0.12106749109E+03 0.14442280854E+03 0.16201079446E+03 0.21176463981E+03 0.20340012208E+03
 0.18136598361E+03 0.15243231374E+03 0.12245411806E+03 0.94166770243E+02 0.68665605798E+02
 0.47543567966E+02 0.32636089285E+02 0.23955983137E+02 0.18929006967E+02 0.15805837179E+02
 0.14082841795E+02 0.13220224776E+02 0.12787910692E+02 0.12550038884E+02 0.12464895272E+02
 0.12550038884E+02 0.12787910692E+02 0.13220224776E+02 0.14082841795E+02 0.15805837179E+02
 0.18929006967E+02 0.23955983137E+02 0.32636089285E+02 0.47543567966E+02 0.68665605798E+02
 0.94166770243E+02 0.12245411806E+03 0.15243231374E+03 0.18136598361E+03 0.20340012208E+03
 0.25337261903E+03 0.24322543921E+03 0.21668132435E+03 0.18224193529E+03 0.14692208747E+03
 0.11347409323E+03 0.82615151393E+02 0.56156648067E+02 0.36828819156E+02 0.25436780330E+02
 0.19296003078E+02 0.15512749961E+02 0.13379754428E+02 0.12276375345E+02 0.11696138391E+02
 0.11365590714E+02 0.11246431181E+02 0.11365590714E+02 0.11696138391E+02 0.12276375345E+02
 0.13379754428E+02 0.15512749961E+02 0.19296003078E+02 0.25436780330E+02 0.36828819156E+02
 0.56156648067E+02 0.82615151393E+02 0.11347409323E+03 0.14692208747E+03 0.18224193529E+03
 0.21668132435E+03 0.24322543921E+03 0.28498126714E+03 0.27340651950E+03 0.24326521532E+03
 0.20448840879E+03 0.16507516979E+03 0.12781637016E+03 0.93078345567E+02 0.62734047417E+02
 0.40118213196E+02 0.26631957279E+02 0.19625590225E+02 0.15410337678E+02 0.13021804534E+02
 0.11782077980E+02 0.11126690910E+02 0.10750869396E+02 0.10614905977E+02 0.10750869396E+02
 0.11126690910E+02 0.11782077980E+02 0.13021804534E+02 0.15410337678E+02 0.19625590225E+02
 0.26631957279E+02 0.40118213196E+02 0.62734047417E+02 0.93078345567E+02 0.12781637016E+03
 0.16507516979E+03 0.20448840879E+03 0.24326521532E+03 0.27340651950E+03 0.28510749975E+03
 0.27355263155E+03 0.24345475570E+03 0.20470911493E+03 0.16528674298E+03 0.12797743678E+03
 0.93170664453E+02 0.62767738633E+02 0.40118910482E+02 0.26623227054E+02 0.19619284763E+02
 0.15408966958E+02 0.13025088963E+02 0.11788873975E+02 0.11135807393E+02 0.10761306330E+02
 0.10625776158E+02 0.10761306330E+02 0.11135807393E+02 0.11788873975E+02 0.13025088963E+02
 0.15408966958E+02 0.19619284763E+02 0.26623227054E+02 0.40118910482E+02 0.62767738633E+02
 0.93170664453E+02 0.12797743678E+03 0.16528674298E+03 0.20470911493E+03 0.24345475570E+03
 0.27355263155E+03 0.27398491232E+03 0.26293540246E+03 0.23410949255E+03 0.19689313369E+03
 0.15890642298E+03 0.12292648025E+03 0.89472069533E+02 0.60429403178E+02 0.38938916374E+02
 0.26187831688E+02 0.19493967526E+02 0.15430834250E+02 0.13132175434E+02 0.11939405083E+02
 0.11308831986E+02 0.10947492350E+02 0.10816867876E+02 0.10947492350E+02 0.11308831986E+02
 0.11939405083E+02 0.13132175434E+02 0.15430834250E+02 0.19493967526E+02 0.26187831688E+02
 0.38938916374E+02 0.60429403178E+02 0.89472069533E+02 0.12292648025E+03 0.15890642298E+03
 0.19689313369E+03 0.23410949255E+03 0.26293540246E+03 0.24449919100E+03 0.23475289312E+03
 0.20921159693E+03 0.17596427167E+03 0.14175266491E+03 0.10933920808E+03 0.79560751544E+02
 0.54213687452E+02 0.35840950821E+02 0.25058993157E+02 0.19172937559E+02 0.15529881172E+02
 0.13479946878E+02 0.12420457317E+02 0.11863638080E+02 0.11546691050E+02 0.11432502589E+02
 0.11546691050E+02 0.11863638080E+02 0.12420457317E+02 0.13479946878E+02 0.15529881172E+02
 0.19172937559E+02 0.25058993157E+02 0.35840950821E+02 0.54213687452E+02 0.79560751544E+02
 0.10933920808E+03 0.14175266491E+03 0.17596427167E+03 0.20921159693E+03 0.23475289312E+03
 0.20531314909E+03 0.19721197327E+03 0.17583818744E+03 0.14769981329E+03 0.11849186154E+03
 0.90973874080E+02 0.66314556556E+02 0.46062637369E+02 0.31886609958E+02 0.23651449406E+02
 0.18814352072E+02 0.15812813980E+02 0.14161683415E+02 0.13337248965E+02 0.12925366037E+02
 0.12699263277E+02 0.12618383910E+02 0.12699263277E+02 0.12925366037E+02 0.13337248965E+02
 0.14161683415E+02 0.15812813980E+02 0.18814352072E+02 0.23651449406E+02 0.31886609958E+02
 0.46062637369E+02 0.66314556556E+02 0.90973874080E+02 0.11849186154E+03 0.14769981329E+03
 0.17583818744E+03 0.19721197327E+03 0.16411982922E+03 0.15765498762E+03 0.14048011851E+03
 0.11764213340E+03 0.93856274031E+02 0.71813942307E+02 0.52840148711E+02 0.38054902656E+02
 0.28172090387E+02 0.22360237893E+02 0.18656720621E+02 0.16466720185E+02 0.15361120554E+02
 0.14900578197E+02 0.14739608711E+02 0.14676366064E+02 0.14654633423E+02 0.14676366064E+02
 0.14739608711E+02 0.14900578197E+02 0.15361120554E+02 0.16466720185E+02 0.18656720621E+02
 0.22360237893E+02 0.28172090387E+02 0.38054902656E+02 0.52840148711E+02 0.71813942307E+02
 0.93856274031E+02 0.11764213340E+03 0.14048011851E+03 0.15765498762E+03 0.12482219968E+03
 0.11989526720E+03 0.10674867344E+03 0.89194752360E+02 0.71025648761E+02 0.54663244170E+02
 0.41314305071E+02 0.31571954472E+02 0.25342131526E+02 0.21432188452E+02 0.18976938464E+02
 0.17740927562E+02 0.17341848212E+02 0.17411199147E+02 0.17646743857E+02 0.17847186463E+02
 0.17921294236E+02 0.17847186463E+02 0.17646743857E+02 0.17411199147E+02 0.17341848212E+02
 0.17740927562E+02 0.18976938464E+02 0.21432188452E+02 0.25342131526E+02 0.31571954472E+02
 0.41314305071E+02 0.54663244170E+02 0.71025648761E+02 0.89194752360E+02 0.10674867344E+03
 0.11989526720E+03 0.89202590011E+02 0.85747270682E+02 0.76525913462E+02 0.64261845417E+02
 0.51778237427E+02 0.40967076710E+02 0.32686814530E+02 0.27046225019E+02 0.23449561878E+02
 0.21139674657E+02 0.20028295602E+02 0.19874512940E+02 0.20366822682E+02 0.21237168970E+02
 0.22184393810E+02 0.22903762299E+02 0.23170697784E+02 0.22903762299E+02 0.22184393810E+02
 0.21237168970E+02 0.20366822682E+02 0.19874512940E+02 0.20028295602E+02 0.21139674657E+02
 0.23449561878E+02 0.27046225019E+02 0.32686814530E+02 0.40967076710E+02 0.51778237427E+02
 0.64261845417E+02 0.76525913462E+02 0.85747270682E+02 0.59465500516E+02 0.57363685268E+02
 0.51779725260E+02 0.44446096849E+02 0.37183899322E+02 0.31200333110E+02 0.26925120234E+02
 0.24134753900E+02 0.22376304797E+02 0.21677397069E+02 0.21963900727E+02 0.23124150025E+02
 0.24991369090E+02 0.27253185210E+02 0.29450224210E+02 0.31057355534E+02 0.31647967687E+02
 0.31057355534E+02 0.29450224210E+02 0.27253185210E+02 0.24991369090E+02 0.23124150025E+02
 0.21963900727E+02 0.21677397069E+02 0.22376304797E+02 0.24134753900E+02 0.26925120234E+02
 0.31200333110E+02 0.37183899322E+02 0.44446096849E+02 0.51779725260E+02 0.57363685268E+02
 0.38046510461E+02 0.37018156707E+02 0.34312360575E+02 0.30837816367E+02 0.27535510257E+02
 0.24978496618E+02 0.23248434013E+02 0.22282997743E+02 0.22225786985E+02 0.23115768267E+02
 0.25040713588E+02 0.27983505278E+02 0.31730320916E+02 0.35842294789E+02 0.39652572655E+02
 0.42379840111E+02 0.43373910725E+02 0.42379840111E+02 0.39652572655E+02 0.35842294789E+02
 0.31730320916E+02 0.27983505278E+02 0.25040713588E+02 0.23115768267E+02 0.22225786985E+02
 0.22282997743E+02 0.23248434013E+02 0.24978496618E+02 0.27535510257E+02 0.30837816367E+02
 0.34312360575E+02 0.37018156707E+02 0.25325863943E+02 0.24960473325E+02 0.24011942709E+02
 0.22828075097E+02 0.21747340354E+02 0.20994211766E+02 0.20832664071E+02 0.21467602268E+02
 0.22995330897E+02 0.25628405454E+02 0.29488162914E+02 0.34459748767E+02 0.40216033239E+02
 0.46193628384E+02 0.51567581979E+02 0.55358406621E+02 0.56732517863E+02 0.55358406621E+02
 0.51567581979E+02 0.46193628384E+02 0.40216033239E+02 0.34459748767E+02 0.29488162914E+02
 0.25628405454E+02 0.22995330897E+02 0.21467602268E+02 0.20832664071E+02 0.20994211766E+02
 0.21747340354E+02 0.22828075097E+02 0.24011942709E+02 0.24960473325E+02 0.18507594626E+02
 0.18417493801E+02 0.18192888525E+02 0.17968575484E+02 0.17955357011E+02 0.18407254645E+02
 0.19565229688E+02 0.21583854651E+02 0.24727391126E+02 0.29272661338E+02 0.35148632017E+02
 0.42028742030E+02 0.49457113370E+02 0.56839136202E+02 0.63333840928E+02 0.67881575409E+02
 0.69527828864E+02 0.67881575409E+02 0.63333840928E+02 0.56839136202E+02 0.49457113370E+02
 0.42028742030E+02 0.35148632017E+02 0.29272661338E+02 0.24727391126E+02 0.21583854651E+02
 0.19565229688E+02 0.18407254645E+02 0.17955357011E+02 0.17968575484E+02 0.18192888525E+02
 0.18417493801E+02 0.14297149792E+02 0.14339708573E+02 0.14497360123E+02 0.14867007645E+02
 0.15621119392E+02 0.16992032407E+02 0.19204537318E+02 0.22500388390E+02 0.27364212747E+02
 0.33886339572E+02 0.41658208514E+02 0.50068621477E+02 0.58591866671E+02 0.66761999482E+02
 0.73882149505E+02 0.78891180194E+02 0.80715009088E+02 0.78891180194E+02 0.73882149505E+02
 0.66761999482E+02 0.58591866671E+02 0.50068621477E+02 0.41658208514E+02 0.33886339572E+02
 0.27364212747E+02 0.22500388390E+02 0.19204537318E+02 0.16992032407E+02 0.15621119392E+02
 0.14867007645E+02 0.14497360123E+02 0.14339708573E+02 0.11841651102E+02 0.11960681036E+02
 0.12343663263E+02 0.13080606814E+02 0.14346295790E+02 0.16388638551E+02 0.19452114837E+02
 0.24045617747E+02 0.30689663237E+02 0.39163467452E+02 0.48631070551E+02 0.58201827649E+02
 0.67399463075E+02 0.76044954910E+02 0.83665221670E+02 0.89144601447E+02 0.91169365531E+02
 0.89144601447E+02 0.83665221670E+02 0.76044954910E+02 0.67399463075E+02 0.58201827649E+02
 0.48631070551E+02 0.39163467452E+02 0.30689663237E+02 0.24045617747E+02 0.19452114837E+02
 0.16388638551E+02 0.14346295790E+02 0.13080606814E+02 0.12343663263E+02 0.11960681036E+02
 0.10513687937E+02 0.10670666823E+02 0.11171492438E+02 0.12120259058E+02 0.13719782998E+02
 0.16253545318E+02 0.20059005868E+02 0.25935567113E+02 0.34318642801E+02 0.44630791989E+02
 0.55609666640E+02 0.66163725656E+02 0.75992998208E+02 0.85290489540E+02 0.93762693249E+02
 0.10006327484E+03 0.10243570068E+03 0.10006327484E+03 0.93762693249E+02 0.85290489540E+02
 0.75992998208E+02 0.66163725656E+02 0.55609666640E+02 0.44630791989E+02 0.34318642801E+02
 0.25935567113E+02 0.20059005868E+02 0.16253545318E+02 0.13719782998E+02 0.12120259058E+02
 0.11171492438E+02 0.10670666823E+02 0.97831417804E+01 0.99587231312E+01 0.10521874077E+02
 0.11596787787E+02 0.13419965247E+02 0.16311827707E+02 0.20760328912E+02 0.27775274468E+02
 0.37678688283E+02 0.49572388845E+02 0.61852971089E+02 0.73333435079E+02 0.83958236953E+02
 0.94272256020E+02 0.10404550111E+03 0.11153416448E+03 0.11439527379E+03 0.11153416448E+03
 0.10404550111E+03 0.94272256020E+02 0.83958236953E+02 0.73333435079E+02 0.61852971089E+02
 0.49572388845E+02 0.37678688283E+02 0.27775274468E+02 0.20760328912E+02 0.16311827707E+02
 0.13419965247E+02 0.11596787787E+02 0.10521874077E+02 0.99587231312E+01 0.93618569598E+01
 0.95479099588E+01 0.10147405220E+02 0.11299475976E+02 0.13264902208E+02 0.16390564184E+02
 0.21301593788E+02 0.29121675889E+02 0.40087839563E+02 0.53084611934E+02 0.66298820467E+02
 0.78523547051E+02 0.89914206166E+02 0.10125886868E+03 0.11230499191E+03 0.12091650839E+03
 0.12423159522E+03 0.12091650839E+03 0.11230499191E+03 0.10125886868E+03 0.89914206166E+02
 0.78523547051E+02 0.66298820467E+02 0.53084611934E+02 0.40087839563E+02 0.29121675889E+02
 0.21301593788E+02 0.16390564184E+02 0.13264902208E+02 0.11299475976E+02 0.10147405220E+02
 0.95479099588E+01 0.92114815638E+01 0.94014251175E+01 0.10014309436E+02 0.11194479847E+02
 0.13211172779E+02 0.16421146086E+02 0.21503148266E+02 0.29616541593E+02 0.40967375482E+02
 0.54364089437E+02 0.67924235223E+02 0.80442935445E+02 0.92158664163E+02 0.10394520480E+03
 0.11552745400E+03 0.12460478044E+03 0.12810678979E+03 0.12460478044E+03 0.11552745400E+03
 0.10394520480E+03 0.92158664163E+02 0.80442935445E+02 0.67924235223E+02 0.54364089437E+02
 0.40967375482E+02 0.29616541593E+02 0.21503148266E+02 0.16421146086E+02 0.13211172779E+02
 0.11194479847E+02 0.10014309436E+02 0.94014251175E+01 0.93618569598E+01 0.95479099588E+01
 0.10147405220E+02 0.11299475976E+02 0.13264902208E+02 0.16390564184E+02 0.21301593788E+02
 0.29121675889E+02 0.40087839563E+02 0.53084611934E+02 0.66298820467E+02 0.78523547051E+02
 0.89914206166E+02 0.10125886868E+03 0.11230499191E+03 0.12091650839E+03 0.12423159522E+03
 0.12091650839E+03 0.11230499191E+03 0.10125886868E+03 0.89914206166E+02 0.78523547051E+02
 0.66298820467E+02 0.53084611934E+02 0.40087839563E+02 0.29121675889E+02 0.21301593788E+02
 0.16390564184E+02 0.13264902208E+02 0.11299475976E+02 0.10147405220E+02 0.95479099588E+01
 0.97831417804E+01 0.99587231312E+01 0.10521874077E+02 0.11596787787E+02 0.13419965247E+02
 0.16311827707E+02 0.20760328912E+02 0.27775274468E+02 0.37678688283E+02 0.49572388845E+02
 0.61852971089E+02 0.73333435079E+02 0.83958236953E+02 0.94272256020E+02 0.10404550111E+03
 0.11153416448E+03 0.11439527379E+03 0.11153416448E+03 0.10404550111E+03 0.94272256020E+02
 0.83958236953E+02 0.73333435079E+02 0.61852971089E+02 0.49572388845E+02 0.37678688283E+02