   4   4   0   0
  0.1200752E+02  0.3635000E-09  0.3635000E-09  0.3635000E-09  0.5000000E-15
  1.000000000000000E-004
  CAR 
 unknown system                          
     31.35034234     -0.44478661  301     12.48674329      1.00000000
     -0.445  0.0000E+00  0.0000E+00
     -0.339  0.0000E+00  0.0000E+00
     -0.233  0.0000E+00  0.0000E+00
     -0.127 -0.1174E-31 -0.1244E-32
     -0.021 -0.6172E-28 -0.6543E-29
      0.085 -0.1842E-24 -0.1953E-25
      0.191 -0.3119E-21 -0.3308E-22
      0.297 -0.2993E-18 -0.3176E-19
      0.403 -0.1583E-15 -0.1681E-16
      0.509 -0.4811E-13 -0.5116E-14
      0.615 -0.8256E-11 -0.8801E-12
      0.721 -0.7936E-09 -0.8499E-10
      0.827 -0.4246E-07 -0.4585E-08
      0.933 -0.1252E-05 -0.1373E-06
      1.039 -0.2002E-04 -0.2259E-05
      1.145 -0.1691E-03 -0.2018E-04
      1.251 -0.7189E-03 -0.9637E-04
      1.357 -0.1324E-02 -0.2366E-03
      1.463  0.4923E-03 -0.1845E-03
      1.569  0.1061E-01  0.9395E-03
      1.675  0.3844E-01  0.5014E-02
      1.781  0.8544E-01  0.1407E-01
      1.887  0.1384E+00  0.2874E-01
      1.993  0.1662E+00  0.4635E-01
      2.099  0.1456E+00  0.6179E-01
      2.205  0.1071E+00  0.7314E-01
      2.311  0.1207E+00  0.8592E-01
      2.417  0.2368E+00  0.1110E+00
      2.523  0.3759E+00  0.1509E+00
      2.629  0.3840E+00  0.1916E+00
      2.735  0.2279E+00  0.2157E+00
      2.841  0.9743E-01  0.2260E+00
      2.947  0.1874E+00  0.2459E+00
      3.053  0.3913E+00  0.2874E+00
      3.159  0.4661E+00  0.3368E+00
      3.265  0.4219E+00  0.3815E+00
      3.371  0.4106E+00  0.4250E+00
      3.477  0.3812E+00  0.4654E+00
      3.583  0.3670E+00  0.5043E+00
      3.689  0.5806E+00  0.5658E+00
      3.795  0.8480E+00  0.6557E+00
      3.901  0.8139E+00  0.7420E+00
      4.007  0.5741E+00  0.8028E+00
      4.113  0.4722E+00  0.8529E+00
      4.218  0.8701E+00  0.9451E+00
      4.324  0.1566E+01  0.1111E+01
      4.430  0.1823E+01  0.1304E+01
      4.536  0.1813E+01  0.1496E+01
      4.642  0.2041E+01  0.1713E+01
      4.748  0.2229E+01  0.1949E+01
      4.854  0.2250E+01  0.2187E+01
      4.960  0.2380E+01  0.2440E+01
      5.066  0.2721E+01  0.2728E+01
      5.172  0.3280E+01  0.3076E+01
      5.278  0.3993E+01  0.3499E+01
      5.384  0.4479E+01  0.3974E+01
      5.490  0.4681E+01  0.4470E+01
      5.596  0.5053E+01  0.5005E+01
      5.702  0.5488E+01  0.5587E+01
      5.808  0.5571E+01  0.6177E+01
      5.914  0.5449E+01  0.6755E+01
      6.020  0.5214E+01  0.7307E+01
      6.126  0.5043E+01  0.7842E+01
      6.232  0.5034E+01  0.8375E+01
      6.338  0.4854E+01  0.8890E+01
      6.444  0.4675E+01  0.9385E+01
      6.550  0.4429E+01  0.9855E+01
      6.656  0.3830E+01  0.1026E+02
      6.762  0.3434E+01  0.1062E+02
      6.868  0.3664E+01  0.1101E+02
      6.974  0.3858E+01  0.1142E+02
      7.080  0.3538E+01  0.1180E+02
      7.186  0.3274E+01  0.1214E+02
      7.292  0.3457E+01  0.1251E+02
      7.398  0.3834E+01  0.1292E+02
      7.504  0.4091E+01  0.1335E+02
      7.610  0.4493E+01  0.1383E+02
      7.716  0.5346E+01  0.1439E+02
      7.822  0.6005E+01  0.1503E+02
      7.928  0.5852E+01  0.1565E+02
      8.034  0.5180E+01  0.1620E+02
      8.140  0.4561E+01  0.1668E+02
      8.246  0.4423E+01  0.1715E+02
      8.352  0.4482E+01  0.1763E+02
      8.458  0.4617E+01  0.1812E+02
      8.564  0.5588E+01  0.1871E+02
      8.670  0.7243E+01  0.1947E+02
      8.776  0.8586E+01  0.2038E+02
      8.882  0.9298E+01  0.2137E+02
      8.988  0.9306E+01  0.2236E+02
      9.094  0.8389E+01  0.2325E+02
      9.200  0.7031E+01  0.2399E+02
      9.306  0.6159E+01  0.2464E+02
      9.412  0.5708E+01  0.2525E+02
      9.518  0.5638E+01  0.2585E+02
      9.624  0.6199E+01  0.2650E+02
      9.730  0.6741E+01  0.2722E+02
      9.836  0.6980E+01  0.2796E+02
      9.942  0.6828E+01  0.2868E+02
     10.048  0.5823E+01  0.2930E+02
     10.154  0.4707E+01  0.2980E+02
     10.260  0.4362E+01  0.3026E+02
     10.366  0.4254E+01  0.3071E+02
     10.472  0.3788E+01  0.3111E+02
     10.578  0.3125E+01  0.3144E+02
     10.684  0.2648E+01  0.3172E+02
     10.789  0.2687E+01  0.3201E+02
     10.895  0.3201E+01  0.3235E+02
     11.001  0.3927E+01  0.3276E+02
     11.107  0.4782E+01  0.3327E+02
     11.213  0.5602E+01  0.3386E+02
     11.319  0.5934E+01  0.3449E+02
     11.425  0.5614E+01  0.3509E+02
     11.531  0.5400E+01  0.3566E+02
     11.637  0.5388E+01  0.3623E+02
     11.743  0.4950E+01  0.3676E+02
     11.849  0.4436E+01  0.3723E+02
     11.955  0.4205E+01  0.3767E+02
     12.061  0.4175E+01  0.3811E+02
     12.167  0.4482E+01  0.3859E+02
     12.273  0.4829E+01  0.3910E+02
     12.379  0.4581E+01  0.3959E+02
     12.485  0.3851E+01  0.3999E+02
     12.591  0.3415E+01  0.4036E+02
     12.697  0.3410E+01  0.4072E+02
     12.803  0.3099E+01  0.4105E+02
     12.909  0.2448E+01  0.4131E+02
     13.015  0.2306E+01  0.4155E+02
     13.121  0.2752E+01  0.4184E+02
     13.227  0.3009E+01  0.4216E+02
     13.333  0.2679E+01  0.4244E+02
     13.439  0.2142E+01  0.4267E+02
     13.545  0.1765E+01  0.4286E+02
     13.651  0.1597E+01  0.4303E+02
     13.757  0.1519E+01  0.4319E+02
     13.863  0.1298E+01  0.4333E+02
     13.969  0.9378E+00  0.4343E+02
     14.075  0.7268E+00  0.4350E+02
     14.181  0.8668E+00  0.4360E+02
     14.287  0.1020E+01  0.4370E+02
     14.393  0.8353E+00  0.4379E+02
     14.499  0.5876E+00  0.4385E+02
     14.605  0.5051E+00  0.4391E+02
     14.711  0.6302E+00  0.4397E+02
     14.817  0.7994E+00  0.4406E+02
     14.923  0.6621E+00  0.4413E+02
     15.029  0.4676E+00  0.4418E+02
     15.135  0.5008E+00  0.4423E+02
     15.241  0.4876E+00  0.4428E+02
     15.347  0.4948E+00  0.4434E+02
     15.453  0.7513E+00  0.4442E+02
     15.559  0.9575E+00  0.4452E+02
     15.665  0.9847E+00  0.4462E+02
     15.771  0.1032E+01  0.4473E+02
     15.877  0.1045E+01  0.4484E+02
     15.983  0.9137E+00  0.4494E+02
     16.089  0.7154E+00  0.4501E+02
     16.195  0.6419E+00  0.4508E+02
     16.301  0.8138E+00  0.4517E+02
     16.407  0.1030E+01  0.4528E+02
     16.513  0.1059E+01  0.4539E+02
     16.619  0.1070E+01  0.4550E+02
     16.725  0.1110E+01  0.4562E+02
     16.831  0.1006E+01  0.4573E+02
     16.937  0.9690E+00  0.4583E+02
     17.043  0.1076E+01  0.4594E+02
     17.149  0.1193E+01  0.4607E+02
     17.255  0.1354E+01  0.4621E+02
     17.360  0.1294E+01  0.4635E+02
     17.466  0.8496E+00  0.4644E+02
     17.572  0.4551E+00  0.4649E+02
     17.678  0.4904E+00  0.4654E+02
     17.784  0.7900E+00  0.4663E+02
     17.890  0.9611E+00  0.4673E+02
     17.996  0.8305E+00  0.4682E+02
     18.102  0.6350E+00  0.4688E+02
     18.208  0.7032E+00  0.4696E+02
     18.314  0.7997E+00  0.4704E+02
     18.420  0.5966E+00  0.4711E+02
     18.526  0.3633E+00  0.4714E+02
     18.632  0.4775E+00  0.4719E+02
     18.738  0.7206E+00  0.4727E+02
     18.844  0.6623E+00  0.4734E+02
     18.950  0.4725E+00  0.4739E+02
     19.056  0.5794E+00  0.4745E+02
     19.162  0.7443E+00  0.4753E+02
     19.268  0.5917E+00  0.4759E+02
     19.374  0.5015E+00  0.4765E+02
     19.480  0.7488E+00  0.4773E+02
     19.586  0.9822E+00  0.4783E+02
     19.692  0.1111E+01  0.4795E+02
     19.798  0.1285E+01  0.4808E+02
     19.904  0.1345E+01  0.4823E+02
     20.010  0.1106E+01  0.4834E+02
     20.116  0.8122E+00  0.4843E+02
     20.222  0.8063E+00  0.4852E+02
     20.328  0.1115E+01  0.4863E+02
     20.434  0.1629E+01  0.4881E+02
     20.540  0.1923E+01  0.4901E+02
     20.646  0.1595E+01  0.4918E+02
     20.752  0.9569E+00  0.4928E+02
     20.858  0.6550E+00  0.4935E+02
     20.964  0.9274E+00  0.4945E+02
     21.070  0.1536E+01  0.4961E+02
     21.176  0.1797E+01  0.4980E+02
     21.282  0.1339E+01  0.4994E+02
     21.388  0.7812E+00  0.5003E+02
     21.494  0.6973E+00  0.5010E+02
     21.600  0.8405E+00  0.5019E+02
     21.706  0.8707E+00  0.5028E+02
     21.812  0.9469E+00  0.5038E+02
     21.918  0.1245E+01  0.5051E+02
     22.024  0.1427E+01  0.5067E+02
     22.130  0.1157E+01  0.5079E+02
     22.236  0.8133E+00  0.5087E+02
     22.342  0.9082E+00  0.5097E+02
     22.448  0.1302E+01  0.5111E+02
     22.554  0.1507E+01  0.5127E+02
     22.660  0.1385E+01  0.5142E+02
     22.766  0.1220E+01  0.5154E+02
     22.872  0.1146E+01  0.5167E+02
     22.978  0.1067E+01  0.5178E+02
     23.084  0.9465E+00  0.5188E+02
     23.190  0.8868E+00  0.5197E+02
     23.296  0.1076E+01  0.5209E+02
     23.402  0.1502E+01  0.5225E+02
     23.508  0.1867E+01  0.5244E+02
     23.614  0.1877E+01  0.5264E+02
     23.720  0.1525E+01  0.5280E+02
     23.825  0.1149E+01  0.5293E+02
     23.931  0.9806E+00  0.5303E+02
     24.037  0.8965E+00  0.5313E+02
     24.143  0.8358E+00  0.5321E+02
     24.249  0.8747E+00  0.5331E+02
     24.355  0.1023E+01  0.5342E+02
     24.461  0.1260E+01  0.5355E+02
     24.567  0.1568E+01  0.5372E+02
     24.673  0.1995E+01  0.5393E+02
     24.779  0.2398E+01  0.5418E+02
     24.885  0.2389E+01  0.5443E+02
     24.991  0.2142E+01  0.5466E+02
     25.097  0.2094E+01  0.5488E+02
     25.203  0.2082E+01  0.5510E+02
     25.309  0.1899E+01  0.5530E+02
     25.415  0.1687E+01  0.5548E+02
     25.521  0.1499E+01  0.5564E+02
     25.627  0.1277E+01  0.5578E+02
     25.733  0.1227E+01  0.5591E+02
     25.839  0.1363E+01  0.5605E+02
     25.945  0.1335E+01  0.5619E+02
     26.051  0.1155E+01  0.5632E+02
     26.157  0.1105E+01  0.5643E+02
     26.263  0.1285E+01  0.5657E+02
     26.369  0.1695E+01  0.5675E+02
     26.475  0.2019E+01  0.5696E+02
     26.581  0.2027E+01  0.5718E+02
     26.687  0.2101E+01  0.5740E+02
     26.793  0.2152E+01  0.5763E+02
     26.899  0.1734E+01  0.5781E+02
     27.005  0.1183E+01  0.5794E+02
     27.111  0.9665E+00  0.5804E+02
     27.217  0.1059E+01  0.5815E+02
     27.323  0.1235E+01  0.5828E+02
     27.429  0.1383E+01  0.5843E+02
     27.535  0.1559E+01  0.5860E+02
     27.641  0.1660E+01  0.5877E+02
     27.747  0.1551E+01  0.5894E+02
     27.853  0.1326E+01  0.5908E+02
     27.959  0.1062E+01  0.5919E+02
     28.065  0.7725E+00  0.5927E+02
     28.171  0.5020E+00  0.5932E+02
     28.277  0.2930E+00  0.5935E+02
     28.383  0.1986E+00  0.5938E+02
     28.489  0.2720E+00  0.5940E+02
     28.595  0.4066E+00  0.5945E+02
     28.701  0.4693E+00  0.5950E+02
     28.807  0.4877E+00  0.5955E+02
     28.913  0.5360E+00  0.5961E+02
     29.019  0.7542E+00  0.5969E+02
     29.125  0.1019E+01  0.5979E+02
     29.231  0.9784E+00  0.5990E+02
     29.337  0.6655E+00  0.5997E+02
     29.443  0.2988E+00  0.6000E+02
     29.549  0.4602E-01  0.6000E+02
     29.655 -0.2578E-01  0.6000E+02
     29.761 -0.1442E-01  0.6000E+02
     29.867 -0.2947E-02  0.6000E+02
     29.973 -0.3023E-03  0.6000E+02
     30.079 -0.1677E-04  0.6000E+02
     30.185 -0.5165E-06  0.6000E+02
     30.291 -0.8947E-08  0.6000E+02
     30.396 -0.8763E-10  0.6000E+02
     30.502 -0.4867E-12  0.6000E+02
     30.608 -0.1471E-14  0.6000E+02
     30.714  0.0000E+00  0.6000E+02
     30.820  0.0000E+00  0.6000E+02
     30.926  0.0000E+00  0.6000E+02
     31.032  0.0000E+00  0.6000E+02
     31.138  0.0000E+00  0.6000E+02
     31.244  0.0000E+00  0.6000E+02
     31.350  0.0000E+00  0.6000E+02
