    4    4    1    1
  0.1200752E+02  0.3635000E-09  0.3635000E-09  0.3635000E-09  0.5000000E-15
  1.000000000000000E-004
  CAR 
 unknown system                          
     40    125     30
 
  0.0000000E+00  0.0000000E+00  0.0000000E+00  0.1371742E-02
    1        1.555213   1.000000
    2        3.771038   1.000000
    3        4.999935   1.000000
    4        5.051856   1.000000
    5        5.107606   1.000000
    6        5.250448   1.000000
    7        5.278511   1.000000
    8        8.509711   1.000000
    9        8.524860   1.000000
   10        8.685273   1.000000
   11       10.183930   1.000000
   12       10.357928   1.000000
   13       11.260939   1.000000
   14       11.484219   1.000000
   15       11.671652   1.000000
   16       12.569850   0.179751
   17       12.808255  -0.022717
   18       12.994289  -0.000977
   19       13.346769  -0.000000
   20       13.988926  -0.000000
   21       14.499362  -0.000000
   22       14.506883  -0.000000
   23       14.538063  -0.000000
   24       14.775174  -0.000000
   25       23.294637   0.000000
   26       23.485875   0.000000
   27       24.130809   0.000000
   28       24.440279   0.000000
   29       24.724161   0.000000
   30       25.260442   0.000000
 
  0.1111111E+00  0.0000000E+00  0.0000000E+00  0.2743484E-02
    1        1.730382   1.000000
    2        3.897906   1.000000
    3        5.087363   1.000000
    4        5.115526   1.000000
    5        5.223303   1.000000
    6        5.361301   1.000000
    7        5.407324   1.000000
    8        8.419110   1.000000
    9        8.573303   1.000000
   10        8.751537   1.000000
   11       10.188136   1.000000
   12       10.274400   1.000000
   13       11.207436   1.000000
   14       11.254651   1.000000
   15       11.303178   1.000000
   16       11.742792   1.000001
   17       12.685425  -0.024430
   18       12.721740  -0.035050
   19       13.184666  -0.000005
   20       13.223439  -0.000001
   21       13.845742  -0.000000
   22       14.774343  -0.000000
   23       15.572619  -0.000000
   24       15.627049  -0.000000
   25       23.190149   0.000000
   26       23.290650   0.000000
   27       24.401325   0.000000
   28       24.607032   0.000000
   29       24.831261   0.000000
   30       26.087172   0.000000
 
  0.0000000E+00  0.1111111E+00  0.0000000E+00  0.2743484E-02
    1        1.749588   1.000000
    2        3.907856   1.000000
    3        5.070416   1.000000
    4        5.170439   1.000000
    5        5.175945   1.000000
    6        5.361649   1.000000
    7        5.413217   1.000000
    8        8.581504   1.000000
    9        8.591077   1.000000
   10        8.593546   1.000000
   11       10.110818   1.000000
   12       10.377530   1.000000
   13       10.958505   1.000000
   14       11.277367   1.000000
   15       11.440960   1.000000
   16       12.498812   0.449037
   17       12.547544   0.255439
   18       12.985984  -0.001178
   19       13.028507  -0.000433
   20       13.123053  -0.000033
   21       13.422682  -0.000000
   22       13.890175  -0.000000
   23       15.737186  -0.000000
   24       16.015707  -0.000000
   25       22.809401   0.000000
   26       23.770449   0.000000
   27       24.357244   0.000000
   28       24.603108   0.000000
   29       25.053623   0.000000
   30       25.724465   0.000000
 
  0.0000000E+00  0.0000000E+00  0.1111111E+00  0.2743484E-02
    1        1.751065   1.000000
    2        3.912072   1.000000
    3        5.141121   1.000000
    4        5.178172   1.000000
    5        5.225988   1.000000
    6        5.323202   1.000000
    7        5.332043   1.000000
    8        8.399209   1.000000
    9        8.585688   1.000000
   10        8.751736   1.000000
   11       10.133561   1.000000
   12       10.342686   1.000000
   13       10.936763   1.000000
   14       11.356345   1.000000
   15       11.658918   1.000000
   16       11.877539   1.000072
   17       12.461947   0.604032
   18       12.670303  -0.014360
   19       13.080639  -0.000111
   20       13.472397  -0.000000
   21       13.905402  -0.000000
   22       13.980734  -0.000000
   23       15.625092  -0.000000
   24       15.965253  -0.000000
   25       22.543574   0.000000
   26       23.861624   0.000000
   27       24.373693   0.000000
   28       24.853139   0.000000
   29       25.064019   0.000000
   30       25.695434   0.000000
 
  0.2222222E+00  0.0000000E+00  0.0000000E+00  0.2743484E-02
    1        2.228292   1.000000
    2        4.253614   1.000000
    3        5.287834   1.000000
    4        5.300708   1.000000
    5        5.566839   1.000000
    6        5.690307   1.000000
    7        5.800367   1.000000
    8        8.138079   1.000000
    9        8.749793   1.000000
   10        8.950967   1.000000
   11        9.975835   1.000000
   12       10.229114   1.000000
   13       10.264373   1.000000
   14       10.396328   1.000000
   15       10.807686   1.000000
   16       11.241982   1.000000
   17       12.057658   1.004860
   18       12.141221   1.017361
   19       12.409157   0.802512
   20       12.618923   0.054526
   21       12.993920  -0.000985
   22       14.772914  -0.000000
   23       17.206357  -0.000000
   24       17.246538  -0.000000
   25       22.259570   0.000000
   26       23.225784   0.000000
   27       24.616846   0.000000
   28       24.629233   0.000000
   29       25.373934   0.000000
   30       25.916951   0.000000
 
  0.0000000E+00  0.2222222E+00  0.0000000E+00  0.2743484E-02
    1        2.311622   1.000000
    2        4.286856   1.000000
    3        5.218308   1.000000
    4        5.347613   1.000000
    5        5.543766   1.000000
    6        5.689596   1.000000
    7        5.829067   1.000000
    8        8.340686   1.000000
    9        8.801176   1.000000
   10        8.806839   1.000000
   11        9.902258   1.000000
   12       10.198867   1.000000
   13       10.341472   1.000000
   14       10.435655   1.000000
   15       11.270857   1.000000
   16       11.612035   1.000000
   17       12.081192   1.007301
   18       12.296840   1.019063
   19       12.494171   0.468595
   20       12.508689   0.407757
   21       12.667450  -0.012005
   22       12.970866  -0.001639
   23       17.372116  -0.000000
   24       17.494581  -0.000000
   25       21.978125   0.000000
   26       23.959207   0.000000
   27       24.484483   0.000000
   28       24.532950   0.000000
   29       25.396498   0.000000
   30       25.864442   0.000000
 
  0.0000000E+00  0.0000000E+00  0.2222222E+00  0.2743484E-02
    1        2.318482   1.000000
    2        4.305409   1.000000
    3        5.441710   1.000000
    4        5.536424   1.000000
    5        5.555371   1.000000
    6        5.557904   1.000000
    7        5.578246   1.000000
    8        8.097650   1.000000
    9        8.758277   1.000000
   10        8.952756   1.000000
   11        9.917850   1.000000
   12       10.156108   1.000000
   13       10.375011   1.000000
   14       10.484496   1.000000
   15       10.930787   1.000000
   16       11.631906   1.000000
   17       11.916545   1.000210
   18       12.054940   1.004626
   19       12.359009   0.936614
   20       12.416686   0.777237
   21       12.862351  -0.011617
   22       13.963672  -0.000000
   23       17.355065  -0.000000
   24       17.434672  -0.000000
   25       21.565234   0.000000
   26       24.217267   0.000000
   27       24.591450   0.000000
   28       24.624927   0.000000
   29       25.649094   0.000000
   30       25.685375   0.000000
 
  0.3333333E+00  0.0000000E+00  0.0000000E+00  0.2743484E-02
    1        2.940823   1.000000
    2        4.749617   1.000000
    3        5.480062   1.000000
    4        5.563763   1.000000
    5        6.126123   1.000000
    6        6.219621   1.000000
    7        6.370963   1.000000
    8        7.768039   1.000000
    9        8.766222   1.000000
   10        9.119547   1.000000
   11        9.267244   1.000000
   12        9.454844   1.000000
   13        9.590414   1.000000
   14       10.178018   1.000000
   15       10.320523   1.000000
   16       10.612666   1.000000
   17       11.231010   1.000000
   18       11.489361   1.000000
   19       11.624049   1.000000
   20       11.969246   1.000776
   21       12.793569  -0.026107
   22       14.771606  -0.000000
   23       18.894805   0.000000
   24       19.007144   0.000000
   25       21.583580   0.000000
   26       23.187070   0.000000
   27       23.751008   0.000000
   28       23.893075   0.000000
   29       24.270545   0.000000
   30       26.852933   0.000000
 
  0.0000000E+00  0.3333333E+00  0.0000000E+00  0.2743484E-02
    1        3.163512   1.000000
    2        4.784726   1.000000
    3        5.319272   1.000000
    4        5.592597   1.000000
    5        6.117619   1.000000
    6        6.202449   1.000000
    7        6.453308   1.000000
    8        8.012558   1.000000
    9        9.146559   1.000000
   10        9.166805   1.000000
   11        9.253052   1.000000
   12        9.312105   1.000000
   13        9.606048   1.000000
   14       10.236614   1.000000
   15       10.451535   1.000000
   16       11.158641   1.000000
   17       11.219847   1.000000
   18       11.287108   1.000000
   19       11.533919   1.000000
   20       11.833491   1.000020
   21       12.436520   0.705264
   22       12.959197  -0.002095
   23       19.065950   0.000000
   24       19.105378   0.000000
   25       21.382013   0.000000
   26       23.594136   0.000000
   27       23.749639   0.000000
   28       23.838104   0.000000
   29       25.435759   0.000000
   30       25.643899   0.000000
 
  0.0000000E+00  0.0000000E+00  0.3333333E+00  0.2743484E-02
    1        3.184430   1.000000
    2        4.815610   1.000000
    3        5.551750   1.000000
    4        5.859034   1.000000
    5        6.104771   1.000000
    6        6.153831   1.000000
    7        6.161103   1.000000
    8        7.675566   1.000000
    9        8.778827   1.000000
   10        9.128109   1.000000
   11        9.325835   1.000000
   12        9.466696   1.000000
   13        9.564426   1.000000
   14       10.254560   1.000000
   15       10.427905   1.000000
   16       10.633833   1.000000
   17       11.257207   1.000000
   18       11.464643   1.000000
   19       11.605470   1.000000
   20       11.827305   1.000016
   21       12.304072   1.013642
   22       13.946609  -0.000000
   23       19.011714   0.000000
   24       19.174601   0.000000
   25       20.894828   0.000000
   26       23.606712   0.000000
   27       23.989854   0.000000
   28       24.229280   0.000000
   29       24.977247   0.000000
   30       26.079706   0.000000
 
  0.4444444E+00  0.0000000E+00  0.0000000E+00  0.2743484E-02
    1        3.572441   1.000000
    2        5.196410   1.000000
    3        5.510108   1.000000
    4        5.792791   1.000000
    5        6.840316   1.000000
    6        6.854138   1.000000
    7        6.871450   1.000000
    8        7.470964   1.000000
    9        8.015421   1.000000
   10        8.040218   1.000000
   11        9.252436   1.000000
   12        9.474048   1.000000
   13        9.594067   1.000000
   14        9.604699   1.000000
   15        9.853110   1.000000
   16       10.384542   1.000000
   17       10.957379   1.000000
   18       11.019819   1.000000
   19       11.223446   1.000000
   20       11.428136   1.000000
   21       12.717484  -0.034603
   22       14.771053  -0.000000
   23       20.507740   0.000000
   24       20.641350   0.000000
   25       21.244989   0.000000
   26       22.492134   0.000000
   27       22.707568   0.000000
   28       23.218165   0.000000
   29       23.631085   0.000000
   30       27.177701   0.000000
 
  0.0000000E+00  0.4444444E+00  0.0000000E+00  0.2743484E-02
    1        4.096252   1.000000
    2        4.956789   1.000000
    3        5.357282   1.000000
    4        5.795021   1.000000
    5        6.757894   1.000000
    6        6.772323   1.000000
    7        7.022828   1.000000
    8        7.753235   1.000000
    9        8.390065   1.000000
   10        8.414949   1.000000
   11        9.151180   1.000000
   12        9.520770   1.000000
   13        9.666374   1.000000
   14        9.668235   1.000000
   15       10.232509   1.000000
   16       10.449717   1.000000
   17       10.467139   1.000000
   18       10.800884   1.000000
   19       11.097252   1.000000
   20       11.403436   1.000000
   21       12.401984   0.825423
   22       12.953529  -0.002354
   23       20.649964   0.000000
   24       20.843463   0.000000
   25       21.085649   0.000000
   26       22.264579   0.000000
   27       22.490493   0.000000
   28       23.575035   0.000000
   29       25.256259   0.000000
   30       25.705979   0.000000
 
  0.0000000E+00  0.0000000E+00  0.4444444E+00  0.2743484E-02
    1        4.173241   1.000000
    2        4.899528   1.000000
    3        5.668895   1.000000
    4        6.187440   1.000000
    5        6.560863   1.000000
    6        6.917020   1.000000
    7        6.938505   1.000000
    8        7.281366   1.000000
    9        7.966652   1.000000
   10        8.022337   1.000000
   11        9.197094   1.000000
   12        9.455875   1.000000
   13        9.677129   1.000000
   14        9.682389   1.000000
   15        9.924533   1.000000
   16       10.558414   1.000000
   17       10.672824   1.000000
   18       10.726999   1.000000
   19       11.208894   1.000000
   20       11.590069   1.000000
   21       12.149380   1.019125
   22       13.937083  -0.000000
   23       20.567932   0.000000
   24       20.613451   0.000000
   25       20.975676   0.000000
   26       22.234046   0.000000
   27       22.644750   0.000000
   28       24.200273   0.000000
   29       24.605356   0.000000
   30       26.232412   0.000000
 
  0.1111111E+00  0.1111111E+00  0.0000000E+00  0.5486968E-02
    1        1.921634   1.000000
    2        4.032493   1.000000
    3        5.171633   1.000000
    4        5.220347   1.000000
    5        5.305400   1.000000
    6        5.422006   1.000000
    7        5.574306   1.000000
    8        8.416858   1.000000
    9        8.632906   1.000000
   10        8.735271   1.000000
   11       10.115081   1.000000
   12       10.293254   1.000000
   13       10.845712   1.000000
   14       10.867580   1.000000
   15       11.279562   1.000000
   16       11.888044   1.000097
   17       12.160335   1.021591
   18       12.529943   0.321852
   19       12.649580   0.006412
   20       12.990740  -0.001059
   21       13.888215  -0.000000
   22       14.593526  -0.000000
   23       15.415423  -0.000000
   24       16.560272  -0.000000
   25       22.757367   0.000000
   26       23.796452   0.000000
   27       24.404219   0.000000
   28       24.848876   0.000000
   29       24.913901   0.000000
   30       26.056540   0.000000
 
  0.0000000E+00  0.1111111E+00  0.1111111E+00  0.5486968E-02
    1        1.938015   1.000000
    2        4.046933   1.000000
    3        5.178416   1.000000
    4        5.273146   1.000000
    5        5.311244   1.000000
    6        5.447985   1.000000
    7        5.490649   1.000000
    8        8.401489   1.000000
    9        8.643502   1.000000
   10        8.733418   1.000000
   11       10.082747   1.000000
   12       10.340621   1.000000
   13       10.662916   1.000000
   14       11.080086   1.000000
   15       11.356909   1.000000
   16       12.079803   1.007135
   17       12.259816   1.034048
   18       12.435576   0.708851
   19       12.456929   0.624614
   20       12.908559  -0.005532
   21       13.474473  -0.000000
   22       14.541303  -0.000000
   23       15.907680  -0.000000
   24       16.399369  -0.000000
   25       22.719248   0.000000
   26       23.368969   0.000000
   27       24.630510   0.000000
   28       24.647273   0.000000
   29       25.817395   0.000000
   30       25.923627   0.000000
 
  0.1111111E+00  0.0000000E+00  0.1111111E+00  0.5486968E-02
    1        1.922696   1.000000
    2        4.036986   1.000000
    3        5.196076   1.000000
    4        5.231222   1.000000
    5        5.354681   1.000000
    6        5.445227   1.000000
    7        5.477685   1.000000
    8        8.325422   1.000000
    9        8.624593   1.000000
   10        8.806566   1.000000
   11       10.152887   1.000000
   12       10.248188   1.000000
   13       10.764771   1.000000
   14       11.190153   1.000000
   15       11.423638   1.000000
   16       11.437077   1.000000
   17       11.604132   1.000000
   18       12.619806   0.052824
   19       13.089543  -0.000086
   20       13.091051  -0.000083
   21       14.078434  -0.000000
   22       14.788199  -0.000000
   23       15.074758  -0.000000
   24       16.548570  -0.000000
   25       22.584518   0.000000
   26       23.822345   0.000000
   27       24.411881   0.000000
   28       24.954293   0.000000
   29       25.070922   0.000000
   30       26.083628   0.000000
 
  0.2222222E+00  0.1111111E+00  0.0000000E+00  0.5486968E-02
    1        2.411155   1.000000
    2        4.382812   1.000000
    3        5.400154   1.000000
    4        5.401351   1.000000
    5        5.645988   1.000000
    6        5.700858   1.000000
    7        5.967132   1.000000
    8        8.122812   1.000000
    9        8.758608   1.000000
   10        8.951656   1.000000
   11        9.924389   1.000000
   12        9.976172   1.000000
   13       10.164453   1.000000
   14       10.247148   1.000000
   15       10.818708   1.000000
   16       11.153641   1.000000
   17       11.296283   1.000000
   18       12.130696   1.015203
   19       12.288437   1.024226
   20       12.649971   0.005938
   21       13.771560  -0.000000
   22       14.139898  -0.000000
   23       16.496266  -0.000000
   24       17.893039  -0.000000
   25       22.008080   0.000000
   26       23.565750   0.000000
   27       23.921489   0.000000
   28       25.021863   0.000000
   29       26.004455   0.000000
   30       26.202903   0.000000
 
  0.0000000E+00  0.2222222E+00  0.1111111E+00  0.5486968E-02
    1        2.479010   1.000000
    2        4.421230   1.000000
    3        5.324026   1.000000
    4        5.435157   1.000000
    5        5.626359   1.000000
    6        5.780165   1.000000
    7        5.946676   1.000000
    8        8.255997   1.000000
    9        8.812830   1.000000
   10        8.850174   1.000000
   11        9.882917   1.000000
   12        9.956905   1.000000
   13       10.171800   1.000000
   14       10.462049   1.000000
   15       10.870081   1.000000
   16       11.292674   1.000000
   17       11.783953   1.000004
   18       11.851574   1.000034
   19       12.363719   0.926684
   20       12.383962   0.877640
   21       12.936225  -0.003319
   22       13.709253  -0.000000
   23       16.926506  -0.000000
   24       17.833828  -0.000000
   25       21.866565   0.000000
   26       23.423683   0.000000
   27       24.429473   0.000000
   28       24.917542   0.000000
   29       25.744737   0.000000
   30       26.473427   0.000000
 
  0.1111111E+00  0.0000000E+00  0.2222222E+00  0.5486968E-02
    1        2.479437   1.000000
    2        4.426074   1.000000
    3        5.491251   1.000000
    4        5.532503   1.000000
    5        5.605138   1.000000
    6        5.726277   1.000000
    7        5.796154   1.000000
    8        8.036835   1.000000
    9        8.792647   1.000000
   10        8.966693   1.000000
   11        9.918303   1.000000
   12       10.038832   1.000000
   13       10.085038   1.000000
   14       10.353293   1.000000
   15       10.773045   1.000000
   16       10.897512   1.000000
   17       11.464333   1.000000
   18       12.290233   1.023221
   19       12.413790   0.787104
   20       12.672081  -0.015752
   21       13.481119  -0.000000
   22       13.657902  -0.000000
   23       16.595056  -0.000000
   24       17.928857  -0.000000
   25       21.605940   0.000000
   26       23.822874   0.000000
   27       24.704834   0.000000
   28       24.979143   0.000000
   29       25.490055   0.000000
   30       26.006496   0.000000
 
 -0.1111111E+00  0.2222222E+00  0.0000000E+00  0.5486968E-02
    1        2.474476   1.000000
    2        4.406286   1.000000
    3        5.339451   1.000000
    4        5.431659   1.000000
    5        5.631236   1.000000
    6        5.712106   1.000000
    7        5.985849   1.000000
    8        8.264285   1.000000
    9        8.806886   1.000000
   10        8.854531   1.000000
   11        9.884987   1.000000
   12       10.004215   1.000000
   13       10.076142   1.000000
   14       10.468015   1.000000
   15       10.901120   1.000000
   16       11.132685   1.000000
   17       11.859258   1.000042
   18       11.983928   1.001087
   19       12.453251   0.639536
   20       12.491301   0.480720
   21       12.989237  -0.001095
   22       13.527132  -0.000000
   23       16.692500  -0.000000
   24       17.960287   0.000000
   25       21.848893   0.000000
   26       23.743979   0.000000
   27       24.730533   0.000000
   28       24.862291   0.000000
   29       25.410205   0.000000
   30       25.875949   0.000000
 
 -0.2222222E+00  0.0000000E+00  0.1111111E+00  0.5486968E-02
    1        2.410988   1.000000
    2        4.388034   1.000000
    3        5.387703   1.000000
    4        5.400697   1.000000
    5        5.647376   1.000000
    6        5.781744   1.000000
    7        5.914901   1.000000
    8        8.066238   1.000000
    9        8.787920   1.000000
   10        8.964370   1.000000
   11        9.966932   1.000000
   12       10.055959   1.000000
   13       10.075482   1.000000
   14       10.213575   1.000000
   15       10.762625   1.000000
   16       10.933406   1.000000
   17       11.231414   1.000000
   18       12.365310   0.923204
   19       12.365796   0.922129
   20       12.846963  -0.014389
   21       13.653499  -0.000000
   22       14.164054  -0.000000
   23       16.444204  -0.000000
   24       17.854589  -0.000000
   25       22.005672   0.000000
   26       23.575492   0.000000
   27       23.911025   0.000000
   28       25.044130   0.000000
   29       25.915230   0.000000
   30       26.240969   0.000000
 
  0.0000000E+00  0.1111111E+00  0.2222222E+00  0.5486968E-02
    1        2.484216   1.000000
    2        4.435210   1.000000
    3        5.514138   1.000000
    4        5.545501   1.000000
    5        5.545718   1.000000
    6        5.730663   1.000000
    7        5.810737   1.000000
    8        8.084610   1.000000
    9        8.767781   1.000000
   10        8.951983   1.000000
   11        9.904630   1.000000
   12        9.921399   1.000000
   13       10.232059   1.000000
   14       10.364639   1.000000
   15       10.961776   1.000000
   16       11.054603   1.000000
   17       11.569982   1.000000
   18       12.000453   1.001564
   19       12.188734   1.028093
   20       12.295695   1.019837
   21       13.594066  -0.000000
   22       13.779587  -0.000000
   23       16.874642  -0.000000
   24       17.844614  -0.000000
   25       21.618553   0.000000
   26       23.499292   0.000000
   27       24.463584   0.000000
   28       25.014227   0.000000
   29       25.789875   0.000000
   30       26.751259   0.000000
 
  0.3333333E+00  0.1111111E+00  0.0000000E+00  0.5486968E-02
    1        3.115842   1.000000
    2        4.875245   1.000000
    3        5.601953   1.000000
    4        5.664791   1.000000
    5        6.190021   1.000000
    6        6.191026   1.000000
    7        6.507693   1.000000
    8        7.750951   1.000000
    9        8.622933   1.000000
   10        9.059440   1.000000
   11        9.234018   1.000000
   12        9.265009   1.000000
   13        9.578810   1.000000
   14        9.992388   1.000000
   15       10.246514   1.000000
   16       10.469875   1.000000
   17       11.096859   1.000000
   18       11.568677   1.000000
   19       11.668768   1.000000
   20       12.317985   1.000418
   21       12.897038  -0.006746
   22       14.223008  -0.000000
   23       17.901049  -0.000000
   24       19.529316   0.000000
   25       21.160847   0.000000
   26       22.682411   0.000000
   27       23.888090   0.000000
   28       24.285773   0.000000
   29       25.834119   0.000000
   30       27.431378   0.000000
 
  0.0000000E+00  0.3333333E+00  0.1111111E+00  0.5486968E-02
    1        3.303654   1.000000
    2        4.919969   1.000000
    3        5.428631   1.000000
    4        5.675941   1.000000
    5        6.129449   1.000000
    6        6.272977   1.000000
    7        6.581910   1.000000
    8        7.959783   1.000000
    9        8.993981   1.000000
   10        9.073874   1.000000
   11        9.143654   1.000000
   12        9.248028   1.000000
   13        9.613313   1.000000
   14        9.756490   1.000000
   15       10.517642   1.000000
   16       10.993555   1.000000
   17       11.145348   1.000000
   18       11.153369   1.000000
   19       11.618756   1.000000
   20       12.349138   0.955624
   21       12.555121   0.228565
   22       12.773454  -0.030483
   23       18.219294   0.000000
   24       19.467313   0.000000
   25       21.066127   0.000000
   26       22.853031   0.000000
   27       24.180774   0.000000
   28       24.366989   0.000000
   29       25.787576   0.000000
   30       26.806273   0.000000
 
  0.1111111E+00  0.0000000E+00  0.3333333E+00  0.5486968E-02
    1        3.329648   1.000000
    2        4.939963   1.000000
    3        5.668988   1.000000
    4        5.897217   1.000000
    5        6.054572   1.000000
    6        6.274104   1.000000
    7        6.356526   1.000000
    8        7.621700   1.000000
    9        8.816401   1.000000
   10        8.838568   1.000000
   11        9.138821   1.000000
   12        9.424490   1.000000
   13        9.598562   1.000000
   14        9.897578   1.000000
   15       10.340316   1.000000
   16       10.490689   1.000000
   17       11.365810   1.000000
   18       11.582436   1.000000
   19       11.736976   1.000001
   20       12.043395   1.003733
   21       12.389722   0.861809
   22       13.576043  -0.000000
   23       18.161418   0.000000
   24       19.441154   0.000000
   25       20.888720   0.000000
   26       22.901255   0.000000
   27       24.002812   0.000000
   28       24.791200   0.000000
   29       25.775334   0.000000
   30       26.800104   0.000000
 
 -0.1111111E+00  0.3333333E+00  0.0000000E+00  0.5486968E-02
    1        3.314019   1.000000
    2        4.903684   1.000000
    3        5.449486   1.000000
    4        5.681889   1.000000
    5        6.184061   1.000000
    6        6.190118   1.000000
    7        6.580859   1.000000
    8        7.965744   1.000000
    9        9.025739   1.000000
   10        9.047418   1.000000
   11        9.168522   1.000000
   12        9.201172   1.000000
   13        9.627344   1.000000
   14        9.814965   1.000000
   15       10.513832   1.000000
   16       10.823032   1.000000
   17       11.224929   1.000000
   18       11.325584   1.000000
   19       11.719325   1.000000
   20       12.314914   1.003670
   21       12.359769   0.935048
   22       12.735399  -0.035406
   23       18.163350   0.000000
   24       19.472659   0.000000
   25       21.098149   0.000000
   26       22.982105   0.000000
   27       23.970041   0.000000
   28       24.579878   0.000000
   29       25.850490   0.000000
   30       26.509372   0.000000
 
 -0.3333333E+00  0.0000000E+00  0.1111111E+00  0.5486968E-02
    1        3.114134   1.000000
    2        4.881757   1.000000
    3        5.590751   1.000000
    4        5.657590   1.000000
    5        6.117711   1.000000
    6        6.297439   1.000000
    7        6.511358   1.000000
    8        7.709829   1.000000
    9        8.806476   1.000000
   10        8.824454   1.000000
   11        9.138461   1.000000
   12        9.413134   1.000000
   13        9.575717   1.000000
   14        9.975138   1.000000
   15       10.223515   1.000000
   16       10.398679   1.000000
   17       11.177966   1.000000
   18       11.587716   1.000000
   19       11.875327   1.000068
   20       12.268515   1.032183
   21       12.797029  -0.025313
   22       14.206125  -0.000000
   23       17.949378   0.000000
   24       19.434237   0.000000
   25       21.231060   0.000000
   26       22.680102   0.000000
   27       23.893951   0.000000
   28       24.153319   0.000000
   29       25.867003   0.000000
   30       27.360909   0.000000
 
  0.0000000E+00  0.1111111E+00  0.3333333E+00  0.5486968E-02
    1        3.321571   1.000000
    2        4.944158   1.000000
    3        5.666355   1.000000
    4        5.901655   1.000000
    5        6.059396   1.000000
    6        6.253405   1.000000
    7        6.357263   1.000000
    8        7.656812   1.000000
    9        8.625233   1.000000
   10        9.073580   1.000000
   11        9.231132   1.000000
   12        9.298249   1.000000
   13        9.602885   1.000000
   14        9.867643   1.000000
   15       10.393918   1.000000
   16       10.562341   1.000000
   17       11.098585   1.000000
   18       11.486629   1.000000
   19       11.719321   1.000000
   20       11.942268   1.000405
   21       12.728941  -0.035428
   22       13.617282  -0.000000
   23       18.154789   0.000000
   24       19.543009   0.000000
   25       20.830688   0.000000
   26       22.699601   0.000000
   27       24.343948   0.000000
   28       24.615619   0.000000
   29       25.698724   0.000000
   30       27.124098   0.000000
 
  0.4444444E+00  0.1111111E+00  0.0000000E+00  0.5486968E-02
    1        3.751715   1.000000
    2        5.329936   1.000000
    3        5.609951   1.000000
    4        5.900474   1.000000
    5        6.779267   1.000000
    6        6.873579   1.000000
    7        6.977765   1.000000