Automatically generated mesh
     125
Reciprocal lattice
    0.00000000000000    0.00000000000000    0.00000000000000             1
    0.11111111111111    0.00000000000000    0.00000000000000             2
    0.00000000000000    0.11111111111111    0.00000000000000             2
    0.00000000000000    0.00000000000000    0.11111111111111             2
    0.22222222222222    0.00000000000000    0.00000000000000             2
    0.00000000000000    0.22222222222222    0.00000000000000             2
    0.00000000000000    0.00000000000000    0.22222222222222             2
    0.33333333333334    0.00000000000000    0.00000000000000             2
    0.00000000000000    0.33333333333334    0.00000000000000             2
    0.00000000000000    0.00000000000000    0.33333333333334             2
    0.44444444444444    0.00000000000000    0.00000000000000             2
    0.00000000000000    0.44444444444444    0.00000000000000             2
    0.00000000000000    0.00000000000000    0.44444444444444             2
    0.11111111111111    0.11111111111111    0.00000000000000             4
    0.00000000000000    0.11111111111111    0.11111111111111             4
    0.11111111111111    0.00000000000000    0.11111111111111             4
    0.22222222222222    0.11111111111111    0.00000000000000             4
    0.00000000000000    0.22222222222222    0.11111111111111             4
    0.11111111111111    0.00000000000000    0.22222222222222             4
   -0.11111111111111    0.22222222222222    0.00000000000000             4
   -0.22222222222222    0.00000000000000    0.11111111111111             4
    0.00000000000000    0.11111111111111    0.22222222222222             4
    0.33333333333334    0.11111111111111    0.00000000000000             4
    0.00000000000000    0.33333333333334    0.11111111111111             4
    0.11111111111111    0.00000000000000    0.33333333333334             4
   -0.11111111111111    0.33333333333334    0.00000000000000             4
   -0.33333333333334    0.00000000000000    0.11111111111111             4
    0.00000000000000    0.11111111111111    0.33333333333334             4
    0.44444444444444    0.11111111111111    0.00000000000000             4
    0.00000000000000    0.44444444444444    0.11111111111111             4
    0.11111111111111    0.00000000000000    0.44444444444444             4
   -0.11111111111111    0.44444444444444    0.00000000000000             4
   -0.44444444444444    0.00000000000000    0.11111111111111             4
    0.00000000000000    0.11111111111111    0.44444444444444             4
    0.22222222222222    0.22222222222222    0.00000000000000             4
    0.00000000000000    0.22222222222222    0.22222222222222             4
    0.22222222222222    0.00000000000000    0.22222222222222             4
    0.33333333333334    0.22222222222222    0.00000000000000             4
    0.00000000000000    0.33333333333334    0.22222222222222             4
    0.22222222222222    0.00000000000000    0.33333333333334             4
   -0.22222222222222    0.33333333333334    0.00000000000000             4
   -0.33333333333334    0.00000000000000    0.22222222222222             4
    0.00000000000000    0.22222222222222    0.33333333333334             4
    0.44444444444444    0.22222222222222    0.00000000000000             4
    0.00000000000000    0.44444444444444    0.22222222222222             4
    0.22222222222222    0.00000000000000    0.44444444444444             4
   -0.22222222222222    0.44444444444444    0.00000000000000             4
   -0.44444444444444    0.00000000000000    0.22222222222222             4
    0.00000000000000    0.22222222222222    0.44444444444444             4
    0.33333333333334    0.33333333333334    0.00000000000000             4
    0.00000000000000    0.33333333333334    0.33333333333334             4
    0.33333333333334    0.00000000000000    0.33333333333334             4
    0.44444444444444    0.33333333333334    0.00000000000000             4
    0.00000000000000    0.44444444444444    0.33333333333334             4
    0.33333333333334    0.00000000000000    0.44444444444444             4
   -0.33333333333334    0.44444444444444    0.00000000000000             4
   -0.44444444444444    0.00000000000000    0.33333333333334             4
    0.00000000000000    0.33333333333334    0.44444444444444             4
    0.44444444444444    0.44444444444444    0.00000000000000             4
    0.00000000000000    0.44444444444444    0.44444444444444             4
    0.44444444444444    0.00000000000000    0.44444444444444             4
    0.11111111111111    0.11111111111111    0.11111111111111             8
    0.22222222222222    0.11111111111111    0.11111111111111             8
    0.11111111111111    0.22222222222222    0.11111111111111             8
    0.11111111111111    0.11111111111111    0.22222222222222             8
    0.33333333333334    0.11111111111111    0.11111111111111             8
    0.11111111111111    0.33333333333334    0.11111111111111             8
    0.11111111111111    0.11111111111111    0.33333333333334             8
    0.44444444444444    0.11111111111111    0.11111111111111             8
    0.11111111111111    0.44444444444444    0.11111111111111             8
    0.11111111111111    0.11111111111111    0.44444444444444             8
    0.22222222222222    0.22222222222222    0.11111111111111             8
    0.11111111111111    0.22222222222222    0.22222222222222             8
    0.22222222222222    0.11111111111111    0.22222222222222             8
    0.33333333333334    0.22222222222222    0.11111111111111             8
    0.11111111111111    0.33333333333334    0.22222222222222             8
    0.22222222222222    0.11111111111111    0.33333333333334             8
   -0.22222222222222    0.33333333333334    0.11111111111111             8
   -0.33333333333334    0.11111111111111    0.22222222222222             8
   -0.11111111111111    0.22222222222222    0.33333333333334             8
    0.44444444444444    0.22222222222222    0.11111111111111             8
    0.11111111111111    0.44444444444444    0.22222222222222             8
    0.22222222222222    0.11111111111111    0.44444444444444             8
   -0.22222222222222    0.44444444444444    0.11111111111111             8
   -0.44444444444444    0.11111111111111    0.22222222222222             8
   -0.11111111111111    0.22222222222222    0.44444444444444             8
    0.33333333333334    0.33333333333334    0.11111111111111             8
    0.11111111111111    0.33333333333334    0.33333333333334             8
    0.33333333333334    0.11111111111111    0.33333333333334             8
    0.44444444444444    0.33333333333334    0.11111111111111             8
    0.11111111111111    0.44444444444444    0.33333333333334             8
    0.33333333333334    0.11111111111111    0.44444444444444             8
   -0.33333333333334    0.44444444444444    0.11111111111111             8
   -0.44444444444444    0.11111111111111    0.33333333333334             8
   -0.11111111111111    0.33333333333334    0.44444444444444             8
    0.44444444444444    0.44444444444444    0.11111111111111             8
    0.11111111111111    0.44444444444444    0.44444444444444             8
    0.44444444444444    0.11111111111111    0.44444444444444             8
    0.22222222222222    0.22222222222222    0.22222222222222             8
    0.33333333333334    0.22222222222222    0.22222222222222             8
    0.22222222222222    0.33333333333334    0.22222222222222             8
    0.22222222222222    0.22222222222222    0.33333333333334             8
    0.44444444444444    0.22222222222222    0.22222222222222             8
    0.22222222222222    0.44444444444444    0.22222222222222             8
    0.22222222222222    0.22222222222222    0.44444444444444             8
    0.33333333333334    0.33333333333334    0.22222222222222             8
    0.22222222222222    0.33333333333334    0.33333333333334             8
    0.33333333333334    0.22222222222222    0.33333333333334             8
    0.44444444444444    0.33333333333334    0.22222222222222             8
    0.22222222222222    0.44444444444444    0.33333333333334             8
    0.33333333333334    0.22222222222222    0.44444444444444             8
   -0.33333333333334    0.44444444444444    0.22222222222222             8
   -0.44444444444444    0.22222222222222    0.33333333333334             8
   -0.22222222222222    0.33333333333334    0.44444444444444             8
    0.44444444444444    0.44444444444444    0.22222222222222             8
    0.22222222222222    0.44444444444444    0.44444444444444             8
    0.44444444444444    0.22222222222222    0.44444444444444             8
    0.33333333333334    0.33333333333334    0.33333333333334             8
    0.44444444444444    0.33333333333334    0.33333333333334             8
    0.33333333333334    0.44444444444444    0.33333333333334             8
    0.33333333333334    0.33333333333334    0.44444444444444             8
    0.44444444444444    0.44444444444444    0.33333333333334             8
    0.33333333333334    0.44444444444444    0.44444444444444             8
    0.44444444444444    0.33333333333334    0.44444444444444             8
    0.44444444444444    0.44444444444444    0.44444444444444             8
