 vasp.6.2.0 18Jan21 (build Mar 17 2021 09:06:54) complex                        
  
 executed on             LinuxIFC date 2021.06.11  11:31:24
 serial version


--------------------------------------------------------------------------------------------------------


 INCAR:
   ENCUT = 270.000000
   SIGMA = 0.200000
   EDIFF = 1.00e-06
   GGA = PE
   PREC = normal
   IBRION = -1
   ICHARG = 1
   ISMEAR = 1
   KPAR = 1
   NBANDS = 30
   NSW = 0
   NCORE = 1
   LCHARG = .TRUE.

 POTCAR:    PAW_PBE Pd 04Jan2005                  
 POTCAR:    PAW_PBE Ir 06Sep2000                  
 POTCAR:    PAW_PBE Pt 04Feb2005                  
 POTCAR:    PAW_PBE Cu 22Jun2005                  
 POTCAR:    PAW_PBE Pd 04Jan2005                  
   SHA256 =  dd6f6f02930356371984e2b707ff5e456046761dc76b07c1eba30abd15eb3c39 Pd/POTCAR             
   COPYR  = (c) Copyright 04Jan2005 Georg Kresse                                                    
   COPYR  = This file is part of the software VASP. Any use, copying, and all other rights are regul
   COPYR  = If you do not have a valid VASP license, you may not use, copy or distribute this file. 
   VRHFIN =Pd : s1 d9                                                                               
   LEXCH  = PE                                                                                      
   EATOM  =   809.7530 eV,   59.5152 Ry                                                             
                                                                                                    
   TITEL  = PAW_PBE Pd 04Jan2005                                                                    
   LULTRA =        F    use ultrasoft PP ?                                                          
   IUNSCR =        1    unscreen: 0-lin 1-nonlin 2-no                                               
   RPACOR =    2.000    partial core radius                                                         
   POMASS =  106.420; ZVAL   =   10.000    mass and valenz                                          
   RCORE  =    2.600    outmost cutoff radius                                                       
   RWIGS  =    2.710; RWIGS  =    1.434    wigner-seitz radius (au A)                               
   ENMAX  =  250.925; ENMIN  =  188.194 eV                                                          
   ICORE  =        3    local potential                                                             
   LCOR   =        T    correct aug charges                                                         
   LPAW   =        T    paw PP                                                                      
   EAUG   =  416.230                                                                                
   DEXC   =    0.000                                                                                
   RMAX   =    2.653    core radius for proj-oper                                                   
   RAUG   =    1.300    factor for augmentation sphere                                              
   RDEP   =    2.734    radius for radial grids                                                     
   RDEPT  =    2.103    core radius for aug-charge                                                  
                                                                                                    
   Atomic configuration                                                                             
   12 entries                                                                                       
     n  l   j            E        occ.                                                              
     1  0  0.50    -24164.6631   2.0000                                                             
     2  0  0.50     -3530.9218   2.0000                                                             
     2  1  1.50     -3165.6822   6.0000                                                             
     3  0  0.50      -639.4577   2.0000                                                             
     3  1  1.50      -519.4532   6.0000                                                             
     3  2  2.50      -328.9757  10.0000                                                             
     4  0  0.50       -88.7014   2.0000                                                             
     4  1  1.50       -54.4540   6.0000                                                             
     4  2  2.50        -6.6878   9.0000                                                             
     5  0  0.50        -4.3543   1.0000                                                             
     5  1  0.50        -1.3606   0.0000                                                             
     4  3  2.50        -1.3606   0.0000                                                             
   Description                                                                                      
     l       E           TYP  RCUT    TYP  RCUT                                                     
     2     -6.6878251     23  2.400                                                                 
     2     -8.0484077     23  2.400                                                                 
     0     -4.3542939     23  2.400                                                                 
     0      4.3406793     23  2.400                                                                 
     1     -4.0817478     23  2.600                                                                 
     1     15.8380318     23  2.600                                                                 
     3     -4.0817478     23  2.400                                                                 
  local pseudopotential read in
  partial core-charges read in
  partial kinetic energy density read in
  atomic valenz-charges read in
  non local Contribution for L=           2  read in
    real space projection operators read in
  non local Contribution for L=           2  read in
    real space projection operators read in
  non local Contribution for L=           0  read in
    real space projection operators read in
  non local Contribution for L=           0  read in
    real space projection operators read in
  non local Contribution for L=           1  read in
    real space projection operators read in
  non local Contribution for L=           1  read in
    real space projection operators read in
    PAW grid and wavefunctions read in
 
   number of l-projection  operators is LMAX  =           6
   number of lm-projection operators is LMMAX =          18
 
 POTCAR:    PAW_PBE Ir 06Sep2000                  
   SHA256 =  7c6af8d4d487b237782eb51e6f62977b27a1da78c3c96acd1cebefd6c308f120 Ir/POTCAR             
   COPYR  = (c) Copyright 06Sep2000 Georg Kresse                                                    
   COPYR  = This file is part of the software VASP. Any use, copying, and all other rights are regul
   COPYR  = If you do not have a valid VASP license, you may not use, copy or distribute this file. 
   VRHFIN =Ir: s1d8                                                                                 
   LEXCH  = PE                                                                                      
   EATOM  =   560.1833 eV,   41.1723 Ry                                                             
                                                                                                    
   TITEL  = PAW_PBE Ir 06Sep2000                                                                    
   LULTRA =        F    use ultrasoft PP ?                                                          
   IUNSCR =        1    unscreen: 0-lin 1-nonlin 2-no                                               
   RPACOR =    2.250    partial core radius                                                         
   POMASS =  192.220; ZVAL   =    9.000    mass and valenz                                          
   RCORE  =    2.600    outmost cutoff radius                                                       
   RWIGS  =    2.690; RWIGS  =    1.423    wigner-seitz radius (au A)                               
   ENMAX  =  210.864; ENMIN  =  158.148 eV                                                          
   RCLOC  =    1.857    cutoff for local pot                                                        
   LCOR   =        T    correct aug charges                                                         
   LPAW   =        T    paw PP                                                                      
   EAUG   =  318.962                                                                                
   DEXC   =    0.000                                                                                
   RMAX   =    2.667    core radius for proj-oper                                                   
   RAUG   =    1.300    factor for augmentation sphere                                              
   RDEP   =    2.748    radius for radial grids                                                     
   RDEPT  =    2.300    core radius for aug-charge                                                  
                                                                                                    
   Atomic configuration                                                                             
   16 entries                                                                                       
     n  l   j            E        occ.                                                              
     1  0  0.50    -76100.0449   2.0000                                                             
     2  0  0.50    -13308.1683   2.0000                                                             
     2  1  1.50    -11558.0021   6.0000                                                             
     3  0  0.50     -3110.7274   2.0000                                                             
     3  1  1.50     -2599.2109   6.0000                                                             
     3  2  2.50     -2037.1515  10.0000                                                             
     4  0  0.50      -661.6001   2.0000                                                             
     4  1  1.50      -493.8981   6.0000                                                             
     4  2  2.50      -288.1909  10.0000                                                             
     4  3  3.50       -59.5718  14.0000                                                             
     5  0  0.50       -95.3879   2.0000                                                             
     5  1  1.50       -52.2747   6.0000                                                             
     5  2  2.50        -5.4180   8.0000                                                             
     6  0  0.50        -5.5479   1.0000                                                             
     6  1  1.50        -6.8029   0.0000                                                             
     5  3  2.50        -1.3606   0.0000                                                             
   Description                                                                                      
     l       E           TYP  RCUT    TYP  RCUT                                                     
     2     -5.4179967     23  2.600                                                                 
     2     -6.7785793     23  2.600                                                                 
     0     -5.5478636     23  2.600                                                                 
     0      2.2542272     23  2.600                                                                 
     1     -2.7211652     23  2.600                                                                 
     1     20.4087390     23  2.600                                                                 
  local pseudopotential read in
  partial core-charges read in
  partial kinetic energy density read in
  atomic valenz-charges read in
  non local Contribution for L=           2  read in
    real space projection operators read in
  non local Contribution for L=           2  read in
    real space projection operators read in
  non local Contribution for L=           0  read in
    real space projection operators read in
  non local Contribution for L=           0  read in
    real space projection operators read in
  non local Contribution for L=           1  read in
    real space projection operators read in
  non local Contribution for L=           1  read in
    real space projection operators read in
    PAW grid and wavefunctions read in
 
   number of l-projection  operators is LMAX  =           6
   number of lm-projection operators is LMMAX =          18
 
 POTCAR:    PAW_PBE Pt 04Feb2005                  
   SHA256 =  3ed90460adef76debcff1cfb73ee1349b515b1a3db03439735b44de3a8db7dc8 Pt/POTCAR             
   COPYR  = (c) Copyright 04Feb2005 Georg Kresse                                                    
   COPYR  = This file is part of the software VASP. Any use, copying, and all other rights are regul
   COPYR  = If you do not have a valid VASP license, you may not use, copy or distribute this file. 
   VRHFIN =Pt: s1d9                                                                                 
   LEXCH  = PE                                                                                      
   EATOM  =   729.1176 eV,   53.5886 Ry                                                             
                                                                                                    
   TITEL  = PAW_PBE Pt 04Feb2005                                                                    
   LULTRA =        F    use ultrasoft PP ?                                                          
   IUNSCR =        1    unscreen: 0-lin 1-nonlin 2-no                                               
   RPACOR =    2.330    partial core radius                                                         
   POMASS =  195.080; ZVAL   =   10.000    mass and valenz                                          
   RCORE  =    2.600    outmost cutoff radius                                                       
   RWIGS  =    2.750; RWIGS  =    1.455    wigner-seitz radius (au A)                               
   ENMAX  =  230.283; ENMIN  =  172.712 eV                                                          
   ICORE  =        3    local potential                                                             
   LCOR   =        T    correct aug charges                                                         
   LPAW   =        T    paw PP                                                                      
   EAUG   =  358.966                                                                                
   DEXC   =    0.000                                                                                
   RMAX   =    2.658    core radius for proj-oper                                                   
   RAUG   =    1.300    factor for augmentation sphere                                              
   RDEP   =    2.761    radius for radial grids                                                     
   RDEPT  =    2.203    core radius for aug-charge                                                  
                                                                                                    
   Atomic configuration                                                                             
   16 entries                                                                                       
     n  l   j            E        occ.                                                              
     1  0  0.50    -78401.1885   2.0000                                                             
     2  0  0.50    -13770.7750   2.0000                                                             
     2  1  1.50    -11931.0468   6.0000                                                             
     3  0  0.50     -3234.7234   2.0000                                                             
     3  1  1.50     -2699.2216   6.0000                                                             
     3  2  2.50     -2119.5714  10.0000                                                             
     4  0  0.50      -695.1528   2.0000                                                             
     4  1  1.50      -519.6034   6.0000                                                             
     4  2  2.50      -306.6786  10.0000                                                             
     4  3  3.50       -70.1041  14.0000                                                             
     5  0  0.50      -101.7747   2.0000                                                             
     5  1  1.50       -55.9873   6.0000                                                             
     5  2  2.50        -6.1423   9.0000                                                             
     6  0  0.50        -5.6573   1.0000                                                             
     6  1  1.50        -6.8029   0.0000                                                             
     5  3  2.50        -1.3606   0.0000                                                             
   Description                                                                                      
     l       E           TYP  RCUT    TYP  RCUT                                                     
     2     -6.1423404     23  2.500                                                                 
     2     -7.5029230     23  2.500                                                                 
     0     -5.6573207     23  2.500                                                                 
     0      0.7416693     23  2.500                                                                 
     1     -2.7211652     23  2.600                                                                 
     1     20.4087390     23  2.600                                                                 
     3     -1.3605826     23  2.500                                                                 
  local pseudopotential read in
  partial core-charges read in
  partial kinetic energy density read in
  atomic valenz-charges read in
  non local Contribution for L=           2  read in
    real space projection operators read in
  non local Contribution for L=           2  read in
    real space projection operators read in
  non local Contribution for L=           0  read in
    real space projection operators read in
  non local Contribution for L=           0  read in
    real space projection operators read in
  non local Contribution for L=           1  read in
    real space projection operators read in
  non local Contribution for L=           1  read in
    real space projection operators read in
    PAW grid and wavefunctions read in
 
   number of l-projection  operators is LMAX  =           6
   number of lm-projection operators is LMMAX =          18
 
 POTCAR:    PAW_PBE Cu 22Jun2005                  
   SHA256 =  0e71e558f37a4e8407882b4609ceaae59938afaad9ced71dfe8490308a0ab630 Cu/POTCAR             
   COPYR  = (c) Copyright 22Jun2005 Georg Kresse                                                    
   COPYR  = This file is part of the software VASP. Any use, copying, and all other rights are regul
   COPYR  = If you do not have a valid VASP license, you may not use, copy or distribute this file. 
   VRHFIN =Cu: d10 p1                                                                               
   LEXCH  = PE                                                                                      
   EATOM  =  1390.9808 eV,  102.2342 Ry                                                             
                                                                                                    
   TITEL  = PAW_PBE Cu 22Jun2005                                                                    
   LULTRA =        F    use ultrasoft PP ?                                                          
   IUNSCR =        1    unscreen: 0-lin 1-nonlin 2-no                                               
   RPACOR =    2.000    partial core radius                                                         
   POMASS =   63.546; ZVAL   =   11.000    mass and valenz                                          
   RCORE  =    2.300    outmost cutoff radius                                                       
   RWIGS  =    2.200; RWIGS  =    1.164    wigner-seitz radius (au A)                               
   ENMAX  =  295.446; ENMIN  =  221.585 eV                                                          
   ICORE  =        3    local potential                                                             
   LCOR   =        T    correct aug charges                                                         
   LPAW   =        T    paw PP                                                                      
   EAUG   =  586.980                                                                                
   DEXC   =    0.000                                                                                
   RMAX   =    2.344    core radius for proj-oper                                                   
   RAUG   =    1.300    factor for augmentation sphere                                              
   RDEP   =    2.302    radius for radial grids                                                     
   RDEPT  =    1.771    core radius for aug-charge                                                  
                                                                                                    
   Atomic configuration                                                                             
    9 entries                                                                                       
     n  l   j            E        occ.                                                              
     1  0  0.50     -8850.2468   2.0000                                                             
     2  0  0.50     -1062.3498   2.0000                                                             
     2  1  1.50      -916.8226   6.0000                                                             
     3  0  0.50      -114.6929   2.0000                                                             
     3  1  1.50       -72.1325   6.0000                                                             
     3  2  2.50        -5.0394  10.0000                                                             
     4  0  0.50        -4.6097   1.0000                                                             
     4  1  0.50        -4.0817   0.0000                                                             
     4  3  2.50        -1.3606   0.0000                                                             
   Description                                                                                      
     l       E           TYP  RCUT    TYP  RCUT                                                     
     2     -5.0393973     23  2.200                                                                 
     2     10.8846608     23  2.200                                                                 
     0     -4.6097109     23  2.200                                                                 
     0      8.2520465     23  2.200                                                                 
     1     -2.7211652     23  2.200                                                                 
     1     21.7055443     23  2.200                                                                 
     3      2.7211652     23  2.300                                                                 
  local pseudopotential read in
  partial core-charges read in
  partial kinetic energy density read in
  atomic valenz-charges read in
  non local Contribution for L=           2  read in
    real space projection operators read in
  non local Contribution for L=           2  read in
    real space projection operators read in
  non local Contribution for L=           0  read in
    real space projection operators read in
  non local Contribution for L=           0  read in
    real space projection operators read in
  non local Contribution for L=           1  read in
    real space projection operators read in
  non local Contribution for L=           1  read in
    real space projection operators read in
    PAW grid and wavefunctions read in
 
   number of l-projection  operators is LMAX  =           6
   number of lm-projection operators is LMMAX =          18
 
  PAW_PBE Pd 04Jan2005                  :
 energy of atom  1       EATOM= -809.7530
 kinetic energy error for atom=    0.0525 (will be added to EATOM!!)
  PAW_PBE Ir 06Sep2000                  :
 energy of atom  2       EATOM= -560.1833
 kinetic energy error for atom=    0.0351 (will be added to EATOM!!)
  PAW_PBE Pt 04Feb2005                  :
 energy of atom  3       EATOM= -729.1176
 kinetic energy error for atom=    0.0526 (will be added to EATOM!!)
  PAW_PBE Cu 22Jun2005                  :
 energy of atom  4       EATOM=-1390.9808
 kinetic energy error for atom=    0.1077 (will be added to EATOM!!)
 
 
 POSCAR: Pd Ir Pt Cu
  positions in cartesian coordinates
  No initial velocities read in
 exchange correlation table for  LEXCH =        8
   RHO(1)=    0.500       N(1)  =     2000
   RHO(2)=  100.500       N(2)  =     4000
 


--------------------------------------------------------------------------------------------------------


 ion  position               nearest neighbor table
   1  0.000  0.000  0.000-   2 2.57   3 2.57   4 2.57   3 2.57   4 2.57   2 2.57   4 2.57   4 2.57
                             2 2.57   3 2.57   3 2.57   2 2.57
   2  0.500  0.500  0.000-   1 2.57   3 2.57   4 2.57   3 2.57   4 2.57   1 2.57   3 2.57   3 2.57
                             1 2.57   4 2.57   4 2.57   1 2.57
   3  0.500  0.000  0.500-   1 2.57   2 2.57   4 2.57   1 2.57   2 2.57   2 2.57   4 2.57   2 2.57
                             1 2.57   4 2.57   1 2.57   4 2.57
   4  0.000  0.500  0.500-   1 2.57   2 2.57   3 2.57   1 2.57   2 2.57   1 2.57   3 2.57   1 2.57
                             2 2.57   3 2.57   2 2.57   3 2.57
 
  LATTYP: Found a simple cubic cell.
 ALAT       =     3.6350000000
  
  Lattice vectors:
  
 A1 = (   3.6350000000,   0.0000000000,   0.0000000000)
 A2 = (   0.0000000000,   3.6350000000,   0.0000000000)
 A3 = (   0.0000000000,   0.0000000000,   3.6350000000)


Analysis of symmetry for initial positions (statically):
=====================================================================
 Subroutine PRICEL returns:
 Original cell was already a primitive cell.
 

 Routine SETGRP: Setting up the symmetry group for a 
 simple cubic supercell.


 Subroutine GETGRP returns: Found  8 space group operations
 (whereof  8 operations were pure point group operations)
 out of a pool of 48 trial point group operations.


The static configuration has the point symmetry D_2h.


Analysis of symmetry for dynamics (positions and initial velocities):
=====================================================================
 Subroutine PRICEL returns:
 Original cell was already a primitive cell.
 

 Routine SETGRP: Setting up the symmetry group for a 
 simple cubic supercell.


 Subroutine GETGRP returns: Found  8 space group operations
 (whereof  8 operations were pure point group operations)
 out of a pool of 48 trial point group operations.


The dynamic configuration has the point symmetry D_2h.


 Subroutine INISYM returns: Found  8 space group operations
 (whereof  8 operations are pure point group operations),
 and found     1 'primitive' translations


----------------------------------------------------------------------------------------

                                     Primitive cell                                     

  volume of cell :      48.0301

  direct lattice vectors                    reciprocal lattice vectors
     3.635000000  0.000000000  0.000000000     0.275103164  0.000000000  0.000000000
     0.000000000  3.635000000  0.000000000     0.000000000  0.275103164  0.000000000
     0.000000000  0.000000000  3.635000000     0.000000000  0.000000000  0.275103164

  length of vectors
     3.635000000  3.635000000  3.635000000     0.275103164  0.275103164  0.275103164

  position of ions in fractional coordinates (direct lattice)
     0.000000000  0.000000000  0.000000000
     0.500000000  0.500000000  0.000000000
     0.500000000  0.000000000  0.500000000
     0.000000000  0.500000000  0.500000000

  ion indices of the primitive-cell ions
   primitive index   ion index
                 1           1
                 2           2
                 3           3
                 4           4

----------------------------------------------------------------------------------------

 
 
 KPOINTS: KPOINTS created by Atomic Simulation Env

Automatic generation of k-mesh.
 Grid dimensions read from file:
 generate k-points for:    9    9    9

 Generating k-lattice:

  Cartesian coordinates                     Fractional coordinates (reciprocal lattice)
     0.030567018  0.000000000  0.000000000     0.111111111  0.000000000  0.000000000
     0.000000000  0.030567018  0.000000000     0.000000000  0.111111111  0.000000000
     0.000000000  0.000000000  0.030567018     0.000000000  0.000000000  0.111111111

  Length of vectors
     0.030567018  0.030567018  0.030567018

  Shift w.r.t. Gamma in fractional coordinates (k-lattice)
     0.000000000  0.000000000  0.000000000

 
 Subroutine IBZKPT returns following result:
 ===========================================
 
 Found    125 irreducible k-points:
 
 Following reciprocal coordinates:
            Coordinates               Weight
  0.000000  0.000000  0.000000      1.000000
  0.111111  0.000000  0.000000      2.000000
  0.000000  0.111111  0.000000      2.000000
  0.000000  0.000000  0.111111      2.000000
  0.222222  0.000000  0.000000      2.000000
  0.000000  0.222222  0.000000      2.000000
  0.000000  0.000000  0.222222      2.000000
  0.333333  0.000000  0.000000      2.000000
  0.000000  0.333333  0.000000      2.000000
  0.000000  0.000000  0.333333      2.000000
  0.444444  0.000000  0.000000      2.000000
  0.000000  0.444444  0.000000      2.000000
  0.000000  0.000000  0.444444      2.000000
  0.111111  0.111111  0.000000      4.000000
  0.000000  0.111111  0.111111      4.000000
  0.111111  0.000000  0.111111      4.000000
  0.222222  0.111111  0.000000      4.000000
  0.000000  0.222222  0.111111      4.000000
  0.111111  0.000000  0.222222      4.000000
 -0.111111  0.222222  0.000000      4.000000
 -0.222222  0.000000  0.111111      4.000000
  0.000000  0.111111  0.222222      4.000000
  0.333333  0.111111  0.000000      4.000000
  0.000000  0.333333  0.111111      4.000000
  0.111111  0.000000  0.333333      4.000000
 -0.111111  0.333333  0.000000      4.000000
 -0.333333  0.000000  0.111111      4.000000
  0.000000  0.111111  0.333333      4.000000
  0.444444  0.111111  0.000000      4.000000
  0.000000  0.444444  0.111111      4.000000
  0.111111  0.000000  0.444444      4.000000
 -0.111111  0.444444  0.000000      4.000000
 -0.444444  0.000000  0.111111      4.000000
  0.000000  0.111111  0.444444      4.000000
  0.222222  0.222222  0.000000      4.000000
  0.000000  0.222222  0.222222      4.000000
  0.222222  0.000000  0.222222      4.000000
  0.333333  0.222222  0.000000      4.000000
  0.000000  0.333333  0.222222      4.000000
  0.222222  0.000000  0.333333      4.000000
 -0.222222  0.333333  0.000000      4.000000
 -0.333333  0.000000  0.222222      4.000000
  0.000000  0.222222  0.333333      4.000000
  0.444444  0.222222  0.000000      4.000000
  0.000000  0.444444  0.222222      4.000000
  0.222222  0.000000  0.444444      4.000000
 -0.222222  0.444444  0.000000      4.000000
 -0.444444  0.000000  0.222222      4.000000
  0.000000  0.222222  0.444444      4.000000
  0.333333  0.333333  0.000000      4.000000
  0.000000  0.333333  0.333333      4.000000
  0.333333  0.000000  0.333333      4.000000
  0.444444  0.333333  0.000000      4.000000
  0.000000  0.444444  0.333333      4.000000
  0.333333  0.000000  0.444444      4.000000
 -0.333333  0.444444  0.000000      4.000000
 -0.444444  0.000000  0.333333      4.000000
  0.000000  0.333333  0.444444      4.000000
  0.444444  0.444444  0.000000      4.000000
  0.000000  0.444444  0.444444      4.000000
  0.444444  0.000000  0.444444      4.000000
  0.111111  0.111111  0.111111      8.000000
  0.222222  0.111111  0.111111      8.000000
  0.111111  0.222222  0.111111      8.000000
  0.111111  0.111111  0.222222      8.000000
  0.333333  0.111111  0.111111      8.000000
  0.111111  0.333333  0.111111      8.000000
  0.111111  0.111111  0.333333      8.000000
  0.444444  0.111111  0.111111      8.000000
  0.111111  0.444444  0.111111      8.000000
  0.111111  0.111111  0.444444      8.000000
  0.222222  0.222222  0.111111      8.000000
  0.111111  0.222222  0.222222      8.000000
  0.222222  0.111111  0.222222      8.000000
  0.333333  0.222222  0.111111      8.000000
  0.111111  0.333333  0.222222      8.000000
  0.222222  0.111111  0.333333      8.000000
 -0.222222  0.333333  0.111111      8.000000
 -0.333333  0.111111  0.222222      8.000000
 -0.111111  0.222222  0.333333      8.000000
  0.444444  0.222222  0.111111      8.000000
  0.111111  0.444444  0.222222      8.000000
  0.222222  0.111111  0.444444      8.000000
 -0.222222  0.444444  0.111111      8.000000
 -0.444444  0.111111  0.222222      8.000000
 -0.111111  0.222222  0.444444      8.000000
  0.333333  0.333333  0.111111      8.000000
  0.111111  0.333333  0.333333      8.000000
  0.333333  0.111111  0.333333      8.000000
  0.444444  0.333333  0.111111      8.000000
  0.111111  0.444444  0.333333      8.000000
  0.333333  0.111111  0.444444      8.000000
 -0.333333  0.444444  0.111111      8.000000
 -0.444444  0.111111  0.333333      8.000000
 -0.111111  0.333333  0.444444      8.000000
  0.444444  0.444444  0.111111      8.000000
  0.111111  0.444444  0.444444      8.000000
  0.444444  0.111111  0.444444      8.000000
  0.222222  0.222222  0.222222      8.000000
  0.333333  0.222222  0.222222      8.000000
  0.222222  0.333333  0.222222      8.000000
  0.222222  0.222222  0.333333      8.000000
  0.444444  0.222222  0.222222      8.000000
  0.222222  0.444444  0.222222      8.000000
  0.222222  0.222222  0.444444      8.000000
  0.333333  0.333333  0.222222      8.000000
  0.222222  0.333333  0.333333      8.000000
  0.333333  0.222222  0.333333      8.000000
  0.444444  0.333333  0.222222      8.000000
  0.222222  0.444444  0.333333      8.000000
  0.333333  0.222222  0.444444      8.000000
 -0.333333  0.444444  0.222222      8.000000
 -0.444444  0.222222  0.333333      8.000000
 -0.222222  0.333333  0.444444      8.000000
  0.444444  0.444444  0.222222      8.000000
  0.222222  0.444444  0.444444      8.000000
  0.444444  0.222222  0.444444      8.000000
  0.333333  0.333333  0.333333      8.000000
  0.444444  0.333333  0.333333      8.000000
  0.333333  0.444444  0.333333      8.000000
  0.333333  0.333333  0.444444      8.000000
  0.444444  0.444444  0.333333      8.000000
  0.333333  0.444444  0.444444      8.000000
  0.444444  0.333333  0.444444      8.000000
  0.444444  0.444444  0.444444      8.000000
 
 Following cartesian coordinates:
            Coordinates               Weight
  0.000000  0.000000  0.000000      1.000000
  0.030567  0.000000  0.000000      2.000000
  0.000000  0.030567  0.000000      2.000000
  0.000000  0.000000  0.030567      2.000000
  0.061134  0.000000  0.000000      2.000000
  0.000000  0.061134  0.000000      2.000000
  0.000000  0.000000  0.061134      2.000000
  0.091701  0.000000  0.000000      2.000000
  0.000000  0.091701  0.000000      2.000000
  0.000000  0.000000  0.091701      2.000000
  0.122268  0.000000  0.000000      2.000000
  0.000000  0.122268  0.000000      2.000000
  0.000000  0.000000  0.122268      2.000000
  0.030567  0.030567  0.000000      4.000000
  0.000000  0.030567  0.030567      4.000000
  0.030567  0.000000  0.030567      4.000000
  0.061134  0.030567  0.000000      4.000000
  0.000000  0.061134  0.030567      4.000000
  0.030567  0.000000  0.061134      4.000000
 -0.030567  0.061134  0.000000      4.000000
 -0.061134  0.000000  0.030567      4.000000
  0.000000  0.030567  0.061134      4.000000
  0.091701  0.030567  0.000000      4.000000
  0.000000  0.091701  0.030567      4.000000
  0.030567  0.000000  0.091701      4.000000
 -0.030567  0.091701  0.000000      4.000000
 -0.091701  0.000000  0.030567      4.000000
  0.000000  0.030567  0.091701      4.000000
  0.122268  0.030567  0.000000      4.000000
  0.000000  0.122268  0.030567      4.000000
  0.030567  0.000000  0.122268      4.000000
 -0.030567  0.122268  0.000000      4.000000
 -0.122268  0.000000  0.030567      4.000000
  0.000000  0.030567  0.122268      4.000000
  0.061134  0.061134  0.000000      4.000000
  0.000000  0.061134  0.061134      4.000000
  0.061134  0.000000  0.061134      4.000000
  0.091701  0.061134  0.000000      4.000000
  0.000000  0.091701  0.061134      4.000000
  0.061134  0.000000  0.091701      4.000000
 -0.061134  0.091701  0.000000      4.000000
 -0.091701  0.000000  0.061134      4.000000
  0.000000  0.061134  0.091701      4.000000
  0.122268  0.061134  0.000000      4.000000
  0.000000  0.122268  0.061134      4.000000
  0.061134  0.000000  0.122268      4.000000
 -0.061134  0.122268  0.000000      4.000000
 -0.122268  0.000000  0.061134      4.000000
  0.000000  0.061134  0.122268      4.000000
  0.091701  0.091701  0.000000      4.000000
  0.000000  0.091701  0.091701      4.000000
  0.091701  0.000000  0.091701      4.000000
  0.122268  0.091701  0.000000      4.000000
  0.000000  0.122268  0.091701      4.000000
  0.091701  0.000000  0.122268      4.000000
 -0.091701  0.122268  0.000000      4.000000
 -0.122268  0.000000  0.091701      4.000000
  0.000000  0.091701  0.122268      4.000000
  0.122268  0.122268  0.000000      4.000000
  0.000000  0.122268  0.122268      4.000000
  0.122268  0.000000  0.122268      4.000000
  0.030567  0.030567  0.030567      8.000000
  0.061134  0.030567  0.030567      8.000000
  0.030567  0.061134  0.030567      8.000000
  0.030567  0.030567  0.061134      8.000000
  0.091701  0.030567  0.030567      8.000000
  0.030567  0.091701  0.030567      8.000000
  0.030567  0.030567  0.091701      8.000000
  0.122268  0.030567  0.030567      8.000000
  0.030567  0.122268  0.030567      8.000000
  0.030567  0.030567  0.122268      8.000000
  0.061134  0.061134  0.030567      8.000000
  0.030567  0.061134  0.061134      8.000000
  0.061134  0.030567  0.061134      8.000000
  0.091701  0.061134  0.030567      8.000000
  0.030567  0.091701  0.061134      8.000000
  0.061134  0.030567  0.091701      8.000000
 -0.061134  0.091701  0.030567      8.000000
 -0.091701  0.030567  0.061134      8.000000
 -0.030567  0.061134  0.091701      8.000000
  0.122268  0.061134  0.030567      8.000000
  0.030567  0.122268  0.061134      8.000000
  0.061134  0.030567  0.122268      8.000000
 -0.061134  0.122268  0.030567      8.000000
 -0.122268  0.030567  0.061134      8.000000
 -0.030567  0.061134  0.122268      8.000000
  0.091701  0.091701  0.030567      8.000000
  0.030567  0.091701  0.091701      8.000000
  0.091701  0.030567  0.091701      8.000000
  0.122268  0.091701  0.030567      8.000000
  0.030567  0.122268  0.091701      8.000000
  0.091701  0.030567  0.122268      8.000000
 -0.091701  0.122268  0.030567      8.000000
 -0.122268  0.030567  0.091701      8.000000
 -0.030567  0.091701  0.122268      8.000000
  0.122268  0.122268  0.030567      8.000000
  0.030567  0.122268  0.122268      8.000000
  0.122268  0.030567  0.122268      8.000000
  0.061134  0.061134  0.061134      8.000000
  0.091701  0.061134  0.061134      8.000000
  0.061134  0.091701  0.061134      8.000000
  0.061134  0.061134  0.091701      8.000000
  0.122268  0.061134  0.061134      8.000000
  0.061134  0.122268  0.061134      8.000000
  0.061134  0.061134  0.122268      8.000000
  0.091701  0.091701  0.061134      8.000000
  0.061134  0.091701  0.091701      8.000000
  0.091701  0.061134  0.091701      8.000000
  0.122268  0.091701  0.061134      8.000000
  0.061134  0.122268  0.091701      8.000000
  0.091701  0.061134  0.122268      8.000000
 -0.091701  0.122268  0.061134      8.000000
 -0.122268  0.061134  0.091701      8.000000
 -0.061134  0.091701  0.122268      8.000000
  0.122268  0.122268  0.061134      8.000000
  0.061134  0.122268  0.122268      8.000000
  0.122268  0.061134  0.122268      8.000000
  0.091701  0.091701  0.091701      8.000000
  0.122268  0.091701  0.091701      8.000000
  0.091701  0.122268  0.091701      8.000000
  0.091701  0.091701  0.122268      8.000000
  0.122268  0.122268  0.091701      8.000000
  0.091701  0.122268  0.122268      8.000000
  0.122268  0.091701  0.122268      8.000000
  0.122268  0.122268  0.122268      8.000000
 


--------------------------------------------------------------------------------------------------------




 Dimension of arrays:
   k-points           NKPTS =    125   k-points in BZ     NKDIM =    125   number of bands    NBANDS=     30
   number of dos      NEDOS =    301   number of ions     NIONS =      4
   non local maximal  LDIM  =      6   non local SUM 2l+1 LMDIM =     18
   total plane-waves  NPLWV =   4096
   max r-space proj   IRMAX =      1   max aug-charges    IRDMAX=   6366
   dimension x,y,z NGX =    16 NGY =   16 NGZ =   16
   dimension x,y,z NGXF=    32 NGYF=   32 NGZF=   32
   support grid    NGXF=    32 NGYF=   32 NGZF=   32
   ions per type =               1   1   1   1
   NGX,Y,Z   is equivalent  to a cutoff of   7.32,  7.32,  7.32 a.u.
   NGXF,Y,Z  is equivalent  to a cutoff of  14.64, 14.64, 14.64 a.u.

 SYSTEM =  unknown system                          
 POSCAR =  Pd Ir Pt Cu                             

 Startparameter for this run:
   NWRITE =      2    write-flag & timer
   PREC   = normal    normal or accurate (medium, high low for compatibility)
   ISTART =      0    job   : 0-new  1-cont  2-samecut
   ICHARG =      1    charge: 1-file 2-atom 10-const
   ISPIN  =      1    spin polarized calculation?
   LNONCOLLINEAR =      F non collinear calculations
   LSORBIT =      F    spin-orbit coupling
   INIWAV =      1    electr: 0-lowe 1-rand  2-diag
   LASPH  =      F    aspherical Exc in radial PAW
   METAGGA=      F    non-selfconsistent MetaGGA calc.

 Electronic Relaxation 1
   ENCUT  =  270.0 eV  19.84 Ry    4.45 a.u.   4.87  4.87  4.87*2*pi/ulx,y,z
   ENINI  =  270.0     initial cutoff
   ENAUG  =  587.0 eV  augmentation charge cutoff
   NELM   =     60;   NELMIN=  2; NELMDL= -5     # of ELM steps 
   EDIFF  = 0.1E-05   stopping-criterion for ELM
   LREAL  =      F    real-space projection
   NLSPLINE    = F    spline interpolate recip. space projectors
   LCOMPAT=      F    compatible to vasp.4.4
   GGA_COMPAT  = T    GGA compatible to vasp.4.4-vasp.4.6
   LMAXPAW     = -100 max onsite density
   LMAXMIX     =    2 max onsite mixed and CHGCAR
   VOSKOWN=      0    Vosko Wilk Nusair interpolation
   ROPT   =    0.00000   0.00000   0.00000   0.00000
 Ionic relaxation
   EDIFFG = 0.1E-04   stopping-criterion for IOM
   NSW    =      0    number of steps for IOM
   NBLOCK =      1;   KBLOCK =      1    inner block; outer block 
   IBRION =     -1    ionic relax: 0-MD 1-quasi-New 2-CG
   NFREE  =      0    steps in history (QN), initial steepest desc. (CG)
   ISIF   =      2    stress and relaxation
   IWAVPR =      0    prediction:  0-non 1-charg 2-wave 3-comb
   ISYM   =      2    0-nonsym 1-usesym 2-fastsym
   LCORR  =      T    Harris-Foulkes like correction to forces

   POTIM  = 0.5000    time-step for ionic-motion
   TEIN   =    0.0    initial temperature
   TEBEG  =    0.0;   TEEND  =   0.0 temperature during run
   SMASS  =  -3.00    Nose mass-parameter (am)
   estimated Nose-frequenzy (Omega)   =  0.10E-29 period in steps = 0.13E+47 mass=  -0.302E-27a.u.
   SCALEE = 1.0000    scale energy and forces
   NPACO  =    256;   APACO  = 16.0  distance and # of slots for P.C.
   PSTRESS=    0.0 pullay stress

  Mass of Ions in am
   POMASS = 106.42192.22195.08 63.55
  Ionic Valenz
   ZVAL   =  10.00  9.00 10.00 11.00
  Atomic Wigner-Seitz radii
   RWIGS  =  -1.00 -1.00 -1.00 -1.00
  virtual crystal weights 
   VCA    =   1.00  1.00  1.00  1.00
   NELECT =      40.0000    total number of electrons
   NUPDOWN=      -1.0000    fix difference up-down

 DOS related values:
   EMIN   =  10.00;   EMAX   =-10.00  energy-range for DOS
   EFERMI =   0.00
   ISMEAR =     1;   SIGMA  =   0.20  broadening in eV -4-tet -1-fermi 0-gaus

 Electronic relaxation 2 (details)
   IALGO  =     38    algorithm
   LDIAG  =      T    sub-space diagonalisation (order eigenvalues)
   LSUBROT=      F    optimize rotation matrix (better conditioning)
   TURBO    =      0    0=normal 1=particle mesh
   IRESTART =      0    0=no restart 2=restart with 2 vectors
   NREBOOT  =      0    no. of reboots
   NMIN     =      0    reboot dimension
   EREF     =   0.00    reference energy to select bands
   IMIX   =      4    mixing-type and parameters
     AMIX     =   0.40;   BMIX     =  1.00
     AMIX_MAG =   1.60;   BMIX_MAG =  1.00
     AMIN     =   0.10
     WC   =   100.;   INIMIX=   1;  MIXPRE=   1;  MAXMIX= -45

 Intra band minimization:
   WEIMIN = 0.0000     energy-eigenvalue tresh-hold
   EBREAK =  0.83E-08  absolut break condition
   DEPER  =   0.30     relativ break condition  

   TIME   =   0.40     timestep for ELM

  volume/ion in A,a.u.               =      12.01        81.03
  Fermi-wavevector in a.u.,A,eV,Ry     =   1.540247  2.910645 32.277935  2.372361
  Thomas-Fermi vector in A             =   2.646361
 
 Write flags
   LWAVE        =      T    write WAVECAR
   LDOWNSAMPLE  =      F    k-point downsampling of WAVECAR
   LCHARG       =      T    write CHGCAR
   LVTOT        =      F    write LOCPOT, total local potential
   LVHAR        =      F    write LOCPOT, Hartree potential only
   LELF         =      F    write electronic localiz. function (ELF)
   LORBIT       =      0    0 simple, 1 ext, 2 COOP (PROOUT), +10 PAW based schemes


 Dipole corrections
   LMONO  =      F    monopole corrections only (constant potential shift)
   LDIPOL =      F    correct potential (dipole corrections)
   IDIPOL =      0    1-x, 2-y, 3-z, 4-all directions 
   EPSILON=  1.0000000 bulk dielectric constant

 Exchange correlation treatment:
   GGA     =    PE    GGA type
   LEXCH   =     8    internal setting for exchange type
   VOSKOWN=      0    Vosko Wilk Nusair interpolation
   LHFCALC =     F    Hartree Fock is set to
   LHFONE  =     F    Hartree Fock one center treatment
   AEXX    =    0.0000 exact exchange contribution

 Linear response parameters
   LEPSILON=     F    determine dielectric tensor
   LRPA    =     F    only Hartree local field effects (RPA)
   LNABLA  =     F    use nabla operator in PAW spheres
   LVEL    =     F    velocity operator in full k-point grid
   LINTERFAST=   F  fast interpolation
   KINTER  =     0    interpolate to denser k-point grid
   CSHIFT  =0.1000    complex shift for real part using Kramers Kronig
   OMEGAMAX=  -1.0    maximum frequency
   DEG_THRESHOLD= 0.2000000E-02 threshold for treating states as degnerate
   RTIME   =   -0.100 relaxation time in fs
  (WPLASMAI=    0.000 imaginary part of plasma frequency in eV, 0.658/RTIME)
   DFIELD  = 0.0000000 0.0000000 0.0000000 field for delta impulse in time
 
 Orbital magnetization related:
   ORBITALMAG=     F  switch on orbital magnetization
   LCHIMAG   =     F  perturbation theory with respect to B field
   DQ        =  0.001000  dq finite difference perturbation B field
   LLRAUG    =     F  two centre corrections for induced B field



--------------------------------------------------------------------------------------------------------


 Static calculation
 charge density and potential will be updated during run
 non-spin polarized calculation
 Variant of blocked Davidson
 Davidson routine will perform the subspace rotation
 perform sub-space diagonalisation
    after iterative eigenvector-optimisation
 modified Broyden-mixing scheme, WC =      100.0
 initial mixing is a Kerker type mixing with AMIX =  0.4000 and BMIX =      1.0000
 Hartree-type preconditioning will be used
 using additional bands           10
 reciprocal scheme for non local part
 use partial core corrections
 calculate Harris-corrections to forces 
   (improved forces if not selfconsistent)
 use gradient corrections 
 use of overlap-Matrix (Vanderbilt PP)
 Methfessel and Paxton  Order N= 1 SIGMA  =   0.20


--------------------------------------------------------------------------------------------------------


  energy-cutoff  :      270.00
  volume of cell :       48.03
      direct lattice vectors                 reciprocal lattice vectors
     3.635000000  0.000000000  0.000000000     0.275103164  0.000000000  0.000000000
     0.000000000  3.635000000  0.000000000     0.000000000  0.275103164  0.000000000
     0.000000000  0.000000000  3.635000000     0.000000000  0.000000000  0.275103164

  length of vectors
     3.635000000  3.635000000  3.635000000     0.275103164  0.275103164  0.275103164


 
 k-points in units of 2pi/SCALE and weight: KPOINTS created by Atomic Simulation Env
   0.00000000  0.00000000  0.00000000       0.001
   0.03056702  0.00000000  0.00000000       0.003
   0.00000000  0.03056702  0.00000000       0.003
   0.00000000  0.00000000  0.03056702       0.003
   0.06113404  0.00000000  0.00000000       0.003
   0.00000000  0.06113404  0.00000000       0.003
   0.00000000  0.00000000  0.06113404       0.003
   0.09170105  0.00000000  0.00000000       0.003
   0.00000000  0.09170105  0.00000000       0.003
   0.00000000  0.00000000  0.09170105       0.003
   0.12226807  0.00000000  0.00000000       0.003
   0.00000000  0.12226807  0.00000000       0.003
   0.00000000  0.00000000  0.12226807       0.003
   0.03056702  0.03056702  0.00000000       0.005
   0.00000000  0.03056702  0.03056702       0.005
   0.03056702  0.00000000  0.03056702       0.005
   0.06113404  0.03056702  0.00000000       0.005
   0.00000000  0.06113404  0.03056702       0.005
   0.03056702  0.00000000  0.06113404       0.005
  -0.03056702  0.06113404  0.00000000       0.005
  -0.06113404  0.00000000  0.03056702       0.005
   0.00000000  0.03056702  0.06113404       0.005
   0.09170105  0.03056702  0.00000000       0.005
   0.00000000  0.09170105  0.03056702       0.005
   0.03056702  0.00000000  0.09170105       0.005
  -0.03056702  0.09170105  0.00000000       0.005
  -0.09170105  0.00000000  0.03056702       0.005
   0.00000000  0.03056702  0.09170105       0.005
   0.12226807  0.03056702  0.00000000       0.005
   0.00000000  0.12226807  0.03056702       0.005
   0.03056702  0.00000000  0.12226807       0.005
  -0.03056702  0.12226807  0.00000000       0.005
  -0.12226807  0.00000000  0.03056702       0.005
   0.00000000  0.03056702  0.12226807       0.005
   0.06113404  0.06113404  0.00000000       0.005
   0.00000000  0.06113404  0.06113404       0.005
   0.06113404  0.00000000  0.06113404       0.005
   0.09170105  0.06113404  0.00000000       0.005
   0.00000000  0.09170105  0.06113404       0.005
   0.06113404  0.00000000  0.09170105       0.005
  -0.06113404  0.09170105  0.00000000       0.005
  -0.09170105  0.00000000  0.06113404       0.005
   0.00000000  0.06113404  0.09170105       0.005
   0.12226807  0.06113404  0.00000000       0.005
   0.00000000  0.12226807  0.06113404       0.005
   0.06113404  0.00000000  0.12226807       0.005
  -0.06113404  0.12226807  0.00000000       0.005
  -0.12226807  0.00000000  0.06113404       0.005
   0.00000000  0.06113404  0.12226807       0.005
   0.09170105  0.09170105  0.00000000       0.005
   0.00000000  0.09170105  0.09170105       0.005
   0.09170105  0.00000000  0.09170105       0.005
   0.12226807  0.09170105  0.00000000       0.005
   0.00000000  0.12226807  0.09170105       0.005
   0.09170105  0.00000000  0.12226807       0.005
  -0.09170105  0.12226807  0.00000000       0.005
  -0.12226807  0.00000000  0.09170105       0.005
   0.00000000  0.09170105  0.12226807       0.005
   0.12226807  0.12226807  0.00000000       0.005
   0.00000000  0.12226807  0.12226807       0.005
   0.12226807  0.00000000  0.12226807       0.005
   0.03056702  0.03056702  0.03056702       0.011
   0.06113404  0.03056702  0.03056702       0.011
   0.03056702  0.06113404  0.03056702       0.011
   0.03056702  0.03056702  0.06113404       0.011
   0.09170105  0.03056702  0.03056702       0.011
   0.03056702  0.09170105  0.03056702       0.011
   0.03056702  0.03056702  0.09170105       0.011
   0.12226807  0.03056702  0.03056702       0.011
   0.03056702  0.12226807  0.03056702       0.011
   0.03056702  0.03056702  0.12226807       0.011
   0.06113404  0.06113404  0.03056702       0.011
   0.03056702  0.06113404  0.06113404       0.011
   0.06113404  0.03056702  0.06113404       0.011
   0.09170105  0.06113404  0.03056702       0.011
   0.03056702  0.09170105  0.06113404       0.011
   0.06113404  0.03056702  0.09170105       0.011
  -0.06113404  0.09170105  0.03056702       0.011
  -0.09170105  0.03056702  0.06113404       0.011
  -0.03056702  0.06113404  0.09170105       0.011
   0.12226807  0.06113404  0.03056702       0.011
   0.03056702  0.12226807  0.06113404       0.011
   0.06113404  0.03056702  0.12226807       0.011
  -0.06113404  0.12226807  0.03056702       0.011
  -0.12226807  0.03056702  0.06113404       0.011
  -0.03056702  0.06113404  0.12226807       0.011
   0.09170105  0.09170105  0.03056702       0.011
   0.03056702  0.09170105  0.09170105       0.011
   0.09170105  0.03056702  0.09170105       0.011
   0.12226807  0.09170105  0.03056702       0.011
   0.03056702  0.12226807  0.09170105       0.011
   0.09170105  0.03056702  0.12226807       0.011
  -0.09170105  0.12226807  0.03056702       0.011
  -0.12226807  0.03056702  0.09170105       0.011
  -0.03056702  0.09170105  0.12226807       0.011
   0.12226807  0.12226807  0.03056702       0.011
   0.03056702  0.12226807  0.12226807       0.011
   0.12226807  0.03056702  0.12226807       0.011
   0.06113404  0.06113404  0.06113404       0.011
   0.09170105  0.06113404  0.06113404       0.011
   0.06113404  0.09170105  0.06113404       0.011
   0.06113404  0.06113404  0.09170105       0.011
   0.12226807  0.06113404  0.06113404       0.011
   0.06113404  0.12226807  0.06113404       0.011
   0.06113404  0.06113404  0.12226807       0.011
   0.09170105  0.09170105  0.06113404       0.011
   0.06113404  0.09170105  0.09170105       0.011
   0.09170105  0.06113404  0.09170105       0.011
   0.12226807  0.09170105  0.06113404       0.011
   0.06113404  0.12226807  0.09170105       0.011
   0.09170105  0.06113404  0.12226807       0.011
  -0.09170105  0.12226807  0.06113404       0.011
  -0.12226807  0.06113404  0.09170105       0.011
  -0.06113404  0.09170105  0.12226807       0.011
   0.12226807  0.12226807  0.06113404       0.011
   0.06113404  0.12226807  0.12226807       0.011
   0.12226807  0.06113404  0.12226807       0.011
   0.09170105  0.09170105  0.09170105       0.011
   0.12226807  0.09170105  0.09170105       0.011
   0.09170105  0.12226807  0.09170105       0.011
   0.09170105  0.09170105  0.12226807       0.011
   0.12226807  0.12226807  0.09170105       0.011
   0.09170105  0.12226807  0.12226807       0.011
   0.12226807  0.09170105  0.12226807       0.011
   0.12226807  0.12226807  0.12226807       0.011
 
 k-points in reciprocal lattice and weights: KPOINTS created by Atomic Simulation Env
   0.00000000  0.00000000  0.00000000       0.001
   0.11111111  0.00000000  0.00000000       0.003
   0.00000000  0.11111111  0.00000000       0.003
   0.00000000  0.00000000  0.11111111       0.003
   0.22222222  0.00000000  0.00000000       0.003
   0.00000000  0.22222222  0.00000000       0.003
   0.00000000  0.00000000  0.22222222       0.003
   0.33333333  0.00000000  0.00000000       0.003
   0.00000000  0.33333333  0.00000000       0.003
   0.00000000  0.00000000  0.33333333       0.003
   0.44444444  0.00000000  0.00000000       0.003
   0.00000000  0.44444444  0.00000000       0.003
   0.00000000  0.00000000  0.44444444       0.003
   0.11111111  0.11111111  0.00000000       0.005
   0.00000000  0.11111111  0.11111111       0.005
   0.11111111  0.00000000  0.11111111       0.005
   0.22222222  0.11111111  0.00000000       0.005
   0.00000000  0.22222222  0.11111111       0.005
   0.11111111  0.00000000  0.22222222       0.005
  -0.11111111  0.22222222  0.00000000       0.005
  -0.22222222  0.00000000  0.11111111       0.005
   0.00000000  0.11111111  0.22222222       0.005
   0.33333333  0.11111111  0.00000000       0.005
   0.00000000  0.33333333  0.11111111       0.005
   0.11111111  0.00000000  0.33333333       0.005
  -0.11111111  0.33333333  0.00000000       0.005
  -0.33333333  0.00000000  0.11111111       0.005
   0.00000000  0.11111111  0.33333333       0.005
   0.44444444  0.11111111  0.00000000       0.005
   0.00000000  0.44444444  0.11111111       0.005
   0.11111111  0.00000000  0.44444444       0.005
  -0.11111111  0.44444444  0.00000000       0.005
  -0.44444444  0.00000000  0.11111111       0.005
   0.00000000  0.11111111  0.44444444       0.005
   0.22222222  0.22222222  0.00000000       0.005
   0.00000000  0.22222222  0.22222222       0.005
   0.22222222  0.00000000  0.22222222       0.005
   0.33333333  0.22222222  0.00000000       0.005
   0.00000000  0.33333333  0.22222222       0.005
   0.22222222  0.00000000  0.33333333       0.005
  -0.22222222  0.33333333  0.00000000       0.005
  -0.33333333  0.00000000  0.22222222       0.005
   0.00000000  0.22222222  0.33333333       0.005
   0.44444444  0.22222222  0.00000000       0.005
   0.00000000  0.44444444  0.22222222       0.005
   0.22222222  0.00000000  0.44444444       0.005
  -0.22222222  0.44444444  0.00000000       0.005
  -0.44444444  0.00000000  0.22222222       0.005
   0.00000000  0.22222222  0.44444444       0.005
   0.33333333  0.33333333  0.00000000       0.005
   0.00000000  0.33333333  0.33333333       0.005
   0.33333333  0.00000000  0.33333333       0.005
   0.44444444  0.33333333  0.00000000       0.005
   0.00000000  0.44444444  0.33333333       0.005
   0.33333333  0.00000000  0.44444444       0.005
  -0.33333333  0.44444444  0.00000000       0.005
  -0.44444444  0.00000000  0.33333333       0.005
   0.00000000  0.33333333  0.44444444       0.005
   0.44444444  0.44444444  0.00000000       0.005
   0.00000000  0.44444444  0.44444444       0.005
   0.44444444  0.00000000  0.44444444       0.005
   0.11111111  0.11111111  0.11111111       0.011
   0.22222222  0.11111111  0.11111111       0.011
   0.11111111  0.22222222  0.11111111       0.011
   0.11111111  0.11111111  0.22222222       0.011
   0.33333333  0.11111111  0.11111111       0.011
   0.11111111  0.33333333  0.11111111       0.011
   0.11111111  0.11111111  0.33333333       0.011
   0.44444444  0.11111111  0.11111111       0.011
   0.11111111  0.44444444  0.11111111       0.011
   0.11111111  0.11111111  0.44444444       0.011
   0.22222222  0.22222222  0.11111111       0.011
   0.11111111  0.22222222  0.22222222       0.011
   0.22222222  0.11111111  0.22222222       0.011
   0.33333333  0.22222222  0.11111111       0.011
   0.11111111  0.33333333  0.22222222       0.011
   0.22222222  0.11111111  0.33333333       0.011
  -0.22222222  0.33333333  0.11111111       0.011
  -0.33333333  0.11111111  0.22222222       0.011
  -0.11111111  0.22222222  0.33333333       0.011
   0.44444444  0.22222222  0.11111111       0.011
   0.11111111  0.44444444  0.22222222       0.011
   0.22222222  0.11111111  0.44444444       0.011
  -0.22222222  0.44444444  0.11111111       0.011
  -0.44444444  0.11111111  0.22222222       0.011
  -0.11111111  0.22222222  0.44444444       0.011
   0.33333333  0.33333333  0.11111111       0.011
   0.11111111  0.33333333  0.33333333       0.011
   0.33333333  0.11111111  0.33333333       0.011
   0.44444444  0.33333333  0.11111111       0.011
   0.11111111  0.44444444  0.33333333       0.011
   0.33333333  0.11111111  0.44444444       0.011
  -0.33333333  0.44444444  0.11111111       0.011
  -0.44444444  0.11111111  0.33333333       0.011
  -0.11111111  0.33333333  0.44444444       0.011
   0.44444444  0.44444444  0.11111111       0.011
   0.11111111  0.44444444  0.44444444       0.011
   0.44444444  0.11111111  0.44444444       0.011
   0.22222222  0.22222222  0.22222222       0.011
   0.33333333  0.22222222  0.22222222       0.011
   0.22222222  0.33333333  0.22222222       0.011
   0.22222222  0.22222222  0.33333333       0.011
   0.44444444  0.22222222  0.22222222       0.011
   0.22222222  0.44444444  0.22222222       0.011
   0.22222222  0.22222222  0.44444444       0.011
   0.33333333  0.33333333  0.22222222       0.011
   0.22222222  0.33333333  0.33333333       0.011
   0.33333333  0.22222222  0.33333333       0.011
   0.44444444  0.33333333  0.22222222       0.011
   0.22222222  0.44444444  0.33333333       0.011
   0.33333333  0.22222222  0.44444444       0.011
  -0.33333333  0.44444444  0.22222222       0.011
  -0.44444444  0.22222222  0.33333333       0.011
  -0.22222222  0.33333333  0.44444444       0.011
   0.44444444  0.44444444  0.22222222       0.011
   0.22222222  0.44444444  0.44444444       0.011
   0.44444444  0.22222222  0.44444444       0.011
   0.33333333  0.33333333  0.33333333       0.011
   0.44444444  0.33333333  0.33333333       0.011
   0.33333333  0.44444444  0.33333333       0.011
   0.33333333  0.33333333  0.44444444       0.011
   0.44444444  0.44444444  0.33333333       0.011
   0.33333333  0.44444444  0.44444444       0.011
   0.44444444  0.33333333  0.44444444       0.011
   0.44444444  0.44444444  0.44444444       0.011
 
 position of ions in fractional coordinates (direct lattice) 
   0.00000000  0.00000000  0.00000000
   0.50000000  0.50000000  0.00000000
   0.50000000  0.00000000  0.50000000
   0.00000000  0.50000000  0.50000000
 
 position of ions in cartesian coordinates  (Angst):
   0.00000000  0.00000000  0.00000000
   1.81750000  1.81750000  0.00000000
   1.81750000  0.00000000  1.81750000
   0.00000000  1.81750000  1.81750000
 


--------------------------------------------------------------------------------------------------------


 k-point   1 :   0.0000 0.0000 0.0000  plane waves:     461
 k-point   2 :   0.1111 0.0000 0.0000  plane waves:     473
 k-point   3 :   0.0000 0.1111 0.0000  plane waves:     473
 k-point   4 :   0.0000 0.0000 0.1111  plane waves:     473
 k-point   5 :   0.2222 0.0000 0.0000  plane waves:     482
 k-point   6 :   0.0000 0.2222 0.0000  plane waves:     482
 k-point   7 :   0.0000 0.0000 0.2222  plane waves:     482
 k-point   8 :   0.3333 0.0000 0.0000  plane waves:     478
 k-point   9 :   0.0000 0.3333 0.0000  plane waves:     478
 k-point  10 :   0.0000 0.0000 0.3333  plane waves:     478
 k-point  11 :   0.4444 0.0000 0.0000  plane waves:     482
 k-point  12 :   0.0000 0.4444 0.0000  plane waves:     482
 k-point  13 :   0.0000 0.0000 0.4444  plane waves:     482
 k-point  14 :   0.1111 0.1111 0.0000  plane waves:     473
 k-point  15 :   0.0000 0.1111 0.1111  plane waves:     473
 k-point  16 :   0.1111 0.0000 0.1111  plane waves:     473
 k-point  17 :   0.2222 0.1111 0.0000  plane waves:     475
 k-point  18 :   0.0000 0.2222 0.1111  plane waves:     475
 k-point  19 :   0.1111 0.0000 0.2222  plane waves:     475
 k-point  20 :  -0.1111 0.2222 0.0000  plane waves:     475
 k-point  21 :  -0.2222 0.0000 0.1111  plane waves:     475
 k-point  22 :   0.0000 0.1111 0.2222  plane waves:     475
 k-point  23 :   0.3333 0.1111 0.0000  plane waves:     485
 k-point  24 :   0.0000 0.3333 0.1111  plane waves:     485
 k-point  25 :   0.1111 0.0000 0.3333  plane waves:     485
 k-point  26 :  -0.1111 0.3333 0.0000  plane waves:     485
 k-point  27 :  -0.3333 0.0000 0.1111  plane waves:     485
 k-point  28 :   0.0000 0.1111 0.3333  plane waves:     485
 k-point  29 :   0.4444 0.1111 0.0000  plane waves:     479
 k-point  30 :   0.0000 0.4444 0.1111  plane waves:     479
 k-point  31 :   0.1111 0.0000 0.4444  plane waves:     479
 k-point  32 :  -0.1111 0.4444 0.0000  plane waves:     479
 k-point  33 :  -0.4444 0.0000 0.1111  plane waves:     479
 k-point  34 :   0.0000 0.1111 0.4444  plane waves:     479
 k-point  35 :   0.2222 0.2222 0.0000  plane waves:     475
 k-point  36 :   0.0000 0.2222 0.2222  plane waves:     475
 k-point  37 :   0.2222 0.0000 0.2222  plane waves:     475
 k-point  38 :   0.3333 0.2222 0.0000  plane waves:     488
 k-point  39 :   0.0000 0.3333 0.2222  plane waves:     488
 k-point  40 :   0.2222 0.0000 0.3333  plane waves:     488
 k-point  41 :  -0.2222 0.3333 0.0000  plane waves:     488
 k-point  42 :  -0.3333 0.0000 0.2222  plane waves:     488
 k-point  43 :   0.0000 0.2222 0.3333  plane waves:     488
 k-point  44 :   0.4444 0.2222 0.0000  plane waves:     481
 k-point  45 :   0.0000 0.4444 0.2222  plane waves:     481
 k-point  46 :   0.2222 0.0000 0.4444  plane waves:     481
 k-point  47 :  -0.2222 0.4444 0.0000  plane waves:     481
 k-point  48 :  -0.4444 0.0000 0.2222  plane waves:     481
 k-point  49 :   0.0000 0.2222 0.4444  plane waves:     481
 k-point  50 :   0.3333 0.3333 0.0000  plane waves:     493
 k-point  51 :   0.0000 0.3333 0.3333  plane waves:     493
 k-point  52 :   0.3333 0.0000 0.3333  plane waves:     493
 k-point  53 :   0.4444 0.3333 0.0000  plane waves:     489
 k-point  54 :   0.0000 0.4444 0.3333  plane waves:     489
 k-point  55 :   0.3333 0.0000 0.4444  plane waves:     489
 k-point  56 :  -0.3333 0.4444 0.0000  plane waves:     489
 k-point  57 :  -0.4444 0.0000 0.3333  plane waves:     489
 k-point  58 :   0.0000 0.3333 0.4444  plane waves:     489
 k-point  59 :   0.4444 0.4444 0.0000  plane waves:     484
 k-point  60 :   0.0000 0.4444 0.4444  plane waves:     484
 k-point  61 :   0.4444 0.0000 0.4444  plane waves:     484
 k-point  62 :   0.1111 0.1111 0.1111  plane waves:     473
 k-point  63 :   0.2222 0.1111 0.1111  plane waves:     483
 k-point  64 :   0.1111 0.2222 0.1111  plane waves:     483
 k-point  65 :   0.1111 0.1111 0.2222  plane waves:     483
 k-point  66 :   0.3333 0.1111 0.1111  plane waves:     482
 k-point  67 :   0.1111 0.3333 0.1111  plane waves:     482
 k-point  68 :   0.1111 0.1111 0.3333  plane waves:     482
 k-point  69 :   0.4444 0.1111 0.1111  plane waves:     480
 k-point  70 :   0.1111 0.4444 0.1111  plane waves:     480
 k-point  71 :   0.1111 0.1111 0.4444  plane waves:     480
 k-point  72 :   0.2222 0.2222 0.1111  plane waves:     485
 k-point  73 :   0.1111 0.2222 0.2222  plane waves:     485
 k-point  74 :   0.2222 0.1111 0.2222  plane waves:     485
 k-point  75 :   0.3333 0.2222 0.1111  plane waves:     480
 k-point  76 :   0.1111 0.3333 0.2222  plane waves:     480
 k-point  77 :   0.2222 0.1111 0.3333  plane waves:     480
 k-point  78 :  -0.2222 0.3333 0.1111  plane waves:     480
 k-point  79 :  -0.3333 0.1111 0.2222  plane waves:     480
 k-point  80 :  -0.1111 0.2222 0.3333  plane waves:     480
 k-point  81 :   0.4444 0.2222 0.1111  plane waves:     479
 k-point  82 :   0.1111 0.4444 0.2222  plane waves:     479
 k-point  83 :   0.2222 0.1111 0.4444  plane waves:     479
 k-point  84 :  -0.2222 0.4444 0.1111  plane waves:     479
 k-point  85 :  -0.4444 0.1111 0.2222  plane waves:     479
 k-point  86 :  -0.1111 0.2222 0.4444  plane waves:     479
 k-point  87 :   0.3333 0.3333 0.1111  plane waves:     490
 k-point  88 :   0.1111 0.3333 0.3333  plane waves:     490
 k-point  89 :   0.3333 0.1111 0.3333  plane waves:     490
 k-point  90 :   0.4444 0.3333 0.1111  plane waves:     486
 k-point  91 :   0.1111 0.4444 0.3333  plane waves:     486
 k-point  92 :   0.3333 0.1111 0.4444  plane waves:     486
 k-point  93 :  -0.3333 0.4444 0.1111  plane waves:     486
 k-point  94 :  -0.4444 0.1111 0.3333  plane waves:     486
 k-point  95 :  -0.1111 0.3333 0.4444  plane waves:     486
 k-point  96 :   0.4444 0.4444 0.1111  plane waves:     494
 k-point  97 :   0.1111 0.4444 0.4444  plane waves:     494
 k-point  98 :   0.4444 0.1111 0.4444  plane waves:     494
 k-point  99 :   0.2222 0.2222 0.2222  plane waves:     486
 k-point 100 :   0.3333 0.2222 0.2222  plane waves:     481
 k-point 101 :   0.2222 0.3333 0.2222  plane waves:     481
 k-point 102 :   0.2222 0.2222 0.3333  plane waves:     481
 k-point 103 :   0.4444 0.2222 0.2222  plane waves:     483
 k-point 104 :   0.2222 0.4444 0.2222  plane waves:     483
 k-point 105 :   0.2222 0.2222 0.4444  plane waves:     483
 k-point 106 :   0.3333 0.3333 0.2222  plane waves:     488
 k-point 107 :   0.2222 0.3333 0.3333  plane waves:     488
 k-point 108 :   0.3333 0.2222 0.3333  plane waves:     488
 k-point 109 :   0.4444 0.3333 0.2222  plane waves:     487
 k-point 110 :   0.2222 0.4444 0.3333  plane waves:     487
 k-point 111 :   0.3333 0.2222 0.4444  plane waves:     487
 k-point 112 :  -0.3333 0.4444 0.2222  plane waves:     487
 k-point 113 :  -0.4444 0.2222 0.3333  plane waves:     487
 k-point 114 :  -0.2222 0.3333 0.4444  plane waves:     487
 k-point 115 :   0.4444 0.4444 0.2222  plane waves:     492
 k-point 116 :   0.2222 0.4444 0.4444  plane waves:     492
 k-point 117 :   0.4444 0.2222 0.4444  plane waves:     492
 k-point 118 :   0.3333 0.3333 0.3333  plane waves:     486
 k-point 119 :   0.4444 0.3333 0.3333  plane waves:     481
 k-point 120 :   0.3333 0.4444 0.3333  plane waves:     481
 k-point 121 :   0.3333 0.3333 0.4444  plane waves:     481
 k-point 122 :   0.4444 0.4444 0.3333  plane waves:     483
 k-point 123 :   0.3333 0.4444 0.4444  plane waves:     483
 k-point 124 :   0.4444 0.3333 0.4444  plane waves:     483
 k-point 125 :   0.4444 0.4444 0.4444  plane waves:     480

 maximum number of plane-waves:       494
 maximum index in each direction: 
   IXMAX=    5   IYMAX=    4   IZMAX=    4
   IXMIN=   -5   IYMIN=   -5   IZMIN=   -5


 total amount of memory used by VASP MPI-rank0   102262. kBytes
=======================================================================

   base      :      30000. kBytes
   nonl-proj :      35599. kBytes
   grid      :       2641. kBytes
   one-center:         62. kBytes
   wavefun   :      33960. kBytes
 
     INWAV:  cpu time    0.0000: real time    0.0000
 Broyden mixing: mesh for mixing (old mesh)
   NGX =  9   NGY =  9   NGZ =  9
  (NGX  = 32   NGY  = 32   NGZ  = 32)
  gives a total of    729 points

 initial charge density was supplied:
 charge density of overlapping atoms calculated
 number of electron      40.0000000 magnetization 
 keeping initial charge density in first step


--------------------------------------------------------------------------------------------------------


 Maximum index for augmentation-charges         6031 (set IRDMAX)


--------------------------------------------------------------------------------------------------------


 First call to EWALD:  gamma=   0.488
 Maximum number of real-space cells 3x 3x 3
 Maximum number of reciprocal cells 3x 3x 3

    FEWALD:  cpu time    0.0009: real time    0.0009


--------------------------------------- Iteration      1(   1)  ---------------------------------------


    POTLOK:  cpu time    0.0081: real time    0.0081
    SETDIJ:  cpu time    0.0044: real time    0.0044
     EDDAV:  cpu time    1.4484: real time    1.4703
       DOS:  cpu time    0.0073: real time    0.0073
    --------------------------------------------
      LOOP:  cpu time    1.4682: real time    1.4901

 eigenvalue-minimisations  :  7834
 total energy-change (2. order) : 0.2313128E+03  (-0.1188108E+04)
 number of electron      40.0000000 magnetization 
 augmentation part       40.0000000 magnetization 

 Free energy of the ion-electron system (eV)
  ---------------------------------------------------
  alpha Z        PSCENC =       294.32394985
  Ewald energy   TEWEN  =     -3641.45145672
  -Hartree energ DENC   =      -571.19890525
  -exchange      EXHF   =         0.00000000
  -V(xc)+E(xc)   XCENC  =         6.42737968
  PAW double counting   =      3282.45812088    -3257.47686163
  entropy T*S    EENTRO =        -0.00381535
  eigenvalues    EBANDS =       628.44771834
  atomic energy  EATOM  =      3489.78669473
  Solvation  Ediel_sol  =         0.00000000
  ---------------------------------------------------
  free energy    TOTEN  =       231.31282451 eV

  energy without entropy =      231.31663986  energy(sigma->0) =      231.31409630


--------------------------------------------------------------------------------------------------------




--------------------------------------- Iteration      1(   2)  ---------------------------------------


     EDDAV:  cpu time    1.4238: real time    1.4239
       DOS:  cpu time    0.0087: real time    0.0087
    --------------------------------------------
      LOOP:  cpu time    1.4325: real time    1.4326

 eigenvalue-minimisations  :  8000
 total energy-change (2. order) :-0.2437984E+03  (-0.2294557E+03)
 number of electron      40.0000000 magnetization 
 augmentation part       40.0000000 magnetization 

 Free energy of the ion-electron system (eV)
  ---------------------------------------------------
  alpha Z        PSCENC =       294.32394985
  Ewald energy   TEWEN  =     -3641.45145672
  -Hartree energ DENC   =      -571.19890525
  -exchange      EXHF   =         0.00000000
  -V(xc)+E(xc)   XCENC  =         6.42737968
  PAW double counting   =      3282.45812088    -3257.47686163
  entropy T*S    EENTRO =        -0.00061677
  eigenvalues    EBANDS =       384.64607466
  atomic energy  EATOM  =      3489.78669473
  Solvation  Ediel_sol  =         0.00000000
  ---------------------------------------------------
  free energy    TOTEN  =       -12.48562059 eV

  energy without entropy =      -12.48500381  energy(sigma->0) =      -12.48541500


--------------------------------------------------------------------------------------------------------




--------------------------------------- Iteration      1(   3)  ---------------------------------------


     EDDAV:  cpu time    1.4843: real time    1.4843
       DOS:  cpu time    0.0098: real time    0.0098
    --------------------------------------------
      LOOP:  cpu time    1.4941: real time    1.4941

 eigenvalue-minimisations  :  8634
 total energy-change (2. order) :-0.1148520E+02  (-0.1117456E+02)
 number of electron      40.0000000 magnetization 
 augmentation part       40.0000000 magnetization 

 Free energy of the ion-electron system (eV)
  ---------------------------------------------------
  alpha Z        PSCENC =       294.32394985
  Ewald energy   TEWEN  =     -3641.45145672
  -Hartree energ DENC   =      -571.19890525
  -exchange      EXHF   =         0.00000000
  -V(xc)+E(xc)   XCENC  =         6.42737968
  PAW double counting   =      3282.45812088    -3257.47686163
  entropy T*S    EENTRO =        -0.00817097
  eigenvalues    EBANDS =       373.16842868
  atomic energy  EATOM  =      3489.78669473
  Solvation  Ediel_sol  =         0.00000000
  ---------------------------------------------------
  free energy    TOTEN  =       -23.97082076 eV

  energy without entropy =      -23.96264979  energy(sigma->0) =      -23.96809711


--------------------------------------------------------------------------------------------------------




--------------------------------------- Iteration      1(   4)  ---------------------------------------


     EDDAV:  cpu time    1.5671: real time    1.5672
       DOS:  cpu time    0.0098: real time    0.0098
    --------------------------------------------
      LOOP:  cpu time    1.5769: real time    1.5770

 eigenvalue-minimisations  :  9310
 total energy-change (2. order) :-0.2753872E+00  (-0.2750863E+00)
 number of electron      40.0000000 magnetization 
 augmentation part       40.0000000 magnetization 

 Free energy of the ion-electron system (eV)
  ---------------------------------------------------
  alpha Z        PSCENC =       294.32394985
  Ewald energy   TEWEN  =     -3641.45145672
  -Hartree energ DENC   =      -571.19890525
  -exchange      EXHF   =         0.00000000
  -V(xc)+E(xc)   XCENC  =         6.42737968
  PAW double counting   =      3282.45812088    -3257.47686163
  entropy T*S    EENTRO =        -0.00783968
  eigenvalues    EBANDS =       372.89271021
  atomic energy  EATOM  =      3489.78669473
  Solvation  Ediel_sol  =         0.00000000
  ---------------------------------------------------
  free energy    TOTEN  =       -24.24620795 eV

  energy without entropy =      -24.23836827  energy(sigma->0) =      -24.24359472


--------------------------------------------------------------------------------------------------------




--------------------------------------- Iteration      1(   5)  ---------------------------------------


     EDDAV:  cpu time    1.7849: real time    1.7850
       DOS:  cpu time    0.0101: real time    0.0101
    CHARGE:  cpu time    0.1038: real time    0.1038
    MIXING:  cpu time    0.0003: real time    0.0003
    --------------------------------------------
      LOOP:  cpu time    1.8990: real time    1.8991

 eigenvalue-minimisations  : 10622
 total energy-change (2. order) :-0.1248363E-01  (-0.1248261E-01)
 number of electron      40.0000176 magnetization 
 augmentation part       15.6769996 magnetization 

 Broyden mixing:
  rms(total) = 0.32439E+01    rms(broyden)= 0.32431E+01
  rms(prec ) = 0.43320E+01
  weight for this iteration     100.00

 Free energy of the ion-electron system (eV)
  ---------------------------------------------------
  alpha Z        PSCENC =       294.32394985
  Ewald energy   TEWEN  =     -3641.45145672
  -Hartree energ DENC   =      -571.19890525
  -exchange      EXHF   =         0.00000000
  -V(xc)+E(xc)   XCENC  =         6.42737968
  PAW double counting   =      3282.45812088    -3257.47686163
  entropy T*S    EENTRO =        -0.00783277
  eigenvalues    EBANDS =       372.88021966
  atomic energy  EATOM  =      3489.78669473
  Solvation  Ediel_sol  =         0.00000000
  ---------------------------------------------------
  free energy    TOTEN  =       -24.25869158 eV

  energy without entropy =      -24.25085881  energy(sigma->0) =      -24.25608065


--------------------------------------------------------------------------------------------------------




--------------------------------------- Iteration      1(   6)  ---------------------------------------


    POTLOK:  cpu time    0.0082: real time    0.0082
    SETDIJ:  cpu time    0.0045: real time    0.0045
     EDDAV:  cpu time    1.5123: real time    1.5123
       DOS:  cpu time    0.0097: real time    0.0097
    CHARGE:  cpu time    0.0982: real time    0.0982
    MIXING:  cpu time    0.0003: real time    0.0003
    --------------------------------------------
      LOOP:  cpu time    1.6331: real time    1.6331

 eigenvalue-minimisations  :  8930
 total energy-change (2. order) :-0.1048710E+01  (-0.3916110E+01)
 number of electron      40.0000215 magnetization 
 augmentation part       16.9160301 magnetization 

 Broyden mixing:
  rms(total) = 0.16740E+01    rms(broyden)= 0.16732E+01
[...]
      3       5.5031      2.00000
      4       5.7997      2.00000
      5       7.2281      2.00000
      6       7.5395      2.00000
      7       7.6780      2.00000
      8       8.5901      2.00000
      9       8.6967      2.00000
     10       8.7911      2.00000
     11       8.8421      2.00000
     12       9.1075      2.00000
     13       9.1168      2.00000
     14       9.2228      2.00000
     15       9.2844      2.00000
     16       9.3880      2.00000
     17      11.2998      2.00000
     18      11.5024      2.00000
     19      11.6103      2.00000
     20      12.3311      1.96844
     21      13.2972     -0.00000
     22      14.8013     -0.00000
     23      15.3946     -0.00000
     24      15.7874     -0.00000
     25      20.2882      0.00000
     26      20.4355      0.00000
     27      21.5760      0.00000
     28      24.5159      0.00000
     29      28.7230      0.00000
     30      29.0327      0.00000

 k-point   119 :       0.4444    0.3333    0.3333
  band No.  band energies     occupation 
      1       4.5269      2.00000
      2       4.7277      2.00000
      3       5.4144      2.00000
      4       5.5067      2.00000
      5       7.4099      2.00000
      6       7.7545      2.00000
      7       7.9327      2.00000
      8       8.4234      2.00000
      9       8.6847      2.00000
     10       8.8497      2.00000
     11       8.9394      2.00000
     12       9.0760      2.00000
     13       9.3323      2.00000
     14       9.3962      2.00000
     15       9.4813      2.00000
     16       9.6550      2.00000
     17      11.2449      2.00000
     18      11.8427      2.00005
     19      11.9425      2.00082
     20      12.4425      1.36421
     21      13.0693     -0.00030
     22      13.4508     -0.00000
     23      15.4547     -0.00000
     24      15.5002     -0.00000
     25      19.7023      0.00000
     26      20.4945      0.00000
     27      21.9359      0.00000
     28      23.4749      0.00000
     29      29.0298      0.00000
     30      29.1234      0.00000

 k-point   120 :       0.3333    0.4444    0.3333
  band No.  band energies     occupation 
      1       4.6071      2.00000
      2       4.7766      2.00000
      3       5.0708      2.00000
      4       5.6975      2.00000
      5       7.3796      2.00000
      6       7.8650      2.00000
      7       7.9203      2.00000
      8       8.5411      2.00000
      9       8.6530      2.00000
     10       8.7107      2.00000
     11       8.8538      2.00000
     12       9.1323      2.00000
     13       9.2703      2.00000
     14       9.3442      2.00000
     15       9.4881      2.00000
     16       9.6717      2.00000
     17      11.2852      2.00000
     18      11.8671      2.00011
     19      12.0427      2.00737
     20      12.3640      1.85224
     21      13.0517     -0.00048
     22      13.4350     -0.00000
     23      15.4700     -0.00000
     24      15.7396     -0.00000
     25      19.6540      0.00000
     26      20.2656      0.00000
     27      22.0621      0.00000
     28      23.3914      0.00000
     29      28.8825      0.00000
     30      29.2611      0.00000

 k-point   121 :       0.3333    0.3333    0.4444
  band No.  band energies     occupation 
      1       4.6040      2.00000
      2       4.7873      2.00000
      3       5.1143      2.00000
      4       5.6079      2.00000
      5       7.5843      2.00000
      6       7.6060      2.00000
      7       7.9136      2.00000
      8       8.3938      2.00000
      9       8.7198      2.00000
     10       8.8391      2.00000
     11       8.9241      2.00000
     12       9.0790      2.00000
     13       9.2598      2.00000
     14       9.4234      2.00000
     15       9.5067      2.00000
     16       9.7097      2.00000
     17      11.3804      2.00000
     18      11.7026      2.00000
     19      11.9600      2.00125
     20      12.3898      1.72291
     21      13.0983     -0.00013
     22      13.4683     -0.00000
     23      15.4472     -0.00000
     24      15.7053     -0.00000
     25      19.6173      0.00000
     26      20.4044      0.00000
     27      21.9403      0.00000
     28      23.4251      0.00000
     29      28.8355      0.00000
     30      29.2707      0.00000

 k-point   122 :       0.4444    0.4444    0.3333
  band No.  band energies     occupation 
      1       4.4908      2.00000
      2       4.6662      2.00000
      3       4.9705      2.00000
      4       5.3420      2.00000
      5       7.8117      2.00000
      6       7.8663      2.00000
      7       8.0761      2.00000
      8       8.3016      2.00000
      9       8.4352      2.00000
     10       8.6866      2.00000
     11       8.8567      2.00000
     12       9.0691      2.00000
     13       9.8643      2.00000
     14       9.9104      2.00000
     15      10.0336      2.00000
     16      10.2062      2.00000
     17      11.2354      2.00000
     18      11.9338      2.00066
     19      12.1130      2.02386
     20      12.6886     -0.05214
     21      12.9167     -0.00957
     22      13.3813     -0.00000
     23      14.4642     -0.00000
     24      14.7982     -0.00000
     25      19.9687      0.00000
     26      20.6048      0.00000
     27      21.1281      0.00000
     28      22.5393      0.00000
     29      28.9030      0.00000
     30      29.0783      0.00000

 k-point   123 :       0.3333    0.4444    0.4444
  band No.  band energies     occupation 
      1       4.4979      2.00000
      2       4.6892      2.00000
      3       4.8321      2.00000
      4       5.3744      2.00000
      5       7.7039      2.00000
      6       7.9789      2.00000
      7       8.0573      2.00000
      8       8.3497      2.00000
      9       8.4031      2.00000
     10       8.6837      2.00000
     11       8.8466      2.00000
     12       9.0728      2.00000
     13       9.8121      2.00000
     14       9.9232      2.00000
     15       9.9792      2.00000
     16      10.2606      2.00000
     17      11.3125      2.00000
     18      11.9159      2.00041
     19      12.2714      2.06271
     20      12.4672      1.16472
     21      12.9478     -0.00529
     22      13.1968     -0.00001
     23      14.8331     -0.00000
     24      15.0803     -0.00000
     25      19.8798      0.00000
     26      20.2486      0.00000
     27      21.1360      0.00000
     28      22.5581      0.00000
     29      28.7424      0.00000
     30      29.0849      0.00000

 k-point   124 :       0.4444    0.3333    0.4444
  band No.  band energies     occupation 
      1       4.4962      2.00000
      2       4.6674      2.00000
      3       4.9691      2.00000
      4       5.3000      2.00000
      5       7.6371      2.00000
      6       7.8383      2.00000
      7       8.2110      2.00000
      8       8.4504      2.00000
      9       8.5434      2.00000
     10       8.7243      2.00000
     11       8.8699      2.00000
     12       8.8982      2.00000
     13       9.7985      2.00000
     14       9.9003      2.00000
     15      10.0372      2.00000
     16      10.3419      2.00000
     17      11.3055      2.00000
     18      11.7706      2.00001
     19      11.9217      2.00048
     20      12.8189     -0.04059
     21      13.2042     -0.00000
     22      13.6773     -0.00000
     23      14.0319     -0.00000
     24      14.6650     -0.00000
     25      19.9437      0.00000
     26      20.6582      0.00000
     27      21.0942      0.00000
     28      22.5777      0.00000
     29      28.8132      0.00000
     30      29.0712      0.00000

 k-point   125 :       0.4444    0.4444    0.4444
  band No.  band energies     occupation 
      1       4.2600      2.00000
      2       4.5504      2.00000
      3       4.6626      2.00000
      4       5.1016      2.00000
      5       7.8175      2.00000
      6       7.9854      2.00000
      7       8.2041      2.00000
      8       8.2428      2.00000
      9       8.3672      2.00000
     10       8.7237      2.00000
     11       8.7721      2.00000
     12       8.9427      2.00000
     13      10.6022      2.00000
     14      10.6896      2.00000
     15      10.9407      2.00000
     16      11.3192      2.00000
     17      11.4275      2.00000
     18      11.9183      2.00044
     19      11.9852      2.00224
     20      12.6069      0.15925
     21      13.0729     -0.00027
     22      13.2299     -0.00000
     23      13.6910     -0.00000
     24      13.9028     -0.00000
     25      19.7402      0.00000
     26      19.9459      0.00000
     27      20.4270      0.00000
     28      22.0335      0.00000
     29      28.5251      0.00000
     30      28.7009      0.00000


--------------------------------------------------------------------------------------------------------


 soft charge-density along one line, spin component           1
         0         1         2         3         4         5         6         7         8         9
x    23.2179    0.0000   -1.2697    0.0000    0.1407    0.0000    0.1733    0.0000   -0.2786    0.0000
x    -0.0288    0.0000    0.0727    0.0000    0.0089    0.0000    0.0000    0.0000
y    23.2179    0.0000    1.3093    0.0000    0.1671    0.0000   -0.2557   -0.0000   -0.2748    0.0000
y     0.0174   -0.0000    0.0685   -0.0000    0.0011    0.0000    0.0000    0.0000
z    23.2179    0.0000    0.3566    0.0000    0.1639    0.0000   -0.1138   -0.0000   -0.2778    0.0000
z     0.0100   -0.0000    0.0699   -0.0000   -0.0044    0.0000    0.0000    0.0000
 total charge-density along one line
x    40.0000    0.0000    3.8673    0.0000    9.4697   -0.0000    2.8149    0.0000    1.0555    0.0000
x     0.2473    0.0000    0.0794    0.0000    0.0018   -0.0000    0.0050    0.0000    0.0027   -0.0000
x    -0.0011    0.0000   -0.0008   -0.0000    0.0006    0.0000    0.0004    0.0000   -0.0004   -0.0000
x    -0.0001    0.0000    0.0004    0.0000
y    40.0000    0.0000   -1.0599   -0.0000    9.5311    0.0000   -1.6911   -0.0000    1.0632   -0.0000
y    -0.2124   -0.0000    0.0534   -0.0000    0.0274    0.0000    0.0038    0.0000   -0.0063    0.0000
y    -0.0011    0.0000    0.0016   -0.0000    0.0006    0.0000   -0.0003   -0.0000   -0.0004    0.0000
y     0.0000   -0.0000    0.0004    0.0000
z    40.0000    0.0000   -2.7578    0.0000    9.5083    0.0000   -1.9110   -0.0000    1.0498   -0.0000
z    -0.2347    0.0000    0.0618   -0.0000    0.0141    0.0000    0.0043    0.0000   -0.0055   -0.0000
z    -0.0011   -0.0000    0.0018    0.0000    0.0006   -0.0000   -0.0006    0.0000   -0.0005    0.0000
z     0.0001    0.0000    0.0004    0.0000
 
 pseudopotential strength for first ion, spin component:           1
 -1.432   0.000  -0.000   0.000   0.000  -1.711   0.000  -0.000
  0.000  -1.344   0.000   0.000  -0.000   0.000  -1.627   0.000
 -0.000   0.000  -1.362   0.000  -0.004  -0.000   0.000  -1.645
  0.000   0.000   0.000  -1.421   0.000   0.000   0.000   0.000
  0.000  -0.000  -0.004   0.000  -1.361   0.000  -0.000  -0.003
 -1.711   0.000  -0.000   0.000   0.000  -1.956   0.000  -0.000
  0.000  -1.627   0.000   0.000  -0.000   0.000  -1.875   0.000
 -0.000   0.000  -1.645   0.000  -0.003  -0.000   0.000  -1.892
  0.000   0.000   0.000  -1.701   0.000   0.000   0.000   0.000
  0.000  -0.000  -0.003   0.000  -1.643   0.000  -0.000  -0.003
 -0.000  -0.000  -0.006  -0.000   0.009  -0.000  -0.000  -0.006
 -0.000  -0.000  -0.011  -0.000   0.015  -0.000  -0.000  -0.011
  0.000   0.000   0.000  -0.000   0.000   0.000   0.000   0.000
 -0.000  -0.000   0.000   0.000   0.000  -0.000  -0.000   0.000
 -0.000  -0.000  -0.000   0.000   0.000  -0.000  -0.000  -0.000
  0.000   0.000   0.000  -0.000   0.000   0.000   0.000   0.000
 -0.000  -0.000   0.000   0.000   0.000  -0.000  -0.000   0.000
 -0.000  -0.000  -0.000   0.000   0.000  -0.000  -0.000  -0.000
 total augmentation occupancy for first ion, spin component:           1
  3.229   0.000  -0.000   0.000   0.000  -2.873   0.000   0.000   0.000   0.000   0.000   0.000   0.000   0.000   0.000   0.000
  0.000   5.652   0.000  -0.000   0.000   0.000  -4.217   0.000   0.000   0.000   0.000   0.000   0.000   0.000   0.000   0.000
 -0.000   0.000   4.519   0.000  -0.929  -0.000   0.000  -3.289   0.000   0.679   0.250  -0.046   0.000   0.000   0.000   0.000
  0.000  -0.000   0.000   4.557   0.000   0.000   0.000   0.000  -4.003   0.000   0.000   0.000   0.000   0.000   0.000   0.000
  0.000   0.000  -0.929   0.000   6.295   0.000   0.000   0.679   0.000  -4.704  -0.550   0.125   0.000   0.000   0.000   0.000
 -2.873   0.000  -0.000   0.000  -0.000   4.196   0.000  -0.000   0.000  -0.000   0.000   0.000   0.000   0.000   0.000   0.000
  0.000  -4.217   0.000   0.000   0.000   0.000   4.660   0.000   0.000   0.000   0.000   0.000   0.000   0.000   0.000   0.000
  0.000   0.000  -3.289   0.000   0.679  -0.000   0.000   3.889   0.000  -0.489  -0.217   0.021   0.000   0.000   0.000   0.000
  0.000   0.000   0.000  -4.003   0.000   0.000  -0.000   0.000   5.145   0.000   0.000   0.000   0.000   0.000   0.000   0.000
  0.000   0.000   0.679   0.000  -4.704   0.000   0.000  -0.489   0.000   5.009   0.453  -0.083   0.000   0.000   0.000   0.000
  0.000   0.000   0.250   0.000  -0.550   0.000   0.000  -0.217   0.000   0.453   2.795  -0.483   0.000   0.000   0.000   0.000
 -0.000   0.000  -0.046   0.000   0.125   0.000   0.000   0.021   0.000  -0.083  -0.483   0.092   0.000   0.000   0.000   0.000
  0.000   0.000   0.000   0.000   0.000   0.000   0.000   0.000   0.000   0.000   0.000   0.000   0.414   0.000   0.000  -0.020
  0.000   0.000   0.000   0.000   0.000   0.000   0.000   0.000   0.000   0.000   0.000   0.000   0.000   0.407   0.000   0.000
  0.000   0.000   0.000   0.000   0.000   0.000   0.000   0.000   0.000   0.000   0.000   0.000   0.000   0.000   0.478   0.000
  0.000   0.000   0.000   0.000   0.000   0.000   0.000   0.000   0.000   0.000   0.000   0.000  -0.020   0.000  -0.000   0.001
  0.000   0.000   0.000   0.000   0.000   0.000   0.000   0.000   0.000   0.000   0.000   0.000   0.000  -0.022   0.000   0.000
  0.000   0.000   0.000   0.000   0.000   0.000   0.000   0.000   0.000   0.000   0.000   0.000   0.000   0.000  -0.024   0.000


------------------------ aborting loop because EDIFF is reached ----------------------------------------


    CHARGE:  cpu time    0.0988: real time    0.0988
    FORLOC:  cpu time    0.0013: real time    0.0013
    FORNL :  cpu time    0.3829: real time    0.3829
    STRESS:  cpu time    0.6665: real time    0.6666
    FORCOR:  cpu time    0.0093: real time    0.0093
    FORHAR:  cpu time    0.0026: real time    0.0026
    MIXING:  cpu time    0.0005: real time    0.0005

  FORCE on cell =-STRESS in cart. coord.  units (eV):
  Direction    XX          YY          ZZ          XY          YZ          ZX
  --------------------------------------------------------------------------------------
  Alpha Z   294.32395   294.32395   294.32395
  Ewald   -1215.67993 -1210.09319 -1215.67993     0.00000    -0.00000     0.00000
  Hartree   166.45512   179.74106   171.38314    -0.00000    -0.00000    -0.00000
  E(xc)    -206.28427  -206.26070  -206.27851     0.00000     0.00000     0.00000
  Local     226.53598   210.44406   224.28769     0.00000     0.00000     0.00000
  n-local    -6.85875    -4.96791    -6.69703     4.35942     8.32146     4.85629
  augment   259.27348   258.07402   258.73262    -0.00000    -0.00000     0.00000
  Kinetic   500.11335   497.33259   497.75934     0.85261     2.01953     0.98964
  Fock        0.00000     0.00000     0.00000     0.00000     0.00000     0.00000
  -------------------------------------------------------------------------------------
  Total      17.87892    18.59390    17.83128     0.00000     0.00000     0.00000
  in kB     596.40146   620.25144   594.81214     0.00000     0.00000     0.00000
  external pressure =      603.82 kB  Pullay stress =        0.00 kB


 VOLUME and BASIS-vectors are now :
 -----------------------------------------------------------------------------
  energy-cutoff  :      270.00
  volume of cell :       48.03
      direct lattice vectors                 reciprocal lattice vectors
     3.635000000  0.000000000  0.000000000     0.275103164  0.000000000  0.000000000
     0.000000000  3.635000000  0.000000000     0.000000000  0.275103164  0.000000000
     0.000000000  0.000000000  3.635000000     0.000000000  0.000000000  0.275103164

  length of vectors
     3.635000000  3.635000000  3.635000000     0.275103164  0.275103164  0.275103164


 FORCES acting on ions
    electron-ion (+dipol)            ewald-force                    non-local-force                 convergence-correction
 -----------------------------------------------------------------------------------------------
   -.257E-13 0.595E-14 0.126E-13   0.867E-14 -.106E-13 -.539E-14   -.464E-24 0.203E-22 -.770E-22   -.256E-13 0.143E-13 0.118E-13
   0.114E-14 0.329E-13 0.315E-14   0.109E-14 -.104E-14 -.382E-14   0.326E-23 -.422E-23 -.862E-23   -.824E-14 0.657E-14 -.191E-14
   0.191E-13 0.658E-14 0.573E-13   0.405E-14 0.203E-14 0.701E-14   0.522E-25 0.104E-21 -.213E-23   -.214E-13 0.176E-13 0.300E-13
   -.662E-13 0.289E-12 0.290E-12   -.111E-13 0.108E-13 0.211E-14   0.743E-23 -.140E-22 -.192E-22   -.950E-13 0.139E-13 0.570E-13
 -----------------------------------------------------------------------------------------------
   -.717E-13 0.334E-12 0.363E-12   0.269E-14 0.119E-14 -.871E-16   0.103E-22 0.107E-21 -.107E-21   -.150E-12 0.524E-13 0.969E-13
 
 
 POSITION                                       TOTAL-FORCE (eV/Angst)
 -----------------------------------------------------------------------------------
      0.00000      0.00000      0.00000        -0.000000      0.000000      0.000000
      1.81750      1.81750      0.00000         0.000000      0.000000      0.000000
      1.81750      0.00000      1.81750         0.000000      0.000000      0.000000
      0.00000      1.81750      1.81750         0.000000     -0.000000     -0.000000
 -----------------------------------------------------------------------------------
    total drift:                               -0.000000      0.000000      0.000000


--------------------------------------------------------------------------------------------------------



  FREE ENERGIE OF THE ION-ELECTRON SYSTEM (eV)
  ---------------------------------------------------
  free  energy   TOTEN  =       -21.88661303 eV

  energy  without entropy=      -21.89031459  energy(sigma->0) =      -21.88784688
 


--------------------------------------------------------------------------------------------------------


    POTLOK:  cpu time    0.0121: real time    0.0121


--------------------------------------------------------------------------------------------------------


 writing wavefunctions
     LOOP+:  cpu time   28.7801: real time   28.8030
    4ORBIT:  cpu time    0.0000: real time    0.0000

 total amount of memory used by VASP MPI-rank0   102262. kBytes
=======================================================================

   base      :      30000. kBytes
   nonl-proj :      35599. kBytes
   grid      :       2641. kBytes
   one-center:         62. kBytes
   wavefun   :      33960. kBytes
 
  
  
 General timing and accounting informations for this job:
 ========================================================
  
                  Total CPU time used (sec):       29.162
                            User time (sec):       29.106
                          System time (sec):        0.056
                         Elapsed time (sec):       29.175
  
                   Maximum memory used (kb):      113228.
                   Average memory used (kb):          N/A
  
                          Minor page faults:        21843
                          Major page faults:            0
                 Voluntary context switches:           26
