<?xml version="1.0" encoding="ISO-8859-1"?>
<modeling>
 <generator>
  <i name="program" type="string">vasp </i>
  <i name="version" type="string">6.2.0  </i>
  <i name="subversion" type="string">18Jan21 (build Mar 17 2021 09:06:54) complex                          serial </i>
  <i name="platform" type="string">LinuxIFC </i>
  <i name="date" type="string">2021 06 11 </i>
  <i name="time" type="string">11:31:24 </i>
 </generator>
 <incar>
  <i type="string" name="PREC">normal</i>
  <i type="int" name="ICHARG">     1</i>
  <i type="int" name="IBRION">    -1</i>
  <i name="EDIFF">      0.00000100</i>
  <i type="int" name="NSW">     0</i>
  <i name="ENCUT">    270.00000000</i>
  <i type="int" name="NBANDS">    30</i>
  <i type="int" name="ISMEAR">     1</i>
  <i name="SIGMA">      0.20000000</i>
  <i type="logical" name="LCHARG"> T  </i>
  <i type="int" name="KPAR">     1</i>
  <i type="int" name="NCORE">     1</i>
  <i type="string" name="GGA">PE</i>
 </incar>
 <primitive_cell>
  <structure name="primitive_cell" >
   <crystal>
    <varray name="basis" >
     <v>       3.63500000       0.00000000       0.00000000 </v>
     <v>       0.00000000       3.63500000       0.00000000 </v>
     <v>       0.00000000       0.00000000       3.63500000 </v>
    </varray>
    <i name="volume">     48.03007287 </i>
    <varray name="rec_basis" >
     <v>       0.27510316       0.00000000       0.00000000 </v>
     <v>       0.00000000       0.27510316       0.00000000 </v>
     <v>       0.00000000       0.00000000       0.27510316 </v>
    </varray>
   </crystal>
   <varray name="positions" >
    <v>       0.00000000       0.00000000       0.00000000 </v>
    <v>       0.50000000       0.50000000       0.00000000 </v>
    <v>       0.50000000       0.00000000       0.50000000 </v>
    <v>       0.00000000       0.50000000       0.50000000 </v>
   </varray>
  </structure>
  <varray name="primitive_index" >
   <v type="int" >        1 </v>
   <v type="int" >        2 </v>
   <v type="int" >        3 </v>
   <v type="int" >        4 </v>
  </varray>
 </primitive_cell>
 <kpoints>
  <generation param="Monkhorst-Pack">
   <v type="int" name="divisions">       9        9        9 </v>
   <v name="usershift">      0.00000000       0.00000000       0.00000000 </v>
   <v name="genvec1">      0.11111111       0.00000000       0.00000000 </v>
   <v name="genvec2">      0.00000000       0.11111111       0.00000000 </v>
   <v name="genvec3">      0.00000000       0.00000000       0.11111111 </v>
   <v name="shift">      0.00000000       0.00000000       0.00000000 </v>
  </generation>
  <varray name="kpointlist" >
   <v>       0.00000000       0.00000000       0.00000000 </v>
   <v>       0.11111111       0.00000000       0.00000000 </v>
   <v>       0.00000000       0.11111111       0.00000000 </v>
   <v>       0.00000000       0.00000000       0.11111111 </v>
   <v>       0.22222222       0.00000000       0.00000000 </v>
   <v>       0.00000000       0.22222222       0.00000000 </v>
   <v>       0.00000000       0.00000000       0.22222222 </v>
   <v>       0.33333333       0.00000000       0.00000000 </v>
   <v>       0.00000000       0.33333333       0.00000000 </v>
   <v>       0.00000000       0.00000000       0.33333333 </v>
   <v>       0.44444444       0.00000000       0.00000000 </v>
   <v>       0.00000000       0.44444444       0.00000000 </v>
   <v>       0.00000000       0.00000000       0.44444444 </v>
   <v>       0.11111111       0.11111111       0.00000000 </v>
   <v>       0.00000000       0.11111111       0.11111111 </v>
   <v>       0.11111111       0.00000000       0.11111111 </v>
   <v>       0.22222222       0.11111111       0.00000000 </v>
   <v>       0.00000000       0.22222222       0.11111111 </v>
   <v>       0.11111111       0.00000000       0.22222222 </v>
   <v>      -0.11111111       0.22222222       0.00000000 </v>
   <v>      -0.22222222       0.00000000       0.11111111 </v>
   <v>       0.00000000       0.11111111       0.22222222 </v>
   <v>       0.33333333       0.11111111       0.00000000 </v>
   <v>       0.00000000       0.33333333       0.11111111 </v>
   <v>       0.11111111       0.00000000       0.33333333 </v>
   <v>      -0.11111111       0.33333333       0.00000000 </v>
   <v>      -0.33333333       0.00000000       0.11111111 </v>
   <v>       0.00000000       0.11111111       0.33333333 </v>
   <v>       0.44444444       0.11111111       0.00000000 </v>
   <v>       0.00000000       0.44444444       0.11111111 </v>
   <v>       0.11111111       0.00000000       0.44444444 </v>
   <v>      -0.11111111       0.44444444       0.00000000 </v>
   <v>      -0.44444444       0.00000000       0.11111111 </v>
   <v>       0.00000000       0.11111111       0.44444444 </v>
   <v>       0.22222222       0.22222222       0.00000000 </v>
   <v>       0.00000000       0.22222222       0.22222222 </v>
   <v>       0.22222222       0.00000000       0.22222222 </v>
   <v>       0.33333333       0.22222222       0.00000000 </v>
   <v>       0.00000000       0.33333333       0.22222222 </v>
   <v>       0.22222222       0.00000000       0.33333333 </v>
   <v>      -0.22222222       0.33333333       0.00000000 </v>
   <v>      -0.33333333       0.00000000       0.22222222 </v>
   <v>       0.00000000       0.22222222       0.33333333 </v>
   <v>       0.44444444       0.22222222       0.00000000 </v>
   <v>       0.00000000       0.44444444       0.22222222 </v>
   <v>       0.22222222       0.00000000       0.44444444 </v>
   <v>      -0.22222222       0.44444444       0.00000000 </v>
   <v>      -0.44444444       0.00000000       0.22222222 </v>
   <v>       0.00000000       0.22222222       0.44444444 </v>
   <v>       0.33333333       0.33333333       0.00000000 </v>
   <v>       0.00000000       0.33333333       0.33333333 </v>
   <v>       0.33333333       0.00000000       0.33333333 </v>
   <v>       0.44444444       0.33333333       0.00000000 </v>
   <v>       0.00000000       0.44444444       0.33333333 </v>
   <v>       0.33333333       0.00000000       0.44444444 </v>
   <v>      -0.33333333       0.44444444       0.00000000 </v>
   <v>      -0.44444444       0.00000000       0.33333333 </v>
   <v>       0.00000000       0.33333333       0.44444444 </v>
   <v>       0.44444444       0.44444444       0.00000000 </v>
   <v>       0.00000000       0.44444444       0.44444444 </v>
   <v>       0.44444444       0.00000000       0.44444444 </v>
   <v>       0.11111111       0.11111111       0.11111111 </v>
   <v>       0.22222222       0.11111111       0.11111111 </v>
   <v>       0.11111111       0.22222222       0.11111111 </v>
   <v>       0.11111111       0.11111111       0.22222222 </v>
   <v>       0.33333333       0.11111111       0.11111111 </v>
   <v>       0.11111111       0.33333333       0.11111111 </v>
   <v>       0.11111111       0.11111111       0.33333333 </v>
   <v>       0.44444444       0.11111111       0.11111111 </v>
   <v>       0.11111111       0.44444444       0.11111111 </v>
   <v>       0.11111111       0.11111111       0.44444444 </v>
   <v>       0.22222222       0.22222222       0.11111111 </v>
   <v>       0.11111111       0.22222222       0.22222222 </v>
   <v>       0.22222222       0.11111111       0.22222222 </v>
   <v>       0.33333333       0.22222222       0.11111111 </v>
   <v>       0.11111111       0.33333333       0.22222222 </v>
   <v>       0.22222222       0.11111111       0.33333333 </v>
   <v>      -0.22222222       0.33333333       0.11111111 </v>
   <v>      -0.33333333       0.11111111       0.22222222 </v>
   <v>      -0.11111111       0.22222222       0.33333333 </v>
   <v>       0.44444444       0.22222222       0.11111111 </v>
   <v>       0.11111111       0.44444444       0.22222222 </v>
   <v>       0.22222222       0.11111111       0.44444444 </v>
   <v>      -0.22222222       0.44444444       0.11111111 </v>
   <v>      -0.44444444       0.11111111       0.22222222 </v>
   <v>      -0.11111111       0.22222222       0.44444444 </v>
   <v>       0.33333333       0.33333333       0.11111111 </v>
   <v>       0.11111111       0.33333333       0.33333333 </v>
   <v>       0.33333333       0.11111111       0.33333333 </v>
   <v>       0.44444444       0.33333333       0.11111111 </v>
   <v>       0.11111111       0.44444444       0.33333333 </v>
   <v>       0.33333333       0.11111111       0.44444444 </v>
   <v>      -0.33333333       0.44444444       0.11111111 </v>
   <v>      -0.44444444       0.11111111       0.33333333 </v>
   <v>      -0.11111111       0.33333333       0.44444444 </v>
   <v>       0.44444444       0.44444444       0.11111111 </v>
   <v>       0.11111111       0.44444444       0.44444444 </v>
   <v>       0.44444444       0.11111111       0.44444444 </v>
   <v>       0.22222222       0.22222222       0.22222222 </v>
   <v>       0.33333333       0.22222222       0.22222222 </v>
   <v>       0.22222222       0.33333333       0.22222222 </v>
   <v>       0.22222222       0.22222222       0.33333333 </v>
   <v>       0.44444444       0.22222222       0.22222222 </v>
   <v>       0.22222222       0.44444444       0.22222222 </v>
   <v>       0.22222222       0.22222222       0.44444444 </v>
   <v>       0.33333333       0.33333333       0.22222222 </v>
   <v>       0.22222222       0.33333333       0.33333333 </v>
   <v>       0.33333333       0.22222222       0.33333333 </v>
   <v>       0.44444444       0.33333333       0.22222222 </v>
   <v>       0.22222222       0.44444444       0.33333333 </v>
   <v>       0.33333333       0.22222222       0.44444444 </v>
   <v>      -0.33333333       0.44444444       0.22222222 </v>
   <v>      -0.44444444       0.22222222       0.33333333 </v>
   <v>      -0.22222222       0.33333333       0.44444444 </v>
   <v>       0.44444444       0.44444444       0.22222222 </v>
   <v>       0.22222222       0.44444444       0.44444444 </v>
   <v>       0.44444444       0.22222222       0.44444444 </v>
   <v>       0.33333333       0.33333333       0.33333333 </v>
   <v>       0.44444444       0.33333333       0.33333333 </v>
   <v>       0.33333333       0.44444444       0.33333333 </v>
   <v>       0.33333333       0.33333333       0.44444444 </v>
   <v>       0.44444444       0.44444444       0.33333333 </v>
   <v>       0.33333333       0.44444444       0.44444444 </v>
   <v>       0.44444444       0.33333333       0.44444444 </v>
   <v>       0.44444444       0.44444444       0.44444444 </v>
  </varray>
  <varray name="weights" >
   <v>       0.00137174 </v>
   <v>       0.00274348 </v>
   <v>       0.00274348 </v>
   <v>       0.00274348 </v>
   <v>       0.00274348 </v>
   <v>       0.00274348 </v>
   <v>       0.00274348 </v>
   <v>       0.00274348 </v>
   <v>       0.00274348 </v>
   <v>       0.00274348 </v>
   <v>       0.00274348 </v>
   <v>       0.00274348 </v>
   <v>       0.00274348 </v>
   <v>       0.00548697 </v>
   <v>       0.00548697 </v>
   <v>       0.00548697 </v>
   <v>       0.00548697 </v>
   <v>       0.00548697 </v>
   <v>       0.00548697 </v>
   <v>       0.00548697 </v>
   <v>       0.00548697 </v>
   <v>       0.00548697 </v>
   <v>       0.00548697 </v>
   <v>       0.00548697 </v>
   <v>       0.00548697 </v>
   <v>       0.00548697 </v>
   <v>       0.00548697 </v>
   <v>       0.00548697 </v>
   <v>       0.00548697 </v>
   <v>       0.00548697 </v>
   <v>       0.00548697 </v>
   <v>       0.00548697 </v>
   <v>       0.00548697 </v>
   <v>       0.00548697 </v>
   <v>       0.00548697 </v>
   <v>       0.00548697 </v>
   <v>       0.00548697 </v>
   <v>       0.00548697 </v>
   <v>       0.00548697 </v>
   <v>       0.00548697 </v>
   <v>       0.00548697 </v>
   <v>       0.00548697 </v>
   <v>       0.00548697 </v>
   <v>       0.00548697 </v>
   <v>       0.00548697 </v>
   <v>       0.00548697 </v>
   <v>       0.00548697 </v>
   <v>       0.00548697 </v>
   <v>       0.00548697 </v>
   <v>       0.00548697 </v>
   <v>       0.00548697 </v>
   <v>       0.00548697 </v>
   <v>       0.00548697 </v>
   <v>       0.00548697 </v>
   <v>       0.00548697 </v>
   <v>       0.00548697 </v>
   <v>       0.00548697 </v>
   <v>       0.00548697 </v>
   <v>       0.00548697 </v>
   <v>       0.00548697 </v>
   <v>       0.00548697 </v>
   <v>       0.01097394 </v>
   <v>       0.01097394 </v>
   <v>       0.01097394 </v>
   <v>       0.01097394 </v>
   <v>       0.01097394 </v>
   <v>       0.01097394 </v>
   <v>       0.01097394 </v>
   <v>       0.01097394 </v>
   <v>       0.01097394 </v>
   <v>       0.01097394 </v>
   <v>       0.01097394 </v>
   <v>       0.01097394 </v>
   <v>       0.01097394 </v>
   <v>       0.01097394 </v>
   <v>       0.01097394 </v>
   <v>       0.01097394 </v>
   <v>       0.01097394 </v>
   <v>       0.01097394 </v>
   <v>       0.01097394 </v>
   <v>       0.01097394 </v>
   <v>       0.01097394 </v>
   <v>       0.01097394 </v>
   <v>       0.01097394 </v>
   <v>       0.01097394 </v>
   <v>       0.01097394 </v>
   <v>       0.01097394 </v>
   <v>       0.01097394 </v>
   <v>       0.01097394 </v>
   <v>       0.01097394 </v>
   <v>       0.01097394 </v>
   <v>       0.01097394 </v>
   <v>       0.01097394 </v>
   <v>       0.01097394 </v>
   <v>       0.01097394 </v>
   <v>       0.01097394 </v>
   <v>       0.01097394 </v>
   <v>       0.01097394 </v>
   <v>       0.01097394 </v>
   <v>       0.01097394 </v>
   <v>       0.01097394 </v>
   <v>       0.01097394 </v>
   <v>       0.01097394 </v>
   <v>       0.01097394 </v>
   <v>       0.01097394 </v>
   <v>       0.01097394 </v>
   <v>       0.01097394 </v>
   <v>       0.01097394 </v>
   <v>       0.01097394 </v>
   <v>       0.01097394 </v>
   <v>       0.01097394 </v>
   <v>       0.01097394 </v>
   <v>       0.01097394 </v>
   <v>       0.01097394 </v>
   <v>       0.01097394 </v>
   <v>       0.01097394 </v>
   <v>       0.01097394 </v>
   <v>       0.01097394 </v>
   <v>       0.01097394 </v>
   <v>       0.01097394 </v>
   <v>       0.01097394 </v>
   <v>       0.01097394 </v>
   <v>       0.01097394 </v>
   <v>       0.01097394 </v>
   <v>       0.01097394 </v>
  </varray>
 </kpoints>
 <parameters>
  <separator name="general" >
   <i type="string" name="SYSTEM">unknown system</i>
   <i type="logical" name="LCOMPAT"> F  </i>
  </separator>
  <separator name="electronic" >
   <i type="string" name="PREC">normal</i>
   <i name="ENMAX">    270.00000000</i>
   <i name="ENAUG">    586.98000000</i>
   <i name="EDIFF">      0.00000100</i>
   <i type="int" name="IALGO">    38</i>
   <i type="int" name="IWAVPR">     0</i>
   <i type="int" name="NBANDS">    30</i>
   <i type="int" name="NBANDSLOW">    -1</i>
   <i type="int" name="NBANDSHIGH">    -1</i>
   <i name="NELECT">     40.00000000</i>
   <i type="int" name="TURBO">     0</i>
   <i type="int" name="IRESTART">     0</i>
   <i type="int" name="NREBOOT">     0</i>
   <i type="int" name="NMIN">     0</i>
   <i name="EREF">      0.00000000</i>
   <separator name="electronic smearing" >
    <i type="int" name="ISMEAR">     1</i>
    <i name="SIGMA">      0.20000000</i>
    <i name="KSPACING">      0.50000000</i>
    <i type="logical" name="KGAMMA"> T  </i>
    <i type="logical" name="KBLOWUP"> T  </i>
   </separator>
   <separator name="electronic projectors" >
    <i type="logical" name="LREAL"> F  </i>
    <v name="ROPT">      0.00000000      0.00000000      0.00000000      0.00000000</v>
    <i type="int" name="LMAXPAW">  -100</i>
    <i type="int" name="LMAXMIX">     2</i>
    <i type="logical" name="NLSPLINE"> F  </i>
   </separator>
   <separator name="electronic startup" >
    <i type="int" name="ISTART">     0</i>
    <i type="int" name="ICHARG">     1</i>
    <i type="int" name="INIWAV">     1</i>
   </separator>
   <separator name="electronic spin" >
    <i type="int" name="ISPIN">     1</i>
    <i type="logical" name="LNONCOLLINEAR"> F  </i>
    <v name="MAGMOM">      1.00000000      1.00000000      1.00000000      1.00000000</v>
    <i name="NUPDOWN">     -1.00000000</i>
    <i type="logical" name="LSORBIT"> F  </i>
    <v name="SAXIS">      0.00000000      0.00000000      1.00000000</v>
    <i type="logical" name="LSPIRAL"> F  </i>
    <v name="QSPIRAL">      0.00000000      0.00000000      0.00000000</v>
    <i type="logical" name="LZEROZ"> F  </i>
   </separator>
   <separator name="electronic exchange-correlation" >
    <i type="logical" name="LASPH"> F  </i>
    <i type="logical" name="LMETAGGA"> F  </i>
   </separator>
   <separator name="electronic convergence" >
    <i type="int" name="NELM">    60</i>
    <i type="int" name="NELMDL">    -5</i>
    <i type="int" name="NELMIN">     2</i>
    <i name="ENINI">    270.00000000</i>
    <separator name="electronic convergence detail" >
     <i type="logical" name="LDIAG"> T  </i>
     <i type="logical" name="LSUBROT"> F  </i>
     <i name="WEIMIN">      0.00000000</i>
     <i name="EBREAK">      0.00000001</i>
     <i name="DEPER">      0.30000000</i>
     <i type="int" name="NRMM">     4</i>
     <i name="TIME">      0.40000000</i>
    </separator>
   </separator>
   <separator name="electronic mixer" >
    <i name="AMIX">      0.40000000</i>
    <i name="BMIX">      1.00000000</i>
    <i name="AMIN">      0.10000000</i>
    <i name="AMIX_MAG">      1.60000000</i>
    <i name="BMIX_MAG">      1.00000000</i>
    <separator name="electronic mixer details" >
     <i type="int" name="IMIX">     4</i>
     <i type="logical" name="MIXFIRST"> F  </i>
     <i type="int" name="MAXMIX">   -45</i>
     <i name="WC">    100.00000000</i>
     <i type="int" name="INIMIX">     1</i>
     <i type="int" name="MIXPRE">     1</i>
     <i type="int" name="MREMOVE">     5</i>
    </separator>
   </separator>
   <separator name="electronic dipolcorrection" >
    <i type="logical" name="LDIPOL"> F  </i>
    <i type="logical" name="LMONO"> F  </i>
    <i type="int" name="IDIPOL">     0</i>
    <i name="EPSILON">      1.00000000</i>
    <v name="DIPOL">   -100.00000000   -100.00000000   -100.00000000</v>
    <i name="EFIELD">      0.00000000</i>
   </separator>
  </separator>
  <separator name="grids" >
   <i type="int" name="NGX">    16</i>
   <i type="int" name="NGY">    16</i>
   <i type="int" name="NGZ">    16</i>
   <i type="int" name="NGXF">    32</i>
   <i type="int" name="NGYF">    32</i>
   <i type="int" name="NGZF">    32</i>
   <i type="logical" name="ADDGRID"> F  </i>
  </separator>
  <separator name="ionic" >
   <i type="int" name="NSW">     0</i>
   <i type="int" name="IBRION">    -1</i>
   <i type="int" name="MDALGO">     0</i>
   <i type="int" name="ISIF">     2</i>
   <i name="PSTRESS">      0.00000000</i>
   <i name="EDIFFG">      0.00001000</i>
   <i type="int" name="NFREE">     0</i>
   <i name="POTIM">      0.50000000</i>
   <i name="SMASS">     -3.00000000</i>
   <i name="SCALEE">      1.00000000</i>
  </separator>
  <separator name="ionic md" >
   <i name="TEBEG">      0.00010000</i>
   <i name="TEEND">      0.00010000</i>
   <i type="int" name="NBLOCK">     1</i>
   <i type="int" name="KBLOCK">     1</i>
   <i type="int" name="NPACO">   256</i>
   <i name="APACO">     16.00000000</i>
  </separator>
  <separator name="symmetry" >
   <i type="int" name="ISYM">     2</i>
   <i name="SYMPREC">      0.00001000</i>
  </separator>
  <separator name="dos" >
   <i type="int" name="LORBIT">     0</i>
   <v name="RWIGS">     -1.00000000     -1.00000000     -1.00000000     -1.00000000</v>
   <i type="int" name="NEDOS">   301</i>
   <i name="EMIN">     10.00000000</i>
   <i name="EMAX">    -10.00000000</i>
   <i name="EFERMI">      0.00000000</i>
  </separator>
  <separator name="writing" >
   <i type="int" name="NWRITE">     2</i>
   <i type="logical" name="LWAVE"> T  </i>
   <i type="logical" name="LDOWNSAMPLE"> F  </i>
   <i type="logical" name="LCHARG"> T  </i>
   <i type="logical" name="LPARD"> F  </i>
   <i type="logical" name="LVTOT"> F  </i>
   <i type="logical" name="LVHAR"> F  </i>
   <i type="logical" name="LELF"> F  </i>
   <i type="logical" name="LOPTICS"> F  </i>
   <v name="STM">      0.00000000      0.00000000      0.00000000      0.00000000      0.00000000      0.00000000      0.00000000</v>
  </separator>
  <separator name="performance" >
   <i type="int" name="NPAR">     1</i>
   <i type="int" name="NSIM">     4</i>
   <i type="int" name="NBLK">    -1</i>
   <i type="logical" name="LPLANE"> T  </i>
   <i type="logical" name="LSCALAPACK"> F  </i>
   <i type="logical" name="LSCAAWARE"> F  </i>
   <i type="logical" name="LSCALU"> F  </i>
   <i type="logical" name="LASYNC"> F  </i>
   <i type="logical" name="LORBITALREAL"> F  </i>
  </separator>
  <separator name="miscellaneous" >
   <i type="int" name="IDIOT">     3</i>
   <i type="int" name="PHON_NSTRUCT">    -1</i>
   <i type="logical" name="LMUSIC"> F  </i>
   <v name="POMASS">    106.42000000    192.22000000    195.08000000     63.54600000</v>
   <v name="DARWINR">      0.00000000      0.00000000      0.00000000      0.00000000</v>
   <v name="DARWINV">      1.00000000      1.00000000      1.00000000      1.00000000</v>
   <i type="logical" name="LCORR"> T  </i>
  </separator>
  <i type="logical" name="GGA_COMPAT"> T  </i>
  <i type="logical" name="LBERRY"> F  </i>
  <i type="int" name="ICORELEVEL">     0</i>
  <i type="logical" name="LDAU"> F  </i>
  <i type="int" name="I_CONSTRAINED_M">     0</i>
  <separator name="electronic exchange-correlation" >
   <i type="string" name="GGA">PE</i>
   <i type="int" name="VOSKOWN">     0</i>
   <i type="logical" name="LHFCALC"> F  </i>
   <i type="string" name="PRECFOCK"></i>
   <i type="logical" name="LSYMGRAD"> F  </i>
   <i type="logical" name="LHFONE"> F  </i>
   <i type="logical" name="LRHFCALC"> F  </i>
   <i type="logical" name="LTHOMAS"> F  </i>
   <i type="logical" name="LMODELHF"> F  </i>
   <i type="logical" name="LFOCKACE"> F  </i>
   <i name="ENCUT4O">     -1.00000000</i>
   <i type="int" name="EXXOEP">     0</i>
   <i type="int" name="FOURORBIT">     0</i>
   <i name="AEXX">      0.00000000</i>
   <i name="HFALPHA">      0.00000000</i>
   <i name="MCALPHA">      0.00000000</i>
   <i name="ALDAX">      1.00000000</i>
   <i name="AGGAX">      1.00000000</i>
   <i name="ALDAC">      1.00000000</i>
   <i name="AGGAC">      1.00000000</i>
   <i type="int" name="NKREDX">     1</i>
   <i type="int" name="NKREDY">     1</i>
   <i type="int" name="NKREDZ">     1</i>
   <i type="logical" name="SHIFTRED"> F  </i>
   <i type="logical" name="ODDONLY"> F  </i>
   <i type="logical" name="EVENONLY"> F  </i>
   <i type="int" name="LMAXFOCK">     0</i>
   <i type="int" name="NMAXFOCKAE">     0</i>
   <i type="logical" name="LFOCKAEDFT"> F  </i>
   <i name="HFSCREEN">      0.00000000</i>
   <i name="HFSCREENC">      0.00000000</i>
   <i type="int" name="NBANDSGWLOW">     0</i>
  </separator>
  <separator name="vdW DFT" >
   <i type="logical" name="LUSE_VDW"> F  </i>
   <i name="Zab_VDW">     -0.84910000</i>
   <i name="PARAM1">      0.12340000</i>
   <i name="PARAM2">      1.00000000</i>
   <i name="PARAM3">      0.00000000</i>
  </separator>
  <separator name="model GW" >
   <i type="int" name="MODEL_GW">     0</i>
   <i name="MODEL_EPS0">      7.20451093</i>
   <i name="MODEL_ALPHA">      1.00000000</i>
  </separator>
  <separator name="linear response parameters" >
   <i type="logical" name="LEPSILON"> F  </i>
   <i type="logical" name="LRPA"> F  </i>
   <i type="logical" name="LNABLA"> F  </i>
   <i type="logical" name="LVEL"> F  </i>
   <i type="int" name="KINTER">     0</i>
   <i name="CSHIFT">      0.10000000</i>
   <i name="OMEGAMAX">     -1.00000000</i>
   <i name="DEG_THRESHOLD">      0.00200000</i>
   <i name="RTIME">     -0.10000000</i>
   <i name="WPLASMAI">      0.00000000</i>
   <v name="DFIELD">      0.00000000      0.00000000      0.00000000</v>
   <v name="WPLASMA">      0.00000000      0.00000000      0.00000000      0.00000000      0.00000000      0.00000000      0.00000000      0.00000000      0.00000000</v>
  </separator>
  <separator name="orbital magnetization" >
   <i type="logical" name="NUCIND"> F  </i>
   <v name="MAGPOS">      0.00000000      0.00000000      0.00000000</v>
   <i type="logical" name="LNICSALL"> T  </i>
   <i type="logical" name="ORBITALMAG"> F  </i>
   <i type="logical" name="LMAGBLOCH"> F  </i>
   <i type="logical" name="LCHIMAG"> F  </i>
   <i type="logical" name="LGAUGE"> T  </i>
   <i type="int" name="MAGATOM">     0</i>
   <v name="MAGDIPOL">      0.00000000      0.00000000      0.00000000</v>
   <v name="AVECCONST">      0.00000000      0.00000000      0.00000000</v>
  </separator>
  <separator name="response functions" >
   <i type="logical" name="LFINITE_TEMPERATURE"> F  </i>
   <i type="logical" name="LADDER"> F  </i>
   <i type="logical" name="LRPAFORCE"> F  </i>
   <i type="logical" name="LFXC"> F  </i>
   <i type="logical" name="LHARTREE"> T  </i>
   <i type="int" name="IBSE">     0</i>
   <v type="int" name="KPOINT">    -1     0     0     0</v>
   <i type="logical" name="LTCTC"> F  </i>
   <i type="logical" name="LTCTE"> F  </i>
   <i type="logical" name="LTETE"> F  </i>
   <i type="logical" name="LTRIPLET"> F  </i>
   <i type="logical" name="LFXCEPS"> F  </i>
   <i type="logical" name="LFXHEG"> F  </i>
   <i type="int" name="NATURALO">     2</i>
   <i type="logical" name="LHOLEGF"> F  </i>
   <i type="logical" name="L2ORDER"> F  </i>
   <i type="logical" name="LDMP1"> F  </i>
   <i type="logical" name="LMP2LT"> F  </i>
   <i type="logical" name="LSMP2LT"> F  </i>
   <i type="logical" name="LGWLF"> F  </i>
   <i name="ENCUTGW">     -2.00000000</i>
   <i name="ENCUTGWSOFT">     -2.00000000</i>
   <i name="ENCUTLF">     -1.00000000</i>
   <i type="logical" name="LESF_SPLINES"> F  </i>
   <i type="int" name="LMAXMP2">    -1</i>
   <i name="SCISSOR">      0.00000000</i>
   <i type="int" name="NOMEGA">     0</i>
   <i type="int" name="NOMEGAR">     0</i>
   <i type="int" name="NBANDSGW">    -1</i>
   <i type="int" name="NBANDSO">    -1</i>
   <i type="int" name="NBANDSV">    -1</i>
   <i type="int" name="NELM">     1</i>
   <i type="int" name="NELMHF">     1</i>
   <i type="int" name="DIM">     3</i>
   <i type="int" name="IESPILON">     4</i>
   <i type="int" name="ANTIRES">     0</i>
   <i name="OMEGAMAX">    -30.00000000</i>
   <i name="OMEGAMIN">    -30.00000000</i>
   <i name="OMEGATL">   -200.00000000</i>
   <i type="int" name="OMEGAGRID">     0</i>
   <i name="CSHIFT">     -0.10000000</i>
   <i type="logical" name="LSELFENERGY"> F  </i>
   <i type="logical" name="LSPECTRAL"> F  </i>
   <i type="logical" name="LSPECTRALGW"> F  </i>
   <i type="logical" name="LSINGLES"> F  </i>
   <i type="logical" name="LFERMIGW"> F  </i>
   <i type="logical" name="ODDONLYGW"> F  </i>
   <i type="logical" name="EVENONLYGW"> F  </i>
   <i type="int" name="NKREDLFX">     1</i>
   <i type="int" name="NKREDLFY">     1</i>
   <i type="int" name="NKREDLFZ">     1</i>
   <i type="int" name="MAXMEM">  2800</i>
   <i type="int" name="TELESCOPE">     0</i>
   <i type="int" name="NTAUPAR">    -1</i>
   <i type="int" name="NOMEGAPAR">    -1</i>
   <i name="DAMP_NEWTON">      0.80000001</i>
   <i name="LAMBDA">      1.00000000</i>
  </separator>
  <separator name="External order field" >
   <i name="OFIELD_KAPPA">      0.00000000</i>
   <v name="OFIELD_K">      0.00000000      0.00000000      0.00000000</v>
   <i name="OFIELD_Q6_NEAR">      0.00000000</i>
   <i name="OFIELD_Q6_FAR">      0.00000000</i>
   <i name="OFIELD_A">      0.00000000</i>
  </separator>
 </parameters>
 <atominfo>
  <atoms>       4 </atoms>
  <types>       4 </types>
  <array name="atoms" >
   <dimension dim="1">ion</dimension>
   <field type="string">element</field>
   <field type="int">atomtype</field>
   <set>
    <rc><c>Pd</c><c>   1</c></rc>
    <rc><c>Ir</c><c>   2</c></rc>
    <rc><c>Pt</c><c>   3</c></rc>
    <rc><c>Cu</c><c>   4</c></rc>
   </set>
  </array>
  <array name="atomtypes" >
   <dimension dim="1">type</dimension>
   <field type="int">atomspertype</field>
   <field type="string">element</field>
   <field>mass</field>
   <field>valence</field>
   <field type="string">pseudopotential</field>
   <set>
    <rc><c>   1</c><c>Pd</c><c>    106.42000000</c><c>     10.00000000</c><c>  PAW_PBE Pd 04Jan2005                  </c></rc>
    <rc><c>   1</c><c>Ir</c><c>    192.22000000</c><c>      9.00000000</c><c>  PAW_PBE Ir 06Sep2000                  </c></rc>
    <rc><c>   1</c><c>Pt</c><c>    195.08000000</c><c>     10.00000000</c><c>  PAW_PBE Pt 04Feb2005                  </c></rc>
    <rc><c>   1</c><c>Cu</c><c>     63.54600000</c><c>     11.00000000</c><c>  PAW_PBE Cu 22Jun2005                  </c></rc>
   </set>
  </array>
 </atominfo>
 <structure name="initialpos" >
  <crystal>
   <varray name="basis" >
    <v>       3.63500000       0.00000000       0.00000000 </v>
    <v>       0.00000000       3.63500000       0.00000000 </v>
    <v>       0.00000000       0.00000000       3.63500000 </v>
   </varray>
   <i name="volume">     48.03007287 </i>
   <varray name="rec_basis" >
    <v>       0.27510316       0.00000000       0.00000000 </v>
    <v>       0.00000000       0.27510316       0.00000000 </v>
    <v>       0.00000000       0.00000000       0.27510316 </v>
   </varray>
  </crystal>
  <varray name="positions" >
   <v>       0.00000000       0.00000000       0.00000000 </v>
   <v>       0.50000000       0.50000000       0.00000000 </v>
   <v>       0.50000000       0.00000000       0.50000000 </v>
   <v>       0.00000000       0.50000000       0.50000000 </v>
  </varray>
 </structure>
 <calculation>
  <scstep>
   <time name="dav">    1.45    1.47</time>
   <time name="total">    1.47    1.49</time>
   <energy>
    <i name="alphaZ">    294.32394985 </i>
    <i name="ewald">  -3641.45145672 </i>
    <i name="hartreedc">   -571.19890525 </i>
    <i name="XCdc">      6.42737968 </i>
    <i name="pawpsdc">   3282.45812088 </i>
    <i name="pawaedc">  -3257.47686163 </i>
    <i name="eentropy">     -0.00381535 </i>
    <i name="bandstr">    628.44771834 </i>
    <i name="atom">   3489.78669473 </i>
    <i name="e_fr_energy">    231.31282451 </i>
    <i name="e_wo_entrp">    231.31663986 </i>
    <i name="e_0_energy">    231.31409630 </i>
   </energy>
  </scstep>
  <scstep>
   <time name="dav">    1.42    1.42</time>
   <time name="total">    1.43    1.43</time>
   <energy>
    <i name="e_fr_energy">    -12.48562059 </i>
    <i name="e_wo_entrp">    -12.48500381 </i>
    <i name="e_0_energy">    -12.48541500 </i>
   </energy>
  </scstep>
  <scstep>
   <time name="dav">    1.48    1.48</time>
   <time name="total">    1.49    1.49</time>
   <energy>
    <i name="e_fr_energy">    -23.97082076 </i>
    <i name="e_wo_entrp">    -23.96264979 </i>
    <i name="e_0_energy">    -23.96809711 </i>
   </energy>
  </scstep>
  <scstep>
   <time name="dav">    1.57    1.57</time>
   <time name="total">    1.58    1.58</time>
   <energy>
    <i name="e_fr_energy">    -24.24620795 </i>
    <i name="e_wo_entrp">    -24.23836827 </i>
    <i name="e_0_energy">    -24.24359472 </i>
   </energy>
  </scstep>
  <scstep>
   <time name="dav">    1.78    1.78</time>
   <time name="total">    1.90    1.90</time>
   <energy>
    <i name="e_fr_energy">    -24.25869158 </i>
    <i name="e_wo_entrp">    -24.25085881 </i>
    <i name="e_0_energy">    -24.25608065 </i>
   </energy>
  </scstep>
  <scstep>
   <time name="dav">    1.51    1.51</time>
   <time name="total">    1.63    1.63</time>
   <energy>
    <i name="e_fr_energy">    -25.30740194 </i>
    <i name="e_wo_entrp">    -25.30572672 </i>
    <i name="e_0_energy">    -25.30684353 </i>
   </energy>
  </scstep>
  <scstep>
   <time name="dav">    1.60    1.60</time>
   <time name="total">    1.72    1.72</time>
   <energy>
    <i name="e_fr_energy">    -21.94716032 </i>
    <i name="e_wo_entrp">    -21.94628908 </i>
    <i name="e_0_energy">    -21.94686990 </i>
   </energy>
  </scstep>
  <scstep>
   <time name="dav">    1.72    1.72</time>
   <time name="total">    1.84    1.84</time>
   <energy>
    <i name="e_fr_energy">    -21.97434340 </i>
    <i name="e_wo_entrp">    -21.96879080 </i>
    <i name="e_0_energy">    -21.97249254 </i>
   </energy>
  </scstep>
  <scstep>
   <time name="dav">    1.62    1.62</time>
   <time name="total">    1.74    1.74</time>
   <energy>
    <i name="e_fr_energy">    -21.89939662 </i>
    <i name="e_wo_entrp">    -21.90419175 </i>
    <i name="e_0_energy">    -21.90099500 </i>
   </energy>
  </scstep>
  <scstep>
   <time name="dav">    1.87    1.87</time>
   <time name="total">    1.99    1.99</time>
   <energy>
    <i name="e_fr_energy">    -21.89586604 </i>
    <i name="e_wo_entrp">    -21.90093720 </i>
    <i name="e_0_energy">    -21.89755643 </i>
   </energy>
  </scstep>
  <scstep>
   <time name="dav">    1.85    1.85</time>
   <time name="total">    1.97    1.97</time>
   <energy>
    <i name="e_fr_energy">    -21.88746029 </i>
    <i name="e_wo_entrp">    -21.89163200 </i>
    <i name="e_0_energy">    -21.88885086 </i>
   </energy>
  </scstep>
  <scstep>
   <time name="dav">    1.95    1.95</time>
   <time name="total">    2.08    2.08</time>
   <energy>
    <i name="e_fr_energy">    -21.88667996 </i>
    <i name="e_wo_entrp">    -21.89018985 </i>
    <i name="e_0_energy">    -21.88784992 </i>
   </energy>
  </scstep>
  <scstep>
   <time name="dav">    1.94    1.94</time>
   <time name="total">    2.07    2.07</time>
   <energy>
    <i name="e_fr_energy">    -21.88661854 </i>
    <i name="e_wo_entrp">    -21.89032924 </i>
    <i name="e_0_energy">    -21.88785544 </i>
   </energy>
  </scstep>
  <scstep>
   <time name="dav">    1.83    1.83</time>
   <time name="total">    1.95    1.95</time>
   <energy>
    <i name="e_fr_energy">    -21.88662155 </i>
    <i name="e_wo_entrp">    -21.89025876 </i>
    <i name="e_0_energy">    -21.88783396 </i>
   </energy>
  </scstep>
  <scstep>
   <time name="dav">    1.48    1.48</time>
   <time name="total">    1.59    1.59</time>
   <energy>
    <i name="e_fr_energy">    -21.88661338 </i>
    <i name="e_wo_entrp">    -21.89030751 </i>
    <i name="e_0_energy">    -21.88784476 </i>
   </energy>
  </scstep>
  <scstep>
   <time name="dav">    1.06    1.06</time>
   <time name="total">    1.08    1.08</time>
   <energy>
    <i name="alphaZ">    294.32394985 </i>
    <i name="ewald">  -3641.45145672 </i>
    <i name="hartreedc">   -517.59179652 </i>
    <i name="XCdc">      4.59531103 </i>
    <i name="pawpsdc">   4531.80615995 </i>
    <i name="pawaedc">  -4523.05165499 </i>
    <i name="eentropy">      0.00370156 </i>
    <i name="bandstr">    339.69247808 </i>
    <i name="atom">   3489.78669473 </i>
    <i name="e_fr_energy">    -21.88661303 </i>
    <i name="e_wo_entrp">    -21.89031459 </i>
    <i name="e_0_energy">    -21.88784688 </i>
   </energy>
  </scstep>
  <structure>
   <crystal>
    <varray name="basis" >
     <v>       3.63500000       0.00000000       0.00000000 </v>
     <v>       0.00000000       3.63500000       0.00000000 </v>
     <v>       0.00000000       0.00000000       3.63500000 </v>
    </varray>
    <i name="volume">     48.03007287 </i>
    <varray name="rec_basis" >
     <v>       0.27510316       0.00000000       0.00000000 </v>
     <v>       0.00000000       0.27510316       0.00000000 </v>
     <v>       0.00000000       0.00000000       0.27510316 </v>
    </varray>
   </crystal>
   <varray name="positions" >
    <v>       0.00000000       0.00000000       0.00000000 </v>
    <v>       0.50000000       0.50000000       0.00000000 </v>
    <v>       0.50000000       0.00000000       0.50000000 </v>
    <v>       0.00000000       0.50000000       0.50000000 </v>
   </varray>
  </structure>
  <varray name="forces" >
   <v>      -0.00000000       0.00000000       0.00000000 </v>
   <v>       0.00000000       0.00000000       0.00000000 </v>
   <v>       0.00000000       0.00000000       0.00000000 </v>
   <v>       0.00000000      -0.00000000      -0.00000000 </v>
  </varray>
  <varray name="stress" >
   <v>     596.40145774      -0.00000000       0.00000000 </v>
   <v>       0.00000000     620.25144144       0.00000000 </v>
   <v>       0.00000000       0.00000000     594.81214077 </v>
  </varray>
  <energy>
   <i name="e_fr_energy">    -21.88661303 </i>
   <i name="e_wo_entrp">    -21.89031459 </i>
   <i name="e_0_energy">    -21.88784688 </i>
  </energy>
  <time name="totalsc">   28.78   28.80</time>
  <eigenvalues>
   <array>
    <dimension dim="1">band</dimension>
    <dimension dim="2">kpoint</dimension>
    <dimension dim="3">spin</dimension>
    <field>eigene</field>
    <field>occ</field>
    <set>
     <set comment="spin 1">
      <set comment="kpoint 1">
       <r>    1.5552    1.0000 </r>
       <r>    3.7710    1.0000 </r>
       <r>    4.9999    1.0000 </r>
       <r>    5.0519    1.0000 </r>
       <r>    5.1076    1.0000 </r>
       <r>    5.2504    1.0000 </r>
       <r>    5.2785    1.0000 </r>
       <r>    8.5097    1.0000 </r>
       <r>    8.5249    1.0000 </r>
       <r>    8.6853    1.0000 </r>
       <r>   10.1839    1.0000 </r>
       <r>   10.3579    1.0000 </r>
       <r>   11.2609    1.0000 </r>
       <r>   11.4842    1.0000 </r>
       <r>   11.6717    1.0000 </r>
       <r>   12.5699    0.1798 </r>
       <r>   12.8083   -0.0227 </r>
       <r>   12.9943   -0.0010 </r>
       <r>   13.3468   -0.0000 </r>
       <r>   13.9889   -0.0000 </r>
       <r>   14.4994   -0.0000 </r>
       <r>   14.5069   -0.0000 </r>
       <r>   14.5381   -0.0000 </r>
       <r>   14.7752   -0.0000 </r>
       <r>   23.2946    0.0000 </r>
       <r>   23.4859    0.0000 </r>
       <r>   24.1308    0.0000 </r>
       <r>   24.4403    0.0000 </r>
       <r>   24.7242    0.0000 </r>
       <r>   25.2604    0.0000 </r>
      </set>
      <set comment="kpoint 2">
       <r>    1.7304    1.0000 </r>
       <r>    3.8979    1.0000 </r>
       <r>    5.0874    1.0000 </r>
       <r>    5.1155    1.0000 </r>
       <r>    5.2233    1.0000 </r>
       <r>    5.3613    1.0000 </r>
       <r>    5.4073    1.0000 </r>
       <r>    8.4191    1.0000 </r>
       <r>    8.5733    1.0000 </r>
       <r>    8.7515    1.0000 </r>
       <r>   10.1881    1.0000 </r>
       <r>   10.2744    1.0000 </r>
       <r>   11.2074    1.0000 </r>
       <r>   11.2547    1.0000 </r>
       <r>   11.3032    1.0000 </r>
       <r>   11.7428    1.0000 </r>
       <r>   12.6854   -0.0244 </r>
       <r>   12.7217   -0.0350 </r>
       <r>   13.1847   -0.0000 </r>
       <r>   13.2234   -0.0000 </r>
       <r>   13.8457   -0.0000 </r>
       <r>   14.7743   -0.0000 </r>
       <r>   15.5726   -0.0000 </r>
       <r>   15.6270   -0.0000 </r>
       <r>   23.1901    0.0000 </r>
       <r>   23.2907    0.0000 </r>
       <r>   24.4013    0.0000 </r>
       <r>   24.6070    0.0000 </r>
       <r>   24.8313    0.0000 </r>
       <r>   26.0872    0.0000 </r>
      </set>
      <set comment="kpoint 3">
       <r>    1.7496    1.0000 </r>
       <r>    3.9079    1.0000 </r>
       <r>    5.0704    1.0000 </r>
       <r>    5.1704    1.0000 </r>
       <r>    5.1759    1.0000 </r>
       <r>    5.3616    1.0000 </r>
       <r>    5.4132    1.0000 </r>
       <r>    8.5815    1.0000 </r>
       <r>    8.5911    1.0000 </r>
       <r>    8.5935    1.0000 </r>
       <r>   10.1108    1.0000 </r>
       <r>   10.3775    1.0000 </r>
       <r>   10.9585    1.0000 </r>
       <r>   11.2774    1.0000 </r>
       <r>   11.4410    1.0000 </r>
       <r>   12.4988    0.4490 </r>
       <r>   12.5475    0.2554 </r>
       <r>   12.9860   -0.0012 </r>
       <r>   13.0285   -0.0004 </r>
       <r>   13.1231   -0.0000 </r>
       <r>   13.4227   -0.0000 </r>
       <r>   13.8902   -0.0000 </r>
       <r>   15.7372   -0.0000 </r>
       <r>   16.0157   -0.0000 </r>
       <r>   22.8094    0.0000 </r>
       <r>   23.7704    0.0000 </r>
       <r>   24.3572    0.0000 </r>
       <r>   24.6031    0.0000 </r>
       <r>   25.0536    0.0000 </r>
       <r>   25.7245    0.0000 </r>
      </set>
      <set comment="kpoint 4">
       <r>    1.7511    1.0000 </r>
       <r>    3.9121    1.0000 </r>
       <r>    5.1411    1.0000 </r>
       <r>    5.1782    1.0000 </r>
       <r>    5.2260    1.0000 </r>
       <r>    5.3232    1.0000 </r>
       <r>    5.3320    1.0000 </r>
       <r>    8.3992    1.0000 </r>
       <r>    8.5857    1.0000 </r>
       <r>    8.7517    1.0000 </r>
       <r>   10.1336    1.0000 </r>
       <r>   10.3427    1.0000 </r>
       <r>   10.9368    1.0000 </r>
       <r>   11.3563    1.0000 </r>
       <r>   11.6589    1.0000 </r>
       <r>   11.8775    1.0001 </r>
       <r>   12.4619    0.6040 </r>
       <r>   12.6703   -0.0144 </r>
       <r>   13.0806   -0.0001 </r>
       <r>   13.4724   -0.0000 </r>
       <r>   13.9054   -0.0000 </r>
       <r>   13.9807   -0.0000 </r>
       <r>   15.6251   -0.0000 </r>
       <r>   15.9653   -0.0000 </r>
       <r>   22.5436    0.0000 </r>
       <r>   23.8616    0.0000 </r>
       <r>   24.3737    0.0000 </r>
       <r>   24.8531    0.0000 </r>
       <r>   25.0640    0.0000 </r>
       <r>   25.6954    0.0000 </r>
      </set>
      <set comment="kpoint 5">
       <r>    2.2283    1.0000 </r>
       <r>    4.2536    1.0000 </r>
       <r>    5.2878    1.0000 </r>
       <r>    5.3007    1.0000 </r>
       <r>    5.5668    1.0000 </r>
       <r>    5.6903    1.0000 </r>
       <r>    5.8004    1.0000 </r>
       <r>    8.1381    1.0000 </r>
       <r>    8.7498    1.0000 </r>
       <r>    8.9510    1.0000 </r>
       <r>    9.9758    1.0000 </r>
       <r>   10.2291    1.0000 </r>
       <r>   10.2644    1.0000 </r>
       <r>   10.3963    1.0000 </r>
       <r>   10.8077    1.0000 </r>
       <r>   11.2420    1.0000 </r>
       <r>   12.0577    1.0049 </r>
       <r>   12.1412    1.0174 </r>
       <r>   12.4092    0.8025 </r>
       <r>   12.6189    0.0545 </r>
       <r>   12.9939   -0.0010 </r>
       <r>   14.7729   -0.0000 </r>
       <r>   17.2064   -0.0000 </r>
       <r>   17.2465   -0.0000 </r>
       <r>   22.2596    0.0000 </r>
       <r>   23.2258    0.0000 </r>
       <r>   24.6168    0.0000 </r>
       <r>   24.6292    0.0000 </r>
       <r>   25.3739    0.0000 </r>
       <r>   25.9170    0.0000 </r>
      </set>
      <set comment="kpoint 6">
       <r>    2.3116    1.0000 </r>
       <r>    4.2869    1.0000 </r>
       <r>    5.2183    1.0000 </r>
       <r>    5.3476    1.0000 </r>
       <r>    5.5438    1.0000 </r>
       <r>    5.6896    1.0000 </r>
       <r>    5.8291    1.0000 </r>
       <r>    8.3407    1.0000 </r>
       <r>    8.8012    1.0000 </r>
       <r>    8.8068    1.0000 </r>
       <r>    9.9023    1.0000 </r>
       <r>   10.1989    1.0000 </r>
       <r>   10.3415    1.0000 </r>
       <r>   10.4357    1.0000 </r>
       <r>   11.2709    1.0000 </r>
       <r>   11.6120    1.0000 </r>
       <r>   12.0812    1.0073 </r>
       <r>   12.2968    1.0191 </r>
       <r>   12.4942    0.4686 </r>
       <r>   12.5087    0.4078 </r>
       <r>   12.6675   -0.0120 </r>
       <r>   12.9709   -0.0016 </r>
       <r>   17.3721   -0.0000 </r>
       <r>   17.4946   -0.0000 </r>
       <r>   21.9781    0.0000 </r>
       <r>   23.9592    0.0000 </r>
       <r>   24.4845    0.0000 </r>
       <r>   24.5330    0.0000 </r>
       <r>   25.3965    0.0000 </r>
       <r>   25.8644    0.0000 </r>
      </set>
      <set comment="kpoint 7">
       <r>    2.3185    1.0000 </r>
       <r>    4.3054    1.0000 </r>
       <r>    5.4417    1.0000 </r>
       <r>    5.5364    1.0000 </r>
       <r>    5.5554    1.0000 </r>
       <r>    5.5579    1.0000 </r>
       <r>    5.5782    1.0000 </r>
       <r>    8.0977    1.0000 </r>
       <r>    8.7583    1.0000 </r>
       <r>    8.9528    1.0000 </r>
       <r>    9.9179    1.0000 </r>
       <r>   10.1561    1.0000 </r>
       <r>   10.3750    1.0000 </r>
       <r>   10.4845    1.0000 </r>
       <r>   10.9308    1.0000 </r>
       <r>   11.6319    1.0000 </r>
       <r>   11.9165    1.0002 </r>
       <r>   12.0549    1.0046 </r>
       <r>   12.3590    0.9366 </r>
       <r>   12.4167    0.7772 </r>
       <r>   12.8624   -0.0116 </r>
       <r>   13.9637   -0.0000 </r>
       <r>   17.3551   -0.0000 </r>
       <r>   17.4347   -0.0000 </r>
       <r>   21.5652    0.0000 </r>
       <r>   24.2173    0.0000 </r>
       <r>   24.5914    0.0000 </r>
       <r>   24.6249    0.0000 </r>
       <r>   25.6491    0.0000 </r>
       <r>   25.6854    0.0000 </r>
      </set>
      <set comment="kpoint 8">
       <r>    2.9408    1.0000 </r>
       <r>    4.7496    1.0000 </r>
       <r>    5.4801    1.0000 </r>
       <r>    5.5638    1.0000 </r>
       <r>    6.1261    1.0000 </r>
       <r>    6.2196    1.0000 </r>
       <r>    6.3710    1.0000 </r>
       <r>    7.7680    1.0000 </r>
       <r>    8.7662    1.0000 </r>
       <r>    9.1195    1.0000 </r>
       <r>    9.2672    1.0000 </r>
       <r>    9.4548    1.0000 </r>
       <r>    9.5904    1.0000 </r>
       <r>   10.1780    1.0000 </r>
       <r>   10.3205    1.0000 </r>
       <r>   10.6127    1.0000 </r>
       <r>   11.2310    1.0000 </r>
       <r>   11.4894    1.0000 </r>
       <r>   11.6240    1.0000 </r>
       <r>   11.9692    1.0008 </r>
       <r>   12.7936   -0.0261 </r>
       <r>   14.7716   -0.0000 </r>
       <r>   18.8948    0.0000 </r>
       <r>   19.0071    0.0000 </r>
       <r>   21.5836    0.0000 </r>
       <r>   23.1871    0.0000 </r>
       <r>   23.7510    0.0000 </r>
       <r>   23.8931    0.0000 </r>
       <r>   24.2705    0.0000 </r>
       <r>   26.8529    0.0000 </r>
      </set>
      <set comment="kpoint 9">
       <r>    3.1635    1.0000 </r>
       <r>    4.7847    1.0000 </r>
       <r>    5.3193    1.0000 </r>
       <r>    5.5926    1.0000 </r>
       <r>    6.1176    1.0000 </r>
       <r>    6.2024    1.0000 </r>
       <r>    6.4533    1.0000 </r>
       <r>    8.0126    1.0000 </r>
       <r>    9.1466    1.0000 </r>
       <r>    9.1668    1.0000 </r>
       <r>    9.2531    1.0000 </r>
       <r>    9.3121    1.0000 </r>
       <r>    9.6060    1.0000 </r>
       <r>   10.2366    1.0000 </r>
       <r>   10.4515    1.0000 </r>
       <r>   11.1586    1.0000 </r>
       <r>   11.2198    1.0000 </r>
       <r>   11.2871    1.0000 </r>
       <r>   11.5339    1.0000 </r>
       <r>   11.8335    1.0000 </r>
       <r>   12.4365    0.7053 </r>
       <r>   12.9592   -0.0021 </r>
       <r>   19.0660    0.0000 </r>
       <r>   19.1054    0.0000 </r>
       <r>   21.3820    0.0000 </r>
       <r>   23.5941    0.0000 </r>
       <r>   23.7496    0.0000 </r>
       <r>   23.8381    0.0000 </r>
       <r>   25.4358    0.0000 </r>
       <r>   25.6439    0.0000 </r>
      </set>
      <set comment="kpoint 10">
       <r>    3.1844    1.0000 </r>
       <r>    4.8156    1.0000 </r>
       <r>    5.5518    1.0000 </r>
       <r>    5.8590    1.0000 </r>
       <r>    6.1048    1.0000 </r>
       <r>    6.1538    1.0000 </r>
       <r>    6.1611    1.0000 </r>
       <r>    7.6756    1.0000 </r>
       <r>    8.7788    1.0000 </r>
       <r>    9.1281    1.0000 </r>
       <r>    9.3258    1.0000 </r>
       <r>    9.4667    1.0000 </r>
       <r>    9.5644    1.0000 </r>
       <r>   10.2546    1.0000 </r>
       <r>   10.4279    1.0000 </r>
       <r>   10.6338    1.0000 </r>
       <r>   11.2572    1.0000 </r>
       <r>   11.4646    1.0000 </r>
       <r>   11.6055    1.0000 </r>
       <r>   11.8273    1.0000 </r>
       <r>   12.3041    1.0136 </r>
       <r>   13.9466   -0.0000 </r>
       <r>   19.0117    0.0000 </r>
       <r>   19.1746    0.0000 </r>
       <r>   20.8948    0.0000 </r>
       <r>   23.6067    0.0000 </r>
       <r>   23.9899    0.0000 </r>
       <r>   24.2293    0.0000 </r>
       <r>   24.9772    0.0000 </r>
       <r>   26.0797    0.0000 </r>
      </set>
      <set comment="kpoint 11">
       <r>    3.5724    1.0000 </r>
       <r>    5.1964    1.0000 </r>
       <r>    5.5101    1.0000 </r>
       <r>    5.7928    1.0000 </r>
       <r>    6.8403    1.0000 </r>
       <r>    6.8541    1.0000 </r>
       <r>    6.8714    1.0000 </r>
       <r>    7.4710    1.0000 </r>
       <r>    8.0154    1.0000 </r>
       <r>    8.0402    1.0000 </r>
       <r>    9.2524    1.0000 </r>
       <r>    9.4740    1.0000 </r>
       <r>    9.5941    1.0000 </r>
       <r>    9.6047    1.0000 </r>
       <r>    9.8531    1.0000 </r>
       <r>   10.3845    1.0000 </r>
       <r>   10.9574    1.0000 </r>
       <r>   11.0198    1.0000 </r>
       <r>   11.2234    1.0000 </r>
       <r>   11.4281    1.0000 </r>
       <r>   12.7175   -0.0346 </r>
       <r>   14.7711   -0.0000 </r>
       <r>   20.5077    0.0000 </r>
       <r>   20.6414    0.0000 </r>
       <r>   21.2450    0.0000 </r>
       <r>   22.4921    0.0000 </r>
       <r>   22.7076    0.0000 </r>
       <r>   23.2182    0.0000 </r>
       <r>   23.6311    0.0000 </r>
       <r>   27.1777    0.0000 </r>
      </set>
      <set comment="kpoint 12">
       <r>    4.0963    1.0000 </r>
       <r>    4.9568    1.0000 </r>
       <r>    5.3573    1.0000 </r>
       <r>    5.7950    1.0000 </r>
       <r>    6.7579    1.0000 </r>
       <r>    6.7723    1.0000 </r>
       <r>    7.0228    1.0000 </r>
       <r>    7.7532    1.0000 </r>
       <r>    8.3901    1.0000 </r>
       <r>    8.4149    1.0000 </r>
       <r>    9.1512    1.0000 </r>
       <r>    9.5208    1.0000 </r>
       <r>    9.6664    1.0000 </r>
       <r>    9.6682    1.0000 </r>
       <r>   10.2325    1.0000 </r>
       <r>   10.4497    1.0000 </r>
       <r>   10.4671    1.0000 </r>
       <r>   10.8009    1.0000 </r>
       <r>   11.0973    1.0000 </r>
       <r>   11.4034    1.0000 </r>
       <r>   12.4020    0.8254 </r>
       <r>   12.9535   -0.0024 </r>
       <r>   20.6500    0.0000 </r>
       <r>   20.8435    0.0000 </r>
       <r>   21.0856    0.0000 </r>
       <r>   22.2646    0.0000 </r>
       <r>   22.4905    0.0000 </r>
       <r>   23.5750    0.0000 </r>
       <r>   25.2563    0.0000 </r>
       <r>   25.7060    0.0000 </r>
      </set>
      <set comment="kpoint 13">
       <r>    4.1732    1.0000 </r>
       <r>    4.8995    1.0000 </r>
       <r>    5.6689    1.0000 </r>
       <r>    6.1874    1.0000 </r>
       <r>    6.5609    1.0000 </r>
       <r>    6.9170    1.0000 </r>
       <r>    6.9385    1.0000 </r>
       <r>    7.2814    1.0000 </r>
       <r>    7.9667    1.0000 </r>
       <r>    8.0223    1.0000 </r>
       <r>    9.1971    1.0000 </r>
       <r>    9.4559    1.0000 </r>
       <r>    9.6771    1.0000 </r>
       <r>    9.6824    1.0000 </r>
       <r>    9.9245    1.0000 </r>
       <r>   10.5584    1.0000 </r>
       <r>   10.6728    1.0000 </r>
       <r>   10.7270    1.0000 </r>
       <r>   11.2089    1.0000 </r>
       <r>   11.5901    1.0000 </r>
       <r>   12.1494    1.0191 </r>
       <r>   13.9371   -0.0000 </r>
       <r>   20.5679    0.0000 </r>
       <r>   20.6135    0.0000 </r>
       <r>   20.9757    0.0000 </r>
       <r>   22.2340    0.0000 </r>
       <r>   22.6447    0.0000 </r>
       <r>   24.2003    0.0000 </r>
       <r>   24.6054    0.0000 </r>
       <r>   26.2324    0.0000 </r>
      </set>
      <set comment="kpoint 14">
       <r>    1.9216    1.0000 </r>
       <r>    4.0325    1.0000 </r>
       <r>    5.1716    1.0000 </r>
       <r>    5.2203    1.0000 </r>
       <r>    5.3054    1.0000 </r>
       <r>    5.4220    1.0000 </r>
       <r>    5.5743    1.0000 </r>
       <r>    8.4169    1.0000 </r>
       <r>    8.6329    1.0000 </r>
       <r>    8.7353    1.0000 </r>
       <r>   10.1151    1.0000 </r>
       <r>   10.2933    1.0000 </r>
       <r>   10.8457    1.0000 </r>
       <r>   10.8676    1.0000 </r>
       <r>   11.2796    1.0000 </r>
       <r>   11.8880    1.0001 </r>
       <r>   12.1603    1.0216 </r>
       <r>   12.5299    0.3219 </r>
       <r>   12.6496    0.0064 </r>
       <r>   12.9907   -0.0011 </r>
       <r>   13.8882   -0.0000 </r>
       <r>   14.5935   -0.0000 </r>
       <r>   15.4154   -0.0000 </r>
       <r>   16.5603   -0.0000 </r>
       <r>   22.7574    0.0000 </r>
       <r>   23.7965    0.0000 </r>
       <r>   24.4042    0.0000 </r>
       <r>   24.8489    0.0000 </r>
       <r>   24.9139    0.0000 </r>
       <r>   26.0565    0.0000 </r>
      </set>
      <set comment="kpoint 15">
       <r>    1.9380    1.0000 </r>
       <r>    4.0469    1.0000 </r>
       <r>    5.1784    1.0000 </r>
       <r>    5.2731    1.0000 </r>
       <r>    5.3112    1.0000 </r>
       <r>    5.4480    1.0000 </r>
       <r>    5.4906    1.0000 </r>
       <r>    8.4015    1.0000 </r>
       <r>    8.6435    1.0000 </r>
       <r>    8.7334    1.0000 </r>
       <r>   10.0827    1.0000 </r>
       <r>   10.3406    1.0000 </r>
       <r>   10.6629    1.0000 </r>
       <r>   11.0801    1.0000 </r>
       <r>   11.3569    1.0000 </r>
       <r>   12.0798    1.0071 </r>
       <r>   12.2598    1.0340 </r>
       <r>   12.4356    0.7089 </r>
       <r>   12.4569    0.6246 </r>
       <r>   12.9086   -0.0055 </r>
       <r>   13.4745   -0.0000 </r>
       <r>   14.5413   -0.0000 </r>
       <r>   15.9077   -0.0000 </r>
       <r>   16.3994   -0.0000 </r>
       <r>   22.7192    0.0000 </r>
       <r>   23.3690    0.0000 </r>
       <r>   24.6305    0.0000 </r>
       <r>   24.6473    0.0000 </r>
       <r>   25.8174    0.0000 </r>
       <r>   25.9236    0.0000 </r>
      </set>
      <set comment="kpoint 16">
       <r>    1.9227    1.0000 </r>
       <r>    4.0370    1.0000 </r>
       <r>    5.1961    1.0000 </r>
       <r>    5.2312    1.0000 </r>
       <r>    5.3547    1.0000 </r>
       <r>    5.4452    1.0000 </r>
       <r>    5.4777    1.0000 </r>
       <r>    8.3254    1.0000 </r>
       <r>    8.6246    1.0000 </r>
       <r>    8.8066    1.0000 </r>
       <r>   10.1529    1.0000 </r>
       <r>   10.2482    1.0000 </r>
       <r>   10.7648    1.0000 </r>
       <r>   11.1902    1.0000 </r>
       <r>   11.4236    1.0000 </r>
       <r>   11.4371    1.0000 </r>
       <r>   11.6041    1.0000 </r>
       <r>   12.6198    0.0528 </r>
       <r>   13.0895   -0.0001 </r>
       <r>   13.0911   -0.0001 </r>
       <r>   14.0784   -0.0000 </r>
       <r>   14.7882   -0.0000 </r>
       <r>   15.0748   -0.0000 </r>
       <r>   16.5486   -0.0000 </r>
       <r>   22.5845    0.0000 </r>
       <r>   23.8223    0.0000 </r>
       <r>   24.4119    0.0000 </r>
       <r>   24.9543    0.0000 </r>
       <r>   25.0709    0.0000 </r>
       <r>   26.0836    0.0000 </r>
      </set>
      <set comment="kpoint 17">
       <r>    2.4112    1.0000 </r>
       <r>    4.3828    1.0000 </r>
       <r>    5.4002    1.0000 </r>
       <r>    5.4014    1.0000 </r>
       <r>    5.6460    1.0000 </r>
       <r>    5.7009    1.0000 </r>
       <r>    5.9671    1.0000 </r>
       <r>    8.1228    1.0000 </r>
       <r>    8.7586    1.0000 </r>
       <r>    8.9517    1.0000 </r>
       <r>    9.9244    1.0000 </r>
       <r>    9.9762    1.0000 </r>
       <r>   10.1645    1.0000 </r>
       <r>   10.2471    1.0000 </r>
       <r>   10.8187    1.0000 </r>
       <r>   11.1536    1.0000 </r>
       <r>   11.2963    1.0000 </r>
       <r>   12.1307    1.0152 </r>
       <r>   12.2884    1.0242 </r>
       <r>   12.6500    0.0059 </r>
       <r>   13.7716   -0.0000 </r>
       <r>   14.1399   -0.0000 </r>
       <r>   16.4963   -0.0000 </r>
       <r>   17.8930   -0.0000 </r>
       <r>   22.0081    0.0000 </r>
       <r>   23.5657    0.0000 </r>
       <r>   23.9215    0.0000 </r>
       <r>   25.0219    0.0000 </r>
       <r>   26.0045    0.0000 </r>
       <r>   26.2029    0.0000 </r>
      </set>
      <set comment="kpoint 18">
       <r>    2.4790    1.0000 </r>
       <r>    4.4212    1.0000 </r>
       <r>    5.3240    1.0000 </r>
       <r>    5.4352    1.0000 </r>
       <r>    5.6264    1.0000 </r>
       <r>    5.7802    1.0000 </r>
       <r>    5.9467    1.0000 </r>
       <r>    8.2560    1.0000 </r>
       <r>    8.8128    1.0000 </r>
       <r>    8.8502    1.0000 </r>
       <r>    9.8829    1.0000 </r>
       <r>    9.9569    1.0000 </r>
       <r>   10.1718    1.0000 </r>
       <r>   10.4620    1.0000 </r>
       <r>   10.8701    1.0000 </r>
       <r>   11.2927    1.0000 </r>
       <r>   11.7840    1.0000 </r>
       <r>   11.8516    1.0000 </r>
       <r>   12.3637    0.9267 </r>
       <r>   12.3840    0.8776 </r>
       <r>   12.9362   -0.0033 </r>
       <r>   13.7093   -0.0000 </r>
       <r>   16.9265   -0.0000 </r>
       <r>   17.8338   -0.0000 </r>
       <r>   21.8666    0.0000 </r>
       <r>   23.4237    0.0000 </r>
       <r>   24.4295    0.0000 </r>
       <r>   24.9175    0.0000 </r>
       <r>   25.7447    0.0000 </r>
       <r>   26.4734    0.0000 </r>
      </set>
      <set comment="kpoint 19">
       <r>    2.4794    1.0000 </r>
       <r>    4.4261    1.0000 </r>
       <r>    5.4913    1.0000 </r>
       <r>    5.5325    1.0000 </r>
       <r>    5.6051    1.0000 </r>
       <r>    5.7263    1.0000 </r>
       <r>    5.7962    1.0000 </r>
       <r>    8.0368    1.0000 </r>
       <r>    8.7926    1.0000 </r>
       <r>    8.9667    1.0000 </r>
       <r>    9.9183    1.0000 </r>
       <r>   10.0388    1.0000 </r>
       <r>   10.0850    1.0000 </r>
       <r>   10.3533    1.0000 </r>
       <r>   10.7730    1.0000 </r>
       <r>   10.8975    1.0000 </r>
       <r>   11.4643    1.0000 </r>
       <r>   12.2902    1.0232 </r>
       <r>   12.4138    0.7871 </r>
       <r>   12.6721   -0.0158 </r>
       <r>   13.4811   -0.0000 </r>
       <r>   13.6579   -0.0000 </r>
       <r>   16.5951   -0.0000 </r>
       <r>   17.9289   -0.0000 </r>
       <r>   21.6059    0.0000 </r>
       <r>   23.8229    0.0000 </r>
       <r>   24.7048    0.0000 </r>
       <r>   24.9791    0.0000 </r>
       <r>   25.4901    0.0000 </r>
       <r>   26.0065    0.0000 </r>
      </set>
      <set comment="kpoint 20">
       <r>    2.4745    1.0000 </r>
       <r>    4.4063    1.0000 </r>
       <r>    5.3395    1.0000 </r>
       <r>    5.4317    1.0000 </r>
       <r>    5.6312    1.0000 </r>
       <r>    5.7121    1.0000 </r>
       <r>    5.9858    1.0000 </r>
       <r>    8.2643    1.0000 </r>
       <r>    8.8069    1.0000 </r>
       <r>    8.8545    1.0000 </r>
       <r>    9.8850    1.0000 </r>
       <r>   10.0042    1.0000 </r>
       <r>   10.0761    1.0000 </r>
       <r>   10.4680    1.0000 </r>
       <r>   10.9011    1.0000 </r>
       <r>   11.1327    1.0000 </r>
       <r>   11.8593    1.0000 </r>
       <r>   11.9839    1.0011 </r>
       <r>   12.4533    0.6395 </r>
       <r>   12.4913    0.4807 </r>
       <r>   12.9892   -0.0011 </r>
       <r>   13.5271   -0.0000 </r>
       <r>   16.6925   -0.0000 </r>
       <r>   17.9603    0.0000 </r>
       <r>   21.8489    0.0000 </r>
       <r>   23.7440    0.0000 </r>
       <r>   24.7305    0.0000 </r>
       <r>   24.8623    0.0000 </r>
       <r>   25.4102    0.0000 </r>
       <r>   25.8759    0.0000 </r>
      </set>
      <set comment="kpoint 21">
       <r>    2.4110    1.0000 </r>
       <r>    4.3880    1.0000 </r>
       <r>    5.3877    1.0000 </r>
       <r>    5.4007    1.0000 </r>
       <r>    5.6474    1.0000 </r>
       <r>    5.7817    1.0000 </r>
       <r>    5.9149    1.0000 </r>
       <r>    8.0662    1.0000 </r>
       <r>    8.7879    1.0000 </r>
       <r>    8.9644    1.0000 </r>
       <r>    9.9669    1.0000 </r>
       <r>   10.0560    1.0000 </r>
       <r>   10.0755    1.0000 </r>
       <r>   10.2136    1.0000 </r>
       <r>   10.7626    1.0000 </r>
       <r>   10.9334    1.0000 </r>
       <r>   11.2314    1.0000 </r>
       <r>   12.3653    0.9232 </r>
       <r>   12.3658    0.9221 </r>
       <r>   12.8470   -0.0144 </r>
       <r>   13.6535   -0.0000 </r>
       <r>   14.1641   -0.0000 </r>
       <r>   16.4442   -0.0000 </r>
       <r>   17.8546   -0.0000 </r>
       <r>   22.0057    0.0000 </r>
       <r>   23.5755    0.0000 </r>
       <r>   23.9110    0.0000 </r>
       <r>   25.0441    0.0000 </r>
       <r>   25.9152    0.0000 </r>
       <r>   26.2410    0.0000 </r>
      </set>
      <set comment="kpoint 22">
       <r>    2.4842    1.0000 </r>
       <r>    4.4352    1.0000 </r>
       <r>    5.5141    1.0000 </r>
       <r>    5.5455    1.0000 </r>
       <r>    5.5457    1.0000 </r>
       <r>    5.7307    1.0000 </r>
       <r>    5.8107    1.0000 </r>
       <r>    8.0846    1.0000 </r>
       <r>    8.7678    1.0000 </r>
       <r>    8.9520    1.0000 </r>
       <r>    9.9046    1.0000 </r>
       <r>    9.9214    1.0000 </r>
       <r>   10.2321    1.0000 </r>
       <r>   10.3646    1.0000 </r>
       <r>   10.9618    1.0000 </r>
       <r>   11.0546    1.0000 </r>
       <r>   11.5700    1.0000 </r>
       <r>   12.0005    1.0016 </r>
       <r>   12.1887    1.0281 </r>
       <r>   12.2957    1.0198 </r>
       <r>   13.5941   -0.0000 </r>
       <r>   13.7796   -0.0000 </r>
       <r>   16.8746   -0.0000 </r>
       <r>   17.8446   -0.0000 </r>
       <r>   21.6186    0.0000 </r>
       <r>   23.4993    0.0000 </r>
       <r>   24.4636    0.0000 </r>
       <r>   25.0142    0.0000 </r>
       <r>   25.7899    0.0000 </r>
       <r>   26.7513    0.0000 </r>
      </set>
      <set comment="kpoint 23">
       <r>    3.1158    1.0000 </r>
       <r>    4.8752    1.0000 </r>
       <r>    5.6020    1.0000 </r>
       <r>    5.6648    1.0000 </r>
       <r>    6.1900    1.0000 </r>
       <r>    6.1910    1.0000 </r>
       <r>    6.5077    1.0000 </r>
       <r>    7.7510    1.0000 </r>
       <r>    8.6229    1.0000 </r>
       <r>    9.0594    1.0000 </r>
       <r>    9.2340    1.0000 </r>
       <r>    9.2650    1.0000 </r>
       <r>    9.5788    1.0000 </r>
       <r>    9.9924    1.0000 </r>
       <r>   10.2465    1.0000 </r>
       <r>   10.4699    1.0000 </r>
       <r>   11.0969    1.0000 </r>
       <r>   11.5687    1.0000 </r>
       <r>   11.6688    1.0000 </r>
       <r>   12.3180    1.0004 </r>
       <r>   12.8970   -0.0067 </r>
       <r>   14.2230   -0.0000 </r>
       <r>   17.9010   -0.0000 </r>
       <r>   19.5293    0.0000 </r>
       <r>   21.1608    0.0000 </r>
       <r>   22.6824    0.0000 </r>
       <r>   23.8881    0.0000 </r>
       <r>   24.2858    0.0000 </r>
       <r>   25.8341    0.0000 </r>
       <r>   27.4314    0.0000 </r>
      </set>
      <set comment="kpoint 24">
       <r>    3.3037    1.0000 </r>
       <r>    4.9200    1.0000 </r>
       <r>    5.4286    1.0000 </r>
       <r>    5.6759    1.0000 </r>
       <r>    6.1294    1.0000 </r>
       <r>    6.2730    1.0000 </r>
       <r>    6.5819    1.0000 </r>
       <r>    7.9598    1.0000 </r>
       <r>    8.9940    1.0000 </r>
       <r>    9.0739    1.0000 </r>
       <r>    9.1437    1.0000 </r>
       <r>    9.2480    1.0000 </r>
       <r>    9.6133    1.0000 </r>
       <r>    9.7565    1.0000 </r>
       <r>   10.5176    1.0000 </r>
       <r>   10.9936    1.0000 </r>
       <r>   11.1453    1.0000 </r>
       <r>   11.1534    1.0000 </r>
       <r>   11.6188    1.0000 </r>
       <r>   12.3491    0.9556 </r>
       <r>   12.5551    0.2286 </r>
       <r>   12.7735   -0.0305 </r>
       <r>   18.2193    0.0000 </r>
       <r>   19.4673    0.0000 </r>
       <r>   21.0661    0.0000 </r>
       <r>   22.8530    0.0000 </r>
       <r>   24.1808    0.0000 </r>
       <r>   24.3670    0.0000 </r>
       <r>   25.7876    0.0000 </r>
       <r>   26.8063    0.0000 </r>
      </set>
      <set comment="kpoint 25">
       <r>    3.3296    1.0000 </r>
       <r>    4.9400    1.0000 </r>
       <r>    5.6690    1.0000 </r>
       <r>    5.8972    1.0000 </r>
       <r>    6.0546    1.0000 </r>
       <r>    6.2741    1.0000 </r>
       <r>    6.3565    1.0000 </r>
       <r>    7.6217    1.0000 </r>
       <r>    8.8164    1.0000 </r>
       <r>    8.8386    1.0000 </r>
       <r>    9.1388    1.0000 </r>
       <r>    9.4245    1.0000 </r>
       <r>    9.5986    1.0000 </r>
       <r>    9.8976    1.0000 </r>
       <r>   10.3403    1.0000 </r>
       <r>   10.4907    1.0000 </r>
       <r>   11.3658    1.0000 </r>
       <r>   11.5824    1.0000 </r>
       <r>   11.7370    1.0000 </r>
       <r>   12.0434    1.0037 </r>
       <r>   12.3897    0.8618 </r>
       <r>   13.5760   -0.0000 </r>
       <r>   18.1614    0.0000 </r>
       <r>   19.4412    0.0000 </r>
       <r>   20.8887    0.0000 </r>
       <r>   22.9013    0.0000 </r>
       <r>   24.0028    0.0000 </r>
       <r>   24.7912    0.0000 </r>
       <r>   25.7753    0.0000 </r>
       <r>   26.8001    0.0000 </r>
      </set>
      <set comment="kpoint 26">
       <r>    3.3140    1.0000 </r>
       <r>    4.9037    1.0000 </r>
       <r>    5.4495    1.0000 </r>
       <r>    5.6819    1.0000 </r>
       <r>    6.1841    1.0000 </r>
       <r>    6.1901    1.0000 </r>
       <r>    6.5809    1.0000 </r>
       <r>    7.9657    1.0000 </r>
       <r>    9.0257    1.0000 </r>
       <r>    9.0474    1.0000 </r>
       <r>    9.1685    1.0000 </r>
       <r>    9.2012    1.0000 </r>
       <r>    9.6273    1.0000 </r>
       <r>    9.8150    1.0000 </r>
       <r>   10.5138    1.0000 </r>
       <r>   10.8230    1.0000 </r>
       <r>   11.2249    1.0000 </r>
       <r>   11.3256    1.0000 </r>
       <r>   11.7193    1.0000 </r>
       <r>   12.3149    1.0037 </r>
       <r>   12.3598    0.9350 </r>
       <r>   12.7354   -0.0354 </r>
       <r>   18.1634    0.0000 </r>
       <r>   19.4727    0.0000 </r>
       <r>   21.0981    0.0000 </r>
       <r>   22.9821    0.0000 </r>
       <r>   23.9700    0.0000 </r>
       <r>   24.5799    0.0000 </r>
       <r>   25.8505    0.0000 </r>
       <r>   26.5094    0.0000 </r>
      </set>
      <set comment="kpoint 27">
       <r>    3.1141    1.0000 </r>
       <r>    4.8818    1.0000 </r>
       <r>    5.5908    1.0000 </r>
       <r>    5.6576    1.0000 </r>
       <r>    6.1177    1.0000 </r>
       <r>    6.2974    1.0000 </r>
       <r>    6.5114    1.0000 </r>
       <r>    7.7098    1.0000 </r>
       <r>    8.8065    1.0000 </r>
       <r>    8.8245    1.0000 </r>
       <r>    9.1385    1.0000 </r>
       <r>    9.4131    1.0000 </r>
       <r>    9.5757    1.0000 </r>
       <r>    9.9751    1.0000 </r>
       <r>   10.2235    1.0000 </r>
       <r>   10.3987    1.0000 </r>
       <r>   11.1780    1.0000 </r>
       <r>   11.5877    1.0000 </r>
       <r>   11.8753    1.0001 </r>
       <r>   12.2685    1.0322 </r>
       <r>   12.7970   -0.0253 </r>
       <r>   14.2061   -0.0000 </r>
       <r>   17.9494    0.0000 </r>
       <r>   19.4342    0.0000 </r>
       <r>   21.2311    0.0000 </r>
       <r>   22.6801    0.0000 </r>
       <r>   23.8940    0.0000 </r>
       <r>   24.1533    0.0000 </r>
       <r>   25.8670    0.0000 </r>
       <r>   27.3609    0.0000 </r>
      </set>
      <set comment="kpoint 28">
       <r>    3.3216    1.0000 </r>
       <r>    4.9442    1.0000 </r>
       <r>    5.6664    1.0000 </r>
       <r>    5.9017    1.0000 </r>
       <r>    6.0594    1.0000 </r>
       <r>    6.2534    1.0000 </r>
       <r>    6.3573    1.0000 </r>
       <r>    7.6568    1.0000 </r>
       <r>    8.6252    1.0000 </r>
       <r>    9.0736    1.0000 </r>
       <r>    9.2311    1.0000 </r>
       <r>    9.2982    1.0000 </r>
       <r>    9.6029    1.0000 </r>
       <r>    9.8676    1.0000 </r>
       <r>   10.3939    1.0000 </r>
       <r>   10.5623    1.0000 </r>
       <r>   11.0986    1.0000 </r>
       <r>   11.4866    1.0000 </r>
       <r>   11.7193    1.0000 </r>
       <r>   11.9423    1.0004 </r>
       <r>   12.7289   -0.0354 </r>
       <r>   13.6173   -0.0000 </r>
       <r>   18.1548    0.0000 </r>
       <r>   19.5430    0.0000 </r>
       <r>   20.8307    0.0000 </r>
       <r>   22.6996    0.0000 </r>
       <r>   24.3439    0.0000 </r>
       <r>   24.6156    0.0000 </r>
       <r>   25.6987    0.0000 </r>
       <r>   27.1241    0.0000 </r>
      </set>
      <set comment="kpoint 29">
       <r>    3.7517    1.0000 </r>
       <r>    5.3299    1.0000 </r>
       <r>    5.6100    1.0000 </r>
       <r>    5.9005    1.0000 </r>
       <r>    6.7793    1.0000 </r>
       <r>    6.8736    1.0000 </r>
       <r>    6.9778    1.0000 </r>
       <r>    7.4632    1.0000 </r>
       <r>    7.8722    1.0000 </r>
       <r>    8.0443    1.0000 </r>
       <r>    8.9831    1.0000 </r>
       <r>    9.0700    1.0000 </r>
       <r>    9.5956    1.0000 </r>
       <r>    9.8385    1.0000 </r>
       <r>    9.9364    1.0000 </r>
       <r>   10.2699    1.0000 </r>
       <r>   10.7850    1.0000 </r>
       <r>   11.3222    1.0000 </r>
       <r>   11.3479    1.0000 </r>
       <r>   11.6924    1.0000 </r>
       <r>   12.6505    0.0053 </r>
       <r>   14.2502   -0.0000 </r>
       <r>   19.1208    0.0000 </r>
       <r>   20.3730    0.0000 </r>
       <r>   21.1762    0.0000 </r>
       <r>   22.0578    0.0000 </r>
       <r>   23.0118    0.0000 </r>
       <r>   24.3382    0.0000 </r>
       <r>   25.0701    0.0000 </r>
       <r>   27.7544    0.0000 </r>
      </set>
      <set comment="kpoint 30">
       <r>    4.2264    1.0000 </r>
       <r>    5.0769    1.0000 </r>
       <r>    5.4792    1.0000 </r>
       <r>    5.8840    1.0000 </r>
       <r>    6.6632    1.0000 </r>
       <r>    6.7881    1.0000 </r>
       <r>    7.1435    1.0000 </r>
       <r>    7.7429    1.0000 </r>
       <r>    8.1604    1.0000 </r>
       <r>    8.4003    1.0000 </r>
       <r>    8.9518    1.0000 </r>
       <r>    9.0845    1.0000 </r>
       <r>    9.6609    1.0000 </r>
       <r>    9.8569    1.0000 </r>
       <r>   10.2506    1.0000 </r>
       <r>   10.4330    1.0000 </r>
       <r>   10.4619    1.0000 </r>
       <r>   11.0048    1.0000 </r>
       <r>   11.2372    1.0000 </r>
       <r>   11.7025    1.0000 </r>
       <r>   12.3253    0.9918 </r>
       <r>   12.7359   -0.0354 </r>
       <r>   19.3144    0.0000 </r>
       <r>   20.4510    0.0000 </r>
       <r>   21.1559    0.0000 </r>
       <r>   22.3948    0.0000 </r>
       <r>   22.8036    0.0000 </r>
       <r>   24.2750    0.0000 </r>
       <r>   25.7424    0.0000 </r>
       <r>   26.6167    0.0000 </r>
      </set>
      <set comment="kpoint 31">
       <r>    4.3069    1.0000 </r>
       <r>    5.0370    1.0000 </r>
       <r>    5.7975    1.0000 </r>
       <r>    6.2510    1.0000 </r>
       <r>    6.5880    1.0000 </r>
       <r>    6.9188    1.0000 </r>
       <r>    6.9493    1.0000 </r>
       <r>    7.2945    1.0000 </r>
       <r>    7.8071    1.0000 </r>
       <r>    8.0251    1.0000 </r>
       <r>    8.9825    1.0000 </r>
       <r>    9.1014    1.0000 </r>
       <r>    9.6792    1.0000 </r>
       <r>    9.9266    1.0000 </r>
       <r>    9.9681    1.0000 </r>
       <r>   10.3505    1.0000 </r>
       <r>   10.7053    1.0000 </r>
       <r>   11.2428    1.0000 </r>
       <r>   11.2803    1.0000 </r>
       <r>   11.4867    1.0000 </r>
       <r>   12.1547    1.0203 </r>
       <r>   13.5554   -0.0000 </r>
       <r>   19.4138    0.0000 </r>
       <r>   20.4766    0.0000 </r>
       <r>   20.9853    0.0000 </r>
       <r>   22.0885    0.0000 </r>
       <r>   22.6507    0.0000 </r>
       <r>   24.9138    0.0000 </r>
       <r>   25.5446    0.0000 </r>
       <r>   27.1014    0.0000 </r>
      </set>
      <set comment="kpoint 32">
       <r>    4.2465    1.0000 </r>
       <r>    5.0746    1.0000 </r>
       <r>    5.4880    1.0000 </r>
       <r>    5.8891    1.0000 </r>
       <r>    6.6837    1.0000 </r>
       <r>    6.7905    1.0000 </r>
       <r>    7.1329    1.0000 </r>
       <r>    7.7356    1.0000 </r>
       <r>    8.2598    1.0000 </r>
       <r>    8.3765    1.0000 </r>
       <r>    8.9154    1.0000 </r>
       <r>    9.0734    1.0000 </r>
       <r>    9.6686    1.0000 </r>
       <r>    9.8755    1.0000 </r>
       <r>   10.2643    1.0000 </r>
       <r>   10.4035    1.0000 </r>
       <r>   10.4325    1.0000 </r>
       <r>   10.9875    1.0000 </r>
       <r>   11.2771    1.0000 </r>
       <r>   11.6503    1.0000 </r>
       <r>   12.2785    1.0289 </r>
       <r>   12.6865   -0.0250 </r>
       <r>   19.4328    0.0000 </r>
       <r>   20.4699    0.0000 </r>
       <r>   21.0134    0.0000 </r>
       <r>   22.4134    0.0000 </r>
       <r>   22.6434    0.0000 </r>
       <r>   24.4282    0.0000 </r>
       <r>   25.8963    0.0000 </r>
       <r>   26.6368    0.0000 </r>
      </set>
      <set comment="kpoint 33">
       <r>    3.7497    1.0000 </r>
       <r>    5.3345    1.0000 </r>
       <r>    5.6115    1.0000 </r>
       <r>    5.8934    1.0000 </r>
       <r>    6.7049    1.0000 </r>
       <r>    6.8667    1.0000 </r>
       <r>    7.0139    1.0000 </r>
       <r>    7.4882    1.0000 </r>
       <r>    7.8296    1.0000 </r>
       <r>    8.0668    1.0000 </r>
       <r>    9.0126    1.0000 </r>
       <r>    9.1163    1.0000 </r>
       <r>    9.6035    1.0000 </r>
       <r>    9.8529    1.0000 </r>
       <r>    9.9448    1.0000 </r>
       <r>   10.2499    1.0000 </r>
       <r>   10.9792    1.0000 </r>
       <r>   11.1609    1.0000 </r>
       <r>   11.4351    1.0000 </r>
       <r>   11.5423    1.0000 </r>
       <r>   12.6490    0.0071 </r>
       <r>   14.2231   -0.0000 </r>
       <r>   19.2105    0.0000 </r>
       <r>   20.4908    0.0000 </r>
       <r>   21.0559    0.0000 </r>
       <r>   22.0306    0.0000 </r>
       <r>   22.8212    0.0000 </r>
       <r>   24.3488    0.0000 </r>
       <r>   25.1316    0.0000 </r>
       <r>   27.8074    0.0000 </r>
      </set>
      <set comment="kpoint 34">
       <r>    4.2916    1.0000 </r>
       <r>    5.0268    1.0000 </r>
       <r>    5.7966    1.0000 </r>
       <r>    6.2563    1.0000 </r>
       <r>    6.6084    1.0000 </r>
       <r>    6.9232    1.0000 </r>
       <r>    6.9444    1.0000 </r>
       <r>    7.2802    1.0000 </r>
       <r>    7.7870    1.0000 </r>
       <r>    8.0306    1.0000 </r>
       <r>    8.9160    1.0000 </r>
       <r>    9.0967    1.0000 </r>
       <r>    9.6712    1.0000 </r>
       <r>    9.8581    1.0000 </r>
       <r>   10.0027    1.0000 </r>
       <r>   10.4083    1.0000 </r>
       <r>   10.5639    1.0000 </r>
       <r>   11.1117    1.0000 </r>
       <r>   11.4943    1.0000 </r>
       <r>   11.6425    1.0000 </r>
       <r>   12.1728    1.0245 </r>
       <r>   13.6201   -0.0000 </r>
       <r>   19.1854    0.0000 </r>
       <r>   20.3820    0.0000 </r>
       <r>   21.2882    0.0000 </r>
       <r>   22.0171    0.0000 </r>
       <r>   22.9659    0.0000 </r>
       <r>   24.8207    0.0000 </r>
       <r>   25.3351    0.0000 </r>
       <r>   27.0053    0.0000 </r>
      </set>
      <set comment="kpoint 35">
       <r>    2.9389    1.0000 </r>
       <r>    4.7417    1.0000 </r>
       <r>    5.6486    1.0000 </r>
       <r>    5.6561    1.0000 </r>
       <r>    5.8867    1.0000 </r>
       <r>    5.9129    1.0000 </r>
       <r>    6.3189    1.0000 </r>
       <r>    8.0230    1.0000 </r>
       <r>    8.7705    1.0000 </r>
       <r>    9.0184    1.0000 </r>
       <r>    9.3588    1.0000 </r>
       <r>    9.6362    1.0000 </r>
       <r>    9.6780    1.0000 </r>
       <r>    9.8875    1.0000 </r>
       <r>   10.5847    1.0000 </r>
       <r>   10.7917    1.0000 </r>
       <r>   11.3040    1.0000 </r>
       <r>   12.0193    1.0023 </r>
       <r>   12.0888    1.0083 </r>
       <r>   12.1179    1.0128 </r>
       <r>   13.0661   -0.0002 </r>
       <r>   14.3372   -0.0000 </r>
       <r>   15.7487   -0.0000 </r>
       <r>   19.1238    0.0000 </r>
       <r>   20.8025    0.0000 </r>
       <r>   23.5770    0.0000 </r>
       <r>   24.7395    0.0000 </r>
       <r>   25.5806    0.0000 </r>
       <r>   25.7607    0.0000 </r>
       <r>   26.8921    0.0000 </r>
      </set>
      <set comment="kpoint 36">
       <r>    2.9646    1.0000 </r>
       <r>    4.7937    1.0000 </r>
       <r>    5.6401    1.0000 </r>
       <r>    5.6790    1.0000 </r>
       <r>    5.8350    1.0000 </r>
       <r>    6.0569    1.0000 </r>
       <r>    6.2598    1.0000 </r>
       <r>    7.9878    1.0000 </r>
       <r>    8.7822    1.0000 </r>
       <r>    9.0155    1.0000 </r>
       <r>    9.4295    1.0000 </r>
       <r>    9.5635    1.0000 </r>
       <r>    9.6553    1.0000 </r>
       <r>    9.8421    1.0000 </r>
       <r>   10.6157    1.0000 </r>
       <r>   10.9557    1.0000 </r>
       <r>   11.3750    1.0000 </r>
       <r>   11.7025    1.0000 </r>
       <r>   11.9283    1.0003 </r>
       <r>   12.0952    1.0091 </r>
       <r>   12.9041   -0.0060 </r>
       <r>   14.2905   -0.0000 </r>
       <r>   16.3312   -0.0000 </r>
       <r>   18.9800    0.0000 </r>
       <r>   20.6374    0.0000 </r>
       <r>   23.6806    0.0000 </r>
       <r>   24.3897    0.0000 </r>
       <r>   25.5399    0.0000 </r>
       <r>   25.8839    0.0000 </r>
       <r>   26.6633    0.0000 </r>
      </set>
      <set comment="kpoint 37">
       <r>    2.9382    1.0000 </r>
       <r>    4.7642    1.0000 </r>
       <r>    5.6652    1.0000 </r>
       <r>    5.6684    1.0000 </r>
       <r>    5.8656    1.0000 </r>
       <r>    6.0743    1.0000 </r>
       <r>    6.2297    1.0000 </r>
       <r>    7.8294    1.0000 </r>
       <r>    8.9316    1.0000 </r>
       <r>    9.0023    1.0000 </r>
       <r>    9.1785    1.0000 </r>
       <r>    9.6125    1.0000 </r>
       <r>    9.6493    1.0000 </r>
       <r>    9.9150    1.0000 </r>
       <r>   10.5305    1.0000 </r>
       <r>   10.6003    1.0000 </r>
       <r>   11.2021    1.0000 </r>
       <r>   12.1408    1.0173 </r>
       <r>   12.1417    1.0175 </r>
       <r>   12.4544    0.6347 </r>
       <r>   13.2168   -0.0000 </r>
       <r>   14.7125   -0.0000 </r>
       <r>   15.2418   -0.0000 </r>
       <r>   19.0930    0.0000 </r>
       <r>   20.8535    0.0000 </r>
       <r>   23.3932    0.0000 </r>
       <r>   24.6052    0.0000 </r>
       <r>   25.8239    0.0000 </r>
       <r>   25.8381    0.0000 </r>
       <r>   26.8608    0.0000 </r>
      </set>
      <set comment="kpoint 38">
       <r>    3.6164    1.0000 </r>
       <r>    5.2169    1.0000 </r>
       <r>    5.9360    1.0000 </r>
       <r>    5.9445    1.0000 </r>
       <r>    6.2628    1.0000 </r>
       <r>    6.3978    1.0000 </r>
       <r>    6.7292    1.0000 </r>
       <r>    7.6764    1.0000 </r>
       <r>    8.2844    1.0000 </r>
       <r>    8.8679    1.0000 </r>
       <r>    8.8789    1.0000 </r>
       <r>    8.9778    1.0000 </r>
       <r>    9.2961    1.0000 </r>
       <r>    9.7748    1.0000 </r>
       <r>   10.2054    1.0000 </r>
       <r>   10.6641    1.0000 </r>
       <r>   10.8840    1.0000 </r>
       <r>   11.5976    1.0000 </r>
       <r>   11.6368    1.0000 </r>
       <r>   12.0979    1.0095 </r>
       <r>   13.1114   -0.0000 </r>
       <r>   13.6524   -0.0000 </r>
       <r>   16.3276   -0.0000 </r>
       <r>   19.6142    0.0000 </r>
       <r>   20.6410    0.0000 </r>
       <r>   22.8593    0.0000 </r>
       <r>   24.9490    0.0000 </r>
       <r>   25.3543    0.0000 </r>
       <r>   26.3782    0.0000 </r>
       <r>   27.5408    0.0000 </r>
      </set>
      <set comment="kpoint 39">
       <r>    3.7040    1.0000 </r>
       <r>    5.2855    1.0000 </r>
       <r>    5.7427    1.0000 </r>
       <r>    5.9105    1.0000 </r>
       <r>    6.2612    1.0000 </r>
       <r>    6.4910    1.0000 </r>
       <r>    6.8243    1.0000 </r>
       <r>    7.7794    1.0000 </r>
       <r>    8.3832    1.0000 </r>
       <r>    8.7263    1.0000 </r>
       <r>    8.9703    1.0000 </r>
       <r>    9.0357    1.0000 </r>
       <r>    9.2547    1.0000 </r>
       <r>    9.7192    1.0000 </r>
[...]
       <r>   12.6886   -0.0261 </r>
       <r>   12.9167   -0.0048 </r>
       <r>   13.3813   -0.0000 </r>
       <r>   14.4642   -0.0000 </r>
       <r>   14.7982   -0.0000 </r>
       <r>   19.9687    0.0000 </r>
       <r>   20.6048    0.0000 </r>
       <r>   21.1281    0.0000 </r>
       <r>   22.5393    0.0000 </r>
       <r>   28.9030    0.0000 </r>
       <r>   29.0783    0.0000 </r>
      </set>
      <set comment="kpoint 123">
       <r>    4.4979    1.0000 </r>
       <r>    4.6892    1.0000 </r>
       <r>    4.8321    1.0000 </r>
       <r>    5.3744    1.0000 </r>
       <r>    7.7039    1.0000 </r>
       <r>    7.9789    1.0000 </r>
       <r>    8.0573    1.0000 </r>
       <r>    8.3497    1.0000 </r>
       <r>    8.4031    1.0000 </r>
       <r>    8.6837    1.0000 </r>
       <r>    8.8466    1.0000 </r>
       <r>    9.0728    1.0000 </r>
       <r>    9.8121    1.0000 </r>
       <r>    9.9232    1.0000 </r>
       <r>    9.9792    1.0000 </r>
       <r>   10.2606    1.0000 </r>
       <r>   11.3125    1.0000 </r>
       <r>   11.9159    1.0002 </r>
       <r>   12.2714    1.0314 </r>
       <r>   12.4672    0.5824 </r>
       <r>   12.9478   -0.0026 </r>
       <r>   13.1968   -0.0000 </r>
       <r>   14.8331   -0.0000 </r>
       <r>   15.0803   -0.0000 </r>
       <r>   19.8798    0.0000 </r>
       <r>   20.2486    0.0000 </r>
       <r>   21.1360    0.0000 </r>
       <r>   22.5581    0.0000 </r>
       <r>   28.7424    0.0000 </r>
       <r>   29.0849    0.0000 </r>
      </set>
      <set comment="kpoint 124">
       <r>    4.4962    1.0000 </r>
       <r>    4.6674    1.0000 </r>
       <r>    4.9691    1.0000 </r>
       <r>    5.3000    1.0000 </r>
       <r>    7.6371    1.0000 </r>
       <r>    7.8383    1.0000 </r>
       <r>    8.2110    1.0000 </r>
       <r>    8.4504    1.0000 </r>
       <r>    8.5434    1.0000 </r>
       <r>    8.7243    1.0000 </r>
       <r>    8.8699    1.0000 </r>
       <r>    8.8982    1.0000 </r>
       <r>    9.7985    1.0000 </r>
       <r>    9.9003    1.0000 </r>
       <r>   10.0372    1.0000 </r>
       <r>   10.3419    1.0000 </r>
       <r>   11.3055    1.0000 </r>
       <r>   11.7706    1.0000 </r>
       <r>   11.9217    1.0002 </r>
       <r>   12.8189   -0.0203 </r>
       <r>   13.2042   -0.0000 </r>
       <r>   13.6773   -0.0000 </r>
       <r>   14.0319   -0.0000 </r>
       <r>   14.6650   -0.0000 </r>
       <r>   19.9437    0.0000 </r>
       <r>   20.6582    0.0000 </r>
       <r>   21.0942    0.0000 </r>
       <r>   22.5777    0.0000 </r>
       <r>   28.8132    0.0000 </r>
       <r>   29.0712    0.0000 </r>
      </set>
      <set comment="kpoint 125">
       <r>    4.2600    1.0000 </r>
       <r>    4.5504    1.0000 </r>
       <r>    4.6626    1.0000 </r>
       <r>    5.1016    1.0000 </r>
       <r>    7.8175    1.0000 </r>
       <r>    7.9854    1.0000 </r>
       <r>    8.2041    1.0000 </r>
       <r>    8.2428    1.0000 </r>
       <r>    8.3672    1.0000 </r>
       <r>    8.7237    1.0000 </r>
       <r>    8.7721    1.0000 </r>
       <r>    8.9427    1.0000 </r>
       <r>   10.6022    1.0000 </r>
       <r>   10.6896    1.0000 </r>
       <r>   10.9407    1.0000 </r>
       <r>   11.3192    1.0000 </r>
       <r>   11.4275    1.0000 </r>
       <r>   11.9183    1.0002 </r>
       <r>   11.9852    1.0011 </r>
       <r>   12.6069    0.0796 </r>
       <r>   13.0729   -0.0001 </r>
       <r>   13.2299   -0.0000 </r>
       <r>   13.6910   -0.0000 </r>
       <r>   13.9028   -0.0000 </r>
       <r>   19.7402    0.0000 </r>
       <r>   19.9459    0.0000 </r>
       <r>   20.4270    0.0000 </r>
       <r>   22.0335    0.0000 </r>
       <r>   28.5251    0.0000 </r>
       <r>   28.7009    0.0000 </r>
      </set>
     </set>
    </set>
   </array>
  </eigenvalues>
  <separator name="orbital magnetization" >
   <v name="MAGDIPOLOUT">      0.00000000      0.00000000      0.00000000</v>
  </separator>
  <dos>
   <i name="efermi">     12.48674329 </i>
   <total>
    <array>
     <dimension dim="1">gridpoints</dimension>
     <dimension dim="2">spin</dimension>
     <field>energy</field>
     <field>total</field>
     <field>integrated</field>
     <set>
      <set comment="spin 1">
       <r>    -0.4448     0.0000     0.0000 </r>
       <r>    -0.3388     0.0000     0.0000 </r>
       <r>    -0.2328     0.0000     0.0000 </r>
       <r>    -0.1268    -0.0000    -0.0000 </r>
       <r>    -0.0209    -0.0000    -0.0000 </r>
       <r>     0.0851    -0.0000    -0.0000 </r>
       <r>     0.1911    -0.0000    -0.0000 </r>
       <r>     0.2971    -0.0000    -0.0000 </r>
       <r>     0.4031    -0.0000    -0.0000 </r>
       <r>     0.5091    -0.0000    -0.0000 </r>
       <r>     0.6151    -0.0000    -0.0000 </r>
       <r>     0.7210    -0.0000    -0.0000 </r>
       <r>     0.8270    -0.0000    -0.0000 </r>
       <r>     0.9330    -0.0000    -0.0000 </r>
       <r>     1.0390    -0.0000    -0.0000 </r>
       <r>     1.1450    -0.0002    -0.0000 </r>
       <r>     1.2510    -0.0007    -0.0001 </r>
       <r>     1.3569    -0.0013    -0.0002 </r>
       <r>     1.4629     0.0005    -0.0002 </r>
       <r>     1.5689     0.0106     0.0009 </r>
       <r>     1.6749     0.0384     0.0050 </r>
       <r>     1.7809     0.0854     0.0141 </r>
       <r>     1.8869     0.1384     0.0287 </r>
       <r>     1.9928     0.1662     0.0464 </r>
       <r>     2.0988     0.1456     0.0618 </r>
       <r>     2.2048     0.1071     0.0731 </r>
       <r>     2.3108     0.1207     0.0859 </r>
       <r>     2.4168     0.2368     0.1110 </r>
       <r>     2.5228     0.3759     0.1509 </r>
       <r>     2.6287     0.3840     0.1916 </r>
       <r>     2.7347     0.2279     0.2157 </r>
       <r>     2.8407     0.0974     0.2260 </r>
       <r>     2.9467     0.1874     0.2459 </r>
       <r>     3.0527     0.3913     0.2874 </r>
       <r>     3.1587     0.4661     0.3368 </r>
       <r>     3.2646     0.4219     0.3815 </r>
       <r>     3.3706     0.4106     0.4250 </r>
       <r>     3.4766     0.3812     0.4654 </r>
       <r>     3.5826     0.3670     0.5043 </r>
       <r>     3.6886     0.5806     0.5658 </r>
       <r>     3.7946     0.8480     0.6557 </r>
       <r>     3.9005     0.8139     0.7420 </r>
       <r>     4.0065     0.5741     0.8028 </r>
       <r>     4.1125     0.4722     0.8529 </r>
       <r>     4.2185     0.8701     0.9451 </r>
       <r>     4.3245     1.5659     1.1110 </r>
       <r>     4.4305     1.8227     1.3042 </r>
       <r>     4.5365     1.8132     1.4964 </r>
       <r>     4.6424     2.0415     1.7128 </r>
       <r>     4.7484     2.2286     1.9490 </r>
       <r>     4.8544     2.2498     2.1874 </r>
       <r>     4.9604     2.3801     2.4397 </r>
       <r>     5.0664     2.7207     2.7280 </r>
       <r>     5.1724     3.2803     3.0757 </r>
       <r>     5.2783     3.9932     3.4989 </r>
       <r>     5.3843     4.4792     3.9736 </r>
       <r>     5.4903     4.6806     4.4697 </r>
       <r>     5.5963     5.0526     5.0052 </r>
       <r>     5.7023     5.4878     5.5868 </r>
       <r>     5.8083     5.5711     6.1772 </r>
       <r>     5.9142     5.4487     6.7547 </r>
       <r>     6.0202     5.2138     7.3073 </r>
       <r>     6.1262     5.0435     7.8418 </r>
       <r>     6.2322     5.0338     8.3753 </r>
       <r>     6.3382     4.8541     8.8898 </r>
       <r>     6.4442     4.6753     9.3853 </r>
       <r>     6.5501     4.4294     9.8547 </r>
       <r>     6.6561     3.8299    10.2606 </r>
       <r>     6.7621     3.4337    10.6245 </r>
       <r>     6.8681     3.6638    11.0128 </r>
       <r>     6.9741     3.8581    11.4217 </r>
       <r>     7.0801     3.5380    11.7967 </r>
       <r>     7.1860     3.2744    12.1438 </r>
       <r>     7.2920     3.4573    12.5102 </r>
       <r>     7.3980     3.8343    12.9165 </r>
       <r>     7.5040     4.0905    13.3501 </r>
       <r>     7.6100     4.4929    13.8262 </r>
       <r>     7.7160     5.3458    14.3928 </r>
       <r>     7.8219     6.0052    15.0293 </r>
       <r>     7.9279     5.8523    15.6495 </r>
       <r>     8.0339     5.1800    16.1985 </r>
       <r>     8.1399     4.5615    16.6820 </r>
       <r>     8.2459     4.4231    17.1507 </r>
       <r>     8.3519     4.4816    17.6257 </r>
       <r>     8.4578     4.6167    18.1150 </r>
       <r>     8.5638     5.5876    18.7072 </r>
       <r>     8.6698     7.2427    19.4748 </r>
       <r>     8.7758     8.5865    20.3849 </r>
       <r>     8.8818     9.2975    21.3702 </r>
       <r>     8.9878     9.3063    22.3566 </r>
       <r>     9.0938     8.3895    23.2457 </r>
       <r>     9.1997     7.0309    23.9909 </r>
       <r>     9.3057     6.1593    24.6437 </r>
       <r>     9.4117     5.7078    25.2486 </r>
       <r>     9.5177     5.6379    25.8461 </r>
       <r>     9.6237     6.1989    26.5031 </r>
       <r>     9.7297     6.7411    27.2176 </r>
       <r>     9.8356     6.9795    27.9573 </r>
       <r>     9.9416     6.8280    28.6809 </r>
       <r>    10.0476     5.8227    29.2980 </r>
       <r>    10.1536     4.7071    29.7969 </r>
       <r>    10.2596     4.3616    30.2592 </r>
       <r>    10.3656     4.2542    30.7101 </r>
       <r>    10.4715     3.7879    31.1115 </r>
       <r>    10.5775     3.1247    31.4427 </r>
       <r>    10.6835     2.6482    31.7233 </r>
       <r>    10.7895     2.6870    32.0081 </r>
       <r>    10.8955     3.2008    32.3474 </r>
       <r>    11.0015     3.9270    32.7636 </r>
       <r>    11.1074     4.7817    33.2703 </r>
       <r>    11.2134     5.6022    33.8641 </r>
       <r>    11.3194     5.9344    34.4930 </r>
       <r>    11.4254     5.6136    35.0880 </r>
       <r>    11.5314     5.3996    35.6603 </r>
       <r>    11.6374     5.3878    36.2313 </r>
       <r>    11.7433     4.9500    36.7559 </r>
       <r>    11.8493     4.4357    37.2260 </r>
       <r>    11.9553     4.2054    37.6717 </r>
       <r>    12.0613     4.1748    38.1142 </r>
       <r>    12.1673     4.4822    38.5892 </r>
       <r>    12.2733     4.8288    39.1010 </r>
       <r>    12.3792     4.5811    39.5865 </r>
       <r>    12.4852     3.8512    39.9947 </r>
       <r>    12.5912     3.4153    40.3566 </r>
       <r>    12.6972     3.4104    40.7181 </r>
       <r>    12.8032     3.0991    41.0465 </r>
       <r>    12.9092     2.4479    41.3060 </r>
       <r>    13.0152     2.3058    41.5503 </r>
       <r>    13.1211     2.7525    41.8421 </r>
       <r>    13.2271     3.0095    42.1610 </r>
       <r>    13.3331     2.6790    42.4450 </r>
       <r>    13.4391     2.1424    42.6720 </r>
       <r>    13.5451     1.7651    42.8591 </r>
       <r>    13.6511     1.5969    43.0283 </r>
       <r>    13.7570     1.5187    43.1893 </r>
       <r>    13.8630     1.2980    43.3268 </r>
       <r>    13.9690     0.9378    43.4262 </r>
       <r>    14.0750     0.7268    43.5033 </r>
       <r>    14.1810     0.8668    43.5951 </r>
       <r>    14.2870     1.0198    43.7032 </r>
       <r>    14.3929     0.8353    43.7917 </r>
       <r>    14.4989     0.5876    43.8540 </r>
       <r>    14.6049     0.5051    43.9075 </r>
       <r>    14.7109     0.6302    43.9743 </r>
       <r>    14.8169     0.7994    44.0591 </r>
       <r>    14.9229     0.6621    44.1292 </r>
       <r>    15.0288     0.4676    44.1788 </r>
       <r>    15.1348     0.5008    44.2319 </r>
       <r>    15.2408     0.4876    44.2835 </r>
       <r>    15.3468     0.4948    44.3360 </r>
       <r>    15.4528     0.7513    44.4156 </r>
       <r>    15.5588     0.9575    44.5171 </r>
       <r>    15.6647     0.9847    44.6215 </r>
       <r>    15.7707     1.0324    44.7309 </r>
       <r>    15.8767     1.0454    44.8417 </r>
       <r>    15.9827     0.9137    44.9385 </r>
       <r>    16.0887     0.7154    45.0143 </r>
       <r>    16.1947     0.6419    45.0824 </r>
       <r>    16.3006     0.8138    45.1686 </r>
       <r>    16.4066     1.0304    45.2778 </r>
       <r>    16.5126     1.0594    45.3901 </r>
       <r>    16.6186     1.0704    45.5035 </r>
       <r>    16.7246     1.1103    45.6212 </r>
       <r>    16.8306     1.0061    45.7278 </r>
       <r>    16.9366     0.9690    45.8305 </r>
       <r>    17.0425     1.0757    45.9445 </r>
       <r>    17.1485     1.1932    46.0710 </r>
       <r>    17.2545     1.3540    46.2145 </r>
       <r>    17.3605     1.2937    46.3516 </r>
       <r>    17.4665     0.8496    46.4417 </r>
       <r>    17.5725     0.4551    46.4899 </r>
       <r>    17.6784     0.4904    46.5419 </r>
       <r>    17.7844     0.7900    46.6256 </r>
       <r>    17.8904     0.9611    46.7275 </r>
       <r>    17.9964     0.8305    46.8155 </r>
       <r>    18.1024     0.6350    46.8828 </r>
       <r>    18.2084     0.7032    46.9573 </r>
       <r>    18.3143     0.7997    47.0421 </r>
       <r>    18.4203     0.5966    47.1053 </r>
       <r>    18.5263     0.3633    47.1438 </r>
       <r>    18.6323     0.4775    47.1944 </r>
       <r>    18.7383     0.7206    47.2708 </r>
       <r>    18.8443     0.6623    47.3410 </r>
       <r>    18.9502     0.4725    47.3911 </r>
       <r>    19.0562     0.5794    47.4525 </r>
       <r>    19.1622     0.7443    47.5313 </r>
       <r>    19.2682     0.5917    47.5941 </r>
       <r>    19.3742     0.5015    47.6472 </r>
       <r>    19.4802     0.7488    47.7266 </r>
       <r>    19.5861     0.9822    47.8307 </r>
       <r>    19.6921     1.1109    47.9484 </r>
       <r>    19.7981     1.2848    48.0846 </r>
       <r>    19.9041     1.3452    48.2272 </r>
       <r>    20.0101     1.1062    48.3444 </r>
       <r>    20.1161     0.8122    48.4305 </r>
       <r>    20.2220     0.8063    48.5159 </r>
       <r>    20.3280     1.1153    48.6341 </r>
       <r>    20.4340     1.6286    48.8067 </r>
       <r>    20.5400     1.9233    49.0106 </r>
       <r>    20.6460     1.5946    49.1796 </r>
       <r>    20.7520     0.9569    49.2810 </r>
       <r>    20.8579     0.6550    49.3504 </r>
       <r>    20.9639     0.9274    49.4487 </r>
       <r>    21.0699     1.5359    49.6115 </r>
       <r>    21.1759     1.7967    49.8019 </r>
       <r>    21.2819     1.3386    49.9438 </r>
       <r>    21.3879     0.7812    50.0266 </r>
       <r>    21.4939     0.6973    50.1005 </r>
       <r>    21.5998     0.8405    50.1896 </r>
       <r>    21.7058     0.8707    50.2818 </r>
       <r>    21.8118     0.9469    50.3822 </r>
       <r>    21.9178     1.2450    50.5142 </r>
       <r>    22.0238     1.4275    50.6654 </r>
       <r>    22.1298     1.1575    50.7881 </r>
       <r>    22.2357     0.8133    50.8743 </r>
       <r>    22.3417     0.9082    50.9706 </r>
       <r>    22.4477     1.3024    51.1086 </r>
       <r>    22.5537     1.5071    51.2683 </r>
       <r>    22.6597     1.3849    51.4151 </r>
       <r>    22.7657     1.2199    51.5444 </r>
       <r>    22.8716     1.1460    51.6658 </r>
       <r>    22.9776     1.0667    51.7789 </r>
       <r>    23.0836     0.9465    51.8792 </r>
       <r>    23.1896     0.8868    51.9732 </r>
       <r>    23.2956     1.0761    52.0872 </r>
       <r>    23.4016     1.5021    52.2464 </r>
       <r>    23.5075     1.8675    52.4444 </r>
       <r>    23.6135     1.8768    52.6433 </r>
       <r>    23.7195     1.5254    52.8049 </r>
       <r>    23.8255     1.1488    52.9267 </r>
       <r>    23.9315     0.9806    53.0306 </r>
       <r>    24.0375     0.8965    53.1256 </r>
       <r>    24.1434     0.8358    53.2142 </r>
       <r>    24.2494     0.8747    53.3069 </r>
       <r>    24.3554     1.0234    53.4154 </r>
       <r>    24.4614     1.2598    53.5489 </r>
       <r>    24.5674     1.5682    53.7151 </r>
       <r>    24.6734     1.9953    53.9266 </r>
       <r>    24.7793     2.3976    54.1807 </r>
       <r>    24.8853     2.3887    54.4338 </r>
       <r>    24.9913     2.1423    54.6609 </r>
       <r>    25.0973     2.0944    54.8829 </r>
       <r>    25.2033     2.0818    55.1035 </r>
       <r>    25.3093     1.8987    55.3047 </r>
       <r>    25.4153     1.6870    55.4835 </r>
       <r>    25.5212     1.4986    55.6423 </r>
       <r>    25.6272     1.2770    55.7777 </r>
       <r>    25.7332     1.2271    55.9077 </r>
       <r>    25.8392     1.3633    56.0522 </r>
       <r>    25.9452     1.3346    56.1937 </r>
       <r>    26.0512     1.1552    56.3161 </r>
       <r>    26.1571     1.1048    56.4332 </r>
       <r>    26.2631     1.2847    56.5694 </r>
       <r>    26.3691     1.6954    56.7490 </r>
       <r>    26.4751     2.0191    56.9630 </r>
       <r>    26.5811     2.0267    57.1778 </r>
       <r>    26.6871     2.1015    57.4006 </r>
       <r>    26.7930     2.1515    57.6286 </r>
       <r>    26.8990     1.7337    57.8123 </r>
       <r>    27.0050     1.1834    57.9377 </r>
       <r>    27.1110     0.9665    58.0402 </r>
       <r>    27.2170     1.0589    58.1524 </r>
       <r>    27.3230     1.2352    58.2833 </r>
       <r>    27.4289     1.3831    58.4299 </r>
       <r>    27.5349     1.5594    58.5952 </r>
       <r>    27.6409     1.6598    58.7711 </r>
       <r>    27.7469     1.5510    58.9355 </r>
       <r>    27.8529     1.3257    59.0760 </r>
       <r>    27.9589     1.0621    59.1885 </r>
       <r>    28.0648     0.7725    59.2704 </r>
       <r>    28.1708     0.5020    59.3236 </r>
       <r>    28.2768     0.2930    59.3547 </r>
       <r>    28.3828     0.1986    59.3757 </r>
       <r>    28.4888     0.2720    59.4045 </r>
       <r>    28.5948     0.4066    59.4476 </r>
       <r>    28.7007     0.4693    59.4974 </r>
       <r>    28.8067     0.4877    59.5491 </r>
       <r>    28.9127     0.5360    59.6059 </r>
       <r>    29.0187     0.7542    59.6858 </r>
       <r>    29.1247     1.0194    59.7938 </r>
       <r>    29.2307     0.9784    59.8975 </r>
       <r>    29.3367     0.6655    59.9681 </r>
       <r>    29.4426     0.2988    59.9997 </r>
       <r>    29.5486     0.0460    60.0046 </r>
       <r>    29.6546    -0.0258    60.0019 </r>
       <r>    29.7606    -0.0144    60.0003 </r>
       <r>    29.8666    -0.0029    60.0000 </r>
       <r>    29.9726    -0.0003    60.0000 </r>
       <r>    30.0785    -0.0000    60.0000 </r>
       <r>    30.1845    -0.0000    60.0000 </r>
       <r>    30.2905    -0.0000    60.0000 </r>
       <r>    30.3965    -0.0000    60.0000 </r>
       <r>    30.5025    -0.0000    60.0000 </r>
       <r>    30.6085    -0.0000    60.0000 </r>
       <r>    30.7144     0.0000    60.0000 </r>
       <r>    30.8204     0.0000    60.0000 </r>
       <r>    30.9264     0.0000    60.0000 </r>
       <r>    31.0324     0.0000    60.0000 </r>
       <r>    31.1384     0.0000    60.0000 </r>
       <r>    31.2444     0.0000    60.0000 </r>
       <r>    31.3503     0.0000    60.0000 </r>
      </set>
     </set>
    </array>
   </total>
  </dos>
 </calculation>
 <structure name="finalpos" >
  <crystal>
   <varray name="basis" >
    <v>       3.63500000       0.00000000       0.00000000 </v>
    <v>       0.00000000       3.63500000       0.00000000 </v>
    <v>       0.00000000       0.00000000       3.63500000 </v>
   </varray>
   <i name="volume">     48.03007287 </i>
   <varray name="rec_basis" >
    <v>       0.27510316       0.00000000       0.00000000 </v>
    <v>       0.00000000       0.27510316       0.00000000 </v>
    <v>       0.00000000       0.00000000       0.27510316 </v>
   </varray>
  </crystal>
  <varray name="positions" >
   <v>       0.00000000       0.00000000       0.00000000 </v>
   <v>       0.50000000       0.50000000       0.00000000 </v>
   <v>       0.50000000       0.00000000       0.50000000 </v>
   <v>       0.00000000       0.50000000       0.50000000 </v>
  </varray>
 </structure>
</modeling>
