 vasp.6.2.0 18Jan21 (build Mar 17 2021 09:06:54) complex                        
  
 POSCAR found type information on POSCAR PdIrPtCu
 POSCAR found :  4 types and       4 ions
 LDA part: xc-table for Pade appr. of Perdew
 POSCAR, INCAR and KPOINTS ok, starting setup
 FFT: planning ...
 WAVECAR not read
 WARNING: chargedensity file is incomplete
 entering main loop
       N       E                     dE             d eps       ncg     rms          rms(c)
DAV:   1     0.231312824514E+03    0.23131E+03   -0.11881E+04  7834   0.976E+02
DAV:   2    -0.124856205864E+02   -0.24380E+03   -0.22946E+03  8000   0.284E+02
DAV:   3    -0.239708207630E+02   -0.11485E+02   -0.11175E+02  8634   0.722E+01
DAV:   4    -0.242462079458E+02   -0.27539E+00   -0.27509E+00  9310   0.107E+01
DAV:   5    -0.242586915761E+02   -0.12484E-01   -0.12483E-01 10622   0.222E+00    0.324E+01
DAV:   6    -0.253074019410E+02   -0.10487E+01   -0.39161E+01  8930   0.155E+02    0.167E+01
DAV:   7    -0.219471603190E+02    0.33602E+01   -0.10068E+01  9658   0.111E+02    0.105E+01
DAV:   8    -0.219743434045E+02   -0.27183E-01   -0.91008E-01 10532   0.856E+00    0.485E+00
DAV:   9    -0.218993966236E+02    0.74947E-01   -0.33670E-01  9916   0.173E+01    0.143E+00
DAV:  10    -0.218958660380E+02    0.35306E-02   -0.53796E-02 11636   0.310E+00    0.769E-01
DAV:  11    -0.218874602944E+02    0.84057E-02   -0.16782E-02 10670   0.408E+00    0.280E-01
DAV:  12    -0.218866799585E+02    0.78034E-03   -0.43746E-03 11684   0.200E+00    0.109E-01
DAV:  13    -0.218866185403E+02    0.61418E-04   -0.77166E-04 11152   0.582E-01    0.304E-02
DAV:  14    -0.218866215529E+02   -0.30126E-05   -0.38830E-05 11054   0.188E-01    0.292E-02
DAV:  15    -0.218866133801E+02    0.81728E-05   -0.15632E-05  8850   0.137E-01    0.608E-03
DAV:  16    -0.218866130283E+02    0.35172E-06   -0.10673E-06  5466   0.240E-02
   1 F= -.21886613E+02 E0= -.21887847E+02  d E =0.370156E-02
 writing wavefunctions
