unknown system                          
   1.00000000000000     
     3.635000    0.000000    0.000000
     0.000000    3.635000    0.000000
     0.000000    0.000000    3.635000
   Cu
     4
Direct
  0.000000  0.000000  0.000000
  0.500000  0.500000  0.000000
  0.500000  0.000000  0.500000
  0.000000  0.500000  0.500000
 
   24   24   24
  803.65      724.22      527.25      305.47      139.76      56.707      29.779      16.176      8.1364      6.8538    
  7.0052      5.3908      4.1575      5.3908      7.0052      6.8538      8.1364      16.176      29.779      56.707    
  139.76      305.47      527.25      724.22      724.22      652.05      473.42      273.22      124.98      51.924    
  28.314      15.332      8.0060      7.1051      7.5715      6.3916      5.3908      6.3916      7.5715      7.1051    
  8.0060      15.332      28.314      51.924      124.98      273.22      473.42      652.05      527.25      473.42    
  341.06      194.98      90.058      41.026      24.469      13.230      7.6181      7.2849      8.0518      7.5715    
  7.0052      7.5715      8.0518      7.2849      7.6181      13.230      24.469      41.026      90.058      194.98    
  341.06      473.42      305.47      273.22      194.98      111.35      54.847      30.435      19.191      10.780    
  7.1001      6.8481      7.2849      7.1051      6.8538      7.1051      7.2849      6.8481      7.1001      10.780    
  19.191      30.435      54.847      111.35      194.98      273.22      139.76      124.98      90.058      54.847    
  33.032      22.186      13.844      8.8156      7.0553      7.1001      7.6181      8.0060      8.1364      8.0060    
  7.6181      7.1001      7.0553      8.8156      13.844      22.186      33.032      54.847      90.058      124.98    
  56.707      51.924      41.026      30.435      22.186      14.773      9.8868      8.1608      8.8156      10.780    
  13.230      15.332      16.176      15.332      13.230      10.780      8.8156      8.1608      9.8868      14.773    
  22.186      30.435      41.026      51.924      29.779      28.314      24.469      19.191      13.844      9.8868    
  8.4291      9.8868      13.844      19.191      24.469      28.314      29.779      28.314      24.469      19.191    
  13.844      9.8868      8.4291      9.8868      13.844      19.191      24.469      28.314      16.176      15.332    
  13.230      10.780      8.8156      8.1608      9.8868      14.773      22.186      30.435      41.026      51.924    
  56.707      51.924      41.026      30.435      22.186      14.773      9.8868      8.1608      8.8156      10.780    
  13.230      15.332      8.1364      8.0060      7.6181      7.1001      7.0553      8.8156      13.844      22.186    
  33.032      54.847      90.058      124.98      139.76      124.98      90.058      54.847      33.032      22.186    
  13.844      8.8156      7.0553      7.1001      7.6181      8.0060      6.8538      7.1051      7.2849      6.8481    
  7.1001      10.780      19.191      30.435      54.847      111.35      194.98      273.22      305.47      273.22    
  194.98      111.35      54.847      30.435      19.191      10.780      7.1001      6.8481      7.2849      7.1051    
  7.0052      7.5715      8.0518      7.2849      7.6181      13.230      24.469      41.026      90.058      194.98    
  341.06      473.42      527.25      473.42      341.06      194.98      90.058      41.026      24.469      13.230    
  7.6181      7.2849      8.0518      7.5715      5.3908      6.3916      7.5715      7.1051      8.0060      15.332    
  28.314      51.924      124.98      273.22      473.42      652.05      724.22      652.05      473.42      273.22    
  124.98      51.924      28.314      15.332      8.0060      7.1051      7.5715      6.3916      4.1575      5.3908    
  7.0052      6.8538      8.1364      16.176      29.779      56.707      139.76      305.47      527.25      724.22    
  803.65      724.22      527.25      305.47      139.76      56.707      29.779      16.176      8.1364      6.8538    
  7.0052      5.3908      5.3908      6.3916      7.5715      7.1051      8.0060      15.332      28.314      51.924    
  124.98      273.22      473.42      652.05      724.22      652.05      473.42      273.22      124.98      51.924    
  28.314      15.332      8.0060      7.1051      7.5715      6.3916      7.0052      7.5715      8.0518      7.2849    
  7.6181      13.230      24.469      41.026      90.058      194.98      341.06      473.42      527.25      473.42    
  341.06      194.98      90.058      41.026      24.469      13.230      7.6181      7.2849      8.0518      7.5715    
  6.8538      7.1051      7.2849      6.8481      7.1001      10.780      19.191      30.435      54.847      111.35    
  194.98      273.22      305.47      273.22      194.98      111.35      54.847      30.435      19.191      10.780    
  7.1001      6.8481      7.2849      7.1051      8.1364      8.0060      7.6181      7.1001      7.0553      8.8156    
  13.844      22.186      33.032      54.847      90.058      124.98      139.76      124.98      90.058      54.847    
  33.032      22.186      13.844      8.8156      7.0553      7.1001      7.6181      8.0060      16.176      15.332    
  13.230      10.780      8.8156      8.1608      9.8868      14.773      22.186      30.435      41.026      51.924    
  56.707      51.924      41.026      30.435      22.186      14.773      9.8868      8.1608      8.8156      10.780    
  13.230      15.332      29.779      28.314      24.469      19.191      13.844      9.8868      8.4291      9.8868    
  13.844      19.191      24.469      28.314      29.779      28.314      24.469      19.191      13.844      9.8868    
  8.4291      9.8868      13.844      19.191      24.469      28.314      56.707      51.924      41.026      30.435    
  22.186      14.773      9.8868      8.1608      8.8156      10.780      13.230      15.332      16.176      15.332    
  13.230      10.780      8.8156      8.1608      9.8868      14.773      22.186      30.435      41.026      51.924    
  139.76      124.98      90.058      54.847      33.032      22.186      13.844      8.8156      7.0553      7.1001    
  7.6181      8.0060      8.1364      8.0060      7.6181      7.1001      7.0553      8.8156      13.844      22.186    
  33.032      54.847      90.058      124.98      305.47      273.22      194.98      111.35      54.847      30.435    
  19.191      10.780      7.1001      6.8481      7.2849      7.1051      6.8538      7.1051      7.2849      6.8481    
  7.1001      10.780      19.191      30.435      54.847      111.35      194.98      273.22      527.25      473.42    
  341.06      194.98      90.058      41.026      24.469      13.230      7.6181      7.2849      8.0518      7.5715    
  7.0052      7.5715      8.0518      7.2849      7.6181      13.230      24.469      41.026      90.058      194.98    
  341.06      473.42      724.22      652.05      473.42      273.22      124.98      51.924      28.314      15.332    
  8.0060      7.1051      7.5715      6.3916      5.3908      6.3916      7.5715      7.1051      8.0060      15.332    
  28.314      51.924      124.98      273.22      473.42      652.05      724.22      652.05      473.42      273.22    
  124.98      51.924      28.314      15.332      8.0060      7.1051      7.5715      6.3916      5.3908      6.3916    
  7.5715      7.1051      8.0060      15.332      28.314      51.924      124.98      273.22      473.42      652.05    
  652.05      586.55      424.76      244.30      111.93      47.794      26.955      14.541      7.8610      7.2751    
  7.9945      7.1884      6.3916      7.1884      7.9945      7.2751      7.8610      14.541      26.955      47.794    
  111.93      244.30      424.76      586.55      473.42      424.76      305.39      174.35      81.213      38.395    
  23.305      12.592      7.4657      7.3176      8.2248      7.9945      7.5715      7.9945      8.2248      7.3176    
  7.4657      12.592      23.305      38.395      81.213      174.35      305.39      424.76      273.22      244.30    
  174.35      100.07      50.498      29.152      18.329      10.363      6.9884      6.8193      7.3176      7.2751    
  7.1051      7.2751      7.3176      6.8193      6.9884      10.363      18.329      29.152      50.498      100.07    
  174.35      244.30      124.98      111.93      81.213      50.498      31.550      21.398      13.361      8.6225    
  6.9732      6.9884      7.4657      7.8610      8.0060      7.8610      7.4657      6.9884      6.9732      8.6225    
  13.361      21.398      31.550      50.498      81.213      111.93      51.924      47.794      38.395      29.152    
  21.398      14.332      9.7295      8.0863      8.6225      10.363      12.592      14.541      15.332      14.541    
  12.592      10.363      8.6225      8.0863      9.7295      14.332      21.398      29.152      38.395      47.794    
  28.314      26.955      23.305      18.329      13.361      9.7295      8.4012      9.7295      13.361      18.329    
  23.305      26.955      28.314      26.955      23.305      18.329      13.361      9.7295      8.4012      9.7295    
  13.361      18.329      23.305      26.955      15.332      14.541      12.592      10.363      8.6225      8.0863    
  9.7295      14.332      21.398      29.152      38.395      47.794      51.924      47.794      38.395      29.152    
  21.398      14.332      9.7295      8.0863      8.6225      10.363      12.592      14.541      8.0060      7.8610    
  7.4657      6.9884      6.9732      8.6225      13.361      21.398      31.550      50.498      81.213      111.93    
  124.98      111.93      81.213      50.498      31.550      21.398      13.361      8.6225      6.9732      6.9884    
  7.4657      7.8610      7.1051      7.2751      7.3176      6.8193      6.9884      10.363      18.329      29.152    
  50.498      100.07      174.35      244.30      273.22      244.30      174.35      100.07      50.498      29.152    
  18.329      10.363      6.9884      6.8193      7.3176      7.2751      7.5715      7.9945      8.2248      7.3176    
  7.4657      12.592      23.305      38.395      81.213      174.35      305.39      424.76      473.42      424.76    
  305.39      174.35      81.213      38.395      23.305      12.592      7.4657      7.3176      8.2248      7.9945    
  6.3916      7.1884      7.9945      7.2751      7.8610      14.541      26.955      47.794      111.93      244.30    
  424.76      586.55      652.05      586.55      424.76      244.30      111.93      47.794      26.955      14.541    
  7.8610      7.2751      7.9945      7.1884      5.3908      6.3916      7.5715      7.1051      8.0060      15.332    
  28.314      51.924      124.98      273.22      473.42      652.05      724.22      652.05      473.42      273.22    
  124.98      51.924      28.314      15.332      8.0060      7.1051      7.5715      6.3916      6.3916      7.1884    
  7.9945      7.2751      7.8610      14.541      26.955      47.794      111.93      244.30      424.76      586.55    
  652.05      586.55      424.76      244.30      111.93      47.794      26.955      14.541      7.8610      7.2751    
  7.9945      7.1884      7.5715      7.9945      8.2248      7.3176      7.4657      12.592      23.305      38.395    
  81.213      174.35      305.39      424.76      473.42      424.76      305.39      174.35      81.213      38.395    
  23.305      12.592      7.4657      7.3176      8.2248      7.9945      7.1051      7.2751      7.3176      6.8193    
  6.9884      10.363      18.329      29.152      50.498      100.07      174.35      244.30      273.22      244.30    
  174.35      100.07      50.498      29.152      18.329      10.363      6.9884      6.8193      7.3176      7.2751    
  8.0060      7.8610      7.4657      6.9884      6.9732      8.6225      13.361      21.398      31.550      50.498    
  81.213      111.93      124.98      111.93      81.213      50.498      31.550      21.398      13.361      8.6225    
  6.9732      6.9884      7.4657      7.8610      15.332      14.541      12.592      10.363      8.6225      8.0863    
  9.7295      14.332      21.398      29.152      38.395      47.794      51.924      47.794      38.395      29.152    
  21.398      14.332      9.7295      8.0863      8.6225      10.363      12.592      14.541      28.314      26.955    
  23.305      18.329      13.361      9.7295      8.4012      9.7295      13.361      18.329      23.305      26.955    
  28.314      26.955      23.305      18.329      13.361      9.7295      8.4012      9.7295      13.361      18.329    
  23.305      26.955      51.924      47.794      38.395      29.152      21.398      14.332      9.7295      8.0863    
  8.6225      10.363      12.592      14.541      15.332      14.541      12.592      10.363      8.6225      8.0863    
  9.7295      14.332      21.398      29.152      38.395      47.794      124.98      111.93      81.213      50.498    
  31.550      21.398      13.361      8.6225      6.9732      6.9884      7.4657      7.8610      8.0060      7.8610    
  7.4657      6.9884      6.9732      8.6225      13.361      21.398      31.550      50.498      81.213      111.93    
  273.22      244.30      174.35      100.07      50.498      29.152      18.329      10.363      6.9884      6.8193    
  7.3176      7.2751      7.1051      7.2751      7.3176      6.8193      6.9884      10.363      18.329      29.152    
  50.498      100.07      174.35      244.30      473.42      424.76      305.39      174.35      81.213      38.395    
  23.305      12.592      7.4657      7.3176      8.2248      7.9945      7.5715      7.9945      8.2248      7.3176    
  7.4657      12.592      23.305      38.395      81.213      174.35      305.39      424.76      652.05      586.55    
  424.76      244.30      111.93      47.794      26.955      14.541      7.8610      7.2751      7.9945      7.1884    
  6.3916      7.1884      7.9945      7.2751      7.8610      14.541      26.955      47.794      111.93      244.30    
  424.76      586.55      527.25      473.42      341.06      194.98      90.058      41.026      24.469      13.230    
  7.6181      7.2849      8.0518      7.5715      7.0052      7.5715      8.0518      7.2849      7.6181      13.230    
  24.469      41.026      90.058      194.98      341.06      473.42      473.42      424.76      305.39      174.35    
  81.213      38.395      23.305      12.592      7.4657      7.3176      8.2248      7.9945      7.5715      7.9945    
  8.2248      7.3176      7.4657      12.592      23.305      38.395      81.213      174.35      305.39      424.76    
  341.06      305.39      218.54      124.93      60.667      32.361      20.183      11.055      7.1096      7.1748    
  8.1046      8.2248      8.0518      8.2248      8.1046      7.1748      7.1096      11.055      20.183      32.361    
  60.667      124.93      218.54      305.39      194.98      174.35      124.93      73.625      40.598      25.891    
  16.056      9.3834      6.7695      6.6929      7.1748      7.3176      7.2849      7.3176      7.1748      6.6929    
  6.7695      9.3834      16.056      25.891      40.598      73.625      124.93      174.35      90.058      81.213    
  60.667      40.598      27.986      19.146      12.087      8.1676      6.8277      6.7695      7.1096      7.4657    
  7.6181      7.4657      7.1096      6.7695      6.8277      8.1676      12.087      19.146      27.986      40.598    
  60.667      81.213      41.026      38.395      32.361      25.891      19.146      13.100      9.2807      7.8849    
  8.1676      9.3834      11.055      12.592      13.230      12.592      11.055      9.3834      8.1676      7.8849    
  9.2807      13.100      19.146      25.891      32.361      38.395      24.469      23.305      20.183      16.056    
  12.087      9.2807      8.2748      9.2807      12.087      16.056      20.183      23.305      24.469      23.305    
  20.183      16.056      12.087      9.2807      8.2748      9.2807      12.087      16.056      20.183      23.305    
  13.230      12.592      11.055      9.3834      8.1676      7.8849      9.2807      13.100      19.146      25.891    
  32.361      38.395      41.026      38.395      32.361      25.891      19.146      13.100      9.2807      7.8849    
  8.1676      9.3834      11.055      12.592      7.6181      7.4657      7.1096      6.7695      6.8277      8.1676    
  12.087      19.146      27.986      40.598      60.667      81.213      90.058      81.213      60.667      40.598    
  27.986      19.146      12.087      8.1676      6.8277      6.7695      7.1096      7.4657      7.2849      7.3176    
  7.1748      6.6929      6.7695      9.3834      16.056      25.891      40.598      73.625      124.93      174.35    
  194.98      174.35      124.93      73.625      40.598      25.891      16.056      9.3834      6.7695      6.6929    
  7.1748      7.3176      8.0518      8.2248      8.1046      7.1748      7.1096      11.055      20.183      32.361    
  60.667      124.93      218.54      305.39      341.06      305.39      218.54      124.93      60.667      32.361    
  20.183      11.055      7.1096      7.1748      8.1046      8.2248      7.5715      7.9945      8.2248      7.3176    
  7.4657      12.592      23.305      38.395      81.213      174.35      305.39      424.76      473.42      424.76    
  305.39      174.35      81.213      38.395      23.305      12.592      7.4657      7.3176      8.2248      7.9945    
  7.0052      7.5715      8.0518      7.2849      7.6181      13.230      24.469      41.026      90.058      194.98    
  341.06      473.42      527.25      473.42      341.06      194.98      90.058      41.026      24.469      13.230    
  7.6181      7.2849      8.0518      7.5715      7.5715      7.9945      8.2248      7.3176      7.4657      12.592    
  23.305      38.395      81.213      174.35      305.39      424.76      473.42      424.76      305.39      174.35    
  81.213      38.395      23.305      12.592      7.4657      7.3176      8.2248      7.9945      8.0518      8.2248    
  8.1046      7.1748      7.1096      11.055      20.183      32.361      60.667      124.93      218.54      305.39    
  341.06      305.39      218.54      124.93      60.667      32.361      20.183      11.055      7.1096      7.1748    
  8.1046      8.2248      7.2849      7.3176      7.1748      6.6929      6.7695      9.3834      16.056      25.891    
  40.598      73.625      124.93      174.35      194.98      174.35      124.93      73.625      40.598      25.891    
  16.056      9.3834      6.7695      6.6929      7.1748      7.3176      7.6181      7.4657      7.1096      6.7695    
  6.8277      8.1676      12.087      19.146      27.986      40.598      60.667      81.213      90.058      81.213    
  60.667      40.598      27.986      19.146      12.087      8.1676      6.8277      6.7695      7.1096      7.4657    
  13.230      12.592      11.055      9.3834      8.1676      7.8849      9.2807      13.100      19.146      25.891    
  32.361      38.395      41.026      38.395      32.361      25.891      19.146      13.100      9.2807      7.8849    
  8.1676      9.3834      11.055      12.592      24.469      23.305      20.183      16.056      12.087      9.2807    
  8.2748      9.2807      12.087      16.056      20.183      23.305      24.469      23.305      20.183      16.056    
  12.087      9.2807      8.2748      9.2807      12.087      16.056      20.183      23.305      41.026      38.395    
  32.361      25.891      19.146      13.100      9.2807      7.8849      8.1676      9.3834      11.055      12.592    
  13.230      12.592      11.055      9.3834      8.1676      7.8849      9.2807      13.100      19.146      25.891    
  32.361      38.395      90.058      81.213      60.667      40.598      27.986      19.146      12.087      8.1676    
  6.8277      6.7695      7.1096      7.4657      7.6181      7.4657      7.1096      6.7695      6.8277      8.1676    
  12.087      19.146      27.986      40.598      60.667      81.213      194.98      174.35      124.93      73.625    
  40.598      25.891      16.056      9.3834      6.7695      6.6929      7.1748      7.3176      7.2849      7.3176    
  7.1748      6.6929      6.7695      9.3834      16.056      25.891      40.598      73.625      124.93      174.35    
  341.06      305.39      218.54      124.93      60.667      32.361      20.183      11.055      7.1096      7.1748    
  8.1046      8.2248      8.0518      8.2248      8.1046      7.1748      7.1096      11.055      20.183      32.361    
  60.667      124.93      218.54      305.39      473.42      424.76      305.39      174.35      81.213      38.395    
  23.305      12.592      7.4657      7.3176      8.2248      7.9945      7.5715      7.9945      8.2248      7.3176    
  7.4657      12.592      23.305      38.395      81.213      174.35      305.39      424.76      305.47      273.22    
  194.98      111.35      54.847      30.435      19.191      10.780      7.1001      6.8481      7.2849      7.1051    
  6.8538      7.1051      7.2849      6.8481      7.1001      10.780      19.191      30.435      54.847      111.35    
  194.98      273.22      273.22      244.30      174.35      100.07      50.498      29.152      18.329      10.363    
  6.9884      6.8193      7.3176      7.2751      7.1051      7.2751      7.3176      6.8193      6.9884      10.363    
  18.329      29.152      50.498      100.07      174.35      244.30      194.98      174.35      124.93      73.625    
  40.598      25.891      16.056      9.3834      6.7695      6.6929      7.1748      7.3176      7.2849      7.3176    
  7.1748      6.6929      6.7695      9.3834      16.056      25.891      40.598      73.625      124.93      174.35    
  111.35      100.07      73.625      47.328      30.971      21.195      13.143      8.3701      6.6359      6.4805    
  6.6929      6.8193      6.8481      6.8193      6.6929      6.4805      6.6359      8.3701      13.143      21.195    
  30.971      47.328      73.625      100.07      54.847      50.498      40.598      30.971      23.267      15.866    
  10.452      7.6899      6.7691      6.6359      6.7695      6.9884      7.1001      6.9884      6.7695      6.6359    
  6.7691      7.6899      10.452      15.866      23.267      30.971      40.598      50.498      30.435      29.152    
  25.891      21.195      15.866      11.360      8.6231      7.6068      7.6899      8.3701      9.3834      10.363    
  10.780      10.363      9.3834      8.3701      7.6899      7.6068      8.6231      11.360      15.866      21.195    
  25.891      29.152      19.191      18.329      16.056      13.143      10.452      8.6231      7.9832      8.6231    
  10.452      13.143      16.056      18.329      19.191      18.329      16.056      13.143      10.452      8.6231    
  7.9832      8.6231      10.452      13.143      16.056      18.329      10.780      10.363      9.3834      8.3701    
  7.6899      7.6068      8.6231      11.360      15.866      21.195      25.891      29.152      30.435      29.152    
  25.891      21.195      15.866      11.360      8.6231      7.6068      7.6899      8.3701      9.3834      10.363    
  7.1001      6.9884      6.7695      6.6359      6.7691      7.6899      10.452      15.866      23.267      30.971    
  40.598      50.498      54.847      50.498      40.598      30.971      23.267      15.866      10.452      7.6899    
  6.7691      6.6359      6.7695      6.9884      6.8481      6.8193      6.6929      6.4805      6.6359      8.3701    
  13.143      21.195      30.971      47.328      73.625      100.07      111.35      100.07      73.625      47.328    
  30.971      21.195      13.143      8.3701      6.6359      6.4805      6.6929      6.8193      7.2849      7.3176    
  7.1748      6.6929      6.7695      9.3834      16.056      25.891      40.598      73.625      124.93      174.35    
  194.98      174.35      124.93      73.625      40.598      25.891      16.056      9.3834      6.7695      6.6929    
  7.1748      7.3176      7.1051      7.2751      7.3176      6.8193      6.9884      10.363      18.329      29.152    
  50.498      100.07      174.35      244.30      273.22      244.30      174.35      100.07      50.498      29.152    
  18.329      10.363      6.9884      6.8193      7.3176      7.2751      6.8538      7.1051      7.2849      6.8481    
  7.1001      10.780      19.191      30.435      54.847      111.35      194.98      273.22      305.47      273.22    
  194.98      111.35      54.847      30.435      19.191      10.780      7.1001      6.8481      7.2849      7.1051    
  7.1051      7.2751      7.3176      6.8193      6.9884      10.363      18.329      29.152      50.498      100.07    
  174.35      244.30      273.22      244.30      174.35      100.07      50.498      29.152      18.329      10.363    
  6.9884      6.8193      7.3176      7.2751      7.2849      7.3176      7.1748      6.6929      6.7695      9.3834    
  16.056      25.891      40.598      73.625      124.93      174.35      194.98      174.35      124.93      73.625    
  40.598      25.891      16.056      9.3834      6.7695      6.6929      7.1748      7.3176      6.8481      6.8193    
  6.6929      6.4805      6.6359      8.3701      13.143      21.195      30.971      47.328      73.625      100.07    
  111.35      100.07      73.625      47.328      30.971      21.195      13.143      8.3701      6.6359      6.4805    
  6.6929      6.8193      7.1001      6.9884      6.7695      6.6359      6.7691      7.6899      10.452      15.866    
  23.267      30.971      40.598      50.498      54.847      50.498      40.598      30.971      23.267      15.866    
  10.452      7.6899      6.7691      6.6359      6.7695      6.9884      10.780      10.363      9.3834      8.3701    
  7.6899      7.6068      8.6231      11.360      15.866      21.195      25.891      29.152      30.435      29.152    
  25.891      21.195      15.866      11.360      8.6231      7.6068      7.6899      8.3701      9.3834      10.363    
  19.191      18.329      16.056      13.143      10.452      8.6231      7.9832      8.6231      10.452      13.143    
  16.056      18.329      19.191      18.329      16.056      13.143      10.452      8.6231      7.9832      8.6231    
  10.452      13.143      16.056      18.329      30.435      29.152      25.891      21.195      15.866      11.360    
  8.6231      7.6068      7.6899      8.3701      9.3834      10.363      10.780      10.363      9.3834      8.3701    
  7.6899      7.6068      8.6231      11.360      15.866      21.195      25.891      29.152      54.847      50.498    
  40.598      30.971      23.267      15.866      10.452      7.6899      6.7691      6.6359      6.7695      6.9884    
  7.1001      6.9884      6.7695      6.6359      6.7691      7.6899      10.452      15.866      23.267      30.971    
  40.598      50.498      111.35      100.07      73.625      47.328      30.971      21.195      13.143      8.3701    
  6.6359      6.4805      6.6929      6.8193      6.8481      6.8193      6.6929      6.4805      6.6359      8.3701    
  13.143      21.195      30.971      47.328      73.625      100.07      194.98      174.35      124.93      73.625    
  40.598      25.891      16.056      9.3834      6.7695      6.6929      7.1748      7.3176      7.2849      7.3176    
  7.1748      6.6929      6.7695      9.3834      16.056      25.891      40.598      73.625      124.93      174.35    
  273.22      244.30      174.35      100.07      50.498      29.152      18.329      10.363      6.9884      6.8193    
  7.3176      7.2751      7.1051      7.2751      7.3176      6.8193      6.9884      10.363      18.329      29.152    
  50.498      100.07      174.35      244.30      139.76      124.98      90.058      54.847      33.032      22.186    
  13.844      8.8156      7.0553      7.1001      7.6181      8.0060      8.1364      8.0060      7.6181      7.1001    
  7.0553      8.8156      13.844      22.186      33.032      54.847      90.058      124.98      124.98      111.93    
  81.213      50.498      31.550      21.398      13.361      8.6225      6.9732      6.9884      7.4657      7.8610    
  8.0060      7.8610      7.4657      6.9884      6.9732      8.6225      13.361      21.398      31.550      50.498    
  81.213      111.93      90.058      81.213      60.667      40.598      27.986      19.146      12.087      8.1676    
  6.8277      6.7695      7.1096      7.4657      7.6181      7.4657      7.1096      6.7695      6.8277      8.1676    
  12.087      19.146      27.986      40.598      60.667      81.213      54.847      50.498      40.598      30.971    
  23.267      15.866      10.452      7.6899      6.7691      6.6359      6.7695      6.9884      7.1001      6.9884    
  6.7695      6.6359      6.7691      7.6899      10.452      15.866      23.267      30.971      40.598      50.498    
  33.032      31.550      27.986      23.267      17.561      12.370      8.9417      7.3570      6.8643      6.7691    
  6.8277      6.9732      7.0553      6.9732      6.8277      6.7691      6.8643      7.3570      8.9417      12.370    
  17.561      23.267      27.986      31.550      22.186      21.398      19.146      15.866      12.370      9.5574    
  7.9141      7.3225      7.3570      7.6899      8.1676      8.6225      8.8156      8.6225      8.1676      7.6899    
  7.3570      7.3225      7.9141      9.5574      12.370      15.866      19.146      21.398      13.844      13.361    