unknown system                          
   1.00000000000000     
     3.635000    0.000000    0.000000
     0.000000    3.635000    0.000000
     0.000000    0.000000    3.635000
   Cu
     4
Direct
  0.000000  0.000000  0.000000
  0.500000  0.500000  0.000000
  0.500000  0.000000  0.500000
  0.000000  0.500000  0.500000
 
   24   24   24
 0.80364848112E+03 0.72422219803E+03 0.52725105478E+03 0.30547456698E+03 0.13976441582E+03
 0.56706617571E+02 0.29778929143E+02 0.16176240593E+02 0.81363856531E+01 0.68537792754E+01
 0.70051622757E+01 0.53907746942E+01 0.41574999610E+01 0.53907746942E+01 0.70051622757E+01
 0.68537792754E+01 0.81363856531E+01 0.16176240593E+02 0.29778929143E+02 0.56706617571E+02
 0.13976441582E+03 0.30547456698E+03 0.52725105478E+03 0.72422219803E+03 0.72422219803E+03
 0.65205081212E+03 0.47342204509E+03 0.27322039854E+03 0.12498493709E+03 0.51924231685E+02
 0.28314137776E+02 0.15332155448E+02 0.80059595337E+01 0.71050823818E+01 0.75714523202E+01
 0.63916434704E+01 0.53907746942E+01 0.63916434704E+01 0.75714523202E+01 0.71050823818E+01
 0.80059595337E+01 0.15332155448E+02 0.28314137776E+02 0.51924231685E+02 0.12498493709E+03
 0.27322039854E+03 0.47342204509E+03 0.65205081212E+03 0.52725105478E+03 0.47342204509E+03
 0.34106043716E+03 0.19498018618E+03 0.90057641738E+02 0.41026246744E+02 0.24468557799E+02
 0.13230483909E+02 0.76180562909E+01 0.72849207381E+01 0.80518396210E+01 0.75714523202E+01
 0.70051622757E+01 0.75714523202E+01 0.80518396210E+01 0.72849207381E+01 0.76180562909E+01
 0.13230483909E+02 0.24468557799E+02 0.41026246744E+02 0.90057641738E+02 0.19498018618E+03
 0.34106043716E+03 0.47342204509E+03 0.30547456698E+03 0.27322039854E+03 0.19498018618E+03
 0.11134692539E+03 0.54846556232E+02 0.30435082588E+02 0.19190681573E+02 0.10779867078E+02
 0.71001464140E+01 0.68480634502E+01 0.72849207381E+01 0.71050823818E+01 0.68537792755E+01
 0.71050823818E+01 0.72849207381E+01 0.68480634502E+01 0.71001464140E+01 0.10779867078E+02
 0.19190681573E+02 0.30435082588E+02 0.54846556232E+02 0.11134692539E+03 0.19498018618E+03
 0.27322039854E+03 0.13976441582E+03 0.12498493709E+03 0.90057641738E+02 0.54846556232E+02
 0.33031900089E+02 0.22185692424E+02 0.13844210888E+02 0.88156048022E+01 0.70553481261E+01
 0.71001464140E+01 0.76180562909E+01 0.80059595337E+01 0.81363856531E+01 0.80059595337E+01
 0.76180562909E+01 0.71001464140E+01 0.70553481261E+01 0.88156048022E+01 0.13844210888E+02
 0.22185692424E+02 0.33031900089E+02 0.54846556232E+02 0.90057641738E+02 0.12498493709E+03
 0.56706617571E+02 0.51924231685E+02 0.41026246744E+02 0.30435082588E+02 0.22185692424E+02
 0.14773316791E+02 0.98868356661E+01 0.81608038540E+01 0.88156048022E+01 0.10779867078E+02
 0.13230483909E+02 0.15332155448E+02 0.16176240593E+02 0.15332155448E+02 0.13230483909E+02
 0.10779867078E+02 0.88156048022E+01 0.81608038540E+01 0.98868356661E+01 0.14773316791E+02
 0.22185692424E+02 0.30435082588E+02 0.41026246744E+02 0.51924231685E+02 0.29778929143E+02
 0.28314137776E+02 0.24468557799E+02 0.19190681573E+02 0.13844210888E+02 0.98868356661E+01
 0.84291459586E+01 0.98868356661E+01 0.13844210888E+02 0.19190681573E+02 0.24468557799E+02
 0.28314137776E+02 0.29778929143E+02 0.28314137776E+02 0.24468557799E+02 0.19190681573E+02
 0.13844210888E+02 0.98868356661E+01 0.84291459586E+01 0.98868356661E+01 0.13844210888E+02
 0.19190681573E+02 0.24468557799E+02 0.28314137776E+02 0.16176240593E+02 0.15332155448E+02
 0.13230483909E+02 0.10779867078E+02 0.88156048022E+01 0.81608038540E+01 0.98868356661E+01
 0.14773316791E+02 0.22185692424E+02 0.30435082588E+02 0.41026246744E+02 0.51924231685E+02
 0.56706617571E+02 0.51924231685E+02 0.41026246744E+02 0.30435082588E+02 0.22185692424E+02
 0.14773316791E+02 0.98868356661E+01 0.81608038540E+01 0.88156048022E+01 0.10779867078E+02
 0.13230483909E+02 0.15332155448E+02 0.81363856531E+01 0.80059595337E+01 0.76180562909E+01
 0.71001464140E+01 0.70553481261E+01 0.88156048022E+01 0.13844210888E+02 0.22185692424E+02
 0.33031900089E+02 0.54846556232E+02 0.90057641738E+02 0.12498493709E+03 0.13976441582E+03
 0.12498493709E+03 0.90057641738E+02 0.54846556232E+02 0.33031900089E+02 0.22185692424E+02
 0.13844210888E+02 0.88156048022E+01 0.70553481261E+01 0.71001464140E+01 0.76180562909E+01
 0.80059595337E+01 0.68537792754E+01 0.71050823818E+01 0.72849207381E+01 0.68480634502E+01
 0.71001464140E+01 0.10779867078E+02 0.19190681573E+02 0.30435082588E+02 0.54846556232E+02
 0.11134692539E+03 0.19498018618E+03 0.27322039854E+03 0.30547456698E+03 0.27322039854E+03
 0.19498018618E+03 0.11134692539E+03 0.54846556232E+02 0.30435082588E+02 0.19190681573E+02
 0.10779867078E+02 0.71001464140E+01 0.68480634502E+01 0.72849207381E+01 0.71050823818E+01
 0.70051622757E+01 0.75714523202E+01 0.80518396210E+01 0.72849207381E+01 0.76180562909E+01
 0.13230483909E+02 0.24468557799E+02 0.41026246744E+02 0.90057641738E+02 0.19498018618E+03
 0.34106043716E+03 0.47342204509E+03 0.52725105478E+03 0.47342204509E+03 0.34106043716E+03
 0.19498018618E+03 0.90057641738E+02 0.41026246744E+02 0.24468557799E+02 0.13230483909E+02
 0.76180562909E+01 0.72849207381E+01 0.80518396210E+01 0.75714523202E+01 0.53907746942E+01
 0.63916434704E+01 0.75714523202E+01 0.71050823818E+01 0.80059595337E+01 0.15332155448E+02
 0.28314137776E+02 0.51924231685E+02 0.12498493709E+03 0.27322039854E+03 0.47342204509E+03
 0.65205081212E+03 0.72422219803E+03 0.65205081212E+03 0.47342204509E+03 0.27322039854E+03
 0.12498493709E+03 0.51924231685E+02 0.28314137776E+02 0.15332155448E+02 0.80059595337E+01
 0.71050823818E+01 0.75714523202E+01 0.63916434704E+01 0.41574999610E+01 0.53907746942E+01
 0.70051622757E+01 0.68537792755E+01 0.81363856531E+01 0.16176240593E+02 0.29778929143E+02
 0.56706617571E+02 0.13976441582E+03 0.30547456698E+03 0.52725105478E+03 0.72422219803E+03
 0.80364848112E+03 0.72422219803E+03 0.52725105478E+03 0.30547456698E+03 0.13976441582E+03
 0.56706617571E+02 0.29778929143E+02 0.16176240593E+02 0.81363856531E+01 0.68537792754E+01
 0.70051622757E+01 0.53907746942E+01 0.53907746942E+01 0.63916434704E+01 0.75714523202E+01
 0.71050823818E+01 0.80059595337E+01 0.15332155448E+02 0.28314137776E+02 0.51924231685E+02
 0.12498493709E+03 0.27322039854E+03 0.47342204509E+03 0.65205081212E+03 0.72422219803E+03
 0.65205081212E+03 0.47342204509E+03 0.27322039854E+03 0.12498493709E+03 0.51924231685E+02
 0.28314137776E+02 0.15332155448E+02 0.80059595337E+01 0.71050823818E+01 0.75714523202E+01
 0.63916434704E+01 0.70051622757E+01 0.75714523202E+01 0.80518396210E+01 0.72849207381E+01
 0.76180562909E+01 0.13230483909E+02 0.24468557799E+02 0.41026246744E+02 0.90057641738E+02
 0.19498018618E+03 0.34106043716E+03 0.47342204509E+03 0.52725105478E+03 0.47342204509E+03
 0.34106043716E+03 0.19498018618E+03 0.90057641738E+02 0.41026246744E+02 0.24468557799E+02
 0.13230483909E+02 0.76180562909E+01 0.72849207381E+01 0.80518396210E+01 0.75714523202E+01
 0.68537792755E+01 0.71050823818E+01 0.72849207381E+01 0.68480634502E+01 0.71001464140E+01
 0.10779867078E+02 0.19190681573E+02 0.30435082588E+02 0.54846556232E+02 0.11134692539E+03
 0.19498018618E+03 0.27322039854E+03 0.30547456698E+03 0.27322039854E+03 0.19498018618E+03
 0.11134692539E+03 0.54846556232E+02 0.30435082588E+02 0.19190681573E+02 0.10779867078E+02
 0.71001464140E+01 0.68480634502E+01 0.72849207381E+01 0.71050823818E+01 0.81363856531E+01
 0.80059595337E+01 0.76180562909E+01 0.71001464140E+01 0.70553481261E+01 0.88156048022E+01
 0.13844210888E+02 0.22185692424E+02 0.33031900089E+02 0.54846556232E+02 0.90057641738E+02
 0.12498493709E+03 0.13976441582E+03 0.12498493709E+03 0.90057641738E+02 0.54846556232E+02
 0.33031900089E+02 0.22185692424E+02 0.13844210888E+02 0.88156048022E+01 0.70553481261E+01
 0.71001464140E+01 0.76180562909E+01 0.80059595337E+01 0.16176240593E+02 0.15332155448E+02
 0.13230483909E+02 0.10779867078E+02 0.88156048022E+01 0.81608038540E+01 0.98868356661E+01
 0.14773316791E+02 0.22185692424E+02 0.30435082588E+02 0.41026246744E+02 0.51924231685E+02
 0.56706617571E+02 0.51924231685E+02 0.41026246744E+02 0.30435082588E+02 0.22185692424E+02
 0.14773316791E+02 0.98868356661E+01 0.81608038540E+01 0.88156048022E+01 0.10779867078E+02
 0.13230483909E+02 0.15332155448E+02 0.29778929143E+02 0.28314137776E+02 0.24468557799E+02
 0.19190681573E+02 0.13844210888E+02 0.98868356661E+01 0.84291459586E+01 0.98868356661E+01
 0.13844210888E+02 0.19190681573E+02 0.24468557799E+02 0.28314137776E+02 0.29778929143E+02
 0.28314137776E+02 0.24468557799E+02 0.19190681573E+02 0.13844210888E+02 0.98868356661E+01
 0.84291459586E+01 0.98868356661E+01 0.13844210888E+02 0.19190681573E+02 0.24468557799E+02
 0.28314137776E+02 0.56706617571E+02 0.51924231685E+02 0.41026246744E+02 0.30435082588E+02
 0.22185692424E+02 0.14773316791E+02 0.98868356661E+01 0.81608038540E+01 0.88156048022E+01
 0.10779867078E+02 0.13230483909E+02 0.15332155448E+02 0.16176240593E+02 0.15332155448E+02
 0.13230483909E+02 0.10779867078E+02 0.88156048022E+01 0.81608038540E+01 0.98868356661E+01
 0.14773316791E+02 0.22185692424E+02 0.30435082588E+02 0.41026246744E+02 0.51924231685E+02
 0.13976441582E+03 0.12498493709E+03 0.90057641738E+02 0.54846556232E+02 0.33031900089E+02
 0.22185692424E+02 0.13844210888E+02 0.88156048022E+01 0.70553481261E+01 0.71001464140E+01
 0.76180562909E+01 0.80059595337E+01 0.81363856531E+01 0.80059595337E+01 0.76180562909E+01
 0.71001464140E+01 0.70553481261E+01 0.88156048022E+01 0.13844210888E+02 0.22185692424E+02
 0.33031900089E+02 0.54846556232E+02 0.90057641738E+02 0.12498493709E+03 0.30547456698E+03
 0.27322039854E+03 0.19498018618E+03 0.11134692539E+03 0.54846556232E+02 0.30435082588E+02
 0.19190681573E+02 0.10779867078E+02 0.71001464140E+01 0.68480634502E+01 0.72849207381E+01
 0.71050823818E+01 0.68537792754E+01 0.71050823818E+01 0.72849207381E+01 0.68480634502E+01
 0.71001464140E+01 0.10779867078E+02 0.19190681573E+02 0.30435082588E+02 0.54846556232E+02
 0.11134692539E+03 0.19498018618E+03 0.27322039854E+03 0.52725105478E+03 0.47342204509E+03
 0.34106043716E+03 0.19498018618E+03 0.90057641738E+02 0.41026246744E+02 0.24468557799E+02
 0.13230483909E+02 0.76180562909E+01 0.72849207381E+01 0.80518396210E+01 0.75714523202E+01
 0.70051622757E+01 0.75714523202E+01 0.80518396210E+01 0.72849207381E+01 0.76180562909E+01
 0.13230483909E+02 0.24468557799E+02 0.41026246744E+02 0.90057641738E+02 0.19498018618E+03
 0.34106043716E+03 0.47342204509E+03 0.72422219803E+03 0.65205081212E+03 0.47342204509E+03
 0.27322039854E+03 0.12498493709E+03 0.51924231685E+02 0.28314137776E+02 0.15332155448E+02
 0.80059595337E+01 0.71050823818E+01 0.75714523202E+01 0.63916434704E+01 0.53907746942E+01
 0.63916434704E+01 0.75714523202E+01 0.71050823818E+01 0.80059595337E+01 0.15332155448E+02
 0.28314137776E+02 0.51924231685E+02 0.12498493709E+03 0.27322039854E+03 0.47342204509E+03
 0.65205081212E+03 0.72422219803E+03 0.65205081212E+03 0.47342204509E+03 0.27322039854E+03
 0.12498493709E+03 0.51924231685E+02 0.28314137776E+02 0.15332155448E+02 0.80059595337E+01
 0.71050823818E+01 0.75714523202E+01 0.63916434704E+01 0.53907746942E+01 0.63916434704E+01
 0.75714523202E+01 0.71050823818E+01 0.80059595337E+01 0.15332155448E+02 0.28314137776E+02
 0.51924231685E+02 0.12498493709E+03 0.27322039854E+03 0.47342204509E+03 0.65205081212E+03
 0.65205081212E+03 0.58655101991E+03 0.42476312574E+03 0.24429883668E+03 0.11193310158E+03
 0.47793735079E+02 0.26954539233E+02 0.14541096857E+02 0.78609586715E+01 0.72750608779E+01
 0.79945282671E+01 0.71883666404E+01 0.63916434704E+01 0.71883666404E+01 0.79945282671E+01
 0.72750608779E+01 0.78609586715E+01 0.14541096857E+02 0.26954539233E+02 0.47793735079E+02
 0.11193310158E+03 0.24429883668E+03 0.42476312574E+03 0.58655101991E+03 0.47342204509E+03
 0.42476312574E+03 0.30538651621E+03 0.17434527986E+03 0.81213080602E+02 0.38394859212E+02
 0.23304880684E+02 0.12591518500E+02 0.74657203239E+01 0.73175539438E+01 0.82247593658E+01
 0.79945282671E+01 0.75714523202E+01 0.79945282671E+01 0.82247593658E+01 0.73175539438E+01
 0.74657203239E+01 0.12591518500E+02 0.23304880684E+02 0.38394859212E+02 0.81213080602E+02
 0.17434527986E+03 0.30538651621E+03 0.42476312574E+03 0.27322039854E+03 0.24429883668E+03
 0.17434527986E+03 0.10007350580E+03 0.50498264201E+02 0.29152402205E+02 0.18329009310E+02
 0.10362980658E+02 0.69883618555E+01 0.68193374128E+01 0.73175539438E+01 0.72750608779E+01
 0.71050823818E+01 0.72750608779E+01 0.73175539438E+01 0.68193374128E+01 0.69883618555E+01
 0.10362980658E+02 0.18329009310E+02 0.29152402205E+02 0.50498264201E+02 0.10007350580E+03
 0.17434527986E+03 0.24429883668E+03 0.12498493709E+03 0.11193310158E+03 0.81213080602E+02
 0.50498264201E+02 0.31549543662E+02 0.21397682309E+02 0.13361130049E+02 0.86225352750E+01
 0.69732154807E+01 0.69883618555E+01 0.74657203239E+01 0.78609586715E+01 0.80059595337E+01
 0.78609586715E+01 0.74657203239E+01 0.69883618555E+01 0.69732154807E+01 0.86225352750E+01
 0.13361130049E+02 0.21397682309E+02 0.31549543662E+02 0.50498264201E+02 0.81213080602E+02
 0.11193310158E+03 0.51924231685E+02 0.47793735079E+02 0.38394859212E+02 0.29152402205E+02
 0.21397682309E+02 0.14332155759E+02 0.97294569499E+01 0.80862798161E+01 0.86225352750E+01
 0.10362980658E+02 0.12591518500E+02 0.14541096857E+02 0.15332155448E+02 0.14541096857E+02
 0.12591518500E+02 0.10362980658E+02 0.86225352750E+01 0.80862798161E+01 0.97294569499E+01
 0.14332155759E+02 0.21397682309E+02 0.29152402205E+02 0.38394859212E+02 0.47793735079E+02
 0.28314137776E+02 0.26954539233E+02 0.23304880684E+02 0.18329009310E+02 0.13361130049E+02
 0.97294569499E+01 0.84012431400E+01 0.97294569499E+01 0.13361130049E+02 0.18329009310E+02
 0.23304880684E+02 0.26954539233E+02 0.28314137776E+02 0.26954539233E+02 0.23304880684E+02
 0.18329009310E+02 0.13361130049E+02 0.97294569499E+01 0.84012431400E+01 0.97294569499E+01
 0.13361130049E+02 0.18329009310E+02 0.23304880684E+02 0.26954539233E+02 0.15332155448E+02
 0.14541096857E+02 0.12591518500E+02 0.10362980658E+02 0.86225352750E+01 0.80862798161E+01
 0.97294569499E+01 0.14332155759E+02 0.21397682309E+02 0.29152402205E+02 0.38394859212E+02
 0.47793735079E+02 0.51924231685E+02 0.47793735079E+02 0.38394859212E+02 0.29152402205E+02
 0.21397682309E+02 0.14332155759E+02 0.97294569499E+01 0.80862798161E+01 0.86225352750E+01
 0.10362980658E+02 0.12591518500E+02 0.14541096857E+02 0.80059595337E+01 0.78609586715E+01
 0.74657203239E+01 0.69883618555E+01 0.69732154807E+01 0.86225352750E+01 0.13361130049E+02
 0.21397682309E+02 0.31549543662E+02 0.50498264201E+02 0.81213080602E+02 0.11193310158E+03
 0.12498493709E+03 0.11193310158E+03 0.81213080602E+02 0.50498264201E+02 0.31549543662E+02
 0.21397682309E+02 0.13361130049E+02 0.86225352750E+01 0.69732154807E+01 0.69883618555E+01
 0.74657203239E+01 0.78609586715E+01 0.71050823818E+01 0.72750608779E+01 0.73175539438E+01
 0.68193374128E+01 0.69883618555E+01 0.10362980658E+02 0.18329009310E+02 0.29152402205E+02
 0.50498264201E+02 0.10007350580E+03 0.17434527986E+03 0.24429883668E+03 0.27322039854E+03
 0.24429883668E+03 0.17434527986E+03 0.10007350580E+03 0.50498264201E+02 0.29152402205E+02
 0.18329009310E+02 0.10362980658E+02 0.69883618555E+01 0.68193374128E+01 0.73175539438E+01
 0.72750608779E+01 0.75714523202E+01 0.79945282671E+01 0.82247593658E+01 0.73175539438E+01
 0.74657203239E+01 0.12591518500E+02 0.23304880684E+02 0.38394859212E+02 0.81213080602E+02
 0.17434527986E+03 0.30538651621E+03 0.42476312574E+03 0.47342204509E+03 0.42476312574E+03
 0.30538651621E+03 0.17434527986E+03 0.81213080602E+02 0.38394859212E+02 0.23304880684E+02
 0.12591518500E+02 0.74657203239E+01 0.73175539438E+01 0.82247593658E+01 0.79945282671E+01
 0.63916434704E+01 0.71883666404E+01 0.79945282671E+01 0.72750608779E+01 0.78609586715E+01
 0.14541096857E+02 0.26954539233E+02 0.47793735079E+02 0.11193310158E+03 0.24429883668E+03
 0.42476312574E+03 0.58655101991E+03 0.65205081212E+03 0.58655101991E+03 0.42476312574E+03
 0.24429883668E+03 0.11193310158E+03 0.47793735079E+02 0.26954539233E+02 0.14541096857E+02
 0.78609586715E+01 0.72750608779E+01 0.79945282671E+01 0.71883666404E+01 0.53907746942E+01
 0.63916434704E+01 0.75714523202E+01 0.71050823818E+01 0.80059595337E+01 0.15332155448E+02
 0.28314137776E+02 0.51924231685E+02 0.12498493709E+03 0.27322039854E+03 0.47342204509E+03
 0.65205081212E+03 0.72422219803E+03 0.65205081212E+03 0.47342204509E+03 0.27322039854E+03
 0.12498493709E+03 0.51924231685E+02 0.28314137776E+02 0.15332155448E+02 0.80059595337E+01
 0.71050823818E+01 0.75714523202E+01 0.63916434704E+01 0.63916434704E+01 0.71883666404E+01
 0.79945282671E+01 0.72750608779E+01 0.78609586715E+01 0.14541096857E+02 0.26954539233E+02
 0.47793735079E+02 0.11193310158E+03 0.24429883668E+03 0.42476312574E+03 0.58655101991E+03
 0.65205081212E+03 0.58655101991E+03 0.42476312574E+03 0.24429883668E+03 0.11193310158E+03
 0.47793735079E+02 0.26954539233E+02 0.14541096857E+02 0.78609586715E+01 0.72750608779E+01
 0.79945282671E+01 0.71883666404E+01 0.75714523202E+01 0.79945282671E+01 0.82247593658E+01
 0.73175539438E+01 0.74657203239E+01 0.12591518500E+02 0.23304880684E+02 0.38394859212E+02
 0.81213080602E+02 0.17434527986E+03 0.30538651621E+03 0.42476312574E+03 0.47342204509E+03
 0.42476312574E+03 0.30538651621E+03 0.17434527986E+03 0.81213080602E+02 0.38394859212E+02
 0.23304880684E+02 0.12591518500E+02 0.74657203239E+01 0.73175539438E+01 0.82247593658E+01
 0.79945282671E+01 0.71050823818E+01 0.72750608779E+01 0.73175539438E+01 0.68193374128E+01
 0.69883618555E+01 0.10362980658E+02 0.18329009310E+02 0.29152402205E+02 0.50498264201E+02
 0.10007350580E+03 0.17434527986E+03 0.24429883668E+03 0.27322039854E+03 0.24429883668E+03
 0.17434527986E+03 0.10007350580E+03 0.50498264201E+02 0.29152402205E+02 0.18329009310E+02
 0.10362980658E+02 0.69883618555E+01 0.68193374128E+01 0.73175539438E+01 0.72750608779E+01
 0.80059595337E+01 0.78609586715E+01 0.74657203239E+01 0.69883618555E+01 0.69732154807E+01
 0.86225352750E+01 0.13361130049E+02 0.21397682309E+02 0.31549543662E+02 0.50498264201E+02
 0.81213080602E+02 0.11193310158E+03 0.12498493709E+03 0.11193310158E+03 0.81213080602E+02
 0.50498264201E+02 0.31549543662E+02 0.21397682309E+02 0.13361130049E+02 0.86225352750E+01
 0.69732154807E+01 0.69883618555E+01 0.74657203239E+01 0.78609586715E+01 0.15332155448E+02
 0.14541096857E+02 0.12591518500E+02 0.10362980658E+02 0.86225352750E+01 0.80862798161E+01
 0.97294569499E+01 0.14332155759E+02 0.21397682309E+02 0.29152402205E+02 0.38394859212E+02
 0.47793735079E+02 0.51924231685E+02 0.47793735079E+02 0.38394859212E+02 0.29152402205E+02
 0.21397682309E+02 0.14332155759E+02 0.97294569499E+01 0.80862798161E+01 0.86225352750E+01
 0.10362980658E+02 0.12591518500E+02 0.14541096857E+02 0.28314137776E+02 0.26954539233E+02
 0.23304880684E+02 0.18329009310E+02 0.13361130049E+02 0.97294569499E+01 0.84012431400E+01
 0.97294569499E+01 0.13361130049E+02 0.18329009310E+02 0.23304880684E+02 0.26954539233E+02
 0.28314137776E+02 0.26954539233E+02 0.23304880684E+02 0.18329009310E+02 0.13361130049E+02
 0.97294569499E+01 0.84012431400E+01 0.97294569499E+01 0.13361130049E+02 0.18329009310E+02
 0.23304880684E+02 0.26954539233E+02 0.51924231685E+02 0.47793735079E+02 0.38394859212E+02
 0.29152402205E+02 0.21397682309E+02 0.14332155759E+02 0.97294569499E+01 0.80862798161E+01
 0.86225352750E+01 0.10362980658E+02 0.12591518500E+02 0.14541096857E+02 0.15332155448E+02
 0.14541096857E+02 0.12591518500E+02 0.10362980658E+02 0.86225352750E+01 0.80862798161E+01
 0.97294569499E+01 0.14332155759E+02 0.21397682309E+02 0.29152402205E+02 0.38394859212E+02
 0.47793735079E+02 0.12498493709E+03 0.11193310158E+03 0.81213080602E+02 0.50498264201E+02
 0.31549543662E+02 0.21397682309E+02 0.13361130049E+02 0.86225352750E+01 0.69732154807E+01
 0.69883618555E+01 0.74657203239E+01 0.78609586715E+01 0.80059595337E+01 0.78609586715E+01
 0.74657203239E+01 0.69883618555E+01 0.69732154807E+01 0.86225352750E+01 0.13361130049E+02
 0.21397682309E+02 0.31549543662E+02 0.50498264201E+02 0.81213080602E+02 0.11193310158E+03
 0.27322039854E+03 0.24429883668E+03 0.17434527986E+03 0.10007350580E+03 0.50498264201E+02
 0.29152402205E+02 0.18329009310E+02 0.10362980658E+02 0.69883618555E+01 0.68193374128E+01
 0.73175539438E+01 0.72750608779E+01 0.71050823818E+01 0.72750608779E+01 0.73175539438E+01
 0.68193374128E+01 0.69883618555E+01 0.10362980658E+02 0.18329009310E+02 0.29152402205E+02
 0.50498264201E+02 0.10007350580E+03 0.17434527986E+03 0.24429883668E+03 0.47342204509E+03
 0.42476312574E+03 0.30538651621E+03 0.17434527986E+03 0.81213080602E+02 0.38394859212E+02
 0.23304880684E+02 0.12591518500E+02 0.74657203239E+01 0.73175539438E+01 0.82247593658E+01
 0.79945282671E+01 0.75714523202E+01 0.79945282671E+01 0.82247593658E+01 0.73175539438E+01
 0.74657203239E+01 0.12591518500E+02 0.23304880684E+02 0.38394859212E+02 0.81213080602E+02
 0.17434527986E+03 0.30538651621E+03 0.42476312574E+03 0.65205081212E+03 0.58655101991E+03
 0.42476312574E+03 0.24429883668E+03 0.11193310158E+03 0.47793735079E+02 0.26954539233E+02
 0.14541096857E+02 0.78609586715E+01 0.72750608779E+01 0.79945282671E+01 0.71883666404E+01
 0.63916434704E+01 0.71883666404E+01 0.79945282671E+01 0.72750608779E+01 0.78609586715E+01
 0.14541096857E+02 0.26954539233E+02 0.47793735079E+02 0.11193310158E+03 0.24429883668E+03
 0.42476312574E+03 0.58655101991E+03 0.52725105478E+03 0.47342204509E+03 0.34106043716E+03
 0.19498018618E+03 0.90057641738E+02 0.41026246744E+02 0.24468557799E+02 0.13230483909E+02
 0.76180562909E+01 0.72849207381E+01 0.80518396210E+01 0.75714523202E+01 0.70051622757E+01
 0.75714523202E+01 0.80518396210E+01 0.72849207381E+01 0.76180562909E+01 0.13230483909E+02
 0.24468557799E+02 0.41026246744E+02 0.90057641738E+02 0.19498018618E+03 0.34106043716E+03
 0.47342204509E+03 0.47342204509E+03 0.42476312574E+03 0.30538651621E+03 0.17434527986E+03
 0.81213080602E+02 0.38394859212E+02 0.23304880684E+02 0.12591518500E+02 0.74657203239E+01
 0.73175539438E+01 0.82247593658E+01 0.79945282671E+01 0.75714523202E+01 0.79945282671E+01
 0.82247593658E+01 0.73175539438E+01 0.74657203239E+01 0.12591518500E+02 0.23304880684E+02
 0.38394859212E+02 0.81213080602E+02 0.17434527986E+03 0.30538651621E+03 0.42476312574E+03
 0.34106043716E+03 0.30538651621E+03 0.21853936021E+03 0.12492517227E+03 0.60667107624E+02
 0.32361033478E+02 0.20183414935E+02 0.11054730992E+02 0.71096453505E+01 0.71747790961E+01
 0.81046274746E+01 0.82247593658E+01 0.80518396210E+01 0.82247593658E+01 0.81046274746E+01
 0.71747790961E+01 0.71096453505E+01 0.11054730992E+02 0.20183414935E+02 0.32361033478E+02
 0.60667107624E+02 0.12492517227E+03 0.21853936021E+03 0.30538651621E+03 0.19498018618E+03
 0.17434527986E+03 0.12492517227E+03 0.73624983697E+02 0.40598284084E+02 0.25890974727E+02
 0.16056073110E+02 0.93833972703E+01 0.67694615696E+01 0.66929151075E+01 0.71747790961E+01
 0.73175539438E+01 0.72849207381E+01 0.73175539438E+01 0.71747790961E+01 0.66929151075E+01
 0.67694615696E+01 0.93833972703E+01 0.16056073110E+02 0.25890974727E+02 0.40598284084E+02
 0.73624983697E+02 0.12492517227E+03 0.17434527986E+03 0.90057641738E+02 0.81213080602E+02
 0.60667107624E+02 0.40598284084E+02 0.27985518638E+02 0.19146429879E+02 0.12086532415E+02
 0.81675658053E+01 0.68277343677E+01 0.67694615696E+01 0.71096453505E+01 0.74657203239E+01
 0.76180562909E+01 0.74657203239E+01 0.71096453505E+01 0.67694615696E+01 0.68277343677E+01
 0.81675658053E+01 0.12086532415E+02 0.19146429879E+02 0.27985518638E+02 0.40598284084E+02
 0.60667107624E+02 0.81213080602E+02 0.41026246744E+02 0.38394859212E+02 0.32361033478E+02
 0.25890974727E+02 0.19146429879E+02 0.13099604059E+02 0.92806689519E+01 0.78848960345E+01
 0.81675658053E+01 0.93833972703E+01 0.11054730992E+02 0.12591518500E+02 0.13230483909E+02
 0.12591518500E+02 0.11054730992E+02 0.93833972703E+01 0.81675658053E+01 0.78848960345E+01
 0.92806689519E+01 0.13099604059E+02 0.19146429879E+02 0.25890974727E+02 0.32361033478E+02
 0.38394859212E+02 0.24468557799E+02 0.23304880684E+02 0.20183414935E+02 0.16056073110E+02
 0.12086532415E+02 0.92806689519E+01 0.82747929944E+01 0.92806689519E+01 0.12086532415E+02
 0.16056073110E+02 0.20183414935E+02 0.23304880684E+02 0.24468557799E+02 0.23304880684E+02
 0.20183414935E+02 0.16056073110E+02 0.12086532415E+02 0.92806689519E+01 0.82747929944E+01
 0.92806689519E+01 0.12086532415E+02 0.16056073110E+02 0.20183414935E+02 0.23304880684E+02
 0.13230483909E+02 0.12591518500E+02 0.11054730992E+02 0.93833972703E+01 0.81675658053E+01
 0.78848960345E+01 0.92806689519E+01 0.13099604059E+02 0.19146429879E+02 0.25890974727E+02
 0.32361033478E+02 0.38394859212E+02 0.41026246744E+02 0.38394859212E+02 0.32361033478E+02
 0.25890974727E+02 0.19146429879E+02 0.13099604059E+02 0.92806689519E+01 0.78848960345E+01
 0.81675658053E+01 0.93833972703E+01 0.11054730992E+02 0.12591518500E+02 0.76180562909E+01
 0.74657203239E+01 0.71096453505E+01 0.67694615696E+01 0.68277343677E+01 0.81675658053E+01
 0.12086532415E+02 0.19146429879E+02 0.27985518638E+02 0.40598284084E+02 0.60667107624E+02
 0.81213080602E+02 0.90057641738E+02 0.81213080602E+02 0.60667107624E+02 0.40598284084E+02
 0.27985518638E+02 0.19146429879E+02 0.12086532415E+02 0.81675658053E+01 0.68277343677E+01
 0.67694615696E+01 0.71096453505E+01 0.74657203239E+01 0.72849207381E+01 0.73175539438E+01
 0.71747790961E+01 0.66929151075E+01 0.67694615696E+01 0.93833972703E+01 0.16056073110E+02
 0.25890974727E+02 0.40598284084E+02 0.73624983697E+02 0.12492517227E+03 0.17434527986E+03
 0.19498018618E+03 0.17434527986E+03 0.12492517227E+03 0.73624983697E+02 0.40598284084E+02
 0.25890974727E+02 0.16056073110E+02 0.93833972703E+01 0.67694615696E+01 0.66929151075E+01
 0.71747790961E+01 0.73175539438E+01 0.80518396210E+01 0.82247593658E+01 0.81046274746E+01
 0.71747790961E+01 0.71096453505E+01 0.11054730992E+02 0.20183414935E+02 0.32361033478E+02
 0.60667107624E+02 0.12492517227E+03 0.21853936021E+03 0.30538651621E+03 0.34106043716E+03
 0.30538651621E+03 0.21853936021E+03 0.12492517227E+03 0.60667107624E+02 0.32361033478E+02
 0.20183414935E+02 0.11054730992E+02 0.71096453505E+01 0.71747790961E+01 0.81046274746E+01
 0.82247593658E+01 0.75714523202E+01 0.79945282671E+01 0.82247593658E+01 0.73175539438E+01
 0.74657203239E+01 0.12591518500E+02 0.23304880684E+02 0.38394859212E+02 0.81213080602E+02
 0.17434527986E+03 0.30538651621E+03 0.42476312574E+03 0.47342204509E+03 0.42476312574E+03
 0.30538651621E+03 0.17434527986E+03 0.81213080602E+02 0.38394859212E+02 0.23304880684E+02
 0.12591518500E+02 0.74657203239E+01 0.73175539438E+01 0.82247593658E+01 0.79945282671E+01
 0.70051622757E+01 0.75714523202E+01 0.80518396210E+01 0.72849207381E+01 0.76180562909E+01
 0.13230483909E+02 0.24468557799E+02 0.41026246744E+02 0.90057641738E+02 0.19498018618E+03
 0.34106043716E+03 0.47342204509E+03 0.52725105478E+03 0.47342204509E+03 0.34106043716E+03
 0.19498018618E+03 0.90057641738E+02 0.41026246744E+02 0.24468557799E+02 0.13230483909E+02
 0.76180562909E+01 0.72849207381E+01 0.80518396210E+01 0.75714523202E+01 0.75714523202E+01
 0.79945282671E+01 0.82247593658E+01 0.73175539438E+01 0.74657203239E+01 0.12591518500E+02
 0.23304880684E+02 0.38394859212E+02 0.81213080602E+02 0.17434527986E+03 0.30538651621E+03
 0.42476312574E+03 0.47342204509E+03 0.42476312574E+03 0.30538651621E+03 0.17434527986E+03
 0.81213080602E+02 0.38394859212E+02 0.23304880684E+02 0.12591518500E+02 0.74657203239E+01
 0.73175539438E+01 0.82247593658E+01 0.79945282671E+01 0.80518396210E+01 0.82247593658E+01
 0.81046274746E+01 0.71747790961E+01 0.71096453505E+01 0.11054730992E+02 0.20183414935E+02
 0.32361033478E+02 0.60667107624E+02 0.12492517227E+03 0.21853936021E+03 0.30538651621E+03
 0.34106043716E+03 0.30538651621E+03 0.21853936021E+03 0.12492517227E+03 0.60667107624E+02
 0.32361033478E+02 0.20183414935E+02 0.11054730992E+02 0.71096453505E+01 0.71747790961E+01
 0.81046274746E+01 0.82247593658E+01 0.72849207381E+01 0.73175539438E+01 0.71747790961E+01
 0.66929151075E+01 0.67694615696E+01 0.93833972703E+01 0.16056073110E+02 0.25890974727E+02
 0.40598284084E+02 0.73624983697E+02 0.12492517227E+03 0.17434527986E+03 0.19498018618E+03
 0.17434527986E+03 0.12492517227E+03 0.73624983697E+02 0.40598284084E+02 0.25890974727E+02
 0.16056073110E+02 0.93833972703E+01 0.67694615696E+01 0.66929151075E+01 0.71747790961E+01
 0.73175539438E+01 0.76180562909E+01 0.74657203239E+01 0.71096453505E+01 0.67694615696E+01
 0.68277343677E+01 0.81675658053E+01 0.12086532415E+02 0.19146429879E+02 0.27985518638E+02
 0.40598284084E+02 0.60667107624E+02 0.81213080602E+02 0.90057641738E+02 0.81213080602E+02
 0.60667107624E+02 0.40598284084E+02 0.27985518638E+02 0.19146429879E+02 0.12086532415E+02
 0.81675658053E+01 0.68277343677E+01 0.67694615696E+01 0.71096453505E+01 0.74657203239E+01
 0.13230483909E+02 0.12591518500E+02 0.11054730992E+02 0.93833972703E+01 0.81675658053E+01
 0.78848960345E+01 0.92806689519E+01 0.13099604059E+02 0.19146429879E+02 0.25890974727E+02
 0.32361033478E+02 0.38394859212E+02 0.41026246744E+02 0.38394859212E+02 0.32361033478E+02
 0.25890974727E+02 0.19146429879E+02 0.13099604059E+02 0.92806689519E+01 0.78848960345E+01
 0.81675658053E+01 0.93833972703E+01 0.11054730992E+02 0.12591518500E+02 0.24468557799E+02
 0.23304880684E+02 0.20183414935E+02 0.16056073110E+02 0.12086532415E+02 0.92806689519E+01
 0.82747929944E+01 0.92806689519E+01 0.12086532415E+02 0.16056073110E+02 0.20183414935E+02
 0.23304880684E+02 0.24468557799E+02 0.23304880684E+02 0.20183414935E+02 0.16056073110E+02
 0.12086532415E+02 0.92806689519E+01 0.82747929944E+01 0.92806689519E+01 0.12086532415E+02
 0.16056073110E+02 0.20183414935E+02 0.23304880684E+02 0.41026246744E+02 0.38394859212E+02
 0.32361033478E+02 0.25890974727E+02 0.19146429879E+02 0.13099604059E+02 0.92806689519E+01
 0.78848960345E+01 0.81675658053E+01 0.93833972703E+01 0.11054730992E+02 0.12591518500E+02
 0.13230483909E+02 0.12591518500E+02 0.11054730992E+02 0.93833972703E+01 0.81675658053E+01