   4   4   0   0
  0.1200752E+02  0.3635000E-09  0.3635000E-09  0.3635000E-09  0.5000000E-15
  1.000000000000000E-004
  CAR 
 unknown system                          
     27.59303486     -3.66415186  301      7.34088543      1.00000000
     -3.664  0.0000E+00  0.0000E+00
     -3.560  0.0000E+00  0.0000E+00
     -3.456  0.0000E+00  0.0000E+00
     -3.352 -0.4441E-31 -0.4627E-32
     -3.247 -0.2087E-27 -0.2175E-28
     -3.143 -0.5677E-24 -0.5917E-25
     -3.039 -0.8927E-21 -0.9308E-22
     -2.935 -0.8110E-18 -0.8459E-19
     -2.831 -0.4166E-15 -0.4349E-16
     -2.726 -0.1239E-12 -0.1295E-13
     -2.622 -0.2134E-10 -0.2236E-11
     -2.518 -0.2100E-08 -0.2210E-09
     -2.414 -0.1173E-06 -0.1244E-07
     -2.310 -0.3678E-05 -0.3956E-06
     -2.205 -0.6345E-04 -0.7007E-05
     -2.101 -0.5767E-03 -0.6710E-04
     -1.997 -0.2444E-02 -0.3217E-03
     -1.893 -0.2188E-02 -0.5497E-03
     -1.789  0.1594E-01  0.1111E-02
     -1.685  0.5174E-01  0.6502E-02
     -1.580  0.5526E-01  0.1226E-01
     -1.476  0.1036E-01  0.1334E-01
     -1.372  0.1830E-01  0.1524E-01
     -1.268  0.1903E+00  0.3507E-01
     -1.164  0.3727E+00  0.7391E-01
     -1.059  0.2735E+00  0.1024E+00
     -0.955  0.6341E-01  0.1090E+00
     -0.851  0.2020E+00  0.1300E+00
     -0.747  0.6420E+00  0.1969E+00
     -0.643  0.7202E+00  0.2720E+00
     -0.538  0.3049E+00  0.3038E+00
     -0.434  0.8385E-01  0.3125E+00
     -0.330  0.3150E+00  0.3453E+00
     -0.226  0.4955E+00  0.3969E+00
     -0.122  0.2966E+00  0.4278E+00
     -0.017  0.1239E+00  0.4407E+00
      0.087  0.2592E+00  0.4677E+00
      0.191  0.3268E+00  0.5018E+00
      0.295  0.1293E+00  0.5153E+00
      0.399  0.2468E+00  0.5410E+00
      0.503  0.1048E+01  0.6502E+00
      0.608  0.1523E+01  0.8089E+00
      0.712  0.8562E+00  0.8981E+00
      0.816  0.2208E+00  0.9211E+00
      0.920  0.7256E+00  0.9967E+00
      1.024  0.1497E+01  0.1153E+01
      1.129  0.1188E+01  0.1277E+01
      1.233  0.3160E+00  0.1309E+01
      1.337 -0.7051E-01  0.1302E+01
      1.441 -0.7666E-01  0.1294E+01
      1.545 -0.4004E-01  0.1290E+01
      1.650  0.7635E-01  0.1298E+01
      1.754  0.4363E+00  0.1343E+01
      1.858  0.9821E+00  0.1446E+01
      1.962  0.1590E+01  0.1611E+01
      2.066  0.2806E+01  0.1904E+01
      2.171  0.4549E+01  0.2378E+01
      2.275  0.5017E+01  0.2900E+01
      2.379  0.4878E+01  0.3409E+01
      2.483  0.9246E+01  0.4372E+01
      2.587  0.1862E+02  0.6312E+01
      2.691  0.2391E+02  0.8803E+01
      2.796  0.2106E+02  0.1100E+02
      2.900  0.1773E+02  0.1284E+02
      3.004  0.1912E+02  0.1484E+02
      3.108  0.2005E+02  0.1693E+02
      3.212  0.1445E+02  0.1843E+02
      3.317  0.7334E+01  0.1920E+02
      3.421  0.7658E+01  0.1999E+02
      3.525  0.1261E+02  0.2131E+02
      3.629  0.1252E+02  0.2261E+02
      3.733  0.8237E+01  0.2347E+02
      3.838  0.7507E+01  0.2425E+02
      3.942  0.1118E+02  0.2542E+02
      4.046  0.1485E+02  0.2696E+02
      4.150  0.1506E+02  0.2853E+02
      4.254  0.1226E+02  0.2981E+02
      4.359  0.9809E+01  0.3083E+02
      4.463  0.9859E+01  0.3186E+02
      4.567  0.1169E+02  0.3308E+02
      4.671  0.1181E+02  0.3431E+02
      4.775  0.9104E+01  0.3526E+02
      4.879  0.6657E+01  0.3595E+02
      4.984  0.5463E+01  0.3652E+02
      5.088  0.4097E+01  0.3695E+02
      5.192  0.2374E+01  0.3719E+02
      5.296  0.2600E+01  0.3746E+02
      5.400  0.5770E+01  0.3807E+02
      5.505  0.7516E+01  0.3885E+02
      5.609  0.4648E+01  0.3933E+02
      5.713  0.1314E+01  0.3947E+02
      5.817  0.1294E+01  0.3961E+02
      5.921  0.2642E+01  0.3988E+02
      6.026  0.2714E+01  0.4016E+02
      6.130  0.1513E+01  0.4032E+02
      6.234  0.2884E+00  0.4035E+02
      6.338  0.4835E+00  0.4040E+02
      6.442  0.2555E+01  0.4067E+02
      6.547  0.5076E+01  0.4120E+02
      6.651  0.6167E+01  0.4184E+02
      6.755  0.5135E+01  0.4237E+02
      6.859  0.3144E+01  0.4270E+02
      6.963  0.2702E+01  0.4298E+02
      7.067  0.3503E+01  0.4335E+02
      7.172  0.2846E+01  0.4364E+02
      7.276  0.1897E+01  0.4384E+02
      7.380  0.2603E+01  0.4411E+02
      7.484  0.2629E+01  0.4439E+02
      7.588  0.1250E+01  0.4452E+02
      7.693  0.8796E+00  0.4461E+02
      7.797  0.1496E+01  0.4477E+02
      7.901  0.1818E+01  0.4495E+02
      8.005  0.1938E+01  0.4516E+02
      8.109  0.1911E+01  0.4536E+02
      8.214  0.1887E+01  0.4555E+02
      8.318  0.1755E+01  0.4573E+02
      8.422  0.9851E+00  0.4584E+02
      8.526  0.1488E+00  0.4585E+02
      8.630 -0.1461E+00  0.4584E+02
      8.735 -0.1060E+00  0.4583E+02
      8.839  0.3474E+00  0.4586E+02
      8.943  0.1219E+01  0.4599E+02
      9.047  0.1488E+01  0.4615E+02
      9.151  0.1180E+01  0.4627E+02
      9.255  0.1978E+01  0.4647E+02
      9.360  0.3054E+01  0.4679E+02
      9.464  0.2156E+01  0.4702E+02
      9.568  0.4581E+00  0.4706E+02
      9.672 -0.1859E+00  0.4705E+02
      9.776 -0.9572E-02  0.4704E+02
      9.881  0.4735E+00  0.4709E+02
      9.985  0.7806E+00  0.4718E+02
     10.089  0.5116E+00  0.4723E+02
     10.193  0.8370E-01  0.4724E+02
     10.297 -0.1072E+00  0.4723E+02
     10.402 -0.1258E+00  0.4721E+02
     10.506  0.3490E+00  0.4725E+02
     10.610  0.1596E+01  0.4742E+02
     10.714  0.2306E+01  0.4766E+02
     10.818  0.1386E+01  0.4780E+02
     10.923  0.1455E+00  0.4782E+02
     11.027 -0.2380E+00  0.4779E+02
     11.131  0.4120E+00  0.4783E+02
     11.235  0.2048E+01  0.4805E+02
     11.339  0.3013E+01  0.4836E+02
     11.443  0.1918E+01  0.4856E+02
     11.548  0.3599E+00  0.4860E+02
     11.652 -0.2381E+00  0.4857E+02
     11.756 -0.2681E+00  0.4855E+02
     11.860  0.4426E+00  0.4859E+02
     11.964  0.2477E+01  0.4885E+02
     12.069  0.3876E+01  0.4925E+02
     12.173  0.2521E+01  0.4952E+02
     12.277  0.4230E+00  0.4956E+02
     12.381 -0.2781E+00  0.4953E+02
     12.485  0.2660E+00  0.4956E+02
     12.590  0.1508E+01  0.4972E+02
     12.694  0.2062E+01  0.4993E+02
     12.798  0.1144E+01  0.5005E+02
     12.902  0.1331E+00  0.5006E+02
     13.006 -0.1417E+00  0.5005E+02
     13.111 -0.1798E+00  0.5003E+02
     13.215 -0.7444E-01  0.5002E+02
     13.319  0.9811E+00  0.5013E+02
     13.423  0.2788E+01  0.5042E+02
     13.527  0.3012E+01  0.5073E+02
     13.631  0.1423E+01  0.5088E+02
     13.736  0.5799E+00  0.5094E+02
     13.840  0.9551E+00  0.5104E+02
     13.944  0.1174E+01  0.5116E+02
     14.048  0.7383E+00  0.5124E+02
     14.152  0.1495E+00  0.5125E+02
     14.257 -0.1443E+00  0.5124E+02
     14.361 -0.1601E-01  0.5124E+02
     14.465  0.8676E+00  0.5133E+02
     14.569  0.2235E+01  0.5156E+02
     14.673  0.2564E+01  0.5183E+02
     14.778  0.1449E+01  0.5198E+02
     14.882  0.9658E+00  0.5208E+02
     14.986  0.2212E+01  0.5231E+02
     15.090  0.2874E+01  0.5261E+02
     15.194  0.1814E+01  0.5280E+02
     15.299  0.1231E+01  0.5292E+02
     15.403  0.1389E+01  0.5307E+02
     15.507  0.8235E+00  0.5316E+02
     15.611  0.1660E+00  0.5317E+02
     15.715  0.5691E+00  0.5323E+02
     15.819  0.1400E+01  0.5338E+02
     15.924  0.1293E+01  0.5351E+02
     16.028  0.6772E+00  0.5358E+02
     16.132  0.6855E+00  0.5365E+02
     16.236  0.9590E+00  0.5375E+02
     16.340  0.8926E+00  0.5385E+02
     16.445  0.6884E+00  0.5392E+02
     16.549  0.1141E+01  0.5404E+02
     16.653  0.2377E+01  0.5429E+02
     16.757  0.3318E+01  0.5463E+02
     16.861  0.2991E+01  0.5494E+02
     16.966  0.1655E+01  0.5512E+02
     17.070  0.5140E+00  0.5517E+02
     17.174  0.8341E-01  0.5518E+02
     17.278  0.4136E+00  0.5522E+02
     17.382  0.1256E+01  0.5535E+02
     17.487  0.1369E+01  0.5549E+02
     17.591  0.5946E+00  0.5556E+02
     17.695  0.6319E+00  0.5562E+02
     17.799  0.1985E+01  0.5583E+02
     17.903  0.3054E+01  0.5615E+02
     18.007  0.2570E+01  0.5641E+02
     18.112  0.1077E+01  0.5653E+02
     18.216 -0.8663E-03  0.5653E+02
     18.320  0.1232E+00  0.5654E+02
     18.424  0.1331E+01  0.5668E+02
     18.528  0.2576E+01  0.5695E+02
     18.633  0.2758E+01  0.5723E+02
     18.737  0.2676E+01  0.5751E+02
     18.841  0.3571E+01  0.5788E+02
     18.945  0.3946E+01  0.5830E+02
     19.049  0.2290E+01  0.5853E+02
     19.154  0.3989E+00  0.5858E+02
     19.258 -0.1848E+00  0.5856E+02
     19.362 -0.1015E+00  0.5855E+02
     19.466 -0.2097E-01  0.5854E+02
     19.570 -0.1660E-01  0.5854E+02
     19.675 -0.6718E-01  0.5854E+02
     19.779 -0.9456E-01  0.5853E+02
     19.883  0.3124E+00  0.5856E+02
     19.987  0.1467E+01  0.5871E+02
     20.091  0.2522E+01  0.5897E+02
     20.196  0.2298E+01  0.5921E+02
     20.300  0.1142E+01  0.5933E+02
     20.404  0.2863E+00  0.5936E+02
     20.508  0.2463E-01  0.5936E+02
     20.612 -0.1869E-01  0.5936E+02
     20.716 -0.1701E-01  0.5936E+02
     20.821 -0.6089E-02  0.5936E+02
     20.925 -0.1053E-02  0.5936E+02
     21.029 -0.9485E-04  0.5936E+02
     21.133 -0.4641E-05  0.5936E+02
     21.237 -0.1272E-06  0.5936E+02
     21.342 -0.8560E-07  0.5936E+02
     21.446 -0.4367E-05  0.5936E+02
     21.550 -0.1277E-03  0.5936E+02
     21.654 -0.2049E-02  0.5936E+02
     21.758 -0.1717E-01  0.5936E+02
     21.863 -0.6516E-01  0.5935E+02
     21.967 -0.3224E-01  0.5935E+02
     22.071  0.4788E+00  0.5940E+02
     22.175  0.1356E+01  0.5954E+02
     22.279  0.1450E+01  0.5969E+02
     22.384  0.6115E+00  0.5975E+02
     22.488  0.4834E-02  0.5975E+02
     22.592 -0.7261E-01  0.5975E+02
     22.696 -0.2234E-01  0.5974E+02
     22.800 -0.2970E-02  0.5974E+02
     22.904 -0.2038E-03  0.5974E+02
     23.009 -0.7627E-05  0.5974E+02
     23.113 -0.1596E-06  0.5974E+02
     23.217 -0.1891E-08  0.5974E+02
     23.321 -0.1279E-10  0.5974E+02
     23.425 -0.4992E-13  0.5974E+02
     23.530  0.0000E+00  0.5974E+02
     23.634  0.0000E+00  0.5974E+02
     23.738  0.0000E+00  0.5974E+02
     23.842  0.0000E+00  0.5974E+02
     23.946 -0.2072E-28  0.5974E+02
     24.051 -0.7862E-25  0.5974E+02
     24.155 -0.1726E-21  0.5974E+02
     24.259 -0.2190E-18  0.5974E+02
     24.363 -0.1605E-15  0.5974E+02
     24.467 -0.6576E-13  0.5974E+02
     24.572 -0.1587E-10  0.5974E+02
     24.676 -0.2198E-08  0.5974E+02
     24.780 -0.1734E-06  0.5974E+02
     24.884 -0.7742E-05  0.5974E+02
     24.988 -0.1928E-03  0.5974E+02
     25.092 -0.2608E-02  0.5974E+02
     25.197 -0.1801E-01  0.5974E+02
     25.301 -0.5130E-01  0.5974E+02
     25.405  0.2855E-01  0.5974E+02
     25.509  0.4798E+00  0.5979E+02
     25.613  0.1003E+01  0.5989E+02
     25.718  0.8459E+00  0.5998E+02
     25.822  0.2563E+00  0.6001E+02
     25.926 -0.3495E-01  0.6001E+02
     26.030 -0.3910E-01  0.6000E+02
     26.134 -0.9228E-02  0.6000E+02
     26.239 -0.1015E-02  0.6000E+02
     26.343 -0.5884E-04  0.6000E+02
     26.447 -0.1876E-05  0.6000E+02
     26.551 -0.3359E-07  0.6000E+02
     26.655 -0.3414E-09  0.6000E+02
     26.760 -0.1982E-11  0.6000E+02
     26.864 -0.6547E-14  0.6000E+02
     26.968  0.0000E+00  0.6000E+02
     27.072  0.0000E+00  0.6000E+02
     27.176  0.0000E+00  0.6000E+02
     27.280  0.0000E+00  0.6000E+02
     27.385  0.0000E+00  0.6000E+02
     27.489  0.0000E+00  0.6000E+02
     27.593  0.0000E+00  0.6000E+02
