    4    4    1    1
  0.1200752E+02  0.3635000E-09  0.3635000E-09  0.3635000E-09  0.5000000E-15
  1.000000000000000E-004
  CAR 
 unknown system                          
     44     10     30
 
  0.0000000E+00  0.0000000E+00  0.0000000E+00  0.8000000E-02
    1       -1.664152   1.000000
    2        1.702309   1.000000
    3        1.702309   1.000000
    4        1.702309   1.000000
    5        2.079952   1.000000
    6        2.079952   1.000000
    7        2.079952   1.000000
    8        2.403731   1.000000
    9        2.403731   1.000000
   10        2.403731   1.000000
   11        3.189882   1.000000
   12        3.189882   1.000000
   13        3.189882   1.000000
   14        3.189882   1.000000
   15        3.189882   1.000000
   16        3.189882   1.000000
   17        3.450139   1.000000
   18        3.450139   1.000000
   19        3.450139   1.000000
   20        3.752650   1.000000
   21        3.752650   1.000000
   22        9.087313  -0.000000
   23        9.087313  -0.000000
   24        9.087313  -0.000000
   25       13.519215   0.000000
   26       13.519215   0.000000
   27       13.519215   0.000000
   28       20.355501   0.000000
   29       20.355501   0.000000
   30       20.355501   0.000000
 
  0.2000000E+00  0.0000000E+00  0.0000000E+00  0.4800000E-01
    1       -1.190428   1.000000
    2        2.306409   1.000000
    3        2.306409   1.000000
    4        2.340587   1.000000
    5        2.531357   1.000000
    6        2.531357   1.000000
    7        2.538511   1.000000
    8        2.817598   1.000000
    9        2.817598   1.000000
   10        3.305030   1.000000
   11        3.700945   1.000000
   12        3.826435   1.000000
   13        4.129806   1.000000
   14        4.129806   1.000000
   15        4.597240   1.000000
   16        4.597240   1.000000
   17        4.777067   1.000000
   18        4.777067   1.000000
   19        4.784704   1.000000
   20        5.861662   1.000000
   21        5.861662   1.000000
   22        6.863749   1.001900
   23        9.935076  -0.000000
   24        9.935076  -0.000000
   25       13.785575   0.000000
   26       13.785575   0.000000
   27       17.020959   0.000000
   28       17.864652   0.000000
   29       17.864652   0.000000
   30       18.623060   0.000000
 
  0.4000000E+00  0.0000000E+00  0.0000000E+00  0.4800000E-01
    1        0.118717   1.000000
    2        2.167035   1.000000
    3        2.186593   1.000000
    4        2.723686   1.000000
    5        2.862674   1.000000
    6        2.881509   1.000000
    7        2.881509   1.000000
    8        2.897217   1.000000
    9        2.897217   1.000000
   10        3.321309   1.000000
   11        3.321309   1.000000
   12        3.543476   1.000000
   13        3.543476   1.000000
   14        4.038983   1.000000
   15        4.064955   1.000000
   16        4.064955   1.000000
   17        4.367444   1.000000
   18        4.496490   1.000000
   19        4.496490   1.000000
   20        5.215702   1.000000
   21        5.541446   1.000000
   22        5.541446   1.000000
   23       11.987003  -0.000000
   24       11.987003  -0.000000
   25       14.633427   0.000000
   26       14.633427   0.000000
   27       14.667940   0.000000
   28       14.667940   0.000000
   29       16.317280   0.000000
   30       16.317280   0.000000
 
  0.2000000E+00  0.2000000E+00  0.0000000E+00  0.9600000E-01
    1       -0.733136   1.000000
    2        2.358263   1.000000
    3        2.456213   1.000000
    4        2.588312   1.000000
    5        2.647033   1.000000
    6        2.675582   1.000000
    7        2.675582   1.000000
    8        2.735858   1.000000
    9        2.834452   1.000000
   10        2.834452   1.000000
   11        3.717703   1.000000
   12        3.850706   1.000000
   13        4.012074   1.000000
   14        4.215840   1.000000
   15        4.594619   1.000000
   16        4.594619   1.000000
   17        4.928593   1.000000
   18        5.397076   1.000000
   19        5.397076   1.000000
   20        5.862260   1.000000
   21        5.862260   1.000000
   22        7.384462   0.320376
   23        7.384462   0.320376
   24       10.682368  -0.000000
   25       13.932628   0.000000
   26       14.557089   0.000000
   27       17.396510   0.000000
   28       17.396510   0.000000
   29       18.450360   0.000000
   30       18.450360   0.000000
 
  0.4000000E+00  0.2000000E+00  0.0000000E+00  0.1920000E+00
    1        0.547881   1.000000
    2        2.528402   1.000000
    3        2.551532   1.000000
    4        2.651132   1.000000
    5        2.733922   1.000000
    6        2.735546   1.000000
    7        2.767844   1.000000
    8        3.107340   1.000000
    9        3.452866   1.000000
   10        3.592330   1.000000
   11        3.632311   1.000000
   12        3.896824   1.000000
   13        3.983670   1.000000
   14        3.998660   1.000000
   15        4.129322   1.000000
   16        4.208894   1.000000
   17        4.304157   1.000000
   18        4.420914   1.000000
   19        4.537270   1.000000
   20        5.067923   1.000000
   21        6.029609   1.000000
   22        7.383090   0.325750
   23        8.964319  -0.000000
   24       11.313706  -0.000000
   25       12.627357  -0.000000
   26       15.037774   0.000000
   27       15.345833   0.000000
   28       16.732284   0.000000
   29       18.575283   0.000000
   30       20.006758   0.000000
 
  0.4000000E+00  0.4000000E+00  0.0000000E+00  0.9600000E-01
    1        1.903825   1.000000
    2        2.390820   1.000000
    3        2.666331   1.000000
    4        2.666331   1.000000
    5        2.877163   1.000000
    6        2.992188   1.000000
    7        2.992188   1.000000
    8        3.184072   1.000000
    9        3.461459   1.000000
   10        3.461459   1.000000
   11        3.516474   1.000000
   12        3.787075   1.000000
   13        3.874701   1.000000
   14        4.213868   1.000000
   15        4.213868   1.000000
   16        4.381313   1.000000
   17        4.668662   1.000000
   18        4.668662   1.000000
   19        5.309189   1.000000
   20        5.405381   1.000000
   21        6.512343   1.000000
   22        6.512343   1.000000
   23        6.985256   1.015286
   24        8.108818  -0.000000
   25       14.518734   0.000000
   26       16.129773   0.000000
   27       16.826461   0.000000
   28       16.826461   0.000000
   29       17.960238   0.000000
   30       17.960238   0.000000
 
  0.2000000E+00  0.2000000E+00  0.2000000E+00  0.6400000E-01
    1       -0.284793   1.000000
    2        2.568403   1.000000
    3        2.568403   1.000000
    4        2.568403   1.000000
    5        2.680410   1.000000
    6        2.680410   1.000000
    7        3.169914   1.000000
    8        3.220534   1.000000
    9        3.220534   1.000000
   10        3.220534   1.000000
   11        3.810158   1.000000
   12        3.810158   1.000000
   13        4.751270   1.000000
   14        4.751270   1.000000
   15        4.751270   1.000000
   16        5.465955   1.000000
   17        5.465955   1.000000
   18        5.465955   1.000000
   19        6.757571   1.000148
   20        6.757571   1.000148
   21        6.757571   1.000148
   22        7.966836  -0.000044
   23        7.966836  -0.000044
   24        7.966836  -0.000044
   25       14.994749   0.000000
   26       14.994749   0.000000
   27       14.994749   0.000000
   28       17.788880   0.000000
   29       17.788880   0.000000
   30       17.788880   0.000000
 
  0.4000000E+00  0.2000000E+00  0.2000000E+00  0.1920000E+00
    1        0.994550   1.000000
    2        2.571514   1.000000
    3        2.571514   1.000000
    4        2.614521   1.000000
    5        2.766677   1.000000
    6        2.838661   1.000000
    7        2.961882   1.000000
    8        3.086774   1.000000
    9        3.109437   1.000000
   10        3.109437   1.000000
   11        3.550772   1.000000
   12        3.550772   1.000000
   13        4.056300   1.000000
   14        4.118995   1.000000
   15        4.118995   1.000000
   16        4.379499   1.000000
   17        4.551193   1.000000
   18        4.627750   1.000000
   19        4.627750   1.000000
   20        5.031864   1.000000
   21        6.432539   1.000000
   22        6.553758   1.000000
   23        9.318233  -0.000000
   24        9.318233  -0.000000
   25       12.025361  -0.000000
   26       12.025361  -0.000000
   27       16.599864   0.000000
   28       18.782386   0.000000
   29       18.903983   0.000000
   30       18.903983   0.000000
 
  0.4000000E+00  0.4000000E+00  0.2000000E+00  0.1920000E+00
    1        2.194805   1.000000
    2        2.211887   1.000000
    3        2.595776   1.000000
    4        2.595776   1.000000
    5        2.971785   1.000000
    6        3.001022   1.000000
    7        3.001022   1.000000
    8        3.022021   1.000000
    9        3.066872   1.000000
   10        3.104738   1.000000
   11        3.468682   1.000000
   12        3.468682   1.000000
   13        3.512519   1.000000
   14        3.864307   1.000000
   15        4.000180   1.000000
   16        4.000180   1.000000
   17        4.516450   1.000000
   18        4.855889   1.000000
   19        5.457780   1.000000
   20        5.457780   1.000000
   21        6.662504   1.000009
   22        6.662504   1.000009
   23        7.065054   1.032507
   24        8.270099  -0.000000
   25       11.252275  -0.000000
   26       13.429401   0.000000
   27       13.429401   0.000000
   28       15.805972   0.000000
   29       20.140603   0.000000
   30       22.183142   0.000000
 
  0.4000000E+00  0.4000000E+00  0.4000000E+00  0.6400000E-01
    1        1.837740   1.000000
    2        2.069904   1.000000
    3        2.069904   1.000000
    4        2.069904   1.000000
    5        2.646051   1.000000
    6        2.646051   1.000000
    7        2.927522   1.000000
    8        2.927522   1.000000
    9        2.927522   1.000000
   10        3.112007   1.000000
   11        3.112007   1.000000
   12        3.112007   1.000000
   13        4.307004   1.000000
   14        4.307004   1.000000
   15        4.307004   1.000000
   16        4.879466   1.000000
   17        4.895749   1.000000
   18        4.895749   1.000000
   19        7.045722   1.028715
   20        7.045722   1.028715
   21        7.045722   1.028715
   22        7.746835  -0.007253
   23        7.746835  -0.007253
   24        7.746835  -0.007253
   25       10.640964  -0.000000
   26       10.640964  -0.000000
   27       10.640964  -0.000000
   28       12.619272  -0.000000
   29       25.593035   0.000000
   30       25.593035   0.000000
