 vasp.6.2.0 18Jan21 (build Mar 17 2021 09:06:54) complex                        
  
 executed on             LinuxIFC date 2021.08.03  10:19:34
 serial version


--------------------------------------------------------------------------------------------------------


 INCAR:
   ENCUT = 160.000000
   SIGMA = 0.200000
   EDIFF = 1.00e-06
   GGA = PE
   PREC = normal
   IBRION = -1
   ICHARG = 1
   ISMEAR = 1
   KPAR = 1
   NBANDS = 30
   NSW = 0
   NCORE = 1
   LCHARG = .TRUE.

 POTCAR:    PAW_PBE Cu 22Jun2005                  
 POTCAR:    PAW_PBE Cu 22Jun2005                  
   SHA256 =  0e71e558f37a4e8407882b4609ceaae59938afaad9ced71dfe8490308a0ab630 Cu/POTCAR             
   COPYR  = (c) Copyright 22Jun2005 Georg Kresse                                                    
   COPYR  = This file is part of the software VASP. Any use, copying, and all other rights are regul
   COPYR  = If you do not have a valid VASP license, you may not use, copy or distribute this file. 
   VRHFIN =Cu: d10 p1                                                                               
   LEXCH  = PE                                                                                      
   EATOM  =  1390.9808 eV,  102.2342 Ry                                                             
                                                                                                    
   TITEL  = PAW_PBE Cu 22Jun2005                                                                    
   LULTRA =        F    use ultrasoft PP ?                                                          
   IUNSCR =        1    unscreen: 0-lin 1-nonlin 2-no                                               
   RPACOR =    2.000    partial core radius                                                         
   POMASS =   63.546; ZVAL   =   11.000    mass and valenz                                          
   RCORE  =    2.300    outmost cutoff radius                                                       
   RWIGS  =    2.200; RWIGS  =    1.164    wigner-seitz radius (au A)                               
   ENMAX  =  295.446; ENMIN  =  221.585 eV                                                          
   ICORE  =        3    local potential                                                             
   LCOR   =        T    correct aug charges                                                         
   LPAW   =        T    paw PP                                                                      
   EAUG   =  586.980                                                                                
   DEXC   =    0.000                                                                                
   RMAX   =    2.344    core radius for proj-oper                                                   
   RAUG   =    1.300    factor for augmentation sphere                                              
   RDEP   =    2.302    radius for radial grids                                                     
   RDEPT  =    1.771    core radius for aug-charge                                                  
                                                                                                    
   Atomic configuration                                                                             
    9 entries                                                                                       
     n  l   j            E        occ.                                                              
     1  0  0.50     -8850.2468   2.0000                                                             
     2  0  0.50     -1062.3498   2.0000                                                             
     2  1  1.50      -916.8226   6.0000                                                             
     3  0  0.50      -114.6929   2.0000                                                             
     3  1  1.50       -72.1325   6.0000                                                             
     3  2  2.50        -5.0394  10.0000                                                             
     4  0  0.50        -4.6097   1.0000                                                             
     4  1  0.50        -4.0817   0.0000                                                             
     4  3  2.50        -1.3606   0.0000                                                             
   Description                                                                                      
     l       E           TYP  RCUT    TYP  RCUT                                                     
     2     -5.0393973     23  2.200                                                                 
     2     10.8846608     23  2.200                                                                 
     0     -4.6097109     23  2.200                                                                 
     0      8.2520465     23  2.200                                                                 
     1     -2.7211652     23  2.200                                                                 
     1     21.7055443     23  2.200                                                                 
     3      2.7211652     23  2.300                                                                 
  local pseudopotential read in
  partial core-charges read in
  partial kinetic energy density read in
  atomic valenz-charges read in
  non local Contribution for L=           2  read in
    real space projection operators read in
  non local Contribution for L=           2  read in
    real space projection operators read in
  non local Contribution for L=           0  read in
    real space projection operators read in
  non local Contribution for L=           0  read in
    real space projection operators read in
  non local Contribution for L=           1  read in
    real space projection operators read in
  non local Contribution for L=           1  read in
    real space projection operators read in
    PAW grid and wavefunctions read in
 
   number of l-projection  operators is LMAX  =           6
   number of lm-projection operators is LMMAX =          18
 
  PAW_PBE Cu 22Jun2005                  :
 energy of atom  1       EATOM=-1390.9808
 kinetic energy error for atom=    7.3387 (will be added to EATOM!!)
 
 
 POSCAR: Cu
  positions in cartesian coordinates
  No initial velocities read in
 exchange correlation table for  LEXCH =        8
   RHO(1)=    0.500       N(1)  =     2000
   RHO(2)=  100.500       N(2)  =     4000
 


--------------------------------------------------------------------------------------------------------


 ion  position               nearest neighbor table
   1  0.000  0.000  0.000-   2 2.57   3 2.57   4 2.57   3 2.57   4 2.57   2 2.57   4 2.57   4 2.57
                             2 2.57   3 2.57   3 2.57   2 2.57
   2  0.500  0.500  0.000-   1 2.57   3 2.57   4 2.57   3 2.57   4 2.57   1 2.57   3 2.57   3 2.57
                             1 2.57   4 2.57   4 2.57   1 2.57
   3  0.500  0.000  0.500-   1 2.57   2 2.57   4 2.57   1 2.57   2 2.57   2 2.57   4 2.57   2 2.57
                             1 2.57   4 2.57   1 2.57   4 2.57
   4  0.000  0.500  0.500-   1 2.57   2 2.57   3 2.57   1 2.57   2 2.57   1 2.57   3 2.57   1 2.57
                             2 2.57   3 2.57   2 2.57   3 2.57
 
  LATTYP: Found a simple cubic cell.
 ALAT       =     3.6350000000
  
  Lattice vectors:
  
 A1 = (   3.6350000000,   0.0000000000,   0.0000000000)
 A2 = (   0.0000000000,   3.6350000000,   0.0000000000)
 A3 = (   0.0000000000,   0.0000000000,   3.6350000000)


Analysis of symmetry for initial positions (statically):
=====================================================================
 Subroutine PRICEL returns following result:
 
  LATTYP: Found a face centered cubic cell.
 ALAT       =     3.6350000000
  
  Lattice vectors:
  
 A1 = (   1.8175000000,  -1.8175000000,   0.0000000000)
 A2 = (   1.8175000000,   0.0000000000,   1.8175000000)
 A3 = (   0.0000000000,  -1.8175000000,   1.8175000000)
 
   4 primitive cells build up your supercell.
 

 Routine SETGRP: Setting up the symmetry group for a 
 simple cubic supercell.


 Subroutine GETGRP returns: Found 48 space group operations
 (whereof 48 operations were pure point group operations)
 out of a pool of 48 trial point group operations.


The static configuration has the point symmetry O_h .


Analysis of symmetry for dynamics (positions and initial velocities):
=====================================================================
 Subroutine PRICEL returns following result:
 
  LATTYP: Found a face centered cubic cell.
 ALAT       =     3.6350000000
  
  Lattice vectors:
  
 A1 = (   1.8175000000,  -1.8175000000,   0.0000000000)
 A2 = (   1.8175000000,   0.0000000000,   1.8175000000)
 A3 = (   0.0000000000,  -1.8175000000,   1.8175000000)
 
   4 primitive cells build up your supercell.
 

 Routine SETGRP: Setting up the symmetry group for a 
 simple cubic supercell.


 Subroutine GETGRP returns: Found 48 space group operations
 (whereof 48 operations were pure point group operations)
 out of a pool of 48 trial point group operations.


The dynamic configuration has the point symmetry O_h .


 Subroutine INISYM returns: Found 48 space group operations
 (whereof 48 operations are pure point group operations),
 and found     4 'primitive' translations


----------------------------------------------------------------------------------------

                                     Primitive cell                                     

  volume of cell :      12.0075

  direct lattice vectors                    reciprocal lattice vectors
     1.817500000 -1.817500000  0.000000000     0.275103164 -0.275103164 -0.275103164
     1.817500000  0.000000000  1.817500000     0.275103164  0.275103164  0.275103164
     0.000000000 -1.817500000  1.817500000    -0.275103164 -0.275103164  0.275103164

  length of vectors
     2.570333150  2.570333150  2.570333150     0.476492657  0.476492657  0.476492657

  position of ions in fractional coordinates (direct lattice)
     0.000000000  0.000000000  0.000000000

  ion indices of the primitive-cell ions
   primitive index   ion index
                 1           1

----------------------------------------------------------------------------------------

 
 
 KPOINTS: KPOINTS created by Atomic Simulation Env

Automatic generation of k-mesh.
 Grid dimensions read from file:
 generate k-points for:    5    5    5

 Generating k-lattice:

  Cartesian coordinates                     Fractional coordinates (reciprocal lattice)
     0.055020633  0.000000000  0.000000000     0.200000000  0.000000000  0.000000000
     0.000000000  0.055020633  0.000000000     0.000000000  0.200000000  0.000000000
     0.000000000  0.000000000  0.055020633     0.000000000  0.000000000  0.200000000

  Length of vectors
     0.055020633  0.055020633  0.055020633

  Shift w.r.t. Gamma in fractional coordinates (k-lattice)
     0.000000000  0.000000000  0.000000000

 
 Subroutine IBZKPT returns following result:
 ===========================================
 
 Found     10 irreducible k-points:
 
 Following reciprocal coordinates:
            Coordinates               Weight
  0.000000  0.000000  0.000000      1.000000
  0.200000  0.000000  0.000000      6.000000
  0.400000  0.000000  0.000000      6.000000
  0.200000  0.200000  0.000000     12.000000
  0.400000  0.200000  0.000000     24.000000
  0.400000  0.400000  0.000000     12.000000
  0.200000  0.200000  0.200000      8.000000
  0.400000  0.200000  0.200000     24.000000
  0.400000  0.400000  0.200000     24.000000
  0.400000  0.400000  0.400000      8.000000
 
 Following cartesian coordinates:
            Coordinates               Weight
  0.000000  0.000000  0.000000      1.000000
  0.055021  0.000000  0.000000      6.000000
  0.110041  0.000000  0.000000      6.000000
  0.055021  0.055021  0.000000     12.000000
  0.110041  0.055021  0.000000     24.000000
  0.110041  0.110041  0.000000     12.000000
  0.055021  0.055021  0.055021      8.000000
  0.110041  0.055021  0.055021     24.000000
  0.110041  0.110041  0.055021     24.000000
  0.110041  0.110041  0.110041      8.000000
 


--------------------------------------------------------------------------------------------------------




 Dimension of arrays:
   k-points           NKPTS =     10   k-points in BZ     NKDIM =     10   number of bands    NBANDS=     30
   number of dos      NEDOS =    301   number of ions     NIONS =      4
   non local maximal  LDIM  =      6   non local SUM 2l+1 LMDIM =     18
   total plane-waves  NPLWV =   1728
   max r-space proj   IRMAX =      1   max aug-charges    IRDMAX=   1241
   dimension x,y,z NGX =    12 NGY =   12 NGZ =   12
   dimension x,y,z NGXF=    24 NGYF=   24 NGZF=   24
   support grid    NGXF=    24 NGYF=   24 NGZF=   24
   ions per type =               4
   NGX,Y,Z   is equivalent  to a cutoff of   5.49,  5.49,  5.49 a.u.
   NGXF,Y,Z  is equivalent  to a cutoff of  10.98, 10.98, 10.98 a.u.

 SYSTEM =  unknown system                          
 POSCAR =  Cu                                      

 Startparameter for this run:
   NWRITE =      2    write-flag & timer
   PREC   = normal    normal or accurate (medium, high low for compatibility)
   ISTART =      0    job   : 0-new  1-cont  2-samecut
   ICHARG =      1    charge: 1-file 2-atom 10-const
   ISPIN  =      1    spin polarized calculation?
   LNONCOLLINEAR =      F non collinear calculations
   LSORBIT =      F    spin-orbit coupling
   INIWAV =      1    electr: 0-lowe 1-rand  2-diag
   LASPH  =      F    aspherical Exc in radial PAW
   METAGGA=      F    non-selfconsistent MetaGGA calc.

 Electronic Relaxation 1
   ENCUT  =  160.0 eV  11.76 Ry    3.43 a.u.   3.75  3.75  3.75*2*pi/ulx,y,z
   ENINI  =  160.0     initial cutoff
   ENAUG  =  587.0 eV  augmentation charge cutoff
   NELM   =     60;   NELMIN=  2; NELMDL= -5     # of ELM steps 
   EDIFF  = 0.1E-05   stopping-criterion for ELM
   LREAL  =      F    real-space projection
   NLSPLINE    = F    spline interpolate recip. space projectors
   LCOMPAT=      F    compatible to vasp.4.4
   GGA_COMPAT  = T    GGA compatible to vasp.4.4-vasp.4.6
   LMAXPAW     = -100 max onsite density
   LMAXMIX     =    2 max onsite mixed and CHGCAR
   VOSKOWN=      0    Vosko Wilk Nusair interpolation
   ROPT   =    0.00000
 Ionic relaxation
   EDIFFG = 0.1E-04   stopping-criterion for IOM
   NSW    =      0    number of steps for IOM
   NBLOCK =      1;   KBLOCK =      1    inner block; outer block 
   IBRION =     -1    ionic relax: 0-MD 1-quasi-New 2-CG
   NFREE  =      0    steps in history (QN), initial steepest desc. (CG)
   ISIF   =      2    stress and relaxation
   IWAVPR =      0    prediction:  0-non 1-charg 2-wave 3-comb
   ISYM   =      2    0-nonsym 1-usesym 2-fastsym
   LCORR  =      T    Harris-Foulkes like correction to forces

   POTIM  = 0.5000    time-step for ionic-motion
   TEIN   =    0.0    initial temperature
   TEBEG  =    0.0;   TEEND  =   0.0 temperature during run
   SMASS  =  -3.00    Nose mass-parameter (am)
   estimated Nose-frequenzy (Omega)   =  0.10E-29 period in steps = 0.13E+47 mass=  -0.302E-27a.u.
   SCALEE = 1.0000    scale energy and forces
   NPACO  =    256;   APACO  = 16.0  distance and # of slots for P.C.
   PSTRESS=    0.0 pullay stress

  Mass of Ions in am
   POMASS =  63.55
  Ionic Valenz
   ZVAL   =  11.00
  Atomic Wigner-Seitz radii
   RWIGS  =  -1.00
  virtual crystal weights 
   VCA    =   1.00
   NELECT =      44.0000    total number of electrons
   NUPDOWN=      -1.0000    fix difference up-down

 DOS related values:
   EMIN   =  10.00;   EMAX   =-10.00  energy-range for DOS
   EFERMI =   0.00
   ISMEAR =     1;   SIGMA  =   0.20  broadening in eV -4-tet -1-fermi 0-gaus

 Electronic relaxation 2 (details)
   IALGO  =     38    algorithm
   LDIAG  =      T    sub-space diagonalisation (order eigenvalues)
   LSUBROT=      F    optimize rotation matrix (better conditioning)
   TURBO    =      0    0=normal 1=particle mesh
   IRESTART =      0    0=no restart 2=restart with 2 vectors
   NREBOOT  =      0    no. of reboots
   NMIN     =      0    reboot dimension
   EREF     =   0.00    reference energy to select bands
   IMIX   =      4    mixing-type and parameters
     AMIX     =   0.40;   BMIX     =  1.00
     AMIX_MAG =   1.60;   BMIX_MAG =  1.00
     AMIN     =   0.10
     WC   =   100.;   INIMIX=   1;  MIXPRE=   1;  MAXMIX= -45

 Intra band minimization:
   WEIMIN = 0.0000     energy-eigenvalue tresh-hold
   EBREAK =  0.83E-08  absolut break condition
   DEPER  =   0.30     relativ break condition  

   TIME   =   0.40     timestep for ELM

  volume/ion in A,a.u.               =      12.01        81.03
  Fermi-wavevector in a.u.,A,eV,Ry     =   1.589967  3.004601 34.395439  2.527993
  Thomas-Fermi vector in A             =   2.688734
 
 Write flags
   LWAVE        =      T    write WAVECAR
   LDOWNSAMPLE  =      F    k-point downsampling of WAVECAR
   LCHARG       =      T    write CHGCAR
   LVTOT        =      F    write LOCPOT, total local potential
   LVHAR        =      F    write LOCPOT, Hartree potential only
   LELF         =      F    write electronic localiz. function (ELF)
   LORBIT       =      0    0 simple, 1 ext, 2 COOP (PROOUT), +10 PAW based schemes


 Dipole corrections
   LMONO  =      F    monopole corrections only (constant potential shift)
   LDIPOL =      F    correct potential (dipole corrections)
   IDIPOL =      0    1-x, 2-y, 3-z, 4-all directions 
   EPSILON=  1.0000000 bulk dielectric constant

 Exchange correlation treatment:
   GGA     =    PE    GGA type
   LEXCH   =     8    internal setting for exchange type
   VOSKOWN=      0    Vosko Wilk Nusair interpolation
   LHFCALC =     F    Hartree Fock is set to
   LHFONE  =     F    Hartree Fock one center treatment
   AEXX    =    0.0000 exact exchange contribution

 Linear response parameters
   LEPSILON=     F    determine dielectric tensor
   LRPA    =     F    only Hartree local field effects (RPA)
   LNABLA  =     F    use nabla operator in PAW spheres
   LVEL    =     F    velocity operator in full k-point grid
   LINTERFAST=   F  fast interpolation
   KINTER  =     0    interpolate to denser k-point grid
   CSHIFT  =0.1000    complex shift for real part using Kramers Kronig
   OMEGAMAX=  -1.0    maximum frequency
   DEG_THRESHOLD= 0.2000000E-02 threshold for treating states as degnerate
   RTIME   =   -0.100 relaxation time in fs
  (WPLASMAI=    0.000 imaginary part of plasma frequency in eV, 0.658/RTIME)
   DFIELD  = 0.0000000 0.0000000 0.0000000 field for delta impulse in time
 
 Orbital magnetization related:
   ORBITALMAG=     F  switch on orbital magnetization
   LCHIMAG   =     F  perturbation theory with respect to B field
   DQ        =  0.001000  dq finite difference perturbation B field
   LLRAUG    =     F  two centre corrections for induced B field



--------------------------------------------------------------------------------------------------------


 Static calculation
 charge density and potential will be updated during run
 non-spin polarized calculation
 Variant of blocked Davidson
 Davidson routine will perform the subspace rotation
 perform sub-space diagonalisation
    after iterative eigenvector-optimisation
 modified Broyden-mixing scheme, WC =      100.0
 initial mixing is a Kerker type mixing with AMIX =  0.4000 and BMIX =      1.0000
 Hartree-type preconditioning will be used
 using additional bands            8
 reciprocal scheme for non local part
 use partial core corrections
 calculate Harris-corrections to forces 
   (improved forces if not selfconsistent)
 use gradient corrections 
 use of overlap-Matrix (Vanderbilt PP)
 Methfessel and Paxton  Order N= 1 SIGMA  =   0.20


--------------------------------------------------------------------------------------------------------


  energy-cutoff  :      160.00
  volume of cell :       48.03
      direct lattice vectors                 reciprocal lattice vectors
     3.635000000  0.000000000  0.000000000     0.275103164  0.000000000  0.000000000
     0.000000000  3.635000000  0.000000000     0.000000000  0.275103164  0.000000000
     0.000000000  0.000000000  3.635000000     0.000000000  0.000000000  0.275103164

  length of vectors
     3.635000000  3.635000000  3.635000000     0.275103164  0.275103164  0.275103164


 
 k-points in units of 2pi/SCALE and weight: KPOINTS created by Atomic Simulation Env
   0.00000000  0.00000000  0.00000000       0.008
   0.05502063  0.00000000  0.00000000       0.048
   0.11004127  0.00000000  0.00000000       0.048
   0.05502063  0.05502063  0.00000000       0.096
   0.11004127  0.05502063  0.00000000       0.192
   0.11004127  0.11004127  0.00000000       0.096
   0.05502063  0.05502063  0.05502063       0.064
   0.11004127  0.05502063  0.05502063       0.192
   0.11004127  0.11004127  0.05502063       0.192
   0.11004127  0.11004127  0.11004127       0.064
 
 k-points in reciprocal lattice and weights: KPOINTS created by Atomic Simulation Env
   0.00000000  0.00000000  0.00000000       0.008
   0.20000000  0.00000000  0.00000000       0.048
   0.40000000  0.00000000  0.00000000       0.048
   0.20000000  0.20000000  0.00000000       0.096
   0.40000000  0.20000000  0.00000000       0.192
   0.40000000  0.40000000  0.00000000       0.096
   0.20000000  0.20000000  0.20000000       0.064
   0.40000000  0.20000000  0.20000000       0.192
   0.40000000  0.40000000  0.20000000       0.192
   0.40000000  0.40000000  0.40000000       0.064
 
 position of ions in fractional coordinates (direct lattice) 
   0.00000000  0.00000000  0.00000000
   0.50000000  0.50000000  0.00000000
   0.50000000  0.00000000  0.50000000
   0.00000000  0.50000000  0.50000000
 
 position of ions in cartesian coordinates  (Angst):
   0.00000000  0.00000000  0.00000000
   1.81750000  1.81750000  0.00000000
   1.81750000  0.00000000  1.81750000
   0.00000000  1.81750000  1.81750000
 


--------------------------------------------------------------------------------------------------------


 k-point   1 :   0.0000 0.0000 0.0000  plane waves:     251
 k-point   2 :   0.2000 0.0000 0.0000  plane waves:     223
 k-point   3 :   0.4000 0.0000 0.0000  plane waves:     224
 k-point   4 :   0.2000 0.2000 0.0000  plane waves:     221
 k-point   5 :   0.4000 0.2000 0.0000  plane waves:     220
 k-point   6 :   0.4000 0.4000 0.0000  plane waves:     218
 k-point   7 :   0.2000 0.2000 0.2000  plane waves:     214
 k-point   8 :   0.4000 0.2000 0.2000  plane waves:     221
 k-point   9 :   0.4000 0.4000 0.2000  plane waves:     222
 k-point  10 :   0.4000 0.4000 0.4000  plane waves:     223

 maximum number of plane-waves:       251
 maximum index in each direction: 
   IXMAX=    3   IYMAX=    3   IZMAX=    3
   IXMIN=   -4   IYMIN=   -4   IZMIN=   -4


 total amount of memory used by VASP MPI-rank0    32760. kBytes
=======================================================================

   base      :      30000. kBytes
   nonl-proj :        377. kBytes
   grid      :        771. kBytes
   one-center:         62. kBytes
   wavefun   :       1550. kBytes
 
     INWAV:  cpu time    0.0000: real time    0.0000
 Broyden mixing: mesh for mixing (old mesh)
   NGX =  7   NGY =  7   NGZ =  7
  (NGX  = 24   NGY  = 24   NGZ  = 24)
  gives a total of    343 points

 initial charge density was supplied:
 charge density of overlapping atoms calculated
 number of electron      44.0000000 magnetization 
 keeping initial charge density in first step


--------------------------------------------------------------------------------------------------------


 Maximum index for augmentation-charges         1021 (set IRDMAX)


--------------------------------------------------------------------------------------------------------


 First call to EWALD:  gamma=   0.488
 Maximum number of real-space cells 3x 3x 3
 Maximum number of reciprocal cells 3x 3x 3

    FEWALD:  cpu time    0.0009: real time    0.0009


--------------------------------------- Iteration      1(   1)  ---------------------------------------


    POTLOK:  cpu time    0.0032: real time    0.0032
    SETDIJ:  cpu time    0.0034: real time    0.0034
     EDDAV:  cpu time    0.0693: real time    0.0904
       DOS:  cpu time    0.0008: real time    0.0008
    --------------------------------------------
      LOOP:  cpu time    0.0766: real time    0.0978

 eigenvalue-minimisations  :   622
 total energy-change (2. order) : 0.1903588E+03  (-0.1068292E+04)
 number of electron      44.0000000 magnetization 
 augmentation part       44.0000000 magnetization 

 Free energy of the ion-electron system (eV)
  ---------------------------------------------------
  alpha Z        PSCENC =       243.62337785
  Ewald energy   TEWEN  =     -4395.34838493
  -Hartree energ DENC   =     -1460.68396462
  -exchange      EXHF   =         0.00000000
  -V(xc)+E(xc)   XCENC  =       182.95351701
  PAW double counting   =      4912.82663951    -5336.19386850
  entropy T*S    EENTRO =        -0.00106684
  eigenvalues    EBANDS =       508.61429575
  atomic energy  EATOM  =      5534.56822939
  Solvation  Ediel_sol  =         0.00000000
  ---------------------------------------------------
  free energy    TOTEN  =       190.35877460 eV

  energy without entropy =      190.35984144  energy(sigma->0) =      190.35913022


--------------------------------------------------------------------------------------------------------




--------------------------------------- Iteration      1(   2)  ---------------------------------------


     EDDAV:  cpu time    0.0544: real time    0.0544
       DOS:  cpu time    0.0010: real time    0.0010
    --------------------------------------------
      LOOP:  cpu time    0.0554: real time    0.0554

 eigenvalue-minimisations  :   612
 total energy-change (2. order) :-0.1638107E+03  (-0.1534490E+03)
 number of electron      44.0000000 magnetization 
 augmentation part       44.0000000 magnetization 

 Free energy of the ion-electron system (eV)
  ---------------------------------------------------
  alpha Z        PSCENC =       243.62337785
  Ewald energy   TEWEN  =     -4395.34838493
  -Hartree energ DENC   =     -1460.68396462
  -exchange      EXHF   =         0.00000000
  -V(xc)+E(xc)   XCENC  =       182.95351701
  PAW double counting   =      4912.82663951    -5336.19386850
  entropy T*S    EENTRO =         0.01289224
  eigenvalues    EBANDS =       344.78968337
  atomic energy  EATOM  =      5534.56822939
  Solvation  Ediel_sol  =         0.00000000
  ---------------------------------------------------
  free energy    TOTEN  =        26.54812131 eV

  energy without entropy =       26.53522907  energy(sigma->0) =       26.54382389


--------------------------------------------------------------------------------------------------------




--------------------------------------- Iteration      1(   3)  ---------------------------------------


     EDDAV:  cpu time    0.0596: real time    0.0597
       DOS:  cpu time    0.0008: real time    0.0008
    --------------------------------------------
      LOOP:  cpu time    0.0605: real time    0.0605

 eigenvalue-minimisations  :   690
 total energy-change (2. order) :-0.3766768E+01  (-0.3734399E+01)
 number of electron      44.0000000 magnetization 
 augmentation part       44.0000000 magnetization 

 Free energy of the ion-electron system (eV)
  ---------------------------------------------------
  alpha Z        PSCENC =       243.62337785
  Ewald energy   TEWEN  =     -4395.34838493
  -Hartree energ DENC   =     -1460.68396462
  -exchange      EXHF   =         0.00000000
  -V(xc)+E(xc)   XCENC  =       182.95351701
  PAW double counting   =      4912.82663951    -5336.19386850
  entropy T*S    EENTRO =         0.01470871
  eigenvalues    EBANDS =       341.02109860
  atomic energy  EATOM  =      5534.56822939
  Solvation  Ediel_sol  =         0.00000000
  ---------------------------------------------------
  free energy    TOTEN  =        22.78135301 eV

  energy without entropy =       22.76664430  energy(sigma->0) =       22.77645010


--------------------------------------------------------------------------------------------------------




--------------------------------------- Iteration      1(   4)  ---------------------------------------


     EDDAV:  cpu time    0.0539: real time    0.0539
       DOS:  cpu time    0.0009: real time    0.0009
    --------------------------------------------
      LOOP:  cpu time    0.0548: real time    0.0548

 eigenvalue-minimisations  :   612
 total energy-change (2. order) :-0.1407517E-01  (-0.1407432E-01)
 number of electron      44.0000000 magnetization 
 augmentation part       44.0000000 magnetization 

 Free energy of the ion-electron system (eV)
  ---------------------------------------------------
  alpha Z        PSCENC =       243.62337785
  Ewald energy   TEWEN  =     -4395.34838493
  -Hartree energ DENC   =     -1460.68396462
  -exchange      EXHF   =         0.00000000
  -V(xc)+E(xc)   XCENC  =       182.95351701
  PAW double counting   =      4912.82663951    -5336.19386850
  entropy T*S    EENTRO =         0.01474827
  eigenvalues    EBANDS =       341.00698387
  atomic energy  EATOM  =      5534.56822939
  Solvation  Ediel_sol  =         0.00000000
  ---------------------------------------------------
  free energy    TOTEN  =        22.76727783 eV

  energy without entropy =       22.75252957  energy(sigma->0) =       22.76236174


--------------------------------------------------------------------------------------------------------




--------------------------------------- Iteration      1(   5)  ---------------------------------------


     EDDAV:  cpu time    0.0588: real time    0.0588
       DOS:  cpu time    0.0009: real time    0.0009
    CHARGE:  cpu time    0.0052: real time    0.0052
    MIXING:  cpu time    0.0001: real time    0.0001
    --------------------------------------------
      LOOP:  cpu time    0.0650: real time    0.0650

 eigenvalue-minimisations  :   684
 total energy-change (2. order) :-0.5573192E-04  (-0.5573042E-04)
 number of electron      44.0003803 magnetization 
 augmentation part       21.8551834 magnetization 

 Broyden mixing:
  rms(total) = 0.36208E+01    rms(broyden)= 0.35925E+01
  rms(prec ) = 0.78707E+01
  weight for this iteration     100.00

 Free energy of the ion-electron system (eV)
  ---------------------------------------------------
  alpha Z        PSCENC =       243.62337785
  Ewald energy   TEWEN  =     -4395.34838493
  -Hartree energ DENC   =     -1460.68396462
  -exchange      EXHF   =         0.00000000
  -V(xc)+E(xc)   XCENC  =       182.95351701
  PAW double counting   =      4912.82663951    -5336.19386850
  entropy T*S    EENTRO =         0.01474875
  eigenvalues    EBANDS =       341.00692765
  atomic energy  EATOM  =      5534.56822939
  Solvation  Ediel_sol  =         0.00000000
  ---------------------------------------------------
  free energy    TOTEN  =        22.76722210 eV

  energy without entropy =       22.75247335  energy(sigma->0) =       22.76230585


--------------------------------------------------------------------------------------------------------




--------------------------------------- Iteration      1(   6)  ---------------------------------------


    POTLOK:  cpu time    0.0031: real time    0.0031
    SETDIJ:  cpu time    0.0035: real time    0.0035
     EDDAV:  cpu time    0.0543: real time    0.0543
       DOS:  cpu time    0.0009: real time    0.0009
    CHARGE:  cpu time    0.0047: real time    0.0047
    MIXING:  cpu time    0.0002: real time    0.0002
    --------------------------------------------
      LOOP:  cpu time    0.0667: real time    0.0667

 eigenvalue-minimisations  :   600
 total energy-change (2. order) : 0.1829037E+02  (-0.1529156E+02)
 number of electron      44.0004293 magnetization 
 augmentation part       28.6796552 magnetization 

 Broyden mixing:
  rms(total) = 0.14332E+01    rms(broyden)= 0.13913E+01
  rms(prec ) = 0.33599E+01
  weight for this iteration     100.00

 eigenvalues of (default mixing * dielectric matrix)
  average eigenvalue GAMMA=   0.7277
  0.7277

 Free energy of the ion-electron system (eV)
  ---------------------------------------------------
  alpha Z        PSCENC =       243.62337785
  Ewald energy   TEWEN  =     -4395.34838493
  -Hartree energ DENC   =     -1224.27887355
  -exchange      EXHF   =         0.00000000
  -V(xc)+E(xc)   XCENC  =       170.73858209
  PAW double counting   =      5254.11536998    -5602.30245053
  entropy T*S    EENTRO =         0.00342854
  eigenvalues    EBANDS =        59.93831706
  atomic energy  EATOM  =      5534.56822939
  Solvation  Ediel_sol  =         0.00000000
  ---------------------------------------------------
  free energy    TOTEN  =        41.05759589 eV

  energy without entropy =       41.05416735  energy(sigma->0) =       41.05645304


--------------------------------------------------------------------------------------------------------




--------------------------------------- Iteration      1(   7)  ---------------------------------------


    POTLOK:  cpu time    0.0031: real time    0.0031
    SETDIJ:  cpu time    0.0034: real time    0.0034
     EDDAV:  cpu time    0.0589: real time    0.0589
       DOS:  cpu time    0.0009: real time    0.0009
    CHARGE:  cpu time    0.0050: real time    0.0050
    MIXING:  cpu time    0.0002: real time    0.0002
    --------------------------------------------
      LOOP:  cpu time    0.0714: real time    0.0714

 eigenvalue-minimisations  :   648
 total energy-change (2. order) : 0.4077950E+01  (-0.1600290E+01)
 number of electron      44.0004223 magnetization 
 augmentation part       26.9420461 magnetization 

 Broyden mixing:
  rms(total) = 0.26562E+00    rms(broyden)= 0.26287E+00
  rms(prec ) = 0.59071E+00
  weight for this iteration     100.00

 eigenvalues of (default mixing * dielectric matrix)
  average eigenvalue GAMMA=   2.1714
  0.7351  3.6078

 Free energy of the ion-electron system (eV)
  ---------------------------------------------------
  alpha Z        PSCENC =       243.62337785
  Ewald energy   TEWEN  =     -4395.34838493
  -Hartree energ DENC   =     -1295.95676937
  -exchange      EXHF   =         0.00000000
  -V(xc)+E(xc)   XCENC  =       174.22177588
  PAW double counting   =      5535.72003868    -5902.86260224
  entropy T*S    EENTRO =        -0.00585191
  eigenvalues    EBANDS =       151.17573215
  atomic energy  EATOM  =      5534.56822939
  Solvation  Ediel_sol  =         0.00000000
  ---------------------------------------------------
  free energy    TOTEN  =        45.13554549 eV

  energy without entropy =       45.14139741  energy(sigma->0) =       45.13749613


--------------------------------------------------------------------------------------------------------




--------------------------------------- Iteration      1(   8)  ---------------------------------------


    POTLOK:  cpu time    0.0031: real time    0.0031
    SETDIJ:  cpu time    0.0035: real time    0.0035
     EDDAV:  cpu time    0.0526: real time    0.0526
       DOS:  cpu time    0.0008: real time    0.0008
    CHARGE:  cpu time    0.0048: real time    0.0048
    MIXING:  cpu time    0.0002: real time    0.0002
    --------------------------------------------
      LOOP:  cpu time    0.0650: real time    0.0650

 eigenvalue-minimisations  :   606
 total energy-change (2. order) :-0.1622101E+00  (-0.1158805E+00)
 number of electron      44.0004225 magnetization 
 augmentation part       26.4003166 magnetization 

 Broyden mixing:
  rms(total) = 0.26239E+00    rms(broyden)= 0.25935E+00
  rms(prec ) = 0.63299E+00
  weight for this iteration     100.00

 eigenvalues of (default mixing * dielectric matrix)
  average eigenvalue GAMMA=   1.4468
  0.7601  1.2955  2.2847

 Free energy of the ion-electron system (eV)
  ---------------------------------------------------
  alpha Z        PSCENC =       243.62337785
  Ewald energy   TEWEN  =     -4395.34838493
  -Hartree energ DENC   =     -1334.90031372
  -exchange      EXHF   =         0.00000000
  -V(xc)+E(xc)   XCENC  =       175.91184766
  PAW double counting   =      6551.82058915    -6915.27084809
  entropy T*S    EENTRO =        -0.00240598
  eigenvalues    EBANDS =       184.57124403
  atomic energy  EATOM  =      5534.56822939
  Solvation  Ediel_sol  =         0.00000000
  ---------------------------------------------------
  free energy    TOTEN  =        44.97333535 eV

  energy without entropy =       44.97574133  energy(sigma->0) =       44.97413734


--------------------------------------------------------------------------------------------------------




--------------------------------------- Iteration      1(   9)  ---------------------------------------


    POTLOK:  cpu time    0.0030: real time    0.0030
    SETDIJ:  cpu time    0.0034: real time    0.0034
     EDDAV:  cpu time    0.0513: real time    0.0513
       DOS:  cpu time    0.0008: real time    0.0008
    CHARGE:  cpu time    0.0048: real time    0.0048
    MIXING:  cpu time    0.0002: real time    0.0002
    --------------------------------------------
      LOOP:  cpu time    0.0635: real time    0.0635

 eigenvalue-minimisations  :   600
 total energy-change (2. order) : 0.9635495E-01  (-0.4848602E-01)
 number of electron      44.0004213 magnetization 
 augmentation part       26.7748519 magnetization 

 Broyden mixing:
  rms(total) = 0.22666E-01    rms(broyden)= 0.17455E-01
  rms(prec ) = 0.36957E-01
  weight for this iteration     100.00
  WARNING: grid for Broyden might be to small

 eigenvalues of (default mixing * dielectric matrix)
  average eigenvalue GAMMA=   1.2504
  1.9508  1.8177  0.7451  0.4881

 Free energy of the ion-electron system (eV)
  ---------------------------------------------------
  alpha Z        PSCENC =       243.62337785
  Ewald energy   TEWEN  =     -4395.34838493
  -Hartree energ DENC   =     -1316.07617547
  -exchange      EXHF   =         0.00000000
  -V(xc)+E(xc)   XCENC  =       174.99933282
  PAW double counting   =      6244.20157957    -6606.35739927
  entropy T*S    EENTRO =        -0.00730191
  eigenvalues    EBANDS =       165.46643225
  atomic energy  EATOM  =      5534.56822939
  Solvation  Ediel_sol  =         0.00000000
  ---------------------------------------------------
  free energy    TOTEN  =        45.06969030 eV

  energy without entropy =       45.07699221  energy(sigma->0) =       45.07212427


--------------------------------------------------------------------------------------------------------




--------------------------------------- Iteration      1(  10)  ---------------------------------------


    POTLOK:  cpu time    0.0029: real time    0.0029
    SETDIJ:  cpu time    0.0034: real time    0.0034
     EDDAV:  cpu time    0.0534: real time    0.0534
       DOS:  cpu time    0.0008: real time    0.0008
    CHARGE:  cpu time    0.0048: real time    0.0048
    MIXING:  cpu time    0.0002: real time    0.0002
    --------------------------------------------
      LOOP:  cpu time    0.0656: real time    0.0656

 eigenvalue-minimisations  :   636
 total energy-change (2. order) :-0.1790360E-02  (-0.1669964E-03)
 number of electron      44.0004215 magnetization 
 augmentation part       26.7640733 magnetization 

 Broyden mixing:
  rms(total) = 0.10145E-01    rms(broyden)= 0.98975E-02
  rms(prec ) = 0.20719E-01
  weight for this iteration     100.00

 eigenvalues of (default mixing * dielectric matrix)
  average eigenvalue GAMMA=   1.5569
  2.6586  2.3820  0.7908  1.0265  0.9266

 Free energy of the ion-electron system (eV)
  ---------------------------------------------------
  alpha Z        PSCENC =       243.62337785
  Ewald energy   TEWEN  =     -4395.34838493
  -Hartree energ DENC   =     -1316.43239531
  -exchange      EXHF   =         0.00000000
  -V(xc)+E(xc)   XCENC  =       175.02038107
  PAW double counting   =      6226.62433726    -6588.86099348
  entropy T*S    EENTRO =        -0.00743789
  eigenvalues    EBANDS =       165.88078598
  atomic energy  EATOM  =      5534.56822939
  Solvation  Ediel_sol  =         0.00000000
  ---------------------------------------------------
  free energy    TOTEN  =        45.06789994 eV

  energy without entropy =       45.07533782  energy(sigma->0) =       45.07037923


--------------------------------------------------------------------------------------------------------




--------------------------------------- Iteration      1(  11)  ---------------------------------------


    POTLOK:  cpu time    0.0031: real time    0.0031
    SETDIJ:  cpu time    0.0034: real time    0.0034
     EDDAV:  cpu time    0.0557: real time    0.0557
       DOS:  cpu time    0.0009: real time    0.0009
    CHARGE:  cpu time    0.0049: real time    0.0049
    MIXING:  cpu time    0.0002: real time    0.0002
    --------------------------------------------
      LOOP:  cpu time    0.0682: real time    0.0682

 eigenvalue-minimisations  :   642
 total energy-change (2. order) :-0.4054988E-04  (-0.1821607E-04)
 number of electron      44.0004215 magnetization 
 augmentation part       26.7573011 magnetization 

 Broyden mixing:
  rms(total) = 0.28842E-02    rms(broyden)= 0.28834E-02
  rms(prec ) = 0.65196E-02
  weight for this iteration     100.00

 eigenvalues of (default mixing * dielectric matrix)
  average eigenvalue GAMMA=   1.4824
  2.6092  2.6092  1.0395  1.0395  0.7985  0.7985

 Free energy of the ion-electron system (eV)
  ---------------------------------------------------
  alpha Z        PSCENC =       243.62337785
  Ewald energy   TEWEN  =     -4395.34838493
  -Hartree energ DENC   =     -1316.85817461
  -exchange      EXHF   =         0.00000000
  -V(xc)+E(xc)   XCENC  =       175.03968973
  PAW double counting   =      6203.07618709    -6565.32596129
  entropy T*S    EENTRO =        -0.00747300
  eigenvalues    EBANDS =       166.30036917
  atomic energy  EATOM  =      5534.56822939
  Solvation  Ediel_sol  =         0.00000000
  ---------------------------------------------------
  free energy    TOTEN  =        45.06785939 eV

  energy without entropy =       45.07533239  energy(sigma->0) =       45.07035039


--------------------------------------------------------------------------------------------------------




--------------------------------------- Iteration      1(  12)  ---------------------------------------


    POTLOK:  cpu time    0.0031: real time    0.0031
    SETDIJ:  cpu time    0.0034: real time    0.0034
     EDDAV:  cpu time    0.0544: real time    0.0544
       DOS:  cpu time    0.0008: real time    0.0008
    CHARGE:  cpu time    0.0048: real time    0.0048
    MIXING:  cpu time    0.0002: real time    0.0002
    --------------------------------------------
      LOOP:  cpu time    0.0667: real time    0.0667

 eigenvalue-minimisations  :   636
 total energy-change (2. order) : 0.1631262E-04  (-0.3136122E-05)
 number of electron      44.0004215 magnetization 
 augmentation part       26.7538103 magnetization 

 Broyden mixing:
  rms(total) = 0.47500E-03    rms(broyden)= 0.42886E-03
  rms(prec ) = 0.10130E-02
  weight for this iteration     100.00

 eigenvalues of (default mixing * dielectric matrix)
  average eigenvalue GAMMA=   1.4984
  2.6834  2.6834  1.2773  1.2773  0.8089  0.8709  0.8872

 Free energy of the ion-electron system (eV)
  ---------------------------------------------------
  alpha Z        PSCENC =       243.62337785
  Ewald energy   TEWEN  =     -4395.34838493
  -Hartree energ DENC   =     -1316.96890503
  -exchange      EXHF   =         0.00000000
  -V(xc)+E(xc)   XCENC  =       175.04526110
  PAW double counting   =      6200.97224980    -6563.26582792
  entropy T*S    EENTRO =        -0.00749259
  eigenvalues    EBANDS =       166.44936805
  atomic energy  EATOM  =      5534.56822939
  Solvation  Ediel_sol  =         0.00000000
  ---------------------------------------------------
  free energy    TOTEN  =        45.06787570 eV

  energy without entropy =       45.07536830  energy(sigma->0) =       45.07037323


--------------------------------------------------------------------------------------------------------




--------------------------------------- Iteration      1(  13)  ---------------------------------------


    POTLOK:  cpu time    0.0029: real time    0.0029
    SETDIJ:  cpu time    0.0034: real time    0.0034
     EDDAV:  cpu time    0.0368: real time    0.0368
       DOS:  cpu time    0.0008: real time    0.0008
    --------------------------------------------
      LOOP:  cpu time    0.0439: real time    0.0439

 eigenvalue-minimisations  :   372
 total energy-change (2. order) :-0.5306674E-06  (-0.9258538E-07)
 number of electron      44.0004215 magnetization 
 augmentation part       26.7538103 magnetization 

 Free energy of the ion-electron system (eV)
  ---------------------------------------------------
  alpha Z        PSCENC =       243.62337785
  Ewald energy   TEWEN  =     -4395.34838493
  -Hartree energ DENC   =     -1316.97863642
  -exchange      EXHF   =         0.00000000
  -V(xc)+E(xc)   XCENC  =       175.04567777
  PAW double counting   =      6200.60690319    -6562.91127780
  entropy T*S    EENTRO =        -0.00749446
  eigenvalues    EBANDS =       166.46948058
  atomic energy  EATOM  =      5534.56822939
  Solvation  Ediel_sol  =         0.00000000
  ---------------------------------------------------
  free energy    TOTEN  =        45.06787517 eV

  energy without entropy =       45.07536963  energy(sigma->0) =       45.07037332


--------------------------------------------------------------------------------------------------------




 average (electrostatic) potential at core
  the test charge radii are     0.9430
  (the norm of the test charge is              1.0000)
       1 -67.1791       2 -67.1791       3 -67.1791       4 -67.1791
 
 
 
 E-fermi :   7.3409     XC(G=0): -12.3527     alpha+bet :-13.2037

 Fermi energy:         7.3408854315

 k-point     1 :       0.0000    0.0000    0.0000
  band No.  band energies     occupation 
      1      -1.6642      2.00000
      2       1.7023      2.00000
      3       1.7023      2.00000
      4       1.7023      2.00000
      5       2.0800      2.00000
      6       2.0800      2.00000
      7       2.0800      2.00000
      8       2.4037      2.00000
      9       2.4037      2.00000
     10       2.4037      2.00000
     11       3.1899      2.00000
     12       3.1899      2.00000
     13       3.1899      2.00000
     14       3.1899      2.00000
     15       3.1899      2.00000
     16       3.1899      2.00000
     17       3.4501      2.00000
     18       3.4501      2.00000
     19       3.4501      2.00000
     20       3.7526      2.00000
     21       3.7526      2.00000
     22       9.0873     -0.00000
     23       9.0873     -0.00000
     24       9.0873     -0.00000
     25      13.5192      0.00000
     26      13.5192      0.00000
     27      13.5192      0.00000
     28      20.3555      0.00000
     29      20.3555      0.00000
     30      20.3555      0.00000

 k-point     2 :       0.2000    0.0000    0.0000
  band No.  band energies     occupation 
      1      -1.1904      2.00000
      2       2.3064      2.00000
      3       2.3064      2.00000
      4       2.3406      2.00000
      5       2.5314      2.00000
      6       2.5314      2.00000
      7       2.5385      2.00000
      8       2.8176      2.00000
      9       2.8176      2.00000
     10       3.3050      2.00000
     11       3.7009      2.00000
     12       3.8264      2.00000
     13       4.1298      2.00000
     14       4.1298      2.00000
     15       4.5972      2.00000
     16       4.5972      2.00000
     17       4.7771      2.00000
     18       4.7771      2.00000
     19       4.7847      2.00000
     20       5.8617      2.00000
     21       5.8617      2.00000
     22       6.8637      2.00380
     23       9.9351     -0.00000
     24       9.9351     -0.00000
     25      13.7856      0.00000
     26      13.7856      0.00000
     27      17.0210      0.00000
     28      17.8647      0.00000
     29      17.8647      0.00000
     30      18.6231      0.00000

 k-point     3 :       0.4000    0.0000    0.0000
  band No.  band energies     occupation 
      1       0.1187      2.00000
      2       2.1670      2.00000
      3       2.1866      2.00000
      4       2.7237      2.00000
      5       2.8627      2.00000
      6       2.8815      2.00000
      7       2.8815      2.00000
      8       2.8972      2.00000
      9       2.8972      2.00000
     10       3.3213      2.00000
     11       3.3213      2.00000
     12       3.5435      2.00000
     13       3.5435      2.00000
     14       4.0390      2.00000
     15       4.0650      2.00000
     16       4.0650      2.00000
     17       4.3674      2.00000
     18       4.4965      2.00000
     19       4.4965      2.00000
     20       5.2157      2.00000
     21       5.5414      2.00000
     22       5.5414      2.00000
     23      11.9870     -0.00000
     24      11.9870     -0.00000
     25      14.6334      0.00000
     26      14.6334      0.00000
     27      14.6679      0.00000
     28      14.6679      0.00000
     29      16.3173      0.00000
     30      16.3173      0.00000

 k-point     4 :       0.2000    0.2000    0.0000
  band No.  band energies     occupation 
      1      -0.7331      2.00000
      2       2.3583      2.00000
      3       2.4562      2.00000
      4       2.5883      2.00000
      5       2.6470      2.00000
      6       2.6756      2.00000
      7       2.6756      2.00000
      8       2.7359      2.00000
      9       2.8345      2.00000
     10       2.8345      2.00000
     11       3.7177      2.00000
     12       3.8507      2.00000
     13       4.0121      2.00000
     14       4.2158      2.00000
     15       4.5946      2.00000
     16       4.5946      2.00000
     17       4.9286      2.00000
     18       5.3971      2.00000
     19       5.3971      2.00000
     20       5.8623      2.00000
     21       5.8623      2.00000
     22       7.3845      0.64075
     23       7.3845      0.64075
     24      10.6824     -0.00000
     25      13.9326      0.00000
     26      14.5571      0.00000
     27      17.3965      0.00000
     28      17.3965      0.00000
     29      18.4504      0.00000
     30      18.4504      0.00000

 k-point     5 :       0.4000    0.2000    0.0000
  band No.  band energies     occupation 
      1       0.5479      2.00000
      2       2.5284      2.00000
      3       2.5515      2.00000
      4       2.6511      2.00000
      5       2.7339      2.00000
      6       2.7355      2.00000
      7       2.7678      2.00000
      8       3.1073      2.00000
      9       3.4529      2.00000
     10       3.5923      2.00000
     11       3.6323      2.00000
     12       3.8968      2.00000
     13       3.9837      2.00000
     14       3.9987      2.00000
     15       4.1293      2.00000
     16       4.2089      2.00000
     17       4.3042      2.00000
     18       4.4209      2.00000
     19       4.5373      2.00000
     20       5.0679      2.00000
     21       6.0296      2.00000
     22       7.3831      0.65150
     23       8.9643     -0.00000
     24      11.3137     -0.00000
     25      12.6274     -0.00000
     26      15.0378      0.00000
     27      15.3458      0.00000
     28      16.7323      0.00000
     29      18.5753      0.00000
     30      20.0068      0.00000

 k-point     6 :       0.4000    0.4000    0.0000
  band No.  band energies     occupation 
      1       1.9038      2.00000
      2       2.3908      2.00000
      3       2.6663      2.00000
      4       2.6663      2.00000
      5       2.8772      2.00000
      6       2.9922      2.00000
      7       2.9922      2.00000
      8       3.1841      2.00000
      9       3.4615      2.00000
     10       3.4615      2.00000
     11       3.5165      2.00000
     12       3.7871      2.00000
     13       3.8747      2.00000
     14       4.2139      2.00000
     15       4.2139      2.00000
     16       4.3813      2.00000
     17       4.6687      2.00000
     18       4.6687      2.00000
     19       5.3092      2.00000
     20       5.4054      2.00000
     21       6.5123      2.00000
     22       6.5123      2.00000
     23       6.9853      2.03057
     24       8.1088     -0.00000
     25      14.5187      0.00000
     26      16.1298      0.00000
     27      16.8265      0.00000
     28      16.8265      0.00000
     29      17.9602      0.00000
     30      17.9602      0.00000

 k-point     7 :       0.2000    0.2000    0.2000
  band No.  band energies     occupation 
      1      -0.2848      2.00000
      2       2.5684      2.00000
      3       2.5684      2.00000
      4       2.5684      2.00000
      5       2.6804      2.00000
      6       2.6804      2.00000
      7       3.1699      2.00000
      8       3.2205      2.00000
      9       3.2205      2.00000
     10       3.2205      2.00000
     11       3.8102      2.00000
     12       3.8102      2.00000
     13       4.7513      2.00000
     14       4.7513      2.00000
     15       4.7513      2.00000
     16       5.4660      2.00000
     17       5.4660      2.00000
     18       5.4660      2.00000
     19       6.7576      2.00030
     20       6.7576      2.00030
     21       6.7576      2.00030
     22       7.9668     -0.00009
     23       7.9668     -0.00009
     24       7.9668     -0.00009
     25      14.9947      0.00000
     26      14.9947      0.00000
     27      14.9947      0.00000
     28      17.7889      0.00000
     29      17.7889      0.00000
     30      17.7889      0.00000

 k-point     8 :       0.4000    0.2000    0.2000
  band No.  band energies     occupation 
      1       0.9945      2.00000
      2       2.5715      2.00000
      3       2.5715      2.00000
      4       2.6145      2.00000
      5       2.7667      2.00000
      6       2.8387      2.00000
      7       2.9619      2.00000
      8       3.0868      2.00000
      9       3.1094      2.00000
     10       3.1094      2.00000
     11       3.5508      2.00000
     12       3.5508      2.00000
     13       4.0563      2.00000
     14       4.1190      2.00000
     15       4.1190      2.00000
     16       4.3795      2.00000
     17       4.5512      2.00000
     18       4.6278      2.00000
     19       4.6278      2.00000
     20       5.0319      2.00000
     21       6.4325      2.00000
     22       6.5538      2.00000
     23       9.3182     -0.00000
     24       9.3182     -0.00000
     25      12.0254     -0.00000
     26      12.0254     -0.00000
     27      16.5999      0.00000
     28      18.7824      0.00000
     29      18.9040      0.00000
     30      18.9040      0.00000

 k-point     9 :       0.4000    0.4000    0.2000
  band No.  band energies     occupation 
      1       2.1948      2.00000
      2       2.2119      2.00000
      3       2.5958      2.00000
      4       2.5958      2.00000
      5       2.9718      2.00000
      6       3.0010      2.00000
      7       3.0010      2.00000
      8       3.0220      2.00000
      9       3.0669      2.00000
     10       3.1047      2.00000
     11       3.4687      2.00000
     12       3.4687      2.00000
     13       3.5125      2.00000
     14       3.8643      2.00000
     15       4.0002      2.00000
     16       4.0002      2.00000
     17       4.5165      2.00000
     18       4.8559      2.00000
     19       5.4578      2.00000
     20       5.4578      2.00000
     21       6.6625      2.00002
     22       6.6625      2.00002
     23       7.0651      2.06501
     24       8.2701     -0.00000
     25      11.2523     -0.00000
     26      13.4294      0.00000
     27      13.4294      0.00000
     28      15.8060      0.00000
     29      20.1406      0.00000
     30      22.1831      0.00000

 k-point    10 :       0.4000    0.4000    0.4000
  band No.  band energies     occupation 
      1       1.8377      2.00000
      2       2.0699      2.00000
      3       2.0699      2.00000
      4       2.0699      2.00000
      5       2.6461      2.00000
      6       2.6461      2.00000
      7       2.9275      2.00000
      8       2.9275      2.00000
      9       2.9275      2.00000
     10       3.1120      2.00000
     11       3.1120      2.00000
     12       3.1120      2.00000
     13       4.3070      2.00000
     14       4.3070      2.00000
     15       4.3070      2.00000
     16       4.8795      2.00000
     17       4.8957      2.00000
     18       4.8957      2.00000
     19       7.0457      2.05743
     20       7.0457      2.05743
     21       7.0457      2.05743
     22       7.7468     -0.01451
     23       7.7468     -0.01451
     24       7.7468     -0.01451
     25      10.6410     -0.00000
     26      10.6410     -0.00000
     27      10.6410     -0.00000
     28      12.6193     -0.00000
     29      25.5930      0.00000
     30      25.5930      0.00000


--------------------------------------------------------------------------------------------------------


 soft charge-density along one line, spin component           1
         0         1         2         3         4         5         6         7         8         9
x    17.2466    0.0000   -0.0000   -0.0000    1.3469    0.0000    0.0000    0.0000   -0.5645   -0.0000
x    -0.0000   -0.0000    0.0000    0.0000
y    17.2466    0.0000   -0.0000   -0.0000    1.3469    0.0000    0.0000    0.0000   -0.5645   -0.0000
y    -0.0000   -0.0000    0.0000    0.0000
z    17.2466    0.0000   -0.0000   -0.0000    1.3469    0.0000    0.0000    0.0000   -0.5645   -0.0000
z    -0.0000   -0.0000    0.0000    0.0000
 total charge-density along one line
x    44.0004    0.0000    0.0000    0.0000   18.6220   -0.0000    0.0000    0.0000    3.2486   -0.0000
x    -0.0000   -0.0000   -0.0503    0.0000   -0.0000   -0.0000    0.0248   -0.0000   -0.0000    0.0000
x    -0.0084    0.0000   -0.0000   -0.0000    0.0058    0.0000
y    44.0004    0.0000    0.0000    0.0000   18.6220    0.0000   -0.0000    0.0000    3.2486   -0.0000
y    -0.0000    0.0000   -0.0503   -0.0000   -0.0000    0.0000    0.0248   -0.0000    0.0000    0.0000
y    -0.0084   -0.0000   -0.0000   -0.0000    0.0058    0.0000
z    44.0004    0.0000   -0.0000    0.0000   18.6220    0.0000   -0.0000    0.0000    3.2486    0.0000
z    -0.0000    0.0000   -0.0503   -0.0000    0.0000    0.0000    0.0248    0.0000    0.0000    0.0000
z    -0.0084   -0.0000    0.0000    0.0000    0.0058    0.0000
 
 pseudopotential strength for first ion, spin component:           1
 -6.030  -0.000   0.000   0.000   0.000  -2.204   0.000  -0.000
 -0.000  -6.030  -0.000  -0.000   0.000   0.000  -2.204   0.000
  0.000  -0.000  -6.006  -0.000  -0.000  -0.000   0.000  -2.221
  0.000  -0.000  -0.000  -6.030  -0.000  -0.000   0.000   0.000
  0.000   0.000  -0.000  -0.000  -6.006  -0.000  -0.000   0.000
 -2.204   0.000  -0.000  -0.000  -0.000   8.255  -0.000   0.000
  0.000  -2.204   0.000   0.000  -0.000  -0.000   8.255  -0.000
 -0.000   0.000  -2.221   0.000   0.000   0.000  -0.000   8.266
 -0.000   0.000   0.000  -2.204   0.000  -0.000  -0.000  -0.000
 -0.000  -0.000   0.000   0.000  -2.221   0.000   0.000   0.000
  0.000   0.000   0.000   0.000   0.000   0.000   0.000  -0.000
  0.000   0.000   0.000   0.000   0.000   0.000   0.000  -0.000
  0.000   0.000  -0.000  -0.000  -0.000  -0.000   0.000  -0.000
 -0.000   0.000   0.000   0.000  -0.000  -0.000  -0.000   0.000
  0.000  -0.000  -0.000   0.000   0.000  -0.000  -0.000   0.000
  0.000   0.000  -0.000   0.000  -0.000   0.000   0.000  -0.000
  0.000   0.000   0.000   0.000   0.000  -0.000  -0.000   0.000
  0.000   0.000  -0.000   0.000   0.000   0.000  -0.000  -0.000
 total augmentation occupancy for first ion, spin component:           1
  2.244   0.000   0.000  -0.000  -0.000   0.280  -0.000  -0.000  -0.000   0.000  -0.000  -0.000   0.000   0.000  -0.000  -0.000
  0.000   2.244  -0.000  -0.000   0.000   0.000   0.280   0.000   0.000  -0.000  -0.000   0.000  -0.000   0.000   0.000  -0.000
  0.000  -0.000   2.298  -0.000   0.000   0.000   0.000   0.280   0.000  -0.000  -0.000  -0.000   0.000  -0.000  -0.000  -0.000
  0.000   0.000  -0.000   2.244  -0.000   0.000  -0.000  -0.000   0.280   0.000   0.000  -0.000   0.000   0.000   0.000   0.000
  0.000   0.000  -0.000  -0.000   2.298  -0.000   0.000  -0.000   0.000   0.280   0.000  -0.000   0.000   0.000   0.000  -0.000
  0.280  -0.000  -0.000  -0.000  -0.000   0.053   0.000   0.000  -0.000   0.000  -0.000   0.000   0.000   0.000   0.000  -0.000
 -0.000   0.280  -0.000  -0.000   0.000  -0.000   0.053  -0.000  -0.000  -0.000  -0.000  -0.000   0.000  -0.000  -0.000   0.000
  0.000  -0.000   0.280   0.000   0.000  -0.000  -0.000   0.053   0.000   0.000   0.000  -0.000   0.000   0.000   0.000  -0.000
  0.000   0.000   0.000   0.280   0.000  -0.000   0.000   0.000   0.053   0.000  -0.000   0.000  -0.000  -0.000   0.000   0.000
  0.000  -0.000  -0.000   0.000   0.280   0.000  -0.000   0.000  -0.000   0.053  -0.000   0.000  -0.000   0.000  -0.000  -0.000
 -0.000  -0.000   0.000   0.000  -0.000  -0.000  -0.000   0.000  -0.000   0.000   2.682  -0.678   0.000   0.000   0.000   0.000
  0.000  -0.000   0.000   0.000  -0.000   0.000  -0.000   0.000   0.000   0.000  -0.678   0.328   0.000   0.000   0.000   0.000
  0.000   0.000   0.000   0.000   0.000  -0.000   0.000   0.000   0.000   0.000   0.000   0.000   0.664   0.000   0.000  -0.256
  0.000   0.000   0.000   0.000  -0.000   0.000  -0.000   0.000   0.000  -0.000   0.000   0.000   0.000   0.664   0.000  -0.000
  0.000   0.000   0.000   0.000   0.000   0.000   0.000   0.000   0.000   0.000   0.000   0.000   0.000   0.000   0.664  -0.000
  0.000   0.000   0.000   0.000   0.000   0.000   0.000  -0.000   0.000   0.000   0.000   0.000  -0.256   0.000  -0.000   0.129
  0.000   0.000   0.000   0.000  -0.000  -0.000   0.000   0.000   0.000  -0.000   0.000  -0.000  -0.000  -0.256   0.000  -0.000
  0.000   0.000   0.000   0.000   0.000   0.000  -0.000  -0.000   0.000   0.000   0.000   0.000   0.000   0.000  -0.256  -0.000


------------------------ aborting loop because EDIFF is reached ----------------------------------------


    CHARGE:  cpu time    0.0048: real time    0.0048
    FORLOC:  cpu time    0.0003: real time    0.0003
    FORNL :  cpu time    0.0170: real time    0.0170
    STRESS:  cpu time    0.0241: real time    0.0241
    FORCOR:  cpu time    0.0032: real time    0.0032
    FORHAR:  cpu time    0.0007: real time    0.0007
    MIXING:  cpu time    0.0002: real time    0.0002

  FORCE on cell =-STRESS in cart. coord.  units (eV):
  Direction    XX          YY          ZZ          XY          YZ          ZX
  --------------------------------------------------------------------------------------
  Alpha Z   243.62338   243.62338   243.62338
  Ewald   -1465.11677 -1465.11677 -1465.11677     0.00000     0.00000     0.00000
  Hartree   439.00261   439.00262   439.00262    -0.00000    -0.00000    -0.00000
  E(xc)    -255.76609  -255.76609  -255.76609    -0.00000     0.00000    -0.00000
  Local     314.79291   314.79291   314.79291     0.00000     0.00000     0.00000
  n-local  -583.55263  -587.48065  -593.76537    -5.47679     0.49665     0.65112
  augment   389.30577   389.30577   389.30577    -0.00000    -0.00000     0.00000
  Kinetic   512.64985   501.81270   495.42134    -4.13987     2.29816     2.16242
  Fock        0.00000     0.00000     0.00000     0.00000     0.00000     0.00000
  -------------------------------------------------------------------------------------
  Total    -419.12978  -419.12978  -419.12978    -0.00000    -0.00000     0.00000
  in kB  -13981.24541-13981.24541-13981.24541    -0.00000    -0.00000     0.00000
  external pressure =   -13981.25 kB  Pullay stress =        0.00 kB


 VOLUME and BASIS-vectors are now :
 -----------------------------------------------------------------------------
  energy-cutoff  :      160.00
  volume of cell :       48.03
      direct lattice vectors                 reciprocal lattice vectors
     3.635000000  0.000000000  0.000000000     0.275103164  0.000000000  0.000000000
     0.000000000  3.635000000  0.000000000     0.000000000  0.275103164  0.000000000
     0.000000000  0.000000000  3.635000000     0.000000000  0.000000000  0.275103164

  length of vectors
     3.635000000  3.635000000  3.635000000     0.275103164  0.275103164  0.275103164


 FORCES acting on ions
    electron-ion (+dipol)            ewald-force                    non-local-force                 convergence-correction
 -----------------------------------------------------------------------------------------------
   -.312E-12 -.227E-13 0.461E-14   0.103E-13 0.597E-14 -.166E-13   0.717E-23 -.314E-24 -.357E-23   0.104E-12 -.975E-13 -.627E-13
   0.392E-12 0.676E-12 0.362E-14   0.175E-13 0.141E-13 -.168E-13   0.988E-24 -.293E-23 0.147E-23   0.116E-12 -.565E-13 -.659E-13
   0.393E-12 0.204E-14 0.691E-12   -.529E-14 -.138E-13 0.159E-13   0.163E-23 -.485E-23 0.558E-23   0.118E-12 -.450E-13 -.743E-13
   -.294E-12 0.698E-12 0.702E-12   -.204E-13 -.566E-14 0.157E-13   0.250E-23 -.898E-25 -.178E-23   0.133E-12 -.884E-13 -.901E-13
 -----------------------------------------------------------------------------------------------
   0.178E-12 0.135E-11 0.140E-11   0.207E-14 0.619E-15 -.180E-14   0.123E-22 -.818E-23 0.170E-23   0.472E-12 -.287E-12 -.293E-12
 
 
 POSITION                                       TOTAL-FORCE (eV/Angst)
 -----------------------------------------------------------------------------------
      0.00000      0.00000      0.00000        -0.000000      0.000000     -0.000000
      1.81750      1.81750      0.00000         0.000000     -0.000000      0.000000
      1.81750      0.00000      1.81750        -0.000000     -0.000000     -0.000000
      0.00000      1.81750      1.81750        -0.000000     -0.000000      0.000000
 -----------------------------------------------------------------------------------
    total drift:                                0.000000      0.000000      0.000000


--------------------------------------------------------------------------------------------------------



  FREE ENERGIE OF THE ION-ELECTRON SYSTEM (eV)
  ---------------------------------------------------
  free  energy   TOTEN  =        45.06787517 eV

  energy  without entropy=       45.07536963  energy(sigma->0) =       45.07037332
 


--------------------------------------------------------------------------------------------------------


    POTLOK:  cpu time    0.0068: real time    0.0068


--------------------------------------------------------------------------------------------------------


 writing wavefunctions
     LOOP+:  cpu time    0.8951: real time    0.9163
    4ORBIT:  cpu time    0.0000: real time    0.0000

 total amount of memory used by VASP MPI-rank0    32760. kBytes
=======================================================================

   base      :      30000. kBytes
   nonl-proj :        377. kBytes
   grid      :        771. kBytes
   one-center:         62. kBytes
   wavefun   :       1550. kBytes
 
  
  
 General timing and accounting informations for this job:
 ========================================================
  
                  Total CPU time used (sec):        1.012
                            User time (sec):        1.000
                          System time (sec):        0.012
                         Elapsed time (sec):        1.023
  
                   Maximum memory used (kb):       36736.
                   Average memory used (kb):          N/A
  
                          Minor page faults:         2839
                          Major page faults:            0
                 Voluntary context switches:           26
