<?xml version="1.0" encoding="ISO-8859-1"?>
<modeling>
 <generator>
  <i name="program" type="string">vasp </i>
  <i name="version" type="string">6.2.0  </i>
  <i name="subversion" type="string">18Jan21 (build Mar 17 2021 09:06:54) complex                          serial </i>
  <i name="platform" type="string">LinuxIFC </i>
  <i name="date" type="string">2021 08 03 </i>
  <i name="time" type="string">10:19:34 </i>
 </generator>
 <incar>
  <i type="string" name="PREC">normal</i>
  <i type="int" name="ICHARG">     1</i>
  <i type="int" name="IBRION">    -1</i>
  <i name="EDIFF">      0.00000100</i>
  <i type="int" name="NSW">     0</i>
  <i name="ENCUT">    160.00000000</i>
  <i type="int" name="NBANDS">    30</i>
  <i type="int" name="ISMEAR">     1</i>
  <i name="SIGMA">      0.20000000</i>
  <i type="logical" name="LCHARG"> T  </i>
  <i type="int" name="KPAR">     1</i>
  <i type="int" name="NCORE">     1</i>
  <i type="string" name="GGA">PE</i>
 </incar>
 <primitive_cell>
  <structure name="primitive_cell" >
   <crystal>
    <varray name="basis" >
     <v>       1.81750000      -1.81750000       0.00000000 </v>
     <v>       1.81750000       0.00000000       1.81750000 </v>
     <v>       0.00000000      -1.81750000       1.81750000 </v>
    </varray>
    <i name="volume">     12.00751822 </i>
    <varray name="rec_basis" >
     <v>       0.27510316      -0.27510316      -0.27510316 </v>
     <v>       0.27510316       0.27510316       0.27510316 </v>
     <v>      -0.27510316      -0.27510316       0.27510316 </v>
    </varray>
   </crystal>
   <varray name="positions" >
    <v>       0.00000000       0.00000000       0.00000000 </v>
   </varray>
  </structure>
  <varray name="primitive_index" >
   <v type="int" >        1 </v>
  </varray>
 </primitive_cell>
 <kpoints>
  <generation param="Monkhorst-Pack">
   <v type="int" name="divisions">       5        5        5 </v>
   <v name="usershift">      0.00000000       0.00000000       0.00000000 </v>
   <v name="genvec1">      0.20000000       0.00000000       0.00000000 </v>
   <v name="genvec2">      0.00000000       0.20000000       0.00000000 </v>
   <v name="genvec3">      0.00000000       0.00000000       0.20000000 </v>
   <v name="shift">      0.00000000       0.00000000       0.00000000 </v>
  </generation>
  <varray name="kpointlist" >
   <v>       0.00000000       0.00000000       0.00000000 </v>
   <v>       0.20000000       0.00000000       0.00000000 </v>
   <v>       0.40000000       0.00000000       0.00000000 </v>
   <v>       0.20000000       0.20000000       0.00000000 </v>
   <v>       0.40000000       0.20000000       0.00000000 </v>
   <v>       0.40000000       0.40000000       0.00000000 </v>
   <v>       0.20000000       0.20000000       0.20000000 </v>
   <v>       0.40000000       0.20000000       0.20000000 </v>
   <v>       0.40000000       0.40000000       0.20000000 </v>
   <v>       0.40000000       0.40000000       0.40000000 </v>
  </varray>
  <varray name="weights" >
   <v>       0.00800000 </v>
   <v>       0.04800000 </v>
   <v>       0.04800000 </v>
   <v>       0.09600000 </v>
   <v>       0.19200000 </v>
   <v>       0.09600000 </v>
   <v>       0.06400000 </v>
   <v>       0.19200000 </v>
   <v>       0.19200000 </v>
   <v>       0.06400000 </v>
  </varray>
 </kpoints>
 <parameters>
  <separator name="general" >
   <i type="string" name="SYSTEM">unknown system</i>
   <i type="logical" name="LCOMPAT"> F  </i>
  </separator>
  <separator name="electronic" >
   <i type="string" name="PREC">normal</i>
   <i name="ENMAX">    160.00000000</i>
   <i name="ENAUG">    586.98000000</i>
   <i name="EDIFF">      0.00000100</i>
   <i type="int" name="IALGO">    38</i>
   <i type="int" name="IWAVPR">     0</i>
   <i type="int" name="NBANDS">    30</i>
   <i type="int" name="NBANDSLOW">    -1</i>
   <i type="int" name="NBANDSHIGH">    -1</i>
   <i name="NELECT">     44.00000000</i>
   <i type="int" name="TURBO">     0</i>
   <i type="int" name="IRESTART">     0</i>
   <i type="int" name="NREBOOT">     0</i>
   <i type="int" name="NMIN">     0</i>
   <i name="EREF">      0.00000000</i>
   <separator name="electronic smearing" >
    <i type="int" name="ISMEAR">     1</i>
    <i name="SIGMA">      0.20000000</i>
    <i name="KSPACING">      0.50000000</i>
    <i type="logical" name="KGAMMA"> T  </i>
    <i type="logical" name="KBLOWUP"> T  </i>
   </separator>
   <separator name="electronic projectors" >
    <i type="logical" name="LREAL"> F  </i>
    <v name="ROPT">      0.00000000</v>
    <i type="int" name="LMAXPAW">  -100</i>
    <i type="int" name="LMAXMIX">     2</i>
    <i type="logical" name="NLSPLINE"> F  </i>
   </separator>
   <separator name="electronic startup" >
    <i type="int" name="ISTART">     0</i>
    <i type="int" name="ICHARG">     1</i>
    <i type="int" name="INIWAV">     1</i>
   </separator>
   <separator name="electronic spin" >
    <i type="int" name="ISPIN">     1</i>
    <i type="logical" name="LNONCOLLINEAR"> F  </i>
    <v name="MAGMOM">      1.00000000      1.00000000      1.00000000      1.00000000</v>
    <i name="NUPDOWN">     -1.00000000</i>
    <i type="logical" name="LSORBIT"> F  </i>
    <v name="SAXIS">      0.00000000      0.00000000      1.00000000</v>
    <i type="logical" name="LSPIRAL"> F  </i>
    <v name="QSPIRAL">      0.00000000      0.00000000      0.00000000</v>
    <i type="logical" name="LZEROZ"> F  </i>
   </separator>
   <separator name="electronic exchange-correlation" >
    <i type="logical" name="LASPH"> F  </i>
    <i type="logical" name="LMETAGGA"> F  </i>
   </separator>
   <separator name="electronic convergence" >
    <i type="int" name="NELM">    60</i>
    <i type="int" name="NELMDL">    -5</i>
    <i type="int" name="NELMIN">     2</i>
    <i name="ENINI">    160.00000000</i>
    <separator name="electronic convergence detail" >
     <i type="logical" name="LDIAG"> T  </i>
     <i type="logical" name="LSUBROT"> F  </i>
     <i name="WEIMIN">      0.00000000</i>
     <i name="EBREAK">      0.00000001</i>
     <i name="DEPER">      0.30000000</i>
     <i type="int" name="NRMM">     4</i>
     <i name="TIME">      0.40000000</i>
    </separator>
   </separator>
   <separator name="electronic mixer" >
    <i name="AMIX">      0.40000000</i>
    <i name="BMIX">      1.00000000</i>
    <i name="AMIN">      0.10000000</i>
    <i name="AMIX_MAG">      1.60000000</i>
    <i name="BMIX_MAG">      1.00000000</i>
    <separator name="electronic mixer details" >
     <i type="int" name="IMIX">     4</i>
     <i type="logical" name="MIXFIRST"> F  </i>
     <i type="int" name="MAXMIX">   -45</i>
     <i name="WC">    100.00000000</i>
     <i type="int" name="INIMIX">     1</i>
     <i type="int" name="MIXPRE">     1</i>
     <i type="int" name="MREMOVE">     5</i>
    </separator>
   </separator>
   <separator name="electronic dipolcorrection" >
    <i type="logical" name="LDIPOL"> F  </i>
    <i type="logical" name="LMONO"> F  </i>
    <i type="int" name="IDIPOL">     0</i>
    <i name="EPSILON">      1.00000000</i>
    <v name="DIPOL">   -100.00000000   -100.00000000   -100.00000000</v>
    <i name="EFIELD">      0.00000000</i>
   </separator>
  </separator>
  <separator name="grids" >
   <i type="int" name="NGX">    12</i>
   <i type="int" name="NGY">    12</i>
   <i type="int" name="NGZ">    12</i>
   <i type="int" name="NGXF">    24</i>
   <i type="int" name="NGYF">    24</i>
   <i type="int" name="NGZF">    24</i>
   <i type="logical" name="ADDGRID"> F  </i>
  </separator>
  <separator name="ionic" >
   <i type="int" name="NSW">     0</i>
   <i type="int" name="IBRION">    -1</i>
   <i type="int" name="MDALGO">     0</i>
   <i type="int" name="ISIF">     2</i>
   <i name="PSTRESS">      0.00000000</i>
   <i name="EDIFFG">      0.00001000</i>
   <i type="int" name="NFREE">     0</i>
   <i name="POTIM">      0.50000000</i>
   <i name="SMASS">     -3.00000000</i>
   <i name="SCALEE">      1.00000000</i>
  </separator>
  <separator name="ionic md" >
   <i name="TEBEG">      0.00010000</i>
   <i name="TEEND">      0.00010000</i>
   <i type="int" name="NBLOCK">     1</i>
   <i type="int" name="KBLOCK">     1</i>
   <i type="int" name="NPACO">   256</i>
   <i name="APACO">     16.00000000</i>
  </separator>
  <separator name="symmetry" >
   <i type="int" name="ISYM">     2</i>
   <i name="SYMPREC">      0.00001000</i>
  </separator>
  <separator name="dos" >
   <i type="int" name="LORBIT">     0</i>
   <v name="RWIGS">     -1.00000000</v>
   <i type="int" name="NEDOS">   301</i>
   <i name="EMIN">     10.00000000</i>
   <i name="EMAX">    -10.00000000</i>
   <i name="EFERMI">      0.00000000</i>
  </separator>
  <separator name="writing" >
   <i type="int" name="NWRITE">     2</i>
   <i type="logical" name="LWAVE"> T  </i>
   <i type="logical" name="LDOWNSAMPLE"> F  </i>
   <i type="logical" name="LCHARG"> T  </i>
   <i type="logical" name="LPARD"> F  </i>
   <i type="logical" name="LVTOT"> F  </i>
   <i type="logical" name="LVHAR"> F  </i>
   <i type="logical" name="LELF"> F  </i>
   <i type="logical" name="LOPTICS"> F  </i>
   <v name="STM">      0.00000000      0.00000000      0.00000000      0.00000000      0.00000000      0.00000000      0.00000000</v>
  </separator>
  <separator name="performance" >
   <i type="int" name="NPAR">     1</i>
   <i type="int" name="NSIM">     4</i>
   <i type="int" name="NBLK">    -1</i>
   <i type="logical" name="LPLANE"> T  </i>
   <i type="logical" name="LSCALAPACK"> F  </i>
   <i type="logical" name="LSCAAWARE"> F  </i>
   <i type="logical" name="LSCALU"> F  </i>
   <i type="logical" name="LASYNC"> F  </i>
   <i type="logical" name="LORBITALREAL"> F  </i>
  </separator>
  <separator name="miscellaneous" >
   <i type="int" name="IDIOT">     3</i>
   <i type="int" name="PHON_NSTRUCT">    -1</i>
   <i type="logical" name="LMUSIC"> F  </i>
   <v name="POMASS">     63.54600000</v>
   <v name="DARWINR">      0.00000000</v>
   <v name="DARWINV">      1.00000000</v>
   <i type="logical" name="LCORR"> T  </i>
  </separator>
  <i type="logical" name="GGA_COMPAT"> T  </i>
  <i type="logical" name="LBERRY"> F  </i>
  <i type="int" name="ICORELEVEL">     0</i>
  <i type="logical" name="LDAU"> F  </i>
  <i type="int" name="I_CONSTRAINED_M">     0</i>
  <separator name="electronic exchange-correlation" >
   <i type="string" name="GGA">PE</i>
   <i type="int" name="VOSKOWN">     0</i>
   <i type="logical" name="LHFCALC"> F  </i>
   <i type="string" name="PRECFOCK"></i>
   <i type="logical" name="LSYMGRAD"> F  </i>
   <i type="logical" name="LHFONE"> F  </i>
   <i type="logical" name="LRHFCALC"> F  </i>
   <i type="logical" name="LTHOMAS"> F  </i>
   <i type="logical" name="LMODELHF"> F  </i>
   <i type="logical" name="LFOCKACE"> F  </i>
   <i name="ENCUT4O">     -1.00000000</i>
   <i type="int" name="EXXOEP">     0</i>
   <i type="int" name="FOURORBIT">     0</i>
   <i name="AEXX">      0.00000000</i>
   <i name="HFALPHA">      0.00000000</i>
   <i name="MCALPHA">      0.00000000</i>
   <i name="ALDAX">      1.00000000</i>
   <i name="AGGAX">      1.00000000</i>
   <i name="ALDAC">      1.00000000</i>
   <i name="AGGAC">      1.00000000</i>
   <i type="int" name="NKREDX">     1</i>
   <i type="int" name="NKREDY">     1</i>
   <i type="int" name="NKREDZ">     1</i>
   <i type="logical" name="SHIFTRED"> F  </i>
   <i type="logical" name="ODDONLY"> F  </i>
   <i type="logical" name="EVENONLY"> F  </i>
   <i type="int" name="LMAXFOCK">     0</i>
   <i type="int" name="NMAXFOCKAE">     0</i>
   <i type="logical" name="LFOCKAEDFT"> F  </i>
   <i name="HFSCREEN">      0.00000000</i>
   <i name="HFSCREENC">      0.00000000</i>
   <i type="int" name="NBANDSGWLOW">     0</i>
  </separator>
  <separator name="vdW DFT" >
   <i type="logical" name="LUSE_VDW"> F  </i>
   <i name="Zab_VDW">     -0.84910000</i>
   <i name="PARAM1">      0.12340000</i>
   <i name="PARAM2">      1.00000000</i>
   <i name="PARAM3">      0.00000000</i>
  </separator>
  <separator name="model GW" >
   <i type="int" name="MODEL_GW">     0</i>
   <i name="MODEL_EPS0">      7.20451093</i>
   <i name="MODEL_ALPHA">      1.00000000</i>
  </separator>
  <separator name="linear response parameters" >
   <i type="logical" name="LEPSILON"> F  </i>
   <i type="logical" name="LRPA"> F  </i>
   <i type="logical" name="LNABLA"> F  </i>
   <i type="logical" name="LVEL"> F  </i>
   <i type="int" name="KINTER">     0</i>
   <i name="CSHIFT">      0.10000000</i>
   <i name="OMEGAMAX">     -1.00000000</i>
   <i name="DEG_THRESHOLD">      0.00200000</i>
   <i name="RTIME">     -0.10000000</i>
   <i name="WPLASMAI">      0.00000000</i>
   <v name="DFIELD">      0.00000000      0.00000000      0.00000000</v>
   <v name="WPLASMA">      0.00000000      0.00000000      0.00000000      0.00000000      0.00000000      0.00000000      0.00000000      0.00000000      0.00000000</v>
  </separator>
  <separator name="orbital magnetization" >
   <i type="logical" name="NUCIND"> F  </i>
   <v name="MAGPOS">      0.00000000      0.00000000      0.00000000</v>
   <i type="logical" name="LNICSALL"> T  </i>
   <i type="logical" name="ORBITALMAG"> F  </i>
   <i type="logical" name="LMAGBLOCH"> F  </i>
   <i type="logical" name="LCHIMAG"> F  </i>
   <i type="logical" name="LGAUGE"> T  </i>
   <i type="int" name="MAGATOM">     0</i>
   <v name="MAGDIPOL">      0.00000000      0.00000000      0.00000000</v>
   <v name="AVECCONST">      0.00000000      0.00000000      0.00000000</v>
  </separator>
  <separator name="response functions" >
   <i type="logical" name="LFINITE_TEMPERATURE"> F  </i>
   <i type="logical" name="LADDER"> F  </i>
   <i type="logical" name="LRPAFORCE"> F  </i>
   <i type="logical" name="LFXC"> F  </i>
   <i type="logical" name="LHARTREE"> T  </i>
   <i type="int" name="IBSE">     0</i>
   <v type="int" name="KPOINT">    -1     0     0     0</v>
   <i type="logical" name="LTCTC"> F  </i>
   <i type="logical" name="LTCTE"> F  </i>
   <i type="logical" name="LTETE"> F  </i>
   <i type="logical" name="LTRIPLET"> F  </i>
   <i type="logical" name="LFXCEPS"> F  </i>
   <i type="logical" name="LFXHEG"> F  </i>
   <i type="int" name="NATURALO">     2</i>
   <i type="logical" name="LHOLEGF"> F  </i>
   <i type="logical" name="L2ORDER"> F  </i>
   <i type="logical" name="LDMP1"> F  </i>
   <i type="logical" name="LMP2LT"> F  </i>
   <i type="logical" name="LSMP2LT"> F  </i>
   <i type="logical" name="LGWLF"> F  </i>
   <i name="ENCUTGW">     -2.00000000</i>
   <i name="ENCUTGWSOFT">     -2.00000000</i>
   <i name="ENCUTLF">     -1.00000000</i>
   <i type="logical" name="LESF_SPLINES"> F  </i>
   <i type="int" name="LMAXMP2">    -1</i>
   <i name="SCISSOR">      0.00000000</i>
   <i type="int" name="NOMEGA">     0</i>
   <i type="int" name="NOMEGAR">     0</i>
   <i type="int" name="NBANDSGW">    -1</i>
   <i type="int" name="NBANDSO">    -1</i>
   <i type="int" name="NBANDSV">    -1</i>
   <i type="int" name="NELM">     1</i>
   <i type="int" name="NELMHF">     1</i>
   <i type="int" name="DIM">     3</i>
   <i type="int" name="IESPILON">     4</i>
   <i type="int" name="ANTIRES">     0</i>
   <i name="OMEGAMAX">    -30.00000000</i>
   <i name="OMEGAMIN">    -30.00000000</i>
   <i name="OMEGATL">   -200.00000000</i>
   <i type="int" name="OMEGAGRID">     0</i>
   <i name="CSHIFT">     -0.10000000</i>
   <i type="logical" name="LSELFENERGY"> F  </i>
   <i type="logical" name="LSPECTRAL"> F  </i>
   <i type="logical" name="LSPECTRALGW"> F  </i>
   <i type="logical" name="LSINGLES"> F  </i>
   <i type="logical" name="LFERMIGW"> F  </i>
   <i type="logical" name="ODDONLYGW"> F  </i>
   <i type="logical" name="EVENONLYGW"> F  </i>
   <i type="int" name="NKREDLFX">     1</i>
   <i type="int" name="NKREDLFY">     1</i>
   <i type="int" name="NKREDLFZ">     1</i>
   <i type="int" name="MAXMEM">  2800</i>
   <i type="int" name="TELESCOPE">     0</i>
   <i type="int" name="NTAUPAR">    -1</i>
   <i type="int" name="NOMEGAPAR">    -1</i>
   <i name="DAMP_NEWTON">      0.80000001</i>
   <i name="LAMBDA">      1.00000000</i>
  </separator>
  <separator name="External order field" >
   <i name="OFIELD_KAPPA">      0.00000000</i>
   <v name="OFIELD_K">      0.00000000      0.00000000      0.00000000</v>
   <i name="OFIELD_Q6_NEAR">      0.00000000</i>
   <i name="OFIELD_Q6_FAR">      0.00000000</i>
   <i name="OFIELD_A">      0.00000000</i>
  </separator>
 </parameters>
 <atominfo>
  <atoms>       4 </atoms>
  <types>       1 </types>
  <array name="atoms" >
   <dimension dim="1">ion</dimension>
   <field type="string">element</field>
   <field type="int">atomtype</field>
   <set>
    <rc><c>Cu</c><c>   1</c></rc>
    <rc><c>Cu</c><c>   1</c></rc>
    <rc><c>Cu</c><c>   1</c></rc>
    <rc><c>Cu</c><c>   1</c></rc>
   </set>
  </array>
  <array name="atomtypes" >
   <dimension dim="1">type</dimension>
   <field type="int">atomspertype</field>
   <field type="string">element</field>
   <field>mass</field>
   <field>valence</field>
   <field type="string">pseudopotential</field>
   <set>
    <rc><c>   4</c><c>Cu</c><c>     63.54600000</c><c>     11.00000000</c><c>  PAW_PBE Cu 22Jun2005                  </c></rc>
   </set>
  </array>
 </atominfo>
 <structure name="initialpos" >
  <crystal>
   <varray name="basis" >
    <v>       3.63500000       0.00000000       0.00000000 </v>
    <v>       0.00000000       3.63500000       0.00000000 </v>
    <v>       0.00000000       0.00000000       3.63500000 </v>
   </varray>
   <i name="volume">     48.03007287 </i>
   <varray name="rec_basis" >
    <v>       0.27510316       0.00000000       0.00000000 </v>
    <v>       0.00000000       0.27510316       0.00000000 </v>
    <v>       0.00000000       0.00000000       0.27510316 </v>
   </varray>
  </crystal>
  <varray name="positions" >
   <v>       0.00000000       0.00000000       0.00000000 </v>
   <v>       0.50000000       0.50000000       0.00000000 </v>
   <v>       0.50000000       0.00000000       0.50000000 </v>
   <v>       0.00000000       0.50000000       0.50000000 </v>
  </varray>
 </structure>
 <calculation>
  <scstep>
   <time name="dav">    0.07    0.09</time>
   <time name="total">    0.08    0.10</time>
   <energy>
    <i name="alphaZ">    243.62337785 </i>
    <i name="ewald">  -4395.34838493 </i>
    <i name="hartreedc">  -1460.68396462 </i>
    <i name="XCdc">    182.95351701 </i>
    <i name="pawpsdc">   4912.82663951 </i>
    <i name="pawaedc">  -5336.19386850 </i>
    <i name="eentropy">     -0.00106684 </i>
    <i name="bandstr">    508.61429575 </i>
    <i name="atom">   5534.56822939 </i>
    <i name="e_fr_energy">    190.35877460 </i>
    <i name="e_wo_entrp">    190.35984144 </i>
    <i name="e_0_energy">    190.35913022 </i>
   </energy>
  </scstep>
  <scstep>
   <time name="dav">    0.05    0.05</time>
   <time name="total">    0.06    0.06</time>
   <energy>
    <i name="e_fr_energy">     26.54812131 </i>
    <i name="e_wo_entrp">     26.53522907 </i>
    <i name="e_0_energy">     26.54382389 </i>
   </energy>
  </scstep>
  <scstep>
   <time name="dav">    0.06    0.06</time>
   <time name="total">    0.06    0.06</time>
   <energy>
    <i name="e_fr_energy">     22.78135301 </i>
    <i name="e_wo_entrp">     22.76664430 </i>
    <i name="e_0_energy">     22.77645010 </i>
   </energy>
  </scstep>
  <scstep>
   <time name="dav">    0.05    0.05</time>
   <time name="total">    0.05    0.05</time>
   <energy>
    <i name="e_fr_energy">     22.76727783 </i>
    <i name="e_wo_entrp">     22.75252957 </i>
    <i name="e_0_energy">     22.76236174 </i>
   </energy>
  </scstep>
  <scstep>
   <time name="dav">    0.06    0.06</time>
   <time name="total">    0.07    0.07</time>
   <energy>
    <i name="e_fr_energy">     22.76722210 </i>
    <i name="e_wo_entrp">     22.75247335 </i>
    <i name="e_0_energy">     22.76230585 </i>
   </energy>
  </scstep>
  <scstep>
   <time name="dav">    0.05    0.05</time>
   <time name="total">    0.07    0.07</time>
   <energy>
    <i name="e_fr_energy">     41.05759589 </i>
    <i name="e_wo_entrp">     41.05416735 </i>
    <i name="e_0_energy">     41.05645304 </i>
   </energy>
  </scstep>
  <scstep>
   <time name="dav">    0.06    0.06</time>
   <time name="total">    0.07    0.07</time>
   <energy>
    <i name="e_fr_energy">     45.13554549 </i>
    <i name="e_wo_entrp">     45.14139741 </i>
    <i name="e_0_energy">     45.13749613 </i>
   </energy>
  </scstep>
  <scstep>
   <time name="dav">    0.05    0.05</time>
   <time name="total">    0.06    0.06</time>
   <energy>
    <i name="e_fr_energy">     44.97333535 </i>
    <i name="e_wo_entrp">     44.97574133 </i>
    <i name="e_0_energy">     44.97413734 </i>
   </energy>
  </scstep>
  <scstep>
   <time name="dav">    0.05    0.05</time>
   <time name="total">    0.06    0.06</time>
   <energy>
    <i name="e_fr_energy">     45.06969030 </i>
    <i name="e_wo_entrp">     45.07699221 </i>
    <i name="e_0_energy">     45.07212427 </i>
   </energy>
  </scstep>
  <scstep>
   <time name="dav">    0.05    0.05</time>
   <time name="total">    0.07    0.07</time>
   <energy>
    <i name="e_fr_energy">     45.06789994 </i>
    <i name="e_wo_entrp">     45.07533782 </i>
    <i name="e_0_energy">     45.07037923 </i>
   </energy>
  </scstep>
  <scstep>
   <time name="dav">    0.06    0.06</time>
   <time name="total">    0.07    0.07</time>
   <energy>
    <i name="e_fr_energy">     45.06785939 </i>
    <i name="e_wo_entrp">     45.07533239 </i>
    <i name="e_0_energy">     45.07035039 </i>
   </energy>
  </scstep>
  <scstep>
   <time name="dav">    0.05    0.05</time>
   <time name="total">    0.07    0.07</time>
   <energy>
    <i name="e_fr_energy">     45.06787570 </i>
    <i name="e_wo_entrp">     45.07536830 </i>
    <i name="e_0_energy">     45.07037323 </i>
   </energy>
  </scstep>
  <scstep>
   <time name="dav">    0.04    0.04</time>
   <time name="total">    0.04    0.04</time>
   <energy>
    <i name="alphaZ">    243.62337785 </i>
    <i name="ewald">  -4395.34838493 </i>
    <i name="hartreedc">  -1316.97863642 </i>
    <i name="XCdc">    175.04567777 </i>
    <i name="pawpsdc">   6200.60690319 </i>
    <i name="pawaedc">  -6562.91127780 </i>
    <i name="eentropy">     -0.00749446 </i>
    <i name="bandstr">    166.46948058 </i>
    <i name="atom">   5534.56822939 </i>
    <i name="e_fr_energy">     45.06787517 </i>
    <i name="e_wo_entrp">     45.07536963 </i>
    <i name="e_0_energy">     45.07037332 </i>
   </energy>
  </scstep>
  <structure>
   <crystal>
    <varray name="basis" >
     <v>       3.63500000       0.00000000       0.00000000 </v>
     <v>       0.00000000       3.63500000       0.00000000 </v>
     <v>       0.00000000       0.00000000       3.63500000 </v>
    </varray>
    <i name="volume">     48.03007287 </i>
    <varray name="rec_basis" >
     <v>       0.27510316       0.00000000       0.00000000 </v>
     <v>       0.00000000       0.27510316       0.00000000 </v>
     <v>       0.00000000       0.00000000       0.27510316 </v>
    </varray>
   </crystal>
   <varray name="positions" >
    <v>       0.00000000       0.00000000       0.00000000 </v>
    <v>       0.50000000       0.50000000       0.00000000 </v>
    <v>       0.50000000       0.00000000       0.50000000 </v>
    <v>       0.00000000       0.50000000       0.50000000 </v>
   </varray>
  </structure>
  <varray name="forces" >
   <v>      -0.00000000       0.00000000      -0.00000000 </v>
   <v>       0.00000000      -0.00000000       0.00000000 </v>
   <v>      -0.00000000      -0.00000000      -0.00000000 </v>
   <v>      -0.00000000      -0.00000000       0.00000000 </v>
  </varray>
  <varray name="stress" >
   <v>  -13981.24541035      -0.00000000       0.00000000 </v>
   <v>      -0.00000000  -13981.24541035      -0.00000000 </v>
   <v>      -0.00000000      -0.00000000  -13981.24541035 </v>
  </varray>
  <energy>
   <i name="e_fr_energy">     45.06787517 </i>
   <i name="e_wo_entrp">     45.07536963 </i>
   <i name="e_0_energy">     45.07037332 </i>
  </energy>
  <time name="totalsc">    0.90    0.92</time>
  <eigenvalues>
   <array>
    <dimension dim="1">band</dimension>
    <dimension dim="2">kpoint</dimension>
    <dimension dim="3">spin</dimension>
    <field>eigene</field>
    <field>occ</field>
    <set>
     <set comment="spin 1">
      <set comment="kpoint 1">
       <r>   -1.6642    1.0000 </r>
       <r>    1.7023    1.0000 </r>
       <r>    1.7023    1.0000 </r>
       <r>    1.7023    1.0000 </r>
       <r>    2.0800    1.0000 </r>
       <r>    2.0800    1.0000 </r>
       <r>    2.0800    1.0000 </r>
       <r>    2.4037    1.0000 </r>
       <r>    2.4037    1.0000 </r>
       <r>    2.4037    1.0000 </r>
       <r>    3.1899    1.0000 </r>
       <r>    3.1899    1.0000 </r>
       <r>    3.1899    1.0000 </r>
       <r>    3.1899    1.0000 </r>
       <r>    3.1899    1.0000 </r>
       <r>    3.1899    1.0000 </r>
       <r>    3.4501    1.0000 </r>
       <r>    3.4501    1.0000 </r>
       <r>    3.4501    1.0000 </r>
       <r>    3.7526    1.0000 </r>
       <r>    3.7526    1.0000 </r>
       <r>    9.0873   -0.0000 </r>
       <r>    9.0873   -0.0000 </r>
       <r>    9.0873   -0.0000 </r>
       <r>   13.5192    0.0000 </r>
       <r>   13.5192    0.0000 </r>
       <r>   13.5192    0.0000 </r>
       <r>   20.3555    0.0000 </r>
       <r>   20.3555    0.0000 </r>
       <r>   20.3555    0.0000 </r>
      </set>
      <set comment="kpoint 2">
       <r>   -1.1904    1.0000 </r>
       <r>    2.3064    1.0000 </r>
       <r>    2.3064    1.0000 </r>
       <r>    2.3406    1.0000 </r>
       <r>    2.5314    1.0000 </r>
       <r>    2.5314    1.0000 </r>
       <r>    2.5385    1.0000 </r>
       <r>    2.8176    1.0000 </r>
       <r>    2.8176    1.0000 </r>
       <r>    3.3050    1.0000 </r>
       <r>    3.7009    1.0000 </r>
       <r>    3.8264    1.0000 </r>
       <r>    4.1298    1.0000 </r>
       <r>    4.1298    1.0000 </r>
       <r>    4.5972    1.0000 </r>
       <r>    4.5972    1.0000 </r>
       <r>    4.7771    1.0000 </r>
       <r>    4.7771    1.0000 </r>
       <r>    4.7847    1.0000 </r>
       <r>    5.8617    1.0000 </r>
       <r>    5.8617    1.0000 </r>
       <r>    6.8637    1.0019 </r>
       <r>    9.9351   -0.0000 </r>
       <r>    9.9351   -0.0000 </r>
       <r>   13.7856    0.0000 </r>
       <r>   13.7856    0.0000 </r>
       <r>   17.0210    0.0000 </r>
       <r>   17.8647    0.0000 </r>
       <r>   17.8647    0.0000 </r>
       <r>   18.6231    0.0000 </r>
      </set>
      <set comment="kpoint 3">
       <r>    0.1187    1.0000 </r>
       <r>    2.1670    1.0000 </r>
       <r>    2.1866    1.0000 </r>
       <r>    2.7237    1.0000 </r>
       <r>    2.8627    1.0000 </r>
       <r>    2.8815    1.0000 </r>
       <r>    2.8815    1.0000 </r>
       <r>    2.8972    1.0000 </r>
       <r>    2.8972    1.0000 </r>
       <r>    3.3213    1.0000 </r>
       <r>    3.3213    1.0000 </r>
       <r>    3.5435    1.0000 </r>
       <r>    3.5435    1.0000 </r>
       <r>    4.0390    1.0000 </r>
       <r>    4.0650    1.0000 </r>
       <r>    4.0650    1.0000 </r>
       <r>    4.3674    1.0000 </r>
       <r>    4.4965    1.0000 </r>
       <r>    4.4965    1.0000 </r>
       <r>    5.2157    1.0000 </r>
       <r>    5.5414    1.0000 </r>
       <r>    5.5414    1.0000 </r>
       <r>   11.9870   -0.0000 </r>
       <r>   11.9870   -0.0000 </r>
       <r>   14.6334    0.0000 </r>
       <r>   14.6334    0.0000 </r>
       <r>   14.6679    0.0000 </r>
       <r>   14.6679    0.0000 </r>
       <r>   16.3173    0.0000 </r>
       <r>   16.3173    0.0000 </r>
      </set>
      <set comment="kpoint 4">
       <r>   -0.7331    1.0000 </r>
       <r>    2.3583    1.0000 </r>
       <r>    2.4562    1.0000 </r>
       <r>    2.5883    1.0000 </r>
       <r>    2.6470    1.0000 </r>
       <r>    2.6756    1.0000 </r>
       <r>    2.6756    1.0000 </r>
       <r>    2.7359    1.0000 </r>
       <r>    2.8345    1.0000 </r>
       <r>    2.8345    1.0000 </r>
       <r>    3.7177    1.0000 </r>
       <r>    3.8507    1.0000 </r>
       <r>    4.0121    1.0000 </r>
       <r>    4.2158    1.0000 </r>
       <r>    4.5946    1.0000 </r>
       <r>    4.5946    1.0000 </r>
       <r>    4.9286    1.0000 </r>
       <r>    5.3971    1.0000 </r>
       <r>    5.3971    1.0000 </r>
       <r>    5.8623    1.0000 </r>
       <r>    5.8623    1.0000 </r>
       <r>    7.3845    0.3204 </r>
       <r>    7.3845    0.3204 </r>
       <r>   10.6824   -0.0000 </r>
       <r>   13.9326    0.0000 </r>
       <r>   14.5571    0.0000 </r>
       <r>   17.3965    0.0000 </r>
       <r>   17.3965    0.0000 </r>
       <r>   18.4504    0.0000 </r>
       <r>   18.4504    0.0000 </r>
      </set>
      <set comment="kpoint 5">
       <r>    0.5479    1.0000 </r>
       <r>    2.5284    1.0000 </r>
       <r>    2.5515    1.0000 </r>
       <r>    2.6511    1.0000 </r>
       <r>    2.7339    1.0000 </r>
       <r>    2.7355    1.0000 </r>
       <r>    2.7678    1.0000 </r>
       <r>    3.1073    1.0000 </r>
       <r>    3.4529    1.0000 </r>
       <r>    3.5923    1.0000 </r>
       <r>    3.6323    1.0000 </r>
       <r>    3.8968    1.0000 </r>
       <r>    3.9837    1.0000 </r>
       <r>    3.9987    1.0000 </r>
       <r>    4.1293    1.0000 </r>
       <r>    4.2089    1.0000 </r>
       <r>    4.3042    1.0000 </r>
       <r>    4.4209    1.0000 </r>
       <r>    4.5373    1.0000 </r>
       <r>    5.0679    1.0000 </r>
       <r>    6.0296    1.0000 </r>
       <r>    7.3831    0.3257 </r>
       <r>    8.9643   -0.0000 </r>
       <r>   11.3137   -0.0000 </r>
       <r>   12.6274   -0.0000 </r>
       <r>   15.0378    0.0000 </r>
       <r>   15.3458    0.0000 </r>
       <r>   16.7323    0.0000 </r>
       <r>   18.5753    0.0000 </r>
       <r>   20.0068    0.0000 </r>
      </set>
      <set comment="kpoint 6">
       <r>    1.9038    1.0000 </r>
       <r>    2.3908    1.0000 </r>
       <r>    2.6663    1.0000 </r>
       <r>    2.6663    1.0000 </r>
       <r>    2.8772    1.0000 </r>
       <r>    2.9922    1.0000 </r>
       <r>    2.9922    1.0000 </r>
       <r>    3.1841    1.0000 </r>
       <r>    3.4615    1.0000 </r>
       <r>    3.4615    1.0000 </r>
       <r>    3.5165    1.0000 </r>
       <r>    3.7871    1.0000 </r>
       <r>    3.8747    1.0000 </r>
       <r>    4.2139    1.0000 </r>
       <r>    4.2139    1.0000 </r>
       <r>    4.3813    1.0000 </r>
       <r>    4.6687    1.0000 </r>
       <r>    4.6687    1.0000 </r>
       <r>    5.3092    1.0000 </r>
       <r>    5.4054    1.0000 </r>
       <r>    6.5123    1.0000 </r>
       <r>    6.5123    1.0000 </r>
       <r>    6.9853    1.0153 </r>
       <r>    8.1088   -0.0000 </r>
       <r>   14.5187    0.0000 </r>
       <r>   16.1298    0.0000 </r>
       <r>   16.8265    0.0000 </r>
       <r>   16.8265    0.0000 </r>
       <r>   17.9602    0.0000 </r>
       <r>   17.9602    0.0000 </r>
      </set>
      <set comment="kpoint 7">
       <r>   -0.2848    1.0000 </r>
       <r>    2.5684    1.0000 </r>
       <r>    2.5684    1.0000 </r>
       <r>    2.5684    1.0000 </r>
       <r>    2.6804    1.0000 </r>
       <r>    2.6804    1.0000 </r>
       <r>    3.1699    1.0000 </r>
       <r>    3.2205    1.0000 </r>
       <r>    3.2205    1.0000 </r>
       <r>    3.2205    1.0000 </r>
       <r>    3.8102    1.0000 </r>
       <r>    3.8102    1.0000 </r>
       <r>    4.7513    1.0000 </r>
       <r>    4.7513    1.0000 </r>
       <r>    4.7513    1.0000 </r>
       <r>    5.4660    1.0000 </r>
       <r>    5.4660    1.0000 </r>
       <r>    5.4660    1.0000 </r>
       <r>    6.7576    1.0001 </r>
       <r>    6.7576    1.0001 </r>
       <r>    6.7576    1.0001 </r>
       <r>    7.9668   -0.0000 </r>
       <r>    7.9668   -0.0000 </r>
       <r>    7.9668   -0.0000 </r>
       <r>   14.9947    0.0000 </r>
       <r>   14.9947    0.0000 </r>
       <r>   14.9947    0.0000 </r>
       <r>   17.7889    0.0000 </r>
       <r>   17.7889    0.0000 </r>
       <r>   17.7889    0.0000 </r>
      </set>
      <set comment="kpoint 8">
       <r>    0.9945    1.0000 </r>
       <r>    2.5715    1.0000 </r>
       <r>    2.5715    1.0000 </r>
       <r>    2.6145    1.0000 </r>
       <r>    2.7667    1.0000 </r>
       <r>    2.8387    1.0000 </r>
       <r>    2.9619    1.0000 </r>
       <r>    3.0868    1.0000 </r>
       <r>    3.1094    1.0000 </r>
       <r>    3.1094    1.0000 </r>
       <r>    3.5508    1.0000 </r>
       <r>    3.5508    1.0000 </r>
       <r>    4.0563    1.0000 </r>
       <r>    4.1190    1.0000 </r>
       <r>    4.1190    1.0000 </r>
       <r>    4.3795    1.0000 </r>
       <r>    4.5512    1.0000 </r>
       <r>    4.6278    1.0000 </r>
       <r>    4.6278    1.0000 </r>
       <r>    5.0319    1.0000 </r>
       <r>    6.4325    1.0000 </r>
       <r>    6.5538    1.0000 </r>
       <r>    9.3182   -0.0000 </r>
       <r>    9.3182   -0.0000 </r>
       <r>   12.0254   -0.0000 </r>
       <r>   12.0254   -0.0000 </r>
       <r>   16.5999    0.0000 </r>
       <r>   18.7824    0.0000 </r>
       <r>   18.9040    0.0000 </r>
       <r>   18.9040    0.0000 </r>
      </set>
      <set comment="kpoint 9">
       <r>    2.1948    1.0000 </r>
       <r>    2.2119    1.0000 </r>
       <r>    2.5958    1.0000 </r>
       <r>    2.5958    1.0000 </r>
       <r>    2.9718    1.0000 </r>
       <r>    3.0010    1.0000 </r>
       <r>    3.0010    1.0000 </r>
       <r>    3.0220    1.0000 </r>
       <r>    3.0669    1.0000 </r>
       <r>    3.1047    1.0000 </r>
       <r>    3.4687    1.0000 </r>
       <r>    3.4687    1.0000 </r>
       <r>    3.5125    1.0000 </r>
       <r>    3.8643    1.0000 </r>
       <r>    4.0002    1.0000 </r>
       <r>    4.0002    1.0000 </r>
       <r>    4.5165    1.0000 </r>
       <r>    4.8559    1.0000 </r>
       <r>    5.4578    1.0000 </r>
       <r>    5.4578    1.0000 </r>
       <r>    6.6625    1.0000 </r>
       <r>    6.6625    1.0000 </r>
       <r>    7.0651    1.0325 </r>
       <r>    8.2701   -0.0000 </r>
       <r>   11.2523   -0.0000 </r>
       <r>   13.4294    0.0000 </r>
       <r>   13.4294    0.0000 </r>
       <r>   15.8060    0.0000 </r>
       <r>   20.1406    0.0000 </r>
       <r>   22.1831    0.0000 </r>
      </set>
      <set comment="kpoint 10">
       <r>    1.8377    1.0000 </r>
       <r>    2.0699    1.0000 </r>
       <r>    2.0699    1.0000 </r>
       <r>    2.0699    1.0000 </r>
       <r>    2.6461    1.0000 </r>
       <r>    2.6461    1.0000 </r>
       <r>    2.9275    1.0000 </r>
       <r>    2.9275    1.0000 </r>
       <r>    2.9275    1.0000 </r>
       <r>    3.1120    1.0000 </r>
       <r>    3.1120    1.0000 </r>
       <r>    3.1120    1.0000 </r>
       <r>    4.3070    1.0000 </r>
       <r>    4.3070    1.0000 </r>
       <r>    4.3070    1.0000 </r>
       <r>    4.8795    1.0000 </r>
       <r>    4.8957    1.0000 </r>
       <r>    4.8957    1.0000 </r>
       <r>    7.0457    1.0287 </r>
       <r>    7.0457    1.0287 </r>
       <r>    7.0457    1.0287 </r>
       <r>    7.7468   -0.0073 </r>
       <r>    7.7468   -0.0073 </r>
       <r>    7.7468   -0.0073 </r>
       <r>   10.6410   -0.0000 </r>
       <r>   10.6410   -0.0000 </r>
       <r>   10.6410   -0.0000 </r>
       <r>   12.6193   -0.0000 </r>
       <r>   25.5930    0.0000 </r>
       <r>   25.5930    0.0000 </r>
      </set>
     </set>
    </set>
   </array>
  </eigenvalues>
  <separator name="orbital magnetization" >
   <v name="MAGDIPOLOUT">      0.00000000      0.00000000      0.00000000</v>
  </separator>
  <dos>
   <i name="efermi">      7.34088543 </i>
   <total>
    <array>
     <dimension dim="1">gridpoints</dimension>
     <dimension dim="2">spin</dimension>
     <field>energy</field>
     <field>total</field>
     <field>integrated</field>
     <set>
      <set comment="spin 1">
       <r>    -3.6642     0.0000     0.0000 </r>
       <r>    -3.5600     0.0000     0.0000 </r>
       <r>    -3.4558     0.0000     0.0000 </r>
       <r>    -3.3516    -0.0000    -0.0000 </r>
       <r>    -3.2474    -0.0000    -0.0000 </r>
       <r>    -3.1432    -0.0000    -0.0000 </r>
       <r>    -3.0390    -0.0000    -0.0000 </r>
       <r>    -2.9348    -0.0000    -0.0000 </r>
       <r>    -2.8306    -0.0000    -0.0000 </r>
       <r>    -2.7264    -0.0000    -0.0000 </r>
       <r>    -2.6222    -0.0000    -0.0000 </r>
       <r>    -2.5181    -0.0000    -0.0000 </r>
       <r>    -2.4139    -0.0000    -0.0000 </r>
       <r>    -2.3097    -0.0000    -0.0000 </r>
       <r>    -2.2055    -0.0001    -0.0000 </r>
       <r>    -2.1013    -0.0006    -0.0001 </r>
       <r>    -1.9971    -0.0024    -0.0003 </r>
       <r>    -1.8929    -0.0022    -0.0005 </r>
       <r>    -1.7887     0.0159     0.0011 </r>
       <r>    -1.6845     0.0517     0.0065 </r>
       <r>    -1.5803     0.0553     0.0123 </r>
       <r>    -1.4761     0.0104     0.0133 </r>
       <r>    -1.3720     0.0183     0.0152 </r>
       <r>    -1.2678     0.1903     0.0351 </r>
       <r>    -1.1636     0.3727     0.0739 </r>
       <r>    -1.0594     0.2735     0.1024 </r>
       <r>    -0.9552     0.0634     0.1090 </r>
       <r>    -0.8510     0.2020     0.1300 </r>
       <r>    -0.7468     0.6420     0.1969 </r>
       <r>    -0.6426     0.7202     0.2720 </r>
       <r>    -0.5384     0.3049     0.3038 </r>
       <r>    -0.4342     0.0839     0.3125 </r>
       <r>    -0.3301     0.3150     0.3453 </r>
       <r>    -0.2259     0.4955     0.3969 </r>
       <r>    -0.1217     0.2966     0.4278 </r>
       <r>    -0.0175     0.1239     0.4407 </r>
       <r>     0.0867     0.2592     0.4677 </r>
       <r>     0.1909     0.3268     0.5018 </r>
       <r>     0.2951     0.1293     0.5153 </r>
       <r>     0.3993     0.2468     0.5410 </r>
       <r>     0.5035     1.0483     0.6502 </r>
       <r>     0.6077     1.5227     0.8089 </r>
       <r>     0.7119     0.8562     0.8981 </r>
       <r>     0.8160     0.2208     0.9211 </r>
       <r>     0.9202     0.7256     0.9967 </r>
       <r>     1.0244     1.4974     1.1527 </r>
       <r>     1.1286     1.1883     1.2765 </r>
       <r>     1.2328     0.3160     1.3094 </r>
       <r>     1.3370    -0.0705     1.3021 </r>
       <r>     1.4412    -0.0767     1.2941 </r>
       <r>     1.5454    -0.0400     1.2899 </r>
       <r>     1.6496     0.0763     1.2979 </r>
       <r>     1.7538     0.4363     1.3433 </r>
       <r>     1.8580     0.9821     1.4457 </r>
       <r>     1.9621     1.5900     1.6113 </r>
       <r>     2.0663     2.8062     1.9037 </r>
       <r>     2.1705     4.5493     2.3777 </r>
       <r>     2.2747     5.0166     2.9004 </r>
       <r>     2.3789     4.8776     3.4086 </r>
       <r>     2.4831     9.2458     4.3719 </r>
       <r>     2.5873    18.6197     6.3119 </r>
       <r>     2.6915    23.9051     8.8026 </r>
       <r>     2.7957    21.0641    10.9973 </r>
       <r>     2.8999    17.7286    12.8444 </r>
       <r>     3.0040    19.1219    14.8367 </r>
       <r>     3.1082    20.0549    16.9263 </r>
       <r>     3.2124    14.4513    18.4320 </r>
       <r>     3.3166     7.3344    19.1961 </r>
       <r>     3.4208     7.6584    19.9941 </r>
       <r>     3.5250    12.6137    21.3083 </r>
       <r>     3.6292    12.5151    22.6123 </r>
       <r>     3.7334     8.2370    23.4705 </r>
       <r>     3.8376     7.5068    24.2526 </r>
       <r>     3.9418    11.1781    25.4173 </r>
       <r>     4.0460    14.8510    26.9646 </r>
       <r>     4.1501    15.0556    28.5333 </r>
       <r>     4.2543    12.2610    29.8107 </r>
       <r>     4.3585     9.8091    30.8328 </r>
       <r>     4.4627     9.8590    31.8600 </r>
       <r>     4.5669    11.6917    33.0781 </r>
       <r>     4.6711    11.8087    34.3085 </r>
       <r>     4.7753     9.1039    35.2570 </r>
       <r>     4.8795     6.6573    35.9507 </r>
       <r>     4.9837     5.4632    36.5199 </r>
       <r>     5.0879     4.0971    36.9467 </r>
       <r>     5.1921     2.3742    37.1941 </r>
       <r>     5.2962     2.5995    37.4650 </r>
       <r>     5.4004     5.7697    38.0661 </r>
       <r>     5.5046     7.5160    38.8492 </r>
       <r>     5.6088     4.6480    39.3335 </r>
       <r>     5.7130     1.3139    39.4704 </r>
       <r>     5.8172     1.2939    39.6052 </r>
       <r>     5.9214     2.6421    39.8805 </r>
       <r>     6.0256     2.7140    40.1633 </r>
       <r>     6.1298     1.5129    40.3209 </r>
       <r>     6.2340     0.2884    40.3509 </r>
       <r>     6.3381     0.4835    40.4013 </r>
       <r>     6.4423     2.5549    40.6675 </r>
       <r>     6.5465     5.0759    41.1964 </r>
       <r>     6.6507     6.1669    41.8389 </r>
       <r>     6.7549     5.1350    42.3739 </r>
       <r>     6.8591     3.1441    42.7015 </r>
       <r>     6.9633     2.7025    42.9831 </r>
       <r>     7.0675     3.5033    43.3481 </r>
       <r>     7.1717     2.8458    43.6446 </r>
       <r>     7.2759     1.8968    43.8422 </r>
       <r>     7.3801     2.6032    44.1135 </r>
       <r>     7.4842     2.6289    44.3874 </r>
       <r>     7.5884     1.2504    44.5177 </r>
       <r>     7.6926     0.8796    44.6093 </r>
       <r>     7.7968     1.4959    44.7652 </r>
       <r>     7.9010     1.8178    44.9546 </r>
       <r>     8.0052     1.9378    45.1565 </r>
       <r>     8.1094     1.9111    45.3556 </r>
       <r>     8.2136     1.8866    45.5521 </r>
       <r>     8.3178     1.7549    45.7350 </r>
       <r>     8.4220     0.9851    45.8376 </r>
       <r>     8.5262     0.1488    45.8531 </r>
       <r>     8.6303    -0.1461    45.8379 </r>
       <r>     8.7345    -0.1060    45.8268 </r>
       <r>     8.8387     0.3474    45.8630 </r>
       <r>     8.9429     1.2190    45.9901 </r>
       <r>     9.0471     1.4877    46.1451 </r>
       <r>     9.1513     1.1804    46.2680 </r>
       <r>     9.2555     1.9780    46.4741 </r>
       <r>     9.3597     3.0545    46.7924 </r>
       <r>     9.4639     2.1561    47.0170 </r>
       <r>     9.5681     0.4581    47.0648 </r>
       <r>     9.6722    -0.1859    47.0454 </r>
       <r>     9.7764    -0.0096    47.0444 </r>
       <r>     9.8806     0.4735    47.0937 </r>
       <r>     9.9848     0.7806    47.1751 </r>
       <r>    10.0890     0.5116    47.2284 </r>
       <r>    10.1932     0.0837    47.2371 </r>
       <r>    10.2974    -0.1072    47.2259 </r>
       <r>    10.4016    -0.1258    47.2128 </r>
       <r>    10.5058     0.3490    47.2492 </r>
       <r>    10.6100     1.5965    47.4155 </r>
       <r>    10.7142     2.3062    47.6558 </r>
       <r>    10.8183     1.3858    47.8002 </r>
       <r>    10.9225     0.1455    47.8153 </r>
       <r>    11.0267    -0.2380    47.7906 </r>
       <r>    11.1309     0.4120    47.8335 </r>
       <r>    11.2351     2.0483    48.0469 </r>
       <r>    11.3393     3.0133    48.3608 </r>
       <r>    11.4435     1.9183    48.5607 </r>
       <r>    11.5477     0.3599    48.5982 </r>
       <r>    11.6519    -0.2381    48.5734 </r>
       <r>    11.7561    -0.2681    48.5455 </r>
       <r>    11.8603     0.4426    48.5916 </r>
       <r>    11.9644     2.4769    48.8496 </r>
       <r>    12.0686     3.8758    49.2535 </r>
       <r>    12.1728     2.5212    49.5162 </r>
       <r>    12.2770     0.4230    49.5602 </r>
       <r>    12.3812    -0.2781    49.5313 </r>
       <r>    12.4854     0.2660    49.5590 </r>
       <r>    12.5896     1.5085    49.7161 </r>
       <r>    12.6938     2.0624    49.9310 </r>
       <r>    12.7980     1.1438    50.0502 </r>
       <r>    12.9022     0.1331    50.0641 </r>
       <r>    13.0063    -0.1417    50.0493 </r>
       <r>    13.1105    -0.1798    50.0306 </r>
       <r>    13.2147    -0.0744    50.0228 </r>
       <r>    13.3189     0.9811    50.1250 </r>
       <r>    13.4231     2.7875    50.4155 </r>
       <r>    13.5273     3.0122    50.7293 </r>
       <r>    13.6315     1.4230    50.8776 </r>
       <r>    13.7357     0.5799    50.9380 </r>
       <r>    13.8399     0.9551    51.0375 </r>
       <r>    13.9441     1.1740    51.1598 </r>
       <r>    14.0483     0.7383    51.2367 </r>
       <r>    14.1524     0.1495    51.2523 </r>
       <r>    14.2566    -0.1443    51.2373 </r>
       <r>    14.3608    -0.0160    51.2356 </r>
       <r>    14.4650     0.8676    51.3260 </r>
       <r>    14.5692     2.2348    51.5589 </r>
       <r>    14.6734     2.5636    51.8260 </r>
       <r>    14.7776     1.4486    51.9769 </r>
       <r>    14.8818     0.9658    52.0775 </r>
       <r>    14.9860     2.2123    52.3080 </r>
       <r>    15.0902     2.8737    52.6074 </r>
       <r>    15.1944     1.8145    52.7965 </r>
       <r>    15.2985     1.2305    52.9247 </r>
       <r>    15.4027     1.3888    53.0694 </r>
       <r>    15.5069     0.8235    53.1552 </r>
       <r>    15.6111     0.1660    53.1725 </r>
       <r>    15.7153     0.5691    53.2318 </r>
       <r>    15.8195     1.3996    53.3776 </r>
       <r>    15.9237     1.2925    53.5123 </r>
       <r>    16.0279     0.6772    53.5828 </r>
       <r>    16.1321     0.6855    53.6543 </r>
       <r>    16.2363     0.9590    53.7542 </r>
       <r>    16.3404     0.8926    53.8472 </r>
       <r>    16.4446     0.6884    53.9189 </r>
       <r>    16.5488     1.1405    54.0377 </r>
       <r>    16.6530     2.3772    54.2854 </r>
       <r>    16.7572     3.3177    54.6311 </r>
       <r>    16.8614     2.9909    54.9427 </r>
       <r>    16.9656     1.6553    55.1152 </r>
       <r>    17.0698     0.5140    55.1687 </r>
       <r>    17.1740     0.0834    55.1774 </r>
       <r>    17.2782     0.4136    55.2205 </r>
       <r>    17.3824     1.2563    55.3514 </r>
       <r>    17.4865     1.3690    55.4940 </r>
       <r>    17.5907     0.5946    55.5560 </r>
       <r>    17.6949     0.6319    55.6218 </r>
       <r>    17.7991     1.9848    55.8286 </r>
       <r>    17.9033     3.0543    56.1468 </r>
       <r>    18.0075     2.5696    56.4146 </r>
       <r>    18.1117     1.0770    56.5268 </r>
       <r>    18.2159    -0.0009    56.5267 </r>
       <r>    18.3201     0.1232    56.5395 </r>
       <r>    18.4243     1.3306    56.6782 </r>
       <r>    18.5285     2.5757    56.9465 </r>
       <r>    18.6326     2.7578    57.2339 </r>
       <r>    18.7368     2.6760    57.5127 </r>
       <r>    18.8410     3.5713    57.8848 </r>
       <r>    18.9452     3.9458    58.2959 </r>
       <r>    19.0494     2.2897    58.5345 </r>
       <r>    19.1536     0.3989    58.5760 </r>
       <r>    19.2578    -0.1848    58.5568 </r>
       <r>    19.3620    -0.1015    58.5462 </r>
       <r>    19.4662    -0.0210    58.5440 </r>
       <r>    19.5704    -0.0166    58.5423 </r>
       <r>    19.6745    -0.0672    58.5353 </r>
       <r>    19.7787    -0.0946    58.5254 </r>
       <r>    19.8829     0.3124    58.5580 </r>
       <r>    19.9871     1.4671    58.7108 </r>
       <r>    20.0913     2.5220    58.9736 </r>
       <r>    20.1955     2.2983    59.2131 </r>
       <r>    20.2997     1.1422    59.3321 </r>
       <r>    20.4039     0.2863    59.3619 </r>
       <r>    20.5081     0.0246    59.3645 </r>
       <r>    20.6123    -0.0187    59.3625 </r>
       <r>    20.7165    -0.0170    59.3608 </r>
       <r>    20.8206    -0.0061    59.3601 </r>
       <r>    20.9248    -0.0011    59.3600 </r>
       <r>    21.0290    -0.0001    59.3600 </r>
       <r>    21.1332    -0.0000    59.3600 </r>
       <r>    21.2374    -0.0000    59.3600 </r>
       <r>    21.3416    -0.0000    59.3600 </r>
       <r>    21.4458    -0.0000    59.3600 </r>
       <r>    21.5500    -0.0001    59.3600 </r>
       <r>    21.6542    -0.0020    59.3598 </r>
       <r>    21.7584    -0.0172    59.3580 </r>
       <r>    21.8626    -0.0652    59.3512 </r>
       <r>    21.9667    -0.0322    59.3478 </r>
       <r>    22.0709     0.4788    59.3977 </r>
       <r>    22.1751     1.3558    59.5390 </r>
       <r>    22.2793     1.4495    59.6900 </r>
       <r>    22.3835     0.6115    59.7537 </r>
       <r>    22.4877     0.0048    59.7542 </r>
       <r>    22.5919    -0.0726    59.7467 </r>
       <r>    22.6961    -0.0223    59.7443 </r>
       <r>    22.8003    -0.0030    59.7440 </r>
       <r>    22.9045    -0.0002    59.7440 </r>
       <r>    23.0086    -0.0000    59.7440 </r>
       <r>    23.1128    -0.0000    59.7440 </r>
       <r>    23.2170    -0.0000    59.7440 </r>
       <r>    23.3212    -0.0000    59.7440 </r>
       <r>    23.4254    -0.0000    59.7440 </r>
       <r>    23.5296     0.0000    59.7440 </r>
       <r>    23.6338     0.0000    59.7440 </r>
       <r>    23.7380     0.0000    59.7440 </r>
       <r>    23.8422     0.0000    59.7440 </r>
       <r>    23.9464    -0.0000    59.7440 </r>
       <r>    24.0506    -0.0000    59.7440 </r>
       <r>    24.1547    -0.0000    59.7440 </r>
       <r>    24.2589    -0.0000    59.7440 </r>
       <r>    24.3631    -0.0000    59.7440 </r>
       <r>    24.4673    -0.0000    59.7440 </r>
       <r>    24.5715    -0.0000    59.7440 </r>
       <r>    24.6757    -0.0000    59.7440 </r>
       <r>    24.7799    -0.0000    59.7440 </r>
       <r>    24.8841    -0.0000    59.7440 </r>
       <r>    24.9883    -0.0002    59.7440 </r>
       <r>    25.0925    -0.0026    59.7437 </r>
       <r>    25.1967    -0.0180    59.7418 </r>
       <r>    25.3008    -0.0513    59.7365 </r>
       <r>    25.4050     0.0286    59.7395 </r>
       <r>    25.5092     0.4798    59.7894 </r>
       <r>    25.6134     1.0030    59.8939 </r>
       <r>    25.7176     0.8459    59.9821 </r>
       <r>    25.8218     0.2563    60.0088 </r>
       <r>    25.9260    -0.0350    60.0051 </r>
       <r>    26.0302    -0.0391    60.0011 </r>
       <r>    26.1344    -0.0092    60.0001 </r>
       <r>    26.2386    -0.0010    60.0000 </r>
       <r>    26.3427    -0.0001    60.0000 </r>
       <r>    26.4469    -0.0000    60.0000 </r>
       <r>    26.5511    -0.0000    60.0000 </r>
       <r>    26.6553    -0.0000    60.0000 </r>
       <r>    26.7595    -0.0000    60.0000 </r>
       <r>    26.8637    -0.0000    60.0000 </r>
       <r>    26.9679     0.0000    60.0000 </r>
       <r>    27.0721     0.0000    60.0000 </r>
       <r>    27.1763     0.0000    60.0000 </r>
       <r>    27.2805     0.0000    60.0000 </r>
       <r>    27.3847     0.0000    60.0000 </r>
       <r>    27.4888     0.0000    60.0000 </r>
       <r>    27.5930     0.0000    60.0000 </r>
      </set>
     </set>
    </array>
   </total>
  </dos>
 </calculation>
 <structure name="finalpos" >
  <crystal>
   <varray name="basis" >
    <v>       3.63500000       0.00000000       0.00000000 </v>
    <v>       0.00000000       3.63500000       0.00000000 </v>
    <v>       0.00000000       0.00000000       3.63500000 </v>
   </varray>
   <i name="volume">     48.03007287 </i>
   <varray name="rec_basis" >
    <v>       0.27510316       0.00000000       0.00000000 </v>
    <v>       0.00000000       0.27510316       0.00000000 </v>
    <v>       0.00000000       0.00000000       0.27510316 </v>
   </varray>
  </crystal>
  <varray name="positions" >
   <v>       0.00000000       0.00000000       0.00000000 </v>
   <v>       0.50000000       0.50000000       0.00000000 </v>
   <v>       0.50000000       0.00000000       0.50000000 </v>
   <v>       0.00000000       0.50000000       0.50000000 </v>
  </varray>
 </structure>
</modeling>
