unknown system                          
   1.00000000000000     
     2.376600    0.000000    0.000000
    -1.188300    2.058196    0.000000
     0.000000    0.000000    4.140180
   Fe
     2
Direct
  0.000000  0.000000  0.000000
  0.333333  0.666667  0.500000
 
   20   20   36
 0.17004292021E+03 0.16078479472E+03 0.13597435230E+03 0.10288413859E+03 0.69588260474E+02
 0.42105242334E+02 0.23363112165E+02 0.13354163017E+02 0.96745869538E+01 0.86136473666E+01
 0.82660045188E+01 0.86140863266E+01 0.96749362700E+01 0.13354026509E+02 0.23362696389E+02
 0.42105056890E+02 0.69588480613E+02 0.10288445854E+03 0.13597445045E+03 0.16078472464E+03
 0.16079289982E+03 0.16078445775E+03 0.14379127073E+03 0.11505025650E+03 0.82322044271E+02
 0.52618145220E+02 0.30310126141E+02 0.16773788020E+02 0.10723222490E+02 0.89280466765E+01
 0.82574106829E+01 0.82566760340E+01 0.89272633492E+01 0.10724015298E+02 0.16774591465E+02
 0.30308482015E+02 0.52616349066E+02 0.82327114043E+02 0.11506565156E+03 0.14380984802E+03
 0.13598659041E+03 0.14376956956E+03 0.13597441279E+03 0.11505058440E+03 0.87051226159E+02
 0.58825847908E+02 0.35625265391E+02 0.20058066315E+02 0.12035154198E+02 0.92233540192E+01
 0.82819452116E+01 0.79588309030E+01 0.82802032112E+01 0.92229097583E+01 0.12036618830E+02
 0.20057686027E+02 0.35620726293E+02 0.58821896574E+02 0.87055658069E+02 0.11506391723E+03
 0.10287916215E+03 0.11497796190E+03 0.11497985210E+03 0.10288476873E+03 0.82321977009E+02
 0.58825578844E+02 0.37615772872E+02 0.22071388979E+02 0.13154415747E+02 0.95258255736E+01
 0.83270122184E+01 0.77496205990E+01 0.77490644811E+01 0.83263692789E+01 0.95265683513E+01
 0.13155844128E+02 0.22070645528E+02 0.37610753402E+02 0.58817283460E+02 0.82313642471E+02
 0.69571597961E+02 0.82214061828E+02 0.86909524142E+02 0.82227496675E+02 0.69588326733E+02
 0.52617608386E+02 0.35625341759E+02 0.22071574985E+02 0.13595223589E+02 0.97370377470E+01
 0.83702848510E+01 0.76288711407E+01 0.73834329274E+01 0.76292939519E+01 0.83705229862E+01
 0.97378271271E+01 0.13598297960E+02 0.22075941920E+02 0.35625468980E+02 0.52608173886E+02
 0.42103539874E+02 0.52538238079E+02 0.58684262115E+02 0.58688807391E+02 0.52546269560E+02
 0.42104946703E+02 0.30310093399E+02 0.20058466118E+02 0.13154325265E+02 0.97369321453E+01
 0.83882114980E+01 0.75773641510E+01 0.71801526126E+01 0.71808569685E+01 0.75777774569E+01
 0.83866451718E+01 0.97363101107E+01 0.13159623504E+02 0.20069112550E+02 0.30318174211E+02
 0.23374836353E+02 0.30300518208E+02 0.35567652105E+02 0.37532445057E+02 0.35562950224E+02
 0.30290965234E+02 0.23362904808E+02 0.16774076539E+02 0.12035149268E+02 0.95255650519E+01
 0.83704043048E+01 0.75774155375E+01 0.71161802205E+01 0.69712449504E+01 0.71173163387E+01
 0.75763753601E+01 0.83657802983E+01 0.95211570394E+01 0.12036618830E+02 0.16782881564E+02
 0.13353262023E+02 0.16809282973E+02 0.20096642877E+02 0.22095020548E+02 0.22089717527E+02
 0.20085216345E+02 0.16801040624E+02 0.13354142517E+02 0.10723385711E+02 0.92230904499E+01
 0.83270619477E+01 0.76290271523E+01 0.71799806118E+01 0.69712073922E+01 0.69721243560E+01
 0.71816094989E+01 0.76285294659E+01 0.83218373726E+01 0.92137647379E+01 0.10715075633E+02
 0.96614180040E+01 0.10762211690E+02 0.12116948045E+02 0.13256866483E+02 0.13700315843E+02
 0.13253123910E+02 0.12116878316E+02 0.10770934576E+02 0.96747563024E+01 0.89279549394E+01
 0.82818117373E+01 0.77498375870E+01 0.73833242643E+01 0.71807450978E+01 0.71175585222E+01
 0.71816696289E+01 0.73867973136E+01 0.77543608734E+01 0.82815815130E+01 0.89190881698E+01
 0.86134327361E+01 0.89709502217E+01 0.93118605346E+01 0.96541589044E+01 0.98883480824E+01
 0.98899483812E+01 0.96597133200E+01 0.93210080207E+01 0.89789152357E+01 0.86137974709E+01
 0.82572236997E+01 0.79589733869E+01 0.77491839965E+01 0.76291380478E+01 0.75779542084E+01
 0.75765007251E+01 0.76282175501E+01 0.77542634008E+01 0.79693940000E+01 0.82655048040E+01
 0.82781444831E+01 0.83188408939E+01 0.83858907418E+01 0.84690865652E+01 0.85426219206E+01
 0.85742482008E+01 0.85472500466E+01 0.84736136453E+01 0.83847250070E+01 0.83102393038E+01
 0.82659768335E+01 0.82566119070E+01 0.82804334355E+01 0.83262556639E+01 0.83704043048E+01
 0.83867362794E+01 0.83655421631E+01 0.83216740283E+01 0.82819452116E+01 0.82656276601E+01
 0.86130479927E+01 0.83187236166E+01 0.80763167757E+01 0.79107175723E+01 0.78233983652E+01
 0.77929346857E+01 0.77942089372E+01 0.78239351830E+01 0.79053861363E+01 0.80660173041E+01
 0.83108804755E+01 0.86138516876E+01 0.89273555655E+01 0.92229253378E+01 0.95262793454E+01
 0.97378497878E+01 0.97364383731E+01 0.95211285552E+01 0.92140438867E+01 0.89192721232E+01
 0.96611260517E+01 0.89707915965E+01 0.83862569772E+01 0.79107924577E+01 0.75886949007E+01
 0.74154470266E+01 0.73630224291E+01 0.74148356611E+01 0.75853838023E+01 0.79059855101E+01
 0.83860459448E+01 0.89795688263E+01 0.96748136663E+01 0.10724150197E+02 0.12036470206E+02
 0.13155842281E+02 0.13598645339E+02 0.13159712140E+02 0.12036475136E+02 0.10715047310E+02
 0.13353419542E+02 0.10762285515E+02 0.93121319603E+01 0.84691662185E+01 0.78230892877E+01
 0.74154416177E+01 0.72286823618E+01 0.72278906504E+01 0.74140921864E+01 0.78237910821E+01
 0.84743153222E+01 0.93210979049E+01 0.10770191101E+02 0.13354163528E+02 0.16774705094E+02
 0.20057692576E+02 0.22070831511E+02 0.22075941897E+02 0.20068719296E+02 0.16782706674E+02
 0.23375252129E+02 0.16809485881E+02 0.12116785133E+02 0.96540557769E+01 0.85424030516E+01
 0.77929711145E+01 0.73632504001E+01 0.72278244777E+01 0.73617014913E+01 0.77937239726E+01
 0.85472500466E+01 0.96589453201E+01 0.12115500014E+02 0.16800390547E+02 0.23362904808E+02
 0.30308461973E+02 0.35620599071E+02 0.37610590889E+02 0.35625265391E+02 0.30318186912E+02
 0.42103744467E+02 0.30300471361E+02 0.20096239502E+02 0.13256707134E+02 0.98885063237E+01
 0.85743616670E+01 0.77943545726E+01 0.74146872250E+01 0.74139491592E+01 0.77938331792E+01
 0.85757878660E+01 0.98891041044E+01 0.13251626043E+02 0.20085949727E+02 0.30292578021E+02
 0.42104965852E+02 0.52616110518E+02 0.58821780320E+02 0.58817436269E+02 0.52608472173E+02
 0.69571422473E+02 0.52537858211E+02 0.35567465731E+02 0.22095125469E+02 0.13700669615E+02
 0.98900041911E+01 0.85471010884E+01 0.78238327625E+01 0.75853178017E+01 0.78239977391E+01
 0.85473199574E+01 0.98890016729E+01 0.13696996108E+02 0.22090482013E+02 0.35567648261E+02
 0.52547786577E+02 0.69588371384E+02 0.82327273401E+02 0.87055924196E+02 0.82313869091E+02
 0.10287887750E+03 0.82213786473E+02 0.58684447768E+02 0.37532836657E+02 0.22089864372E+02
 0.13252943903E+02 0.96594312840E+01 0.84736838415E+01 0.79055313599E+01 0.79060558484E+01
 0.84743058652E+01 0.96587664117E+01 0.13251605385E+02 0.22090523936E+02 0.37537591235E+02
 0.58692551472E+02 0.82222235577E+02 0.10288480403E+03 0.11506575501E+03 0.11506369278E+03
 0.13598649226E+03 0.11497823186E+03 0.86909806438E+02 0.58689053869E+02 0.35562767694E+02
 0.20084874436E+02 0.12116785133E+02 0.93212556840E+01 0.83849360394E+01 0.80658502035E+01
 0.83858907418E+01 0.93210741424E+01 0.12115569743E+02 0.20086011192E+02 0.35567652105E+02
 0.58692612297E+02 0.86904781454E+02 0.11496468851E+03 0.13597441279E+03 0.14380931311E+03
 0.16079295284E+03 0.14377020656E+03 0.11497994094E+03 0.82227205691E+02 0.52546016330E+02
 0.30290815373E+02 0.16801213352E+02 0.10771187109E+02 0.89789497162E+01 0.83099661231E+01
 0.83107245720E+01 0.89797619319E+01 0.10770369810E+02 0.16800360367E+02 0.30292475008E+02
 0.52547913215E+02 0.82222219947E+02 0.11496450739E+03 0.14375150193E+03 0.16078444069E+03
 0.16129394475E+03 0.15252183611E+03 0.12899611931E+03 0.97585023443E+02 0.65961888894E+02
 0.39897029979E+02 0.22214104405E+02 0.12875363503E+02 0.94975615813E+01 0.84836163793E+01
 0.81453159350E+01 0.84840406294E+01 0.94978984741E+01 0.12875229700E+02 0.22213700130E+02
 0.39896848917E+02 0.65962101072E+02 0.97585333031E+02 0.12899621475E+03 0.15252176871E+03
 0.15252935504E+03 0.15252150798E+03 0.13640877024E+03 0.10913167542E+03 0.78045540624E+02
 0.49845700653E+02 0.28738771027E+02 0.16036686664E+02 0.10444437623E+02 0.87834443424E+01
 0.81301195783E+01 0.81294120302E+01 0.87826887141E+01 0.10445221677E+02 0.16037558334E+02
 0.28737361444E+02 0.49844066427E+02 0.78050213757E+02 0.10914593761E+03 0.13642602125E+03
 0.12900748503E+03 0.13639251141E+03 0.12899617735E+03 0.10913199441E+03 0.82533976638E+02
 0.55727017904E+02 0.33746094060E+02 0.19092198518E+02 0.11635024809E+02 0.90577755364E+01
 0.81488258472E+01 0.78357462989E+01 0.81471412107E+01 0.90573241268E+01 0.11636442997E+02
 0.19091956245E+02 0.33741940457E+02 0.55723320375E+02 0.82538027912E+02 0.10914434122E+03
 0.97580440183E+02 0.10907501380E+03 0.10907676294E+03 0.97585636445E+02 0.78045476261E+02
 0.55726756388E+02 0.35623833603E+02 0.20971680881E+02 0.12657549410E+02 0.93266628315E+01
 0.81891300425E+01 0.76302934119E+01 0.76297613841E+01 0.81884931319E+01 0.93273026376E+01
 0.12658825719E+02 0.20970943809E+02 0.35619133588E+02 0.55719030518E+02 0.78037734584E+02
 0.65946479731E+02 0.77962843146E+02 0.82426484192E+02 0.77975289801E+02 0.65961954324E+02
 0.49845178906E+02 0.33746167345E+02 0.20971861603E+02 0.13061641722E+02 0.95136133578E+01
 0.82291492633E+01 0.75119088237E+01 0.72756305816E+01 0.75123418983E+01 0.82293801391E+01
 0.95142736151E+01 0.13064376863E+02 0.20975836657E+02 0.33746291516E+02 0.49836480102E+02
 0.39895486953E+02 0.49794327418E+02 0.55631929566E+02 0.55636154068E+02 0.49801775262E+02
 0.39896742700E+02 0.28738738499E+02 0.19092587091E+02 0.12657462591E+02 0.95135109361E+01
 0.82458979893E+01 0.74614024950E+01 0.70794488989E+01 0.70801476675E+01 0.74618723876E+01
 0.82444859980E+01 0.95129116510E+01 0.12662356603E+02 0.19102500914E+02 0.28746309734E+02
 0.22224970413E+02 0.28754589408E+02 0.33736101845E+02 0.35596951859E+02 0.33731788127E+02
 0.28745774665E+02 0.22213903155E+02 0.16036967384E+02 0.11635020863E+02 0.93264097678E+01
 0.82292640602E+01 0.74614519556E+01 0.70178145523E+01 0.68788239858E+01 0.70189110153E+01
 0.74605457520E+01 0.82250290804E+01 0.93223744609E+01 0.11636442997E+02 0.16045179988E+02
 0.12874472695E+02 0.16093142022E+02 0.19172268031E+02 0.21050003611E+02 0.21045102352E+02
 0.19161720040E+02 0.16085566143E+02 0.12875344025E+02 0.10444595841E+02 0.90575187163E+01
 0.81891771507E+01 0.75120598374E+01 0.70792826635E+01 0.68787880008E+01 0.68796163186E+01
 0.70807526273E+01 0.75115848940E+01 0.81843572880E+01 0.90488984254E+01 0.10436878347E+02
 0.94852967202E+01 0.10501384815E+02 0.11751518118E+02 0.12807547408E+02 0.13219306541E+02
 0.12804051387E+02 0.11751449967E+02 0.10509518480E+02 0.94977251135E+01 0.87833539748E+01
 0.81486961437E+01 0.76305048779E+01 0.72755260523E+01 0.70800396678E+01 0.70191460234E+01
 0.70808108630E+01 0.72786501692E+01 0.76346542323E+01 0.81484726817E+01 0.87751023887E+01
 0.84834137503E+01 0.88417319706E+01 0.91759404480E+01 0.94958110205E+01 0.97118951171E+01
 0.97133392907E+01 0.95008803934E+01 0.91843690261E+01 0.88491135254E+01 0.84837616529E+01
 0.81299388706E+01 0.78358864889E+01 0.76298779988E+01 0.75121899626E+01 0.74620435061E+01
 0.74606674100E+01 0.75112819446E+01 0.76345593809E+01 0.78455558836E+01 0.81376252347E+01
 0.81565862179E+01 0.82044620666E+01 0.82784345626E+01 0.83669111920E+01 0.84433740648E+01
 0.84757273460E+01 0.84476165099E+01 0.83710437962E+01 0.82773076283E+01 0.81964670209E+01
 0.81452899394E+01 0.81293510161E+01 0.81473646726E+01 0.81883811219E+01 0.82292640602E+01
 0.82445750498E+01 0.82247982046E+01 0.81841981698E+01 0.81488258472E+01 0.81377449282E+01
 0.84830401470E+01 0.82043476272E+01 0.79769084051E+01 0.78233262939E+01 0.77437305450E+01
 0.77167307622E+01 0.77179336908E+01 0.77442669657E+01 0.78183985300E+01 0.79673522938E+01
 0.81970822778E+01 0.84838122996E+01 0.87827777425E+01 0.90573379443E+01 0.93270213286E+01
 0.95142966679E+01 0.95130371255E+01 0.93223462157E+01 0.90491690630E+01 0.87752817848E+01
 0.94850135305E+01 0.88415769065E+01 0.82787900659E+01 0.78233996633E+01 0.75161740497E+01
 0.73514678816E+01 0.73017645551E+01 0.73509987920E+01 0.75132054361E+01 0.78189747623E+01
 0.82785853963E+01 0.88497404044E+01 0.94977788166E+01 0.10445352845E+02 0.11636298631E+02
 0.12658824555E+02 0.13064715013E+02 0.12662442258E+02 0.11636302577E+02 0.10436851298E+02
 0.12874626324E+02 0.10501456044E+02 0.91762037600E+01 0.83669897871E+01 0.77434309893E+01
 0.73514621886E+01 0.71722532737E+01 0.71715450327E+01 0.73502616125E+01 0.77441060185E+01
 0.83717419511E+01 0.91844793265E+01 0.10508781300E+02 0.12875363849E+02 0.16037669235E+02
 0.19091962307E+02 0.20971124423E+02 0.20975836549E+02 0.19102118403E+02 0.16045010168E+02
 0.22225374688E+02 0.16093339297E+02 0.11751359581E+02 0.94957115083E+01 0.84431620643E+01
 0.77167652143E+01 0.73019850530E+01 0.71714807953E+01 0.73004867871E+01 0.77173927573E+01
 0.84476165099E+01 0.95002182155E+01 0.11750118496E+02 0.16084844438E+02 0.22213903155E+02
 0.28737341236E+02 0.33741816286E+02 0.35618976054E+02 0.33746094060E+02 0.28746322054E+02
 0.39895685494E+02 0.28754544076E+02 0.19171876027E+02 0.12807392411E+02 0.97120488169E+01
 0.84758368402E+01 0.77180744006E+01 0.73508548828E+01 0.73501233964E+01 0.77174990152E+01
 0.84771108558E+01 0.97126216845E+01 0.12802706902E+02 0.19162307521E+02 0.28747154479E+02
 0.39896760179E+02 0.49843834421E+02 0.55723208025E+02 0.55719179684E+02 0.49836769843E+02
 0.65946308626E+02 0.49793958271E+02 0.33735920817E+02 0.21050105148E+02 0.13219649835E+02
 0.97133933022E+01 0.84474720494E+01 0.77441681688E+01 0.75131418326E+01 0.77443067773E+01
 0.84476840498E+01 0.97125219962E+01 0.13216328027E+02 0.21045859356E+02 0.33736098112E+02
 0.49803137226E+02 0.65961995397E+02 0.78050369109E+02 0.82538286623E+02 0.78037954299E+02
 0.97580163140E+02 0.77962575822E+02 0.55632110252E+02 0.35597332281E+02 0.21045244845E+02
 0.12803876593E+02 0.95006071099E+01 0.83711129104E+01 0.78185393605E+01 0.78190422235E+01
 0.83717324702E+01 0.95000444442E+01 0.12802687105E+02 0.21045900312E+02 0.35601776834E+02
 0.55639652407E+02 0.77970429498E+02 0.97585668991E+02 0.10914603742E+03 0.10914412205E+03
 0.12900738959E+03 0.10907527716E+03 0.82426759190E+02 0.55636393600E+02 0.33731610832E+02
 0.19161387890E+02 0.11751359581E+02 0.91846102320E+01 0.82775122979E+01 0.79671885213E+01
 0.82784345626E+01 0.91844572205E+01 0.11750186647E+02 0.19162367375E+02 0.33736101845E+02
 0.55639711253E+02 0.82422133133E+02 0.10906272644E+03 0.12899617735E+03 0.13642550022E+03
 0.15252940668E+03 0.13639313183E+03 0.10907685024E+03 0.77975006695E+02 0.49801528841E+02
 0.28745629021E+02 0.16085733429E+02 0.10509763793E+02 0.88491474765E+01 0.81962008249E+01
 0.81969305212E+01 0.88499294196E+01 0.10508955385E+02 0.16084814448E+02 0.28747054167E+02
 0.49803259952E+02 0.77970413716E+02 0.10906255039E+03 0.13637575814E+03 0.15252149223E+03
 0.13771344875E+03 0.13023478294E+03 0.11014049532E+03 0.83245391960E+02 0.56160874972E+02
 0.33970767089E+02 0.19180023677E+02 0.11643456283E+02 0.90353279099E+01 0.81285265693E+01
 0.78179270961E+01 0.81289094132E+01 0.90356297514E+01 0.11643330135E+02 0.19179652420E+02
 0.33970599789E+02 0.56161066381E+02 0.83245673280E+02 0.11014058296E+03 0.13023472257E+03
 0.13024074690E+03 0.13023448033E+03 0.11647099090E+03 0.93120920139E+02 0.66475243562E+02
 0.42375671046E+02 0.24553587543E+02 0.14115159446E+02 0.97298231223E+01 0.83841617759E+01
 0.77825281792E+01 0.77818980471E+01 0.83834854028E+01 0.97305722309E+01 0.14116182677E+02
 0.24552772687E+02 0.42374457866E+02 0.66478871455E+02 0.93132183818E+02 0.11648472282E+03
 0.11014954493E+03 0.11646994192E+03 0.11014054650E+03 0.93121213547E+02 0.70309889762E+02
 0.47364651155E+02 0.28719370831E+02 0.16553292323E+02 0.10606292843E+02 0.86126752877E+01
 0.77828090920E+01 0.74987401295E+01 0.77812912789E+01 0.86122132553E+01 0.10607574796E+02
 0.16553391630E+02 0.28716226163E+02 0.47361632427E+02 0.70312943791E+02 0.93130950025E+02
 0.83241845356E+02 0.93107488994E+02 0.93108865580E+02 0.83245955778E+02 0.66475187421E+02
 0.47364411233E+02 0.30288493416E+02 0.18069754081E+02 0.11374008217E+02 0.88042521485E+01
 0.78075873457E+01 0.73020391274E+01 0.73015751352E+01 0.78069767370E+01 0.88046311440E+01
 0.11374893022E+02 0.18069045090E+02 0.30284650610E+02 0.47358202225E+02 0.66469019198E+02
 0.56148779856E+02 0.66461990896E+02 0.70296525748E+02 0.66471820456E+02 0.56160937854E+02
 0.42375192439E+02 0.28719435190E+02 0.18069919622E+02 0.11680720567E+02 0.89321535574E+01
 0.78367936618E+01 0.71885772583E+01 0.69779451683E+01 0.71890289489E+01 0.78370037232E+01
 0.89324879705E+01 0.11682582605E+02 0.18072873014E+02 0.28719550720E+02 0.42368433532E+02
 0.33969637950E+02 0.42402492591E+02 0.47397102240E+02 0.47400473933E+02 0.42408392576E+02
 0.33970503605E+02 0.24553555531E+02 0.16553648628E+02 0.11373931958E+02 0.89320603079E+01
 0.78495966322E+01 0.71398451375E+01 0.68001854451E+01 0.68008584202E+01 0.71404439770E+01
 0.78485834479E+01 0.89315261315E+01 0.11377759107E+02 0.16561611595E+02 0.24559758860E+02
 0.19188614387E+02 0.24639411629E+02 0.28840252435E+02 0.30416677762E+02 0.28836957330E+02
 0.24632544504E+02 0.19179839885E+02 0.14115417776E+02 0.10606291834E+02 0.88040206203E+01
 0.78368952210E+01 0.71398890986E+01 0.67445461186E+01 0.66217083136E+01 0.67455265433E+01
 0.71393235763E+01 0.78336791660E+01 0.88009617819E+01 0.10607574796E+02 0.14122048448E+02
 0.11642604375E+02 0.14230195938E+02 0.16748710198E+02 0.18299789963E+02 0.18295950038E+02
 0.16740480348E+02 0.14224371982E+02 0.11643439845E+02 0.97299671263E+01 0.86124379972E+01
 0.78076270465E+01 0.71887139356E+01 0.68000356628E+01 0.66216767809E+01 0.66222755114E+01
 0.68010944997E+01 0.71883031894E+01 0.78038745728E+01 0.86056808889E+01 0.97238221380E+01
 0.90254729784E+01 0.98382221472E+01 0.10821649272E+02 0.11659011040E+02 0.11987477712E+02
 0.11656174571E+02 0.10821585734E+02 0.98447825794E+01 0.90354748828E+01 0.83840754328E+01
 0.77826901831E+01 0.73022346229E+01 0.69778523878E+01 0.68007614223E+01 0.67457409243E+01
 0.68011472841E+01 0.69800749198E+01 0.73054030590E+01 0.77824860847E+01 0.83774610694E+01
 0.81283581442E+01 0.84879149565E+01 0.88182662882E+01 0.90935743924E+01 0.92687181149E+01
 0.92697578485E+01 0.90973769585E+01 0.88248009331E+01 0.84937493921E+01 0.81286579223E+01
 0.77823652615E+01 0.74988734782E+01 0.73016833539E+01 0.71888884261E+01 0.71405989292E+01
 0.71394345675E+01 0.71880259893E+01 0.73053157822E+01 0.75065495244E+01 0.77884736495E+01
 0.78268890633E+01 0.78961435666E+01 0.79904615466E+01 0.80945113503E+01 0.81797600055E+01
 0.82144013592E+01 0.81829909342E+01 0.80976132233E+01 0.79894487822E+01 0.78897615144E+01
 0.78179056411E+01 0.77818457394E+01 0.77814953773E+01 0.78068695401E+01 0.78368952210E+01
 0.78486665401E+01 0.78334691046E+01 0.78037276751E+01 0.77828090920E+01 0.77885842595E+01
 0.81280165219E+01 0.78960372689E+01 0.77130967934E+01 0.75955531907E+01 0.75396072569E+01
 0.75235187036E+01 0.75245271345E+01 0.75401329755E+01 0.75916921898E+01 0.77055140814E+01
 0.78903033087E+01 0.81286991439E+01 0.83835653854E+01 0.86122222850E+01 0.88043721060E+01
 0.89325120995E+01 0.89316435100E+01 0.88009342722E+01 0.86059272092E+01 0.83776273951E+01
 0.90252149309E+01 0.84877700714E+01 0.79907861391E+01 0.75956221502E+01 0.73333735757E+01
 0.71949539401E+01 0.71537349296E+01 0.71948399159E+01 0.73312897243E+01 0.75922022372E+01
 0.79905997940E+01 0.84943006611E+01 0.90355186767E+01 0.97306928858E+01 0.10607442846E+02
 0.11374893797E+02 0.11682894112E+02 0.11377836140E+02 0.10607443855E+02 0.97237987889E+01
 0.11642746802E+02 0.98382858632E+01 0.88185061941E+01 0.80945868099E+01 0.75393350718E+01
 0.71949474870E+01 0.70388880490E+01 0.70383954724E+01 0.71941304355E+01 0.75399335425E+01
 0.80982909568E+01 0.88249591445E+01 0.98440730991E+01 0.11643456124E+02 0.14116285818E+02
 0.16553396269E+02 0.18069210142E+02 0.18072872525E+02 0.16561259929E+02 0.14121893260E+02
 0.19188985644E+02 0.14230376995E+02 0.10821503249E+02 0.90934852186E+01 0.81795677658E+01
 0.75235475916E+01 0.71539340318E+01 0.70383368283E+01 0.71525839178E+01 0.75238588274E+01
 0.81829909342E+01 0.90969839492E+01 0.10820390928E+02 0.14223487963E+02 0.19179839885E+02
 0.24552751951E+02 0.28716110633E+02 0.30284507232E+02 0.28719370831E+02 0.24559770136E+02
 0.33969819178E+02 0.24639370646E+02 0.16748350876E+02 0.11658868586E+02 0.92688588174E+01
 0.82144995463E+01 0.75246537628E+01 0.71947090558E+01 0.71940060286E+01 0.75239565677E+01
 0.82153810175E+01 0.92693612060E+01 0.11655226660E+02 0.16740702500E+02 0.24633333853E+02
 0.33970517533E+02 0.42374244527E+02 0.47361531221E+02 0.47358340941E+02 0.42368698801E+02
 0.56148621413E+02 0.42402154237E+02 0.28840086766E+02 0.18299881849E+02 0.11987790964E+02
 0.92698067289E+01 0.81828593581E+01 0.75400445521E+01 0.73312329953E+01 0.75401173043E+01
 0.81830515978E+01 0.92692693839E+01 0.11985380925E+02 0.18296675797E+02 0.28840248923E+02
 0.42409354415E+02 0.56160970819E+02 0.66479015345E+02 0.70313181355E+02 0.66469219229E+02
 0.83241590215E+02 0.66461746538E+02 0.47397268556E+02 0.30417026107E+02 0.18296080104E+02
 0.11656014752E+02 0.90971287041E+01 0.80976790747E+01 0.75918204051E+01 0.75922614930E+01
 0.80982813485E+01 0.90968248685E+01 0.11655209295E+02 0.18296713978E+02 0.30420638069E+02
 0.47403313839E+02 0.66468018711E+02 0.83245981957E+02 0.93132273418E+02 0.93130746217E+02
 0.11014945729E+03 0.93107733152E+02 0.70296779545E+02 0.47400693492E+02 0.28836795174E+02
 0.16740176284E+02 0.10821503249E+02 0.88250233948E+01 0.79896351272E+01 0.77053600649E+01
 0.79904615466E+01 0.88249417002E+01 0.10820454466E+02 0.16740757757E+02 0.28840252435E+02
 0.47403367082E+02 0.70293201190E+02 0.93097810975E+02 0.11014054650E+03 0.11648424191E+03
 0.13024079458E+03 0.11647051443E+03 0.93108948190E+02 0.66471559926E+02 0.42408165879E+02
 0.24632411093E+02 0.14224523613E+02 0.98450069857E+01 0.84937817135E+01 0.78895155794E+01
 0.78901636713E+01 0.84944778676E+01 0.98442337894E+01 0.14223458536E+02 0.24633241426E+02
 0.42409466072E+02 0.66468002538E+02 0.93097649428E+02 0.11645667215E+03 0.13023446763E+03
 0.10587984158E+03 0.10011457838E+03 0.84597558026E+02 0.63804100244E+02 0.42944532409E+02
 0.26119292475E+02 0.15304269558E+02 0.10149240751E+02 0.84260049335E+01 0.76359502255E+01
 0.73692129548E+01 0.76362725355E+01 0.84262555414E+01 0.10149126363E+02 0.15303948652E+02
 0.26119149000E+02 0.42944697267E+02 0.63804342142E+02 0.84597633781E+02 0.10011452705E+03
 0.10011852940E+03 0.10011431504E+03 0.89478799711E+02 0.71410133952E+02 0.50821609826E+02
 0.32385391787E+02 0.19105389059E+02 0.11726842229E+02 0.88549965076E+01 0.78202393776E+01
 0.73014569684E+01 0.73009428394E+01 0.78196822799E+01 0.88556674686E+01 0.11727978615E+02
 0.19105266697E+02 0.32384699939E+02 0.50823904256E+02 0.71417534272E+02 0.89487972924E+02
 0.84603603761E+02 0.89499168464E+02 0.84597599271E+02 0.71410388347E+02 0.53758491262E+02
 0.36137855730E+02 0.22111751906E+02 0.13342681681E+02 0.93557363736E+01 0.79898756161E+01
 0.72701989127E+01 0.70303134187E+01 0.72689386573E+01 0.79894234266E+01 0.93568048249E+01
 0.13343153538E+02 0.22109874789E+02 0.36135731826E+02 0.53760289958E+02 0.71416760532E+02
 0.63801877300E+02 0.71456565189E+02 0.71457463975E+02 0.63804589087E+02 0.50821565888E+02
 0.36137648552E+02 0.23254325628E+02 0.14369600320E+02 0.98042133429E+01 0.81161296250E+01
 0.72670279426E+01 0.68417116998E+01 0.68413471714E+01 0.72664798680E+01 0.81162053735E+01
 0.98046247925E+01 0.14368959281E+02 0.23251620284E+02 0.36133420586E+02 0.50817437072E+02
 0.42936696937E+02 0.50903426509E+02 0.53874375196E+02 0.50909880231E+02 0.42944590912E+02
 0.32384978517E+02 0.22111802497E+02 0.14369742692E+02 0.99867635681E+01 0.81855970018E+01
 0.72762274341E+01 0.67308599421E+01 0.65571622415E+01 0.67313110774E+01 0.72764058628E+01
 0.81855567592E+01 0.99875712231E+01 0.14371424123E+02 0.22111905140E+02 0.32380697597E+02
 0.26118673785E+02 0.32518797845E+02 0.36344435479E+02 0.36346697885E+02 0.32522695215E+02
 0.26119064764E+02 0.19105357582E+02 0.13342988748E+02 0.98041532191E+01 0.81855178390E+01
 0.72816551497E+01 0.66819488372E+01 0.64020621827E+01 0.64026710539E+01 0.66826554812E+01
 0.72811288284E+01 0.81850815442E+01 0.98066144195E+01 0.13348404835E+02 0.19109744254E+02
 0.15309918631E+02 0.19287264562E+02 0.22411711691E+02 0.23594571162E+02 0.22409703844E+02
 0.19282888295E+02 0.15304112215E+02 0.11727066417E+02 0.93557400487E+01 0.81159312622E+01
 0.72763092051E+01 0.66819845238E+01 0.63535838547E+01 0.62527114251E+01 0.63543840035E+01
 0.66818190823E+01 0.72743755122E+01 0.81141017155E+01 0.93568048249E+01 0.11731619773E+02
 0.10148473033E+02 0.11924085186E+02 0.13698633653E+02 0.14810077987E+02 0.14807599501E+02
 0.13693369805E+02 0.11920483748E+02 0.10149229150E+02 0.88551192767E+01 0.79896685554E+01
 0.72670567127E+01 0.67309748375E+01 0.64019371817E+01 0.62526864857E+01 0.62530035712E+01
 0.64024929387E+01 0.67306577474E+01 0.72646683561E+01 0.79853006743E+01 0.88510117969E+01
 0.84193025407E+01 0.90382131327E+01 0.97136199817E+01 0.10282796844E+02 0.10506893813E+02
 0.10280829803E+02 0.97135637337E+01 0.90427082873E+01 0.84261271095E+01 0.78201594896E+01
 0.72700963601E+01 0.68418825029E+01 0.65570870017E+01 0.64025905118E+01 0.63545668763E+01
 0.64025373976E+01 0.65582095705E+01 0.68438120134E+01 0.72699216790E+01 0.78156799383E+01
 0.76358324115E+01 0.79926798996E+01 0.83272136964E+01 0.85861061463E+01 0.87298525367E+01
 0.87303961082E+01 0.85883248616E+01 0.83313337561E+01 0.79965135700E+01 0.76360602448E+01
 0.73013205268E+01 0.70304355893E+01 0.68414423789E+01 0.67311880435E+01 0.66827858318E+01
 0.66819137463E+01 0.67304198181E+01 0.68437364178E+01 0.70355296252E+01 0.73053853051E+01
 0.73751829339E+01 0.74763751711E+01 0.75994885032E+01 0.77247891631E+01 0.78217159284E+01
 0.78593621708E+01 0.78236702945E+01 0.77266011688E+01 0.75986552127E+01 0.74720924644E+01
 0.73691975924E+01 0.73009031384E+01 0.72691133384E+01 0.72663806470E+01 0.72763092051E+01
 0.72812026704E+01 0.72741970835E+01 0.72645403650E+01 0.72701989127E+01 0.73054820457E+01
 0.76355395181E+01 0.74762812984E+01 0.73607575373E+01 0.72972033376E+01 0.72767514771E+01
 0.72772070876E+01 0.72779488504E+01 0.72772362443E+01 0.72947118474E+01 0.73557335136E+01
 0.74725259074E+01 0.76360896615E+01 0.78197487822E+01 0.79894259327E+01 0.81159807856E+01
 0.81855823465E+01 0.81851862944E+01 0.81140754903E+01 0.79855102410E+01 0.78158263286E+01
 0.84190827416E+01 0.79925505185E+01 0.75997657438E+01 0.72972654001E+01 0.71036477963E+01
 0.70054983854E+01 0.69773249143E+01 0.70057805344E+01 0.71026418879E+01 0.72951225548E+01
 0.75996074255E+01 0.79969536940E+01 0.84261579183E+01 0.88557726068E+01 0.93566922615E+01
 0.98046284341E+01 0.99878417058E+01 0.98066781849E+01 0.93566885864E+01 0.88509941660E+01
 0.10148598286E+02 0.90382652823E+01 0.83274176666E+01 0.77248595073E+01 0.72765210370E+01
 0.70054909306E+01 0.68851233041E+01 0.68848935559E+01 0.70051380700E+01 0.72770044872E+01
 0.77272208976E+01 0.83315360965E+01 0.90420658229E+01 0.10149240015E+02 0.11728070066E+02
 0.13343155998E+02 0.14369100227E+02 0.14371422697E+02 0.13348100228E+02 0.11731487035E+02
 0.15310239537E+02 0.11924241383E+02 0.97134929775E+01 0.85860325668E+01 0.78215538832E+01
 0.72772278202E+01 0.69774916378E+01 0.68848435136E+01 0.69763727015E+01 0.72771754691E+01
 0.78236702945E+01 0.85882474115E+01 0.97125807121E+01 0.11919467744E+02 0.15304112215E+02
 0.19105245041E+02 0.22109772147E+02 0.23251498112E+02 0.22111751906E+02 0.19109754075E+02
 0.26118828760E+02 0.19287230196E+02 0.13698324256E+02 0.10282673639E+02 0.87299735351E+01
 0.78594433932E+01 0.72780542087E+01 0.70056696804E+01 0.70050346708E+01 0.72772600948E+01
 0.78598486210E+01 0.87303725176E+01 0.10280366088E+02 0.13693180189E+02 0.19282990826E+02
 0.26119076265E+02 0.32384514803E+02 0.36135647425E+02 0.36133543362E+02 0.32380925730E+02
 0.42936558035E+02 0.32518506441E+02 0.22411569467E+02 0.14810155368E+02 0.10507161422E+02
 0.87304372496E+01 0.78235582773E+01 0.72771635014E+01 0.71025956150E+01 0.72771621845E+01
 0.78237203225E+01 0.87302926607E+01 0.10505872440E+02 0.14808252832E+02 0.22411708238E+02
 0.32523170430E+02 0.42944616868E+02 0.50824030730E+02 0.53760495656E+02 0.50817607484E+02
 0.63801655706E+02 0.50903216891E+02 0.36344579590E+02 0.23594870671E+02 0.14807710830E+02
 0.10280692815E+02 0.85881144312E+01 0.77266615811E+01 0.72948208618E+01 0.72951695067E+01
 0.77272109657E+01 0.85881105606E+01 0.10280352306E+02 0.14808286779E+02 0.23597376884E+02
 0.36348667208E+02 0.50907435693E+02 0.63804609391E+02 0.71417608968E+02 0.71416580832E+02
 0.84603528005E+02 0.71456779381E+02 0.53874596005E+02 0.36346886908E+02 0.22409565073E+02
 0.13693108684E+02 0.97134929775E+01 0.83315270590E+01 0.75988135310E+01 0.73555949732E+01
 0.75994885032E+01 0.83315254292E+01 0.97126369601E+01 0.13693228466E+02 0.22411711691E+02
 0.36348712121E+02 0.53872344845E+02 0.71450247276E+02 0.84597599271E+02 0.89487553909E+02
 0.10011857097E+03 0.89499667108E+02 0.71457538644E+02 0.50909654023E+02 0.32522499035E+02
 0.19282773888E+02 0.11920611463E+02 0.90429003407E+01 0.79965431125E+01 0.74718779971E+01
 0.74724053128E+01 0.79971126176E+01 0.90422057267E+01 0.11919439262E+02 0.19282910784E+02
 0.32523265654E+02 0.50907419103E+02 0.71450107753E+02 0.89490399787E+02 0.10011430530E+03
 0.73198991814E+02 0.69174902509E+02 0.58351171601E+02 0.43910046221E+02 0.29627396044E+02
 0.18484247264E+02 0.11771380800E+02 0.88697471765E+01 0.77580207012E+01 0.71079069654E+01
 0.68953771828E+01 0.71081592132E+01 0.77582121792E+01 0.88696475691E+01 0.11771121445E+02
 0.18484136638E+02 0.29627535334E+02 0.43910244919E+02 0.58351232827E+02 0.69174859976E+02
 0.69176960640E+02 0.69174687759E+02 0.61739829904E+02 0.49141802571E+02 0.34923357291E+02
 0.22494801413E+02 0.13976149723E+02 0.96385357929E+01 0.80347578452E+01 0.72040852524E+01