    2    2    1    1
  0.1012586E+02  0.2376600E-09  0.2376600E-09  0.4140180E-09  0.5000000E-15
  1.000000000000000E-004
  CAR 
 unknown system                          
     16     96     40
 
  0.0000000E+00  0.0000000E+00  0.0000000E+00  0.7513148E-03
    1       -1.968890   1.000000
    2        1.939055   1.000000
    3        4.817687   1.000000
    4        5.377774   1.000000
    5        5.377885   1.000000
    6        5.699177   1.000000
    7        5.699310   1.000000
    8        6.371753   1.000151
    9        6.591760   1.013953
   10        6.591790   1.013958
   11        7.711922  -0.000001
   12        7.711953  -0.000001
   13       14.448302   0.000000
   14       30.281266   0.000000
   15       30.842831   0.000000
   16       33.338530   0.000000
   17       35.424225   0.000000
   18       35.424283   0.000000
   19       36.290936   0.000000
   20       36.291096   0.000000
   21       37.569156   0.000000
   22       39.228695   0.000000
   23       39.228721   0.000000
   24       40.266347   0.000000
   25       42.864394   0.000000
   26       42.864406   0.000000
   27       43.692796   0.000000
   28       46.557404   0.000000
   29       46.557765   0.000000
   30       48.415882   0.000000
   31       48.415994   0.000000
   32       51.015195   0.000000
   33       58.928256   0.000000
   34       61.799820   0.000000
   35       61.800710   0.000000
   36       62.174944   0.000000
   37       62.991552   0.000000
   38       64.000729   0.000000
   39       64.001799   0.000000
   40       65.063621   0.000000
 
  0.9090909E-01 -0.1649111E-17  0.0000000E+00  0.4507889E-02
    1       -1.639790   1.000000
    2        2.181263   1.000000
    3        4.802076   1.000000
    4        5.339008   1.000000
    5        5.480230   1.000000
    6        5.564914   1.000000
    7        5.589127   1.000000
    8        5.874335   1.000000
    9        6.453698   1.001143
   10        6.477962   1.001934
   11        7.742363  -0.000000
   12        8.860128  -0.000000
   13       14.468270   0.000000
   14       28.981676   0.000000
   15       31.166449   0.000000
   16       31.586684   0.000000
   17       32.656074   0.000000
   18       35.114596   0.000000
   19       35.231670   0.000000
   20       37.370080   0.000000
   21       38.629293   0.000000
   22       39.160660   0.000000
   23       39.594680   0.000000
   24       39.899875   0.000000
   25       43.931671   0.000000
   26       44.025457   0.000000
   27       44.199547   0.000000
   28       44.419920   0.000000
   29       47.925725   0.000000
   30       49.785954   0.000000
   31       50.807284   0.000000
   32       52.919333   0.000000
   33       58.246434   0.000000
   34       60.530433   0.000000
   35       60.601172   0.000000
   36       61.171446   0.000000
   37       61.664404   0.000000
   38       64.898947   0.000000
   39       64.970174   0.000000
   40       65.971683   0.000000
 
  0.1818182E+00  0.1991654E-16  0.0000000E+00  0.4507889E-02
    1       -0.707146   1.000000
    2        2.754139   1.000000
    3        4.398123   1.000000
    4        4.575239   1.000000
    5        5.175147   1.000000
    6        5.741199   1.000000
    7        6.098492   1.000000
    8        6.118059   1.000000
    9        6.211928   1.000001
   10        6.365499   1.000127
   11        7.799951  -0.000000
   12       10.702772  -0.000000
   13       14.568757   0.000000
   14       25.214230   0.000000
   15       29.850971   0.000000
   16       30.349754   0.000000
   17       30.846374   0.000000
   18       32.073143   0.000000
   19       35.685955   0.000000
   20       36.833814   0.000000
   21       37.319444   0.000000
   22       37.747127   0.000000
   23       40.261768   0.000000
   24       41.278024   0.000000
   25       43.796738   0.000000
   26       45.008551   0.000000
   27       46.638332   0.000000
   28       48.871761   0.000000
   29       50.709075   0.000000
   30       53.285434   0.000000
   31       53.732810   0.000000
   32       56.401463   0.000000
   33       56.833781   0.000000
   34       57.538734   0.000000
   35       58.808253   0.000000
   36       60.430194   0.000000
   37       61.845009   0.000000
   38       64.728152   0.000000
   39       66.059772   0.000000
   40       66.860807   0.000000
 
  0.2727273E+00  0.4389643E-17  0.0000000E+00  0.4507889E-02
    1        0.623278   1.000000
    2        3.045622   1.000000
    3        3.565249   1.000000
    4        4.500757   1.000000
    5        5.002710   1.000000
    6        5.695186   1.000000
    7        5.909718   1.000000
    8        6.475983   1.001855
    9        6.855192   0.867570
   10        7.048591   0.145909
   11        7.837197  -0.000000
   12       12.778513   0.000000
   13       14.790292   0.000000
   14       21.231214   0.000000
   15       27.227758   0.000000
   16       27.435502   0.000000
   17       28.714474   0.000000
   18       31.856718   0.000000
   19       33.765109   0.000000
   20       37.081882   0.000000
   21       37.267573   0.000000
   22       37.679564   0.000000
   23       37.892383   0.000000
   24       41.731368   0.000000
   25       47.378972   0.000000
   26       49.007542   0.000000
   27       50.102848   0.000000
   28       51.457725   0.000000
   29       52.672502   0.000000
   30       53.674379   0.000000
   31       55.207132   0.000000
   32       56.478075   0.000000
   33       58.454588   0.000000
   34       58.816514   0.000000
   35       59.462143   0.000000
   36       60.920356   0.000000
   37       62.866784   0.000000
   38       64.462216   0.000000
   39       66.385431   0.000000
   40       66.720568   0.000000
 
  0.3636364E+00  0.5825168E-16  0.0000000E+00  0.4507889E-02
    1        1.839175   1.000000
    2        2.795637   1.000000
    3        3.012966   1.000000
    4        4.680418   1.000000
    5        5.319577   1.000000
    6        5.362073   1.000000
    7        5.659991   1.000000
    8        7.615836  -0.000015
    9        7.676409  -0.000002
   10        7.737970  -0.000000
   11        7.848130  -0.000000
   12       14.658727   0.000000
   13       15.001627   0.000000
   14       18.392553   0.000000
   15       23.966234   0.000000
   16       25.593934   0.000000
   17       25.916891   0.000000
   18       30.950249   0.000000
   19       32.651699   0.000000
   20       35.877888   0.000000
   21       36.678638   0.000000
   22       38.546159   0.000000
   23       39.317371   0.000000
   24       42.099782   0.000000
   25       49.511794   0.000000
   26       50.510088   0.000000
   27       50.979368   0.000000
   28       54.201815   0.000000
   29       54.280747   0.000000
   30       55.058344   0.000000
   31       57.322183   0.000000
   32       58.232302   0.000000
   33       58.322497   0.000000
   34       59.821666   0.000000
   35       61.647547   0.000000
   36       63.353051   0.000000
   37       64.065421   0.000000
   38       65.105632   0.000000
   39       66.508773   0.000000
   40       66.712536   0.000000
 
  0.4545455E+00  0.6593955E-16  0.0000000E+00  0.4507889E-02
    1        2.349712   1.000000
    2        2.558945   1.000000
    3        2.740400   1.000000
    4        5.098519   1.000000
    5        5.195799   1.000000
    6        5.518858   1.000000
    7        5.600054   1.000000
    8        7.848401  -0.000000
    9        8.081942  -0.000000
   10        8.205309  -0.000000
   11        9.326393  -0.000000
   12       12.743547   0.000000
   13       17.106626   0.000000
   14       18.437076   0.000000
   15       21.358940   0.000000
   16       23.268908   0.000000
   17       24.568479   0.000000
   18       30.325276   0.000000
   19       32.324942   0.000000
   20       34.761300   0.000000
   21       36.458277   0.000000
   22       39.356026   0.000000
   23       41.567877   0.000000
   24       42.111521   0.000000
   25       46.132009   0.000000
   26       50.976394   0.000000
   27       52.543598   0.000000
   28       56.539799   0.000000
   29       56.876259   0.000000
   30       57.373537   0.000000
   31       58.490892   0.000000
   32       60.024172   0.000000
   33       60.200237   0.000000
   34       61.751977   0.000000
   35       62.150588   0.000000
   36       62.959564   0.000000
   37       64.971171   0.000000
   38       65.472516   0.000000
   39       65.853847   0.000000
   40       66.581737   0.000000
 
  0.9090909E-01  0.9090909E-01  0.0000000E+00  0.4507889E-02
    1       -1.006389   1.000000
    2        2.606327   1.000000
    3        4.618868   1.000000
    4        4.681661   1.000000
    5        5.377292   1.000000
    6        5.438831   1.000000
    7        5.954755   1.000000
    8        6.066296   1.000000
    9        6.255732   1.000005
   10        6.451491   1.001088
   11        7.758899  -0.000000
   12       10.189957  -0.000000
   13       14.533594   0.000000
   14       26.944063   0.000000
   15       28.194719   0.000000
   16       31.582261   0.000000
   17       32.476607   0.000000
   18       33.769496   0.000000
   19       34.106833   0.000000
   20       35.792764   0.000000
   21       36.945296   0.000000
   22       40.899458   0.000000
   23       41.317473   0.000000
   24       41.977463   0.000000
   25       42.971336   0.000000
   26       43.053659   0.000000
   27       43.235436   0.000000
   28       49.398696   0.000000
   29       51.470740   0.000000
   30       51.619220   0.000000
   31       51.739587   0.000000
   32       55.771474   0.000000
   33       57.315086   0.000000
   34       58.387164   0.000000
   35       59.089284   0.000000
   36       60.430907   0.000000
   37       61.438562   0.000000
   38       65.095954   0.000000
   39       66.126617   0.000000
   40       67.245807   0.000000
 
  0.1818182E+00  0.9090909E-01  0.0000000E+00  0.9015778E-02
    1        0.148669   1.000000
    2        3.153998   1.000000
    3        3.867097   1.000000
    4        4.297711   1.000000
    5        5.098024   1.000000
    6        5.648113   1.000000
    7        5.869819   1.000000
    8        6.204872   1.000001
    9        6.650931   1.026900
   10        6.962324   0.465972
   11        7.764828  -0.000000
   12       12.049083  -0.000000
   13       14.739719   0.000000
   14       23.263114   0.000000
   15       25.846351   0.000000
   16       29.037193   0.000000
   17       31.248675   0.000000
   18       31.519059   0.000000
   19       34.639255   0.000000
   20       35.221128   0.000000
   21       35.938649   0.000000
   22       40.425556   0.000000
   23       40.708302   0.000000
   24       41.577748   0.000000
   25       44.720036   0.000000
   26       45.726204   0.000000
   27       47.588271   0.000000
   28       51.668975   0.000000
   29       53.877726   0.000000
   30       54.455711   0.000000
   31       54.596635   0.000000
   32       56.768936   0.000000
   33       57.752984   0.000000
   34       57.791663   0.000000
   35       58.965906   0.000000
   36       59.292587   0.000000
   37       62.156682   0.000000
   38       65.215657   0.000000
   39       66.429121   0.000000
   40       67.413653   0.000000
 
  0.2727273E+00  0.9090909E-01  0.0000000E+00  0.9015778E-02
    1        1.506723   1.000000
    2        3.116488   1.000000
    3        3.257092   1.000000
    4        4.356236   1.000000
    5        5.157731   1.000000
    6        5.311289   1.000000
    7        5.844246   1.000000
    8        6.617177   1.019184
    9        7.416398  -0.002587
   10        7.762911  -0.000000
   11        7.882086  -0.000000
   12       14.169831   0.000000
   13       15.066736   0.000000
   14       19.604993   0.000000
   15       24.140152   0.000000
   16       25.673321   0.000000
   17       28.217831   0.000000
   18       30.064251   0.000000
   19       33.852725   0.000000
   20       34.984943   0.000000
   21       36.655268   0.000000
   22       40.104217   0.000000
   23       40.276446   0.000000
   24       42.946410   0.000000
   25       46.688016   0.000000
   26       49.456579   0.000000
   27       50.960281   0.000000
   28       51.586393   0.000000
   29       52.755544   0.000000
   30       55.322987   0.000000
   31       56.739899   0.000000
   32       57.917969   0.000000
   33       58.763156   0.000000
   34       59.323981   0.000000
   35       60.973385   0.000000
   36       62.785800   0.000000
   37       64.121557   0.000000
   38       65.003896   0.000000
   39       65.562527   0.000000
   40       67.360030   0.000000
 
  0.3636364E+00  0.9090909E-01  0.0000000E+00  0.9015778E-02
    1        2.393827   1.000000
    2        2.812394   1.000000
    3        2.892711   1.000000
    4        4.746547   1.000000
    5        5.115870   1.000000
    6        5.510744   1.000000
    7        5.523480   1.000000
    8        7.508911  -0.000314
    9        7.753333  -0.000000
   10        7.949384  -0.000000
   11        9.069010  -0.000000
   12       14.162609   0.000000
   13       16.408392   0.000000
   14       18.216526   0.000000
   15       22.707179   0.000000
   16       22.818528   0.000000
   17       25.016839   0.000000
   18       29.180145   0.000000
   19       32.893975   0.000000
   20       34.461798   0.000000
   21       37.703725   0.000000
   22       40.534198   0.000000
   23       41.399693   0.000000
   24       42.685050   0.000000
   25       48.090012   0.000000
   26       49.474461   0.000000
   27       51.386628   0.000000
   28       53.193743   0.000000
   29       54.584654   0.000000
   30       56.914535   0.000000
   31       57.548065   0.000000
   32       59.273898   0.000000
   33       60.247819   0.000000
   34       62.420522   0.000000
   35       62.531670   0.000000
   36       63.710148   0.000000
   37       64.186077   0.000000
   38       65.372757   0.000000
   39       66.507785   0.000000
   40       66.914814   0.000000
 
  0.4545455E+00  0.9090909E-01  0.0000000E+00  0.4507889E-02
    1        2.570057   1.000000
    2        2.705112   1.000000
    3        2.772200   1.000000
    4        5.062122   1.000000
    5        5.108557   1.000000
    6        5.386548   1.000000
    7        5.627219   1.000000
    8        7.747480  -0.000000
    9        8.013262  -0.000000
   10        8.033651  -0.000000
   11       10.288429  -0.000000
   12       12.429160   0.000000
   13       17.928326   0.000000
   14       18.885772   0.000000
   15       20.936410   0.000000
   16       22.005425   0.000000
   17       23.560071   0.000000
   18       28.865521   0.000000
   19       32.500840   0.000000
   20       34.293960   0.000000
   21       37.855426   0.000000
   22       41.504461   0.000000
   23       41.535923   0.000000
   24       43.175954   0.000000
   25       45.777982   0.000000
   26       51.201432   0.000000
   27       51.226635   0.000000
   28       54.192655   0.000000
   29       56.365826   0.000000
   30       56.691707   0.000000
   31       59.944198   0.000000
   32       60.134243   0.000000
   33       60.504562   0.000000
   34       60.575965   0.000000
   35       62.335318   0.000000
   36       64.771118   0.000000
   37       65.772608   0.000000
   38       65.886183   0.000000
   39       66.235882   0.000000
   40       68.172294   0.000000
 
  0.1818182E+00  0.1818182E+00  0.0000000E+00  0.4507889E-02
    1        1.401169   1.000000
    2        3.401353   1.000000
    3        3.592260   1.000000
    4        3.853253   1.000000
    5        5.154271   1.000000
    6        5.215350   1.000000
    7        5.990102   1.000000
    8        6.115718   1.000000
    9        7.391959  -0.004151
   10        7.670126  -0.000003
   11        7.945243  -0.000000
   12       13.903833   0.000000
   13       15.212039   0.000000
   14       21.295867   0.000000
   15       22.051115   0.000000
   16       27.204733   0.000000
   17       28.561665   0.000000
   18       30.513907   0.000000
   19       31.230473   0.000000
   20       36.307294   0.000000
   21       37.659296   0.000000
   22       41.473288   0.000000
   23       41.473988   0.000000
   24       44.067772   0.000000
   25       44.762119   0.000000
   26       46.772931   0.000000
   27       48.107950   0.000000
   28       53.056722   0.000000
   29       53.529480   0.000000
   30       55.145103   0.000000
   31       55.228984   0.000000
   32       58.412350   0.000000
   33       58.544572   0.000000
   34       61.129056   0.000000
   35       61.467346   0.000000
   36       61.671036   0.000000
   37       61.754720   0.000000
   38       65.510173   0.000000
   39       65.716792   0.000000
   40       68.281009   0.000000
 
  0.2727273E+00  0.1818182E+00  0.0000000E+00  0.9015778E-02
    1        2.610684   1.000000
    2        3.097917   1.000000
    3        3.338428   1.000000
    4        4.033936   1.000000
    5        4.973124   1.000000
    6        5.426313   1.000000
    7        5.606090   1.000000
    8        6.667967   1.030564
    9        7.587893  -0.000035
   10        7.893304  -0.000000
   11        9.200574  -0.000000
   12       15.683778   0.000000
   13       16.067761   0.000000
   14       18.467466   0.000000
   15       20.455372   0.000000
   16       24.579582   0.000000
   17       26.984263   0.000000
   18       27.075300   0.000000
   19       29.899295   0.000000
   20       38.136859   0.000000
   21       38.394766   0.000000
   22       41.489851   0.000000
   23       43.673605   0.000000
   24       44.680245   0.000000
   25       46.056427   0.000000
   26       47.963615   0.000000
   27       49.319048   0.000000
   28       50.831971   0.000000
   29       54.032374   0.000000
   30       54.619150   0.000000
   31       56.769120   0.000000
   32       59.283934   0.000000
   33       60.615360   0.000000
   34       61.661900   0.000000
   35       63.822214   0.000000
   36       63.926490   0.000000
   37       64.961853   0.000000
   38       65.861472   0.000000
   39       66.798057   0.000000
   40       68.156929   0.000000
 
  0.3636364E+00  0.1818182E+00  0.0000000E+00  0.9015778E-02
    1        2.956771   1.000000
    2        3.038763   1.000000
    3        3.138701   1.000000
    4        4.506905   1.000000
    5        4.970238   1.000000
    6        5.223791   1.000000
    7        5.690485   1.000000
    8        7.352108  -0.008278
    9        7.539981  -0.000138
   10        7.916758  -0.000000
   11       10.787486  -0.000000
   12       13.822016   0.000000
   13       18.282079   0.000000
   14       18.791601   0.000000
   15       19.674586   0.000000
   16       21.930160   0.000000
   17       24.166919   0.000000
   18       26.386594   0.000000
   19       29.249809   0.000000
   20       38.033868   0.000000
   21       40.201843   0.000000
   22       41.969153   0.000000
   23       43.587451   0.000000
   24       44.370125   0.000000
   25       48.054265   0.000000
   26       48.404287   0.000000
   27       50.374590   0.000000
   28       50.665989   0.000000
   29       54.326180   0.000000
   30       55.596919   0.000000
   31       56.102904   0.000000
   32       59.556027   0.000000
   33       59.992158   0.000000
   34       60.905402   0.000000
   35       64.947906   0.000000
   36       65.265736   0.000000
   37       66.730419   0.000000
   38       66.957724   0.000000
   39       67.073070   0.000000
   40       67.327104   0.000000
 
  0.2727273E+00  0.2727273E+00  0.0000000E+00  0.4507889E-02
    1        3.084418   1.000000
    2        3.395159   1.000000
    3        3.723005   1.000000
    4        3.752572   1.000000
    5        4.820819   1.000000
    6        5.229905   1.000000
    7        5.734076   1.000000
    8        6.929896   0.602315
    9        7.433393  -0.001823
   10        7.886739  -0.000000
   11       10.911740  -0.000000
   12       15.926216   0.000000
   13       16.467727   0.000000
   14       18.309568   0.000000
   15       19.514468   0.000000
   16       23.924480   0.000000
   17       23.972378   0.000000
   18       25.856812   0.000000
   19       26.738365   0.000000
   20       39.996820   0.000000
   21       40.912869   0.000000
   22       43.987060   0.000000
   23       44.933236   0.000000
   24       46.003606   0.000000
   25       46.094139   0.000000
   26       46.526743   0.000000
   27       48.951343   0.000000
   28       51.460853   0.000000
   29       51.778862   0.000000
   30       55.224318   0.000000
   31       55.798396   0.000000
   32       58.241080   0.000000
   33       59.855889   0.000000
   34       61.095467   0.000000
   35       64.763716   0.000000
   36       65.797446   0.000000
   37       65.878501   0.000000
   38       67.438206   0.000000
   39       67.711350   0.000000
   40       68.241955   0.000000
 
  0.3636364E+00  0.2727273E+00  0.0000000E+00  0.4507889E-02
    1        3.106980   1.000000
    2        3.553743   1.000000
    3        3.586409   1.000000
    4        4.082889   1.000000
    5        4.885523   1.000000
    6        4.942197   1.000000
    7        5.880376   1.000000
    8        7.292234  -0.018994
    9        7.374203  -0.005718
   10        7.588641  -0.000035
   11       12.667235   0.000000
   12       13.937295   0.000000
   13       16.086904   0.000000
   14       20.264465   0.000000
   15       20.491096   0.000000
   16       21.735443   0.000000
   17       23.728975   0.000000
   18       24.214323   0.000000
   19       26.131366   0.000000
   20       40.424599   0.000000
   21       43.142051   0.000000
   22       44.244606   0.000000
   23       44.391245   0.000000
   24       45.338086   0.000000
   25       47.003699   0.000000
   26       47.470759   0.000000
   27       50.518961   0.000000
   28       50.551284   0.000000
   29       50.961869   0.000000
   30       54.452310   0.000000
   31       55.945978   0.000000
   32       56.408761   0.000000
   33       59.622385   0.000000
   34       60.176844   0.000000
   35       65.401565   0.000000
   36       66.086002   0.000000
   37       67.626475   0.000000
   38       67.679032   0.000000
   39       67.746961   0.000000
   40       67.761869   0.000000
 
  0.0000000E+00  0.0000000E+00  0.9090909E-01  0.1502630E-02
    1       -1.887654   1.000000
    2        1.908348   1.000000
    3        4.794933   1.000000
    4        5.366820   1.000000
    5        5.366928   1.000000
    6        5.680534   1.000000
    7        5.680665   1.000000
    8        6.145475   1.000000
    9        6.631814   1.022498
   10        6.631846   1.022505
   11        7.699220  -0.000001
   12        7.699252  -0.000001
   13       14.835212   0.000000
   14       29.829172   0.000000
   15       30.705041   0.000000
   16       33.166164   0.000000
   17       35.476547   0.000000
   18       35.476598   0.000000
   19       36.293517   0.000000
   20       36.293672   0.000000
   21       38.050211   0.000000
   22       39.128356   0.000000
   23       39.128374   0.000000
   24       40.520253   0.000000
   25       42.496769   0.000000
   26       42.496783   0.000000
   27       43.943918   0.000000
   28       46.824902   0.000000
   29       46.825243   0.000000
   30       48.856005   0.000000
   31       48.856107   0.000000
   32       50.895727   0.000000
   33       58.266737   0.000000
   34       61.519452   0.000000
   35       61.520295   0.000000
   36       62.240085   0.000000
   37       62.350162   0.000000
   38       62.350629   0.000000
   39       63.732444   0.000000
   40       64.996893   0.000000
 
  0.9090909E-01 -0.1649111E-17  0.9090909E-01  0.9015778E-02
    1       -1.560345   1.000000
    2        2.155002   1.000000
    3        4.793506   1.000000
    4        5.298394   1.000000
    5        5.303817   1.000000
    6        5.550738   1.000000
    7        5.643523   1.000000
    8        5.853761   1.000000
    9        6.501471   1.003112
   10        6.527340   1.005051
   11        7.730145  -0.000000
   12        8.699101  -0.000000
   13       14.890887   0.000000
   14       28.964205   0.000000
   15       30.523852   0.000000
   16       31.612093   0.000000
   17       32.727823   0.000000
   18       34.425609   0.000000
   19       35.827740   0.000000
   20       37.651560   0.000000
   21       38.312851   0.000000
   22       39.255459   0.000000
   23       39.638072   0.000000
   24       40.211552   0.000000
   25       43.619088   0.000000
   26       43.802985   0.000000
   27       44.766784   0.000000
   28       44.892053   0.000000
   29       47.776305   0.000000
   30       50.076006   0.000000
   31       51.122313   0.000000
   32       52.887987   0.000000
   33       57.090529   0.000000
   34       59.939735   0.000000
   35       60.665645   0.000000
   36       61.611488   0.000000
   37       61.983115   0.000000
   38       63.595996   0.000000
   39       64.764884   0.000000
   40       65.231343   0.000000
 
  0.1818182E+00  0.1991654E-16  0.9090909E-01  0.9015778E-02
    1       -0.635051   1.000000
    2        2.742724   1.000000
    3        4.313388   1.000000
    4        4.593366   1.000000
    5        5.143513   1.000000
    6        5.655360   1.000000
    7        6.030307   1.000000
    8        6.241775   1.000003
    9        6.268932   1.000007
   10        6.393837   1.000270
   11        7.782450  -0.000000
   12       10.344314  -0.000000
   13       15.116866   0.000000
   14       25.273380   0.000000
   15       29.840331   0.000000
   16       29.943035   0.000000
   17       31.171866   0.000000
   18       31.477174   0.000000
   19       35.428445   0.000000
   20       36.880377   0.000000
   21       37.220800   0.000000
   22       37.923624   0.000000
   23       40.659882   0.000000
   24       41.905099   0.000000
   25       44.063331   0.000000
   26       45.004096   0.000000
   27       46.426234   0.000000
   28       48.904114   0.000000
   29       50.584947   0.000000
   30       53.329154   0.000000
   31       54.057089   0.000000
   32       55.222213   0.000000
   33       56.234287   0.000000
   34       58.232794   0.000000
   35       58.985699   0.000000
   36       60.468938   0.000000
   37       61.993996   0.000000
   38       64.540907   0.000000
   39       65.604198   0.000000
   40       66.596881   0.000000
 
  0.2727273E+00  0.4389643E-17  0.9090909E-01  0.9015778E-02
    1        0.674232   1.000000
    2        3.046166   1.000000
    3        3.537725   1.000000
    4        4.511017   1.000000
    5        4.954963   1.000000
    6        5.712699   1.000000
    7        5.930861   1.000000
    8        6.515677   1.004081
    9        6.865602   0.837428
   10        7.032116   0.196657
   11        7.815102  -0.000000
   12       12.070805  -0.000000
   13       15.633406   0.000000
   14       21.297257   0.000000
   15       26.749285   0.000000
   16       27.543725   0.000000
   17       29.092309   0.000000
   18       31.621125   0.000000
   19       33.724360   0.000000
   20       36.016713   0.000000
   21       36.186086   0.000000
   22       38.686147   0.000000
   23       38.978231   0.000000
   24       42.515096   0.000000
   25       47.488962   0.000000
   26       48.823082   0.000000
   27       49.750704   0.000000
   28       50.027525   0.000000
   29       53.601397   0.000000
   30       53.893748   0.000000
   31       55.471021   0.000000
   32       56.915496   0.000000
   33       57.797695   0.000000
   34       58.077683   0.000000
   35       59.954545   0.000000
   36       60.924631   0.000000
   37       63.105897   0.000000
   38       64.725063   0.000000
   39       65.393467   0.000000
   40       66.838236   0.000000
 
  0.3636364E+00  0.5825168E-16  0.9090909E-01  0.9015778E-02
    1        1.832119   1.000000
    2        2.765585   1.000000
    3        3.097059   1.000000
    4        4.486905   1.000000
    5        5.367554   1.000000
    6        5.566638   1.000000
    7        5.694088   1.000000
    8        7.617795  -0.000014
    9        7.641149  -0.000007
   10        7.668587  -0.000003
   11        7.867390  -0.000000
   12       13.440721   0.000000
   13       16.211396   0.000000
   14       18.524599   0.000000
   15       23.537190   0.000000
   16       25.716122   0.000000
   17       26.398486   0.000000
   18       30.902302   0.000000
   19       32.650478   0.000000
   20       34.731083   0.000000
   21       37.206249   0.000000
   22       37.854155   0.000000
   23       39.936660   0.000000
   24       43.038470   0.000000
   25       47.966688   0.000000
   26       50.852197   0.000000
   27       51.906201   0.000000
   28       53.249579   0.000000
   29       54.163325   0.000000
   30       55.952373   0.000000
   31       56.926167   0.000000
   32       58.029852   0.000000
   33       58.944453   0.000000
   34       59.651101   0.000000
   35       61.746062   0.000000
   36       63.295402   0.000000
   37       64.450265   0.000000
   38       64.523396   0.000000
   39       66.646964   0.000000
   40       66.768122   0.000000
 
  0.4545455E+00  0.6593955E-16  0.9090909E-01  0.9015778E-02
    1        2.266360   1.000000
    2        2.472381   1.000000
    3        2.971639   1.000000
    4        4.558431   1.000000
    5        5.558015   1.000000
    6        5.570756   1.000000
    7        5.851442   1.000000
    8        7.784339  -0.000000
    9        8.087667  -0.000000
   10        8.205991  -0.000000
   11        9.239192  -0.000000
   12       12.564426   0.000000
   13       16.917589   0.000000
   14       18.514673   0.000000
   15       21.439167   0.000000
   16       23.691469   0.000000
   17       24.697963   0.000000
   18       30.318868   0.000000
   19       32.308554   0.000000
   20       33.873656   0.000000
   21       37.389108   0.000000