<?xml version="1.0" encoding="ISO-8859-1"?>
<modeling>
 <generator>
  <i name="program" type="string">vasp </i>
  <i name="version" type="string">6.2.0  </i>
  <i name="subversion" type="string">18Jan21 (build Mar 17 2021 09:06:54) complex                          serial </i>
  <i name="platform" type="string">LinuxIFC </i>
  <i name="date" type="string">2021 09 09 </i>
  <i name="time" type="string">12:07:16 </i>
 </generator>
 <incar>
  <i type="string" name="PREC">normal</i>
  <i type="int" name="ICHARG">     1</i>
  <i type="int" name="IBRION">     1</i>
  <i name="EDIFF">      0.00000100</i>
  <i type="int" name="NSW">     0</i>
  <i type="int" name="ISIF">     2</i>
  <i name="ENCUT">    280.00000000</i>
  <i type="int" name="NBANDS">    40</i>
  <i type="int" name="ISMEAR">     1</i>
  <i name="SIGMA">      0.20000000</i>
  <i type="logical" name="LCHARG"> T  </i>
  <i type="int" name="KPAR">     1</i>
  <i type="int" name="NCORE">     1</i>
  <i type="string" name="GGA">PE</i>
 </incar>
 <primitive_cell>
  <structure name="primitive_cell" >
   <crystal>
    <varray name="basis" >
     <v>       2.37660000       0.00000000       0.00000000 </v>
     <v>      -1.18830000       2.05819597       0.00000000 </v>
     <v>       0.00000000       0.00000000       4.14018000 </v>
    </varray>
    <i name="volume">     20.25172588 </i>
    <varray name="rec_basis" >
     <v>       0.42076917       0.24293119       0.00000000 </v>
     <v>       0.00000000       0.48586238       0.00000000 </v>
     <v>       0.00000000       0.00000000       0.24153539 </v>
    </varray>
   </crystal>
   <varray name="positions" >
    <v>       0.00000000       0.00000000       0.00000000 </v>
    <v>       0.33333333       0.66666667       0.50000000 </v>
   </varray>
  </structure>
  <varray name="primitive_index" >
   <v type="int" >        1 </v>
   <v type="int" >        2 </v>
  </varray>
 </primitive_cell>
 <kpoints>
  <generation param="Monkhorst-Pack">
   <v type="int" name="divisions">      11       11       11 </v>
   <v name="usershift">      0.00000000       0.00000000       0.00000000 </v>
   <v name="genvec1">      0.09090909       0.00000000       0.00000000 </v>
   <v name="genvec2">      0.00000000       0.09090909       0.00000000 </v>
   <v name="genvec3">      0.00000000       0.00000000       0.09090909 </v>
   <v name="shift">      0.00000000       0.00000000       0.00000000 </v>
  </generation>
  <varray name="kpointlist" >
   <v>       0.00000000       0.00000000       0.00000000 </v>
   <v>       0.09090909      -0.00000000       0.00000000 </v>
   <v>       0.18181818       0.00000000       0.00000000 </v>
   <v>       0.27272727       0.00000000       0.00000000 </v>
   <v>       0.36363636       0.00000000       0.00000000 </v>
   <v>       0.45454545       0.00000000       0.00000000 </v>
   <v>       0.09090909       0.09090909       0.00000000 </v>
   <v>       0.18181818       0.09090909       0.00000000 </v>
   <v>       0.27272727       0.09090909       0.00000000 </v>
   <v>       0.36363636       0.09090909       0.00000000 </v>
   <v>       0.45454545       0.09090909       0.00000000 </v>
   <v>       0.18181818       0.18181818       0.00000000 </v>
   <v>       0.27272727       0.18181818       0.00000000 </v>
   <v>       0.36363636       0.18181818       0.00000000 </v>
   <v>       0.27272727       0.27272727       0.00000000 </v>
   <v>       0.36363636       0.27272727       0.00000000 </v>
   <v>       0.00000000       0.00000000       0.09090909 </v>
   <v>       0.09090909      -0.00000000       0.09090909 </v>
   <v>       0.18181818       0.00000000       0.09090909 </v>
   <v>       0.27272727       0.00000000       0.09090909 </v>
   <v>       0.36363636       0.00000000       0.09090909 </v>
   <v>       0.45454545       0.00000000       0.09090909 </v>
   <v>       0.09090909       0.09090909       0.09090909 </v>
   <v>       0.18181818       0.09090909       0.09090909 </v>
   <v>       0.27272727       0.09090909       0.09090909 </v>
   <v>       0.36363636       0.09090909       0.09090909 </v>
   <v>       0.45454545       0.09090909       0.09090909 </v>
   <v>       0.18181818       0.18181818       0.09090909 </v>
   <v>       0.27272727       0.18181818       0.09090909 </v>
   <v>       0.36363636       0.18181818       0.09090909 </v>
   <v>       0.27272727       0.27272727       0.09090909 </v>
   <v>       0.36363636       0.27272727       0.09090909 </v>
   <v>       0.00000000       0.00000000       0.18181818 </v>
   <v>       0.09090909      -0.00000000       0.18181818 </v>
   <v>       0.18181818       0.00000000       0.18181818 </v>
   <v>       0.27272727       0.00000000       0.18181818 </v>
   <v>       0.36363636       0.00000000       0.18181818 </v>
   <v>       0.45454545       0.00000000       0.18181818 </v>
   <v>       0.09090909       0.09090909       0.18181818 </v>
   <v>       0.18181818       0.09090909       0.18181818 </v>
   <v>       0.27272727       0.09090909       0.18181818 </v>
   <v>       0.36363636       0.09090909       0.18181818 </v>
   <v>       0.45454545       0.09090909       0.18181818 </v>
   <v>       0.18181818       0.18181818       0.18181818 </v>
   <v>       0.27272727       0.18181818       0.18181818 </v>
   <v>       0.36363636       0.18181818       0.18181818 </v>
   <v>       0.27272727       0.27272727       0.18181818 </v>
   <v>       0.36363636       0.27272727       0.18181818 </v>
   <v>       0.00000000       0.00000000       0.27272727 </v>
   <v>       0.09090909      -0.00000000       0.27272727 </v>
   <v>       0.18181818       0.00000000       0.27272727 </v>
   <v>       0.27272727       0.00000000       0.27272727 </v>
   <v>       0.36363636       0.00000000       0.27272727 </v>
   <v>       0.45454545       0.00000000       0.27272727 </v>
   <v>       0.09090909       0.09090909       0.27272727 </v>
   <v>       0.18181818       0.09090909       0.27272727 </v>
   <v>       0.27272727       0.09090909       0.27272727 </v>
   <v>       0.36363636       0.09090909       0.27272727 </v>
   <v>       0.45454545       0.09090909       0.27272727 </v>
   <v>       0.18181818       0.18181818       0.27272727 </v>
   <v>       0.27272727       0.18181818       0.27272727 </v>
   <v>       0.36363636       0.18181818       0.27272727 </v>
   <v>       0.27272727       0.27272727       0.27272727 </v>
   <v>       0.36363636       0.27272727       0.27272727 </v>
   <v>       0.00000000       0.00000000       0.36363636 </v>
   <v>       0.09090909      -0.00000000       0.36363636 </v>
   <v>       0.18181818       0.00000000       0.36363636 </v>
   <v>       0.27272727       0.00000000       0.36363636 </v>
   <v>       0.36363636       0.00000000       0.36363636 </v>
   <v>       0.45454545       0.00000000       0.36363636 </v>
   <v>       0.09090909       0.09090909       0.36363636 </v>
   <v>       0.18181818       0.09090909       0.36363636 </v>
   <v>       0.27272727       0.09090909       0.36363636 </v>
   <v>       0.36363636       0.09090909       0.36363636 </v>
   <v>       0.45454545       0.09090909       0.36363636 </v>
   <v>       0.18181818       0.18181818       0.36363636 </v>
   <v>       0.27272727       0.18181818       0.36363636 </v>
   <v>       0.36363636       0.18181818       0.36363636 </v>
   <v>       0.27272727       0.27272727       0.36363636 </v>
   <v>       0.36363636       0.27272727       0.36363636 </v>
   <v>       0.00000000       0.00000000       0.45454545 </v>
   <v>       0.09090909      -0.00000000       0.45454545 </v>
   <v>       0.18181818       0.00000000       0.45454545 </v>
   <v>       0.27272727       0.00000000       0.45454545 </v>
   <v>       0.36363636       0.00000000       0.45454545 </v>
   <v>       0.45454545       0.00000000       0.45454545 </v>
   <v>       0.09090909       0.09090909       0.45454545 </v>
   <v>       0.18181818       0.09090909       0.45454545 </v>
   <v>       0.27272727       0.09090909       0.45454545 </v>
   <v>       0.36363636       0.09090909       0.45454545 </v>
   <v>       0.45454545       0.09090909       0.45454545 </v>
   <v>       0.18181818       0.18181818       0.45454545 </v>
   <v>       0.27272727       0.18181818       0.45454545 </v>
   <v>       0.36363636       0.18181818       0.45454545 </v>
   <v>       0.27272727       0.27272727       0.45454545 </v>
   <v>       0.36363636       0.27272727       0.45454545 </v>
  </varray>
  <varray name="weights" >
   <v>       0.00075131 </v>
   <v>       0.00450789 </v>
   <v>       0.00450789 </v>
   <v>       0.00450789 </v>
   <v>       0.00450789 </v>
   <v>       0.00450789 </v>
   <v>       0.00450789 </v>
   <v>       0.00901578 </v>
   <v>       0.00901578 </v>
   <v>       0.00901578 </v>
   <v>       0.00450789 </v>
   <v>       0.00450789 </v>
   <v>       0.00901578 </v>
   <v>       0.00901578 </v>
   <v>       0.00450789 </v>
   <v>       0.00450789 </v>
   <v>       0.00150263 </v>
   <v>       0.00901578 </v>
   <v>       0.00901578 </v>
   <v>       0.00901578 </v>
   <v>       0.00901578 </v>
   <v>       0.00901578 </v>
   <v>       0.00901578 </v>
   <v>       0.01803156 </v>
   <v>       0.01803156 </v>
   <v>       0.01803156 </v>
   <v>       0.00901578 </v>
   <v>       0.00901578 </v>
   <v>       0.01803156 </v>
   <v>       0.01803156 </v>
   <v>       0.00901578 </v>
   <v>       0.00901578 </v>
   <v>       0.00150263 </v>
   <v>       0.00901578 </v>
   <v>       0.00901578 </v>
   <v>       0.00901578 </v>
   <v>       0.00901578 </v>
   <v>       0.00901578 </v>
   <v>       0.00901578 </v>
   <v>       0.01803156 </v>
   <v>       0.01803156 </v>
   <v>       0.01803156 </v>
   <v>       0.00901578 </v>
   <v>       0.00901578 </v>
   <v>       0.01803156 </v>
   <v>       0.01803156 </v>
   <v>       0.00901578 </v>
   <v>       0.00901578 </v>
   <v>       0.00150263 </v>
   <v>       0.00901578 </v>
   <v>       0.00901578 </v>
   <v>       0.00901578 </v>
   <v>       0.00901578 </v>
   <v>       0.00901578 </v>
   <v>       0.00901578 </v>
   <v>       0.01803156 </v>
   <v>       0.01803156 </v>
   <v>       0.01803156 </v>
   <v>       0.00901578 </v>
   <v>       0.00901578 </v>
   <v>       0.01803156 </v>
   <v>       0.01803156 </v>
   <v>       0.00901578 </v>
   <v>       0.00901578 </v>
   <v>       0.00150263 </v>
   <v>       0.00901578 </v>
   <v>       0.00901578 </v>
   <v>       0.00901578 </v>
   <v>       0.00901578 </v>
   <v>       0.00901578 </v>
   <v>       0.00901578 </v>
   <v>       0.01803156 </v>
   <v>       0.01803156 </v>
   <v>       0.01803156 </v>
   <v>       0.00901578 </v>
   <v>       0.00901578 </v>
   <v>       0.01803156 </v>
   <v>       0.01803156 </v>
   <v>       0.00901578 </v>
   <v>       0.00901578 </v>
   <v>       0.00150263 </v>
   <v>       0.00901578 </v>
   <v>       0.00901578 </v>
   <v>       0.00901578 </v>
   <v>       0.00901578 </v>
   <v>       0.00901578 </v>
   <v>       0.00901578 </v>
   <v>       0.01803156 </v>
   <v>       0.01803156 </v>
   <v>       0.01803156 </v>
   <v>       0.00901578 </v>
   <v>       0.00901578 </v>
   <v>       0.01803156 </v>
   <v>       0.01803156 </v>
   <v>       0.00901578 </v>
   <v>       0.00901578 </v>
  </varray>
 </kpoints>
 <parameters>
  <separator name="general" >
   <i type="string" name="SYSTEM">unknown system</i>
   <i type="logical" name="LCOMPAT"> F  </i>
  </separator>
  <separator name="electronic" >
   <i type="string" name="PREC">normal</i>
   <i name="ENMAX">    280.00000000</i>
   <i name="ENAUG">    511.36800000</i>
   <i name="EDIFF">      0.00000100</i>
   <i type="int" name="IALGO">    38</i>
   <i type="int" name="IWAVPR">     0</i>
   <i type="int" name="NBANDS">    40</i>
   <i type="int" name="NBANDSLOW">    -1</i>
   <i type="int" name="NBANDSHIGH">    -1</i>
   <i name="NELECT">     16.00000000</i>
   <i type="int" name="TURBO">     0</i>
   <i type="int" name="IRESTART">     0</i>
   <i type="int" name="NREBOOT">     0</i>
   <i type="int" name="NMIN">     0</i>
   <i name="EREF">      0.00000000</i>
   <separator name="electronic smearing" >
    <i type="int" name="ISMEAR">     1</i>
    <i name="SIGMA">      0.20000000</i>
    <i name="KSPACING">      0.50000000</i>
    <i type="logical" name="KGAMMA"> T  </i>
    <i type="logical" name="KBLOWUP"> T  </i>
   </separator>
   <separator name="electronic projectors" >
    <i type="logical" name="LREAL"> F  </i>
    <v name="ROPT">      0.00000000</v>
    <i type="int" name="LMAXPAW">  -100</i>
    <i type="int" name="LMAXMIX">     2</i>
    <i type="logical" name="NLSPLINE"> F  </i>
   </separator>
   <separator name="electronic startup" >
    <i type="int" name="ISTART">     0</i>
    <i type="int" name="ICHARG">     1</i>
    <i type="int" name="INIWAV">     1</i>
   </separator>
   <separator name="electronic spin" >
    <i type="int" name="ISPIN">     1</i>
    <i type="logical" name="LNONCOLLINEAR"> F  </i>
    <v name="MAGMOM">      1.00000000      1.00000000</v>
    <i name="NUPDOWN">     -1.00000000</i>
    <i type="logical" name="LSORBIT"> F  </i>
    <v name="SAXIS">      0.00000000      0.00000000      1.00000000</v>
    <i type="logical" name="LSPIRAL"> F  </i>
    <v name="QSPIRAL">      0.00000000      0.00000000      0.00000000</v>
    <i type="logical" name="LZEROZ"> F  </i>
   </separator>
   <separator name="electronic exchange-correlation" >
    <i type="logical" name="LASPH"> F  </i>
    <i type="logical" name="LMETAGGA"> F  </i>
   </separator>
   <separator name="electronic convergence" >
    <i type="int" name="NELM">    60</i>
    <i type="int" name="NELMDL">    -5</i>
    <i type="int" name="NELMIN">     2</i>
    <i name="ENINI">    280.00000000</i>
    <separator name="electronic convergence detail" >
     <i type="logical" name="LDIAG"> T  </i>
     <i type="logical" name="LSUBROT"> F  </i>
     <i name="WEIMIN">      0.00000000</i>
     <i name="EBREAK">      0.00000001</i>
     <i name="DEPER">      0.30000000</i>
     <i type="int" name="NRMM">     4</i>
     <i name="TIME">      0.40000000</i>
    </separator>
   </separator>
   <separator name="electronic mixer" >
    <i name="AMIX">      0.40000000</i>
    <i name="BMIX">      1.00000000</i>
    <i name="AMIN">      0.10000000</i>
    <i name="AMIX_MAG">      1.60000000</i>
    <i name="BMIX_MAG">      1.00000000</i>
    <separator name="electronic mixer details" >
     <i type="int" name="IMIX">     4</i>
     <i type="logical" name="MIXFIRST"> F  </i>
     <i type="int" name="MAXMIX">   -45</i>
     <i name="WC">    100.00000000</i>
     <i type="int" name="INIMIX">     1</i>
     <i type="int" name="MIXPRE">     1</i>
     <i type="int" name="MREMOVE">     5</i>
    </separator>
   </separator>
   <separator name="electronic dipolcorrection" >
    <i type="logical" name="LDIPOL"> F  </i>
    <i type="logical" name="LMONO"> F  </i>
    <i type="int" name="IDIPOL">     0</i>
    <i name="EPSILON">      1.00000000</i>
    <v name="DIPOL">   -100.00000000   -100.00000000   -100.00000000</v>
    <i name="EFIELD">      0.00000000</i>
   </separator>
  </separator>
  <separator name="grids" >
   <i type="int" name="NGX">    10</i>
   <i type="int" name="NGY">    10</i>
   <i type="int" name="NGZ">    18</i>
   <i type="int" name="NGXF">    20</i>
   <i type="int" name="NGYF">    20</i>
   <i type="int" name="NGZF">    36</i>
   <i type="logical" name="ADDGRID"> F  </i>
  </separator>
  <separator name="ionic" >
   <i type="int" name="NSW">     0</i>
   <i type="int" name="IBRION">    -1</i>
   <i type="int" name="MDALGO">     0</i>
   <i type="int" name="ISIF">     2</i>
   <i name="PSTRESS">      0.00000000</i>
   <i name="EDIFFG">      0.00001000</i>
   <i type="int" name="NFREE">     0</i>
   <i name="POTIM">      0.50000000</i>
   <i name="SMASS">     -3.00000000</i>
   <i name="SCALEE">      1.00000000</i>
  </separator>
  <separator name="ionic md" >
   <i name="TEBEG">      0.00010000</i>
   <i name="TEEND">      0.00010000</i>
   <i type="int" name="NBLOCK">     1</i>
   <i type="int" name="KBLOCK">     1</i>
   <i type="int" name="NPACO">   256</i>
   <i name="APACO">     16.00000000</i>
  </separator>
  <separator name="symmetry" >
   <i type="int" name="ISYM">     2</i>
   <i name="SYMPREC">      0.00001000</i>
  </separator>
  <separator name="dos" >
   <i type="int" name="LORBIT">     0</i>
   <v name="RWIGS">     -1.00000000</v>
   <i type="int" name="NEDOS">   301</i>
   <i name="EMIN">     10.00000000</i>
   <i name="EMAX">    -10.00000000</i>
   <i name="EFERMI">      0.00000000</i>
  </separator>
  <separator name="writing" >
   <i type="int" name="NWRITE">     2</i>
   <i type="logical" name="LWAVE"> T  </i>
   <i type="logical" name="LDOWNSAMPLE"> F  </i>
   <i type="logical" name="LCHARG"> T  </i>
   <i type="logical" name="LPARD"> F  </i>
   <i type="logical" name="LVTOT"> F  </i>
   <i type="logical" name="LVHAR"> F  </i>
   <i type="logical" name="LELF"> F  </i>
   <i type="logical" name="LOPTICS"> F  </i>
   <v name="STM">      0.00000000      0.00000000      0.00000000      0.00000000      0.00000000      0.00000000      0.00000000</v>
  </separator>
  <separator name="performance" >
   <i type="int" name="NPAR">     1</i>
   <i type="int" name="NSIM">     4</i>
   <i type="int" name="NBLK">    -1</i>
   <i type="logical" name="LPLANE"> T  </i>
   <i type="logical" name="LSCALAPACK"> F  </i>
   <i type="logical" name="LSCAAWARE"> F  </i>
   <i type="logical" name="LSCALU"> F  </i>
   <i type="logical" name="LASYNC"> F  </i>
   <i type="logical" name="LORBITALREAL"> F  </i>
  </separator>
  <separator name="miscellaneous" >
   <i type="int" name="IDIOT">     3</i>
   <i type="int" name="PHON_NSTRUCT">    -1</i>
   <i type="logical" name="LMUSIC"> F  </i>
   <v name="POMASS">     55.84700000</v>
   <v name="DARWINR">      0.00000000</v>
   <v name="DARWINV">      1.00000000</v>
   <i type="logical" name="LCORR"> T  </i>
  </separator>
  <i type="logical" name="GGA_COMPAT"> T  </i>
  <i type="logical" name="LBERRY"> F  </i>
  <i type="int" name="ICORELEVEL">     0</i>
  <i type="logical" name="LDAU"> F  </i>
  <i type="int" name="I_CONSTRAINED_M">     0</i>
  <separator name="electronic exchange-correlation" >
   <i type="string" name="GGA">PE</i>
   <i type="int" name="VOSKOWN">     0</i>
   <i type="logical" name="LHFCALC"> F  </i>
   <i type="string" name="PRECFOCK"></i>
   <i type="logical" name="LSYMGRAD"> F  </i>
   <i type="logical" name="LHFONE"> F  </i>
   <i type="logical" name="LRHFCALC"> F  </i>
   <i type="logical" name="LTHOMAS"> F  </i>
   <i type="logical" name="LMODELHF"> F  </i>
   <i type="logical" name="LFOCKACE"> F  </i>
   <i name="ENCUT4O">     -1.00000000</i>
   <i type="int" name="EXXOEP">     0</i>
   <i type="int" name="FOURORBIT">     0</i>
   <i name="AEXX">      0.00000000</i>
   <i name="HFALPHA">      0.00000000</i>
   <i name="MCALPHA">      0.00000000</i>
   <i name="ALDAX">      1.00000000</i>
   <i name="AGGAX">      1.00000000</i>
   <i name="ALDAC">      1.00000000</i>
   <i name="AGGAC">      1.00000000</i>
   <i type="int" name="NKREDX">     1</i>
   <i type="int" name="NKREDY">     1</i>
   <i type="int" name="NKREDZ">     1</i>
   <i type="logical" name="SHIFTRED"> F  </i>
   <i type="logical" name="ODDONLY"> F  </i>
   <i type="logical" name="EVENONLY"> F  </i>
   <i type="int" name="LMAXFOCK">     0</i>
   <i type="int" name="NMAXFOCKAE">     0</i>
   <i type="logical" name="LFOCKAEDFT"> F  </i>
   <i name="HFSCREEN">      0.00000000</i>
   <i name="HFSCREENC">      0.00000000</i>
   <i type="int" name="NBANDSGWLOW">     0</i>
  </separator>
  <separator name="vdW DFT" >
   <i type="logical" name="LUSE_VDW"> F  </i>
   <i name="Zab_VDW">     -0.84910000</i>
   <i name="PARAM1">      0.12340000</i>
   <i name="PARAM2">      1.00000000</i>
   <i name="PARAM3">      0.00000000</i>
  </separator>
  <separator name="model GW" >
   <i type="int" name="MODEL_GW">     0</i>
   <i name="MODEL_EPS0">      6.07551776</i>
   <i name="MODEL_ALPHA">      1.00000000</i>
  </separator>
  <separator name="linear response parameters" >
   <i type="logical" name="LEPSILON"> F  </i>
   <i type="logical" name="LRPA"> F  </i>
   <i type="logical" name="LNABLA"> F  </i>
   <i type="logical" name="LVEL"> F  </i>
   <i type="int" name="KINTER">     0</i>
   <i name="CSHIFT">      0.10000000</i>
   <i name="OMEGAMAX">     -1.00000000</i>
   <i name="DEG_THRESHOLD">      0.00200000</i>
   <i name="RTIME">     -0.10000000</i>
   <i name="WPLASMAI">      0.00000000</i>
   <v name="DFIELD">      0.00000000      0.00000000      0.00000000</v>
   <v name="WPLASMA">      0.00000000      0.00000000      0.00000000      0.00000000      0.00000000      0.00000000      0.00000000      0.00000000      0.00000000</v>
  </separator>
  <separator name="orbital magnetization" >
   <i type="logical" name="NUCIND"> F  </i>
   <v name="MAGPOS">      0.00000000      0.00000000      0.00000000</v>
   <i type="logical" name="LNICSALL"> T  </i>
   <i type="logical" name="ORBITALMAG"> F  </i>
   <i type="logical" name="LMAGBLOCH"> F  </i>
   <i type="logical" name="LCHIMAG"> F  </i>
   <i type="logical" name="LGAUGE"> T  </i>
   <i type="int" name="MAGATOM">     0</i>
   <v name="MAGDIPOL">      0.00000000      0.00000000      0.00000000</v>
   <v name="AVECCONST">      0.00000000      0.00000000      0.00000000</v>
  </separator>
  <separator name="response functions" >
   <i type="logical" name="LFINITE_TEMPERATURE"> F  </i>
   <i type="logical" name="LADDER"> F  </i>
   <i type="logical" name="LRPAFORCE"> F  </i>
   <i type="logical" name="LFXC"> F  </i>
   <i type="logical" name="LHARTREE"> T  </i>
   <i type="int" name="IBSE">     0</i>
   <v type="int" name="KPOINT">    -1     0     0     0</v>
   <i type="logical" name="LTCTC"> F  </i>
   <i type="logical" name="LTCTE"> F  </i>
   <i type="logical" name="LTETE"> F  </i>
   <i type="logical" name="LTRIPLET"> F  </i>
   <i type="logical" name="LFXCEPS"> F  </i>
   <i type="logical" name="LFXHEG"> F  </i>
   <i type="int" name="NATURALO">     2</i>
   <i type="logical" name="LHOLEGF"> F  </i>
   <i type="logical" name="L2ORDER"> F  </i>
   <i type="logical" name="LDMP1"> F  </i>
   <i type="logical" name="LMP2LT"> F  </i>
   <i type="logical" name="LSMP2LT"> F  </i>
   <i type="logical" name="LGWLF"> F  </i>
   <i name="ENCUTGW">     -2.00000000</i>
   <i name="ENCUTGWSOFT">     -2.00000000</i>
   <i name="ENCUTLF">     -1.00000000</i>
   <i type="logical" name="LESF_SPLINES"> F  </i>
   <i type="int" name="LMAXMP2">    -1</i>
   <i name="SCISSOR">      0.00000000</i>
   <i type="int" name="NOMEGA">     0</i>
   <i type="int" name="NOMEGAR">     0</i>
   <i type="int" name="NBANDSGW">    -1</i>
   <i type="int" name="NBANDSO">    -1</i>
   <i type="int" name="NBANDSV">    -1</i>
   <i type="int" name="NELM">     1</i>
   <i type="int" name="NELMHF">     1</i>
   <i type="int" name="DIM">     3</i>
   <i type="int" name="IESPILON">     4</i>
   <i type="int" name="ANTIRES">     0</i>
   <i name="OMEGAMAX">    -30.00000000</i>
   <i name="OMEGAMIN">    -30.00000000</i>
   <i name="OMEGATL">   -200.00000000</i>
   <i type="int" name="OMEGAGRID">     0</i>
   <i name="CSHIFT">     -0.10000000</i>
   <i type="logical" name="LSELFENERGY"> F  </i>
   <i type="logical" name="LSPECTRAL"> F  </i>
   <i type="logical" name="LSPECTRALGW"> F  </i>
   <i type="logical" name="LSINGLES"> F  </i>
   <i type="logical" name="LFERMIGW"> F  </i>
   <i type="logical" name="ODDONLYGW"> F  </i>
   <i type="logical" name="EVENONLYGW"> F  </i>
   <i type="int" name="NKREDLFX">     1</i>
   <i type="int" name="NKREDLFY">     1</i>
   <i type="int" name="NKREDLFZ">     1</i>
   <i type="int" name="MAXMEM">  2800</i>
   <i type="int" name="TELESCOPE">     0</i>
   <i type="int" name="NTAUPAR">    -1</i>
   <i type="int" name="NOMEGAPAR">    -1</i>
   <i name="DAMP_NEWTON">      0.80000001</i>
   <i name="LAMBDA">      1.00000000</i>
  </separator>
  <separator name="External order field" >
   <i name="OFIELD_KAPPA">      0.00000000</i>
   <v name="OFIELD_K">      0.00000000      0.00000000      0.00000000</v>
   <i name="OFIELD_Q6_NEAR">      0.00000000</i>
   <i name="OFIELD_Q6_FAR">      0.00000000</i>
   <i name="OFIELD_A">      0.00000000</i>
  </separator>
 </parameters>
 <atominfo>
  <atoms>       2 </atoms>
  <types>       1 </types>
  <array name="atoms" >
   <dimension dim="1">ion</dimension>
   <field type="string">element</field>
   <field type="int">atomtype</field>
   <set>
    <rc><c>Fe</c><c>   1</c></rc>
    <rc><c>Fe</c><c>   1</c></rc>
   </set>
  </array>
  <array name="atomtypes" >
   <dimension dim="1">type</dimension>
   <field type="int">atomspertype</field>
   <field type="string">element</field>
   <field>mass</field>
   <field>valence</field>
   <field type="string">pseudopotential</field>
   <set>
    <rc><c>   2</c><c>Fe</c><c>     55.84700000</c><c>      8.00000000</c><c>  PAW_PBE Fe 06Sep2000                  </c></rc>
   </set>
  </array>
 </atominfo>
 <structure name="initialpos" >
  <crystal>
   <varray name="basis" >
    <v>       2.37660000       0.00000000       0.00000000 </v>
    <v>      -1.18830000       2.05819597       0.00000000 </v>
    <v>       0.00000000       0.00000000       4.14018000 </v>
   </varray>
   <i name="volume">     20.25172588 </i>
   <varray name="rec_basis" >
    <v>       0.42076917       0.24293119       0.00000000 </v>
    <v>       0.00000000       0.48586238       0.00000000 </v>
    <v>       0.00000000       0.00000000       0.24153539 </v>
   </varray>
  </crystal>
  <varray name="positions" >
   <v>       0.00000000       0.00000000       0.00000000 </v>
   <v>       0.33333333       0.66666667       0.50000000 </v>
  </varray>
 </structure>
 <calculation>
  <scstep>
   <time name="dav">    0.79    0.81</time>
   <time name="total">    0.80    0.82</time>
   <energy>
    <i name="alphaZ">    136.50940449 </i>
    <i name="ewald">  -1229.56811049 </i>
    <i name="hartreedc">   -206.40776044 </i>
    <i name="XCdc">      8.53118483 </i>
    <i name="pawpsdc">   1109.69170683 </i>
    <i name="pawaedc">  -1125.09647265 </i>
    <i name="eentropy">     -0.00509922 </i>
    <i name="bandstr">    178.53951252 </i>
    <i name="atom">   1188.57490811 </i>
    <i name="e_fr_energy">     60.76927397 </i>
    <i name="e_wo_entrp">     60.77437320 </i>
    <i name="e_0_energy">     60.77097372 </i>
   </energy>
  </scstep>
  <scstep>
   <time name="dav">    0.69    0.69</time>
   <time name="total">    0.69    0.69</time>
   <energy>
    <i name="e_fr_energy">    -14.86317508 </i>
    <i name="e_wo_entrp">    -14.86588129 </i>
    <i name="e_0_energy">    -14.86407715 </i>
   </energy>
  </scstep>
  <scstep>
   <time name="dav">    0.80    0.80</time>
   <time name="total">    0.80    0.80</time>
   <energy>
    <i name="e_fr_energy">    -19.22511832 </i>
    <i name="e_wo_entrp">    -19.22554431 </i>
    <i name="e_0_energy">    -19.22526032 </i>
   </energy>
  </scstep>
  <scstep>
   <time name="dav">    0.76    0.76</time>
   <time name="total">    0.77    0.77</time>
   <energy>
    <i name="e_fr_energy">    -19.24430526 </i>
    <i name="e_wo_entrp">    -19.24469243 </i>
    <i name="e_0_energy">    -19.24443432 </i>
   </energy>
  </scstep>
  <scstep>
   <time name="dav">    0.77    0.77</time>
   <time name="total">    0.80    0.80</time>
   <energy>
    <i name="e_fr_energy">    -19.24432723 </i>
    <i name="e_wo_entrp">    -19.24471437 </i>
    <i name="e_0_energy">    -19.24445628 </i>
   </energy>
  </scstep>
  <scstep>
   <time name="dav">    0.91    0.91</time>
   <time name="total">    0.94    0.94</time>
   <energy>
    <i name="e_fr_energy">    -16.37171196 </i>
    <i name="e_wo_entrp">    -16.37390499 </i>
    <i name="e_0_energy">    -16.37244297 </i>
   </energy>
  </scstep>
  <scstep>
   <time name="dav">    0.83    0.83</time>
   <time name="total">    0.86    0.86</time>
   <energy>
    <i name="e_fr_energy">    -16.17706366 </i>
    <i name="e_wo_entrp">    -16.17923404 </i>
    <i name="e_0_energy">    -16.17778712 </i>
   </energy>
  </scstep>
  <scstep>
   <time name="dav">    0.82    0.82</time>
   <time name="total">    0.85    0.86</time>
   <energy>
    <i name="e_fr_energy">    -16.15030564 </i>
    <i name="e_wo_entrp">    -16.15251153 </i>
    <i name="e_0_energy">    -16.15104094 </i>
   </energy>
  </scstep>
  <scstep>
   <time name="dav">    0.90    0.90</time>
   <time name="total">    0.93    0.93</time>
   <energy>
    <i name="e_fr_energy">    -16.13941818 </i>
    <i name="e_wo_entrp">    -16.14161518 </i>
    <i name="e_0_energy">    -16.14015051 </i>
   </energy>
  </scstep>
  <scstep>
   <time name="dav">    0.79    0.79</time>
   <time name="total">    0.82    0.82</time>
   <energy>
    <i name="e_fr_energy">    -16.13944510 </i>
    <i name="e_wo_entrp">    -16.14163638 </i>
    <i name="e_0_energy">    -16.14017552 </i>
   </energy>
  </scstep>
  <scstep>
   <time name="dav">    0.75    0.75</time>
   <time name="total">    0.78    0.78</time>
   <energy>
    <i name="e_fr_energy">    -16.13943773 </i>
    <i name="e_wo_entrp">    -16.14162901 </i>
    <i name="e_0_energy">    -16.14016816 </i>
   </energy>
  </scstep>
  <scstep>
   <time name="dav">    0.57    0.57</time>
   <time name="total">    0.58    0.58</time>
   <energy>
    <i name="alphaZ">    136.50940449 </i>
    <i name="ewald">  -1229.56811049 </i>
    <i name="hartreedc">   -172.14679974 </i>
    <i name="XCdc">      6.93333379 </i>
    <i name="pawpsdc">   1481.67088385 </i>
    <i name="pawaedc">  -1499.19107399 </i>
    <i name="eentropy">      0.00219164 </i>
    <i name="bandstr">     71.07582533 </i>
    <i name="atom">   1188.57490811 </i>
    <i name="e_fr_energy">    -16.13943701 </i>
    <i name="e_wo_entrp">    -16.14162865 </i>
    <i name="e_0_energy">    -16.14016756 </i>
   </energy>
  </scstep>
  <structure>
   <crystal>
    <varray name="basis" >
     <v>       2.37660000       0.00000000       0.00000000 </v>
     <v>      -1.18830000       2.05819597       0.00000000 </v>
     <v>       0.00000000       0.00000000       4.14018000 </v>
    </varray>
    <i name="volume">     20.25172588 </i>
    <varray name="rec_basis" >
     <v>       0.42076917       0.24293119       0.00000000 </v>
     <v>       0.00000000       0.48586238       0.00000000 </v>
     <v>       0.00000000       0.00000000       0.24153539 </v>
    </varray>
   </crystal>
   <varray name="positions" >
    <v>       0.00000000       0.00000000       0.00000000 </v>
    <v>       0.33333333       0.66666667       0.50000000 </v>
   </varray>
  </structure>
  <varray name="forces" >
   <v>       0.00000000      -0.00000000      -0.00000000 </v>
   <v>      -0.00000000       0.00000000       0.00000000 </v>
  </varray>
  <varray name="stress" >
   <v>     160.77565572      -0.00000000       0.00000000 </v>
   <v>      -0.00000000     160.77565572       0.00000000 </v>
   <v>       0.00000000      -0.00000000    -275.58614470 </v>
  </varray>
  <energy>
   <i name="e_fr_energy">    -16.13943701 </i>
   <i name="e_wo_entrp">    -16.14162865 </i>
   <i name="e_0_energy">    -16.14016756 </i>
  </energy>
  <time name="totalsc">    9.94    9.96</time>
  <eigenvalues>
   <array>
    <dimension dim="1">band</dimension>
    <dimension dim="2">kpoint</dimension>
    <dimension dim="3">spin</dimension>
    <field>eigene</field>
    <field>occ</field>
    <set>
     <set comment="spin 1">
      <set comment="kpoint 1">
       <r>   -1.9689    1.0000 </r>
       <r>    1.9391    1.0000 </r>
       <r>    4.8177    1.0000 </r>
       <r>    5.3778    1.0000 </r>
       <r>    5.3779    1.0000 </r>
       <r>    5.6992    1.0000 </r>
       <r>    5.6993    1.0000 </r>
       <r>    6.3718    1.0002 </r>
       <r>    6.5918    1.0140 </r>
       <r>    6.5918    1.0140 </r>
       <r>    7.7119   -0.0000 </r>
       <r>    7.7120   -0.0000 </r>
       <r>   14.4483    0.0000 </r>
       <r>   30.2813    0.0000 </r>
       <r>   30.8428    0.0000 </r>
       <r>   33.3385    0.0000 </r>
       <r>   35.4242    0.0000 </r>
       <r>   35.4243    0.0000 </r>
       <r>   36.2909    0.0000 </r>
       <r>   36.2911    0.0000 </r>
       <r>   37.5692    0.0000 </r>
       <r>   39.2287    0.0000 </r>
       <r>   39.2287    0.0000 </r>
       <r>   40.2663    0.0000 </r>
       <r>   42.8644    0.0000 </r>
       <r>   42.8644    0.0000 </r>
       <r>   43.6928    0.0000 </r>
       <r>   46.5574    0.0000 </r>
       <r>   46.5578    0.0000 </r>
       <r>   48.4159    0.0000 </r>
       <r>   48.4160    0.0000 </r>
       <r>   51.0152    0.0000 </r>
       <r>   58.9283    0.0000 </r>
       <r>   61.7998    0.0000 </r>
       <r>   61.8007    0.0000 </r>
       <r>   62.1749    0.0000 </r>
       <r>   62.9916    0.0000 </r>
       <r>   64.0007    0.0000 </r>
       <r>   64.0018    0.0000 </r>
       <r>   65.0636    0.0000 </r>
      </set>
      <set comment="kpoint 2">
       <r>   -1.6398    1.0000 </r>
       <r>    2.1813    1.0000 </r>
       <r>    4.8021    1.0000 </r>
       <r>    5.3390    1.0000 </r>
       <r>    5.4802    1.0000 </r>
       <r>    5.5649    1.0000 </r>
       <r>    5.5891    1.0000 </r>
       <r>    5.8743    1.0000 </r>
       <r>    6.4537    1.0011 </r>
       <r>    6.4780    1.0019 </r>
       <r>    7.7424   -0.0000 </r>
       <r>    8.8601   -0.0000 </r>
       <r>   14.4683    0.0000 </r>
       <r>   28.9817    0.0000 </r>
       <r>   31.1664    0.0000 </r>
       <r>   31.5867    0.0000 </r>
       <r>   32.6561    0.0000 </r>
       <r>   35.1146    0.0000 </r>
       <r>   35.2317    0.0000 </r>
       <r>   37.3701    0.0000 </r>
       <r>   38.6293    0.0000 </r>
       <r>   39.1607    0.0000 </r>
       <r>   39.5947    0.0000 </r>
       <r>   39.8999    0.0000 </r>
       <r>   43.9317    0.0000 </r>
       <r>   44.0255    0.0000 </r>
       <r>   44.1995    0.0000 </r>
       <r>   44.4199    0.0000 </r>
       <r>   47.9257    0.0000 </r>
       <r>   49.7860    0.0000 </r>
       <r>   50.8073    0.0000 </r>
       <r>   52.9193    0.0000 </r>
       <r>   58.2464    0.0000 </r>
       <r>   60.5304    0.0000 </r>
       <r>   60.6012    0.0000 </r>
       <r>   61.1714    0.0000 </r>
       <r>   61.6644    0.0000 </r>
       <r>   64.8989    0.0000 </r>
       <r>   64.9702    0.0000 </r>
       <r>   65.9717    0.0000 </r>
      </set>
      <set comment="kpoint 3">
       <r>   -0.7071    1.0000 </r>
       <r>    2.7541    1.0000 </r>
       <r>    4.3981    1.0000 </r>
       <r>    4.5752    1.0000 </r>
       <r>    5.1751    1.0000 </r>
       <r>    5.7412    1.0000 </r>
       <r>    6.0985    1.0000 </r>
       <r>    6.1181    1.0000 </r>
       <r>    6.2119    1.0000 </r>
       <r>    6.3655    1.0001 </r>
       <r>    7.8000   -0.0000 </r>
       <r>   10.7028   -0.0000 </r>
       <r>   14.5688    0.0000 </r>
       <r>   25.2142    0.0000 </r>
       <r>   29.8510    0.0000 </r>
       <r>   30.3498    0.0000 </r>
       <r>   30.8464    0.0000 </r>
       <r>   32.0731    0.0000 </r>
       <r>   35.6860    0.0000 </r>
       <r>   36.8338    0.0000 </r>
       <r>   37.3194    0.0000 </r>
       <r>   37.7471    0.0000 </r>
       <r>   40.2618    0.0000 </r>
       <r>   41.2780    0.0000 </r>
       <r>   43.7967    0.0000 </r>
       <r>   45.0086    0.0000 </r>
       <r>   46.6383    0.0000 </r>
       <r>   48.8718    0.0000 </r>
       <r>   50.7091    0.0000 </r>
       <r>   53.2854    0.0000 </r>
       <r>   53.7328    0.0000 </r>
       <r>   56.4015    0.0000 </r>
       <r>   56.8338    0.0000 </r>
       <r>   57.5387    0.0000 </r>
       <r>   58.8083    0.0000 </r>
       <r>   60.4302    0.0000 </r>
       <r>   61.8450    0.0000 </r>
       <r>   64.7282    0.0000 </r>
       <r>   66.0598    0.0000 </r>
       <r>   66.8608    0.0000 </r>
      </set>
      <set comment="kpoint 4">
       <r>    0.6233    1.0000 </r>
       <r>    3.0456    1.0000 </r>
       <r>    3.5652    1.0000 </r>
       <r>    4.5008    1.0000 </r>
       <r>    5.0027    1.0000 </r>
       <r>    5.6952    1.0000 </r>
       <r>    5.9097    1.0000 </r>
       <r>    6.4760    1.0019 </r>
       <r>    6.8552    0.8676 </r>
       <r>    7.0486    0.1459 </r>
       <r>    7.8372   -0.0000 </r>
       <r>   12.7785    0.0000 </r>
       <r>   14.7903    0.0000 </r>
       <r>   21.2312    0.0000 </r>
       <r>   27.2278    0.0000 </r>
       <r>   27.4355    0.0000 </r>
       <r>   28.7145    0.0000 </r>
       <r>   31.8567    0.0000 </r>
       <r>   33.7651    0.0000 </r>
       <r>   37.0819    0.0000 </r>
       <r>   37.2676    0.0000 </r>
       <r>   37.6796    0.0000 </r>
       <r>   37.8924    0.0000 </r>
       <r>   41.7314    0.0000 </r>
       <r>   47.3790    0.0000 </r>
       <r>   49.0075    0.0000 </r>
       <r>   50.1028    0.0000 </r>
       <r>   51.4577    0.0000 </r>
       <r>   52.6725    0.0000 </r>
       <r>   53.6744    0.0000 </r>
       <r>   55.2071    0.0000 </r>
       <r>   56.4781    0.0000 </r>
       <r>   58.4546    0.0000 </r>
       <r>   58.8165    0.0000 </r>
       <r>   59.4621    0.0000 </r>
       <r>   60.9204    0.0000 </r>
       <r>   62.8668    0.0000 </r>
       <r>   64.4622    0.0000 </r>
       <r>   66.3854    0.0000 </r>
       <r>   66.7206    0.0000 </r>
      </set>
      <set comment="kpoint 5">
       <r>    1.8392    1.0000 </r>
       <r>    2.7956    1.0000 </r>
       <r>    3.0130    1.0000 </r>
       <r>    4.6804    1.0000 </r>
       <r>    5.3196    1.0000 </r>
       <r>    5.3621    1.0000 </r>
       <r>    5.6600    1.0000 </r>
       <r>    7.6158   -0.0000 </r>
       <r>    7.6764   -0.0000 </r>
       <r>    7.7380   -0.0000 </r>
       <r>    7.8481   -0.0000 </r>
       <r>   14.6587    0.0000 </r>
       <r>   15.0016    0.0000 </r>
       <r>   18.3926    0.0000 </r>
       <r>   23.9662    0.0000 </r>
       <r>   25.5939    0.0000 </r>
       <r>   25.9169    0.0000 </r>
       <r>   30.9502    0.0000 </r>
       <r>   32.6517    0.0000 </r>
       <r>   35.8779    0.0000 </r>
       <r>   36.6786    0.0000 </r>
       <r>   38.5462    0.0000 </r>
       <r>   39.3174    0.0000 </r>
       <r>   42.0998    0.0000 </r>
       <r>   49.5118    0.0000 </r>
       <r>   50.5101    0.0000 </r>
       <r>   50.9794    0.0000 </r>
       <r>   54.2018    0.0000 </r>
       <r>   54.2807    0.0000 </r>
       <r>   55.0583    0.0000 </r>
       <r>   57.3222    0.0000 </r>
       <r>   58.2323    0.0000 </r>
       <r>   58.3225    0.0000 </r>
       <r>   59.8217    0.0000 </r>
       <r>   61.6475    0.0000 </r>
       <r>   63.3531    0.0000 </r>
       <r>   64.0654    0.0000 </r>
       <r>   65.1056    0.0000 </r>
       <r>   66.5088    0.0000 </r>
       <r>   66.7125    0.0000 </r>
      </set>
      <set comment="kpoint 6">
       <r>    2.3497    1.0000 </r>
       <r>    2.5589    1.0000 </r>
       <r>    2.7404    1.0000 </r>
       <r>    5.0985    1.0000 </r>
       <r>    5.1958    1.0000 </r>
       <r>    5.5189    1.0000 </r>
       <r>    5.6001    1.0000 </r>
       <r>    7.8484   -0.0000 </r>
       <r>    8.0819   -0.0000 </r>
       <r>    8.2053   -0.0000 </r>
       <r>    9.3264   -0.0000 </r>
       <r>   12.7435    0.0000 </r>
       <r>   17.1066    0.0000 </r>
       <r>   18.4371    0.0000 </r>
       <r>   21.3589    0.0000 </r>
       <r>   23.2689    0.0000 </r>
       <r>   24.5685    0.0000 </r>
       <r>   30.3253    0.0000 </r>
       <r>   32.3249    0.0000 </r>
       <r>   34.7613    0.0000 </r>
       <r>   36.4583    0.0000 </r>
       <r>   39.3560    0.0000 </r>
       <r>   41.5679    0.0000 </r>
       <r>   42.1115    0.0000 </r>
       <r>   46.1320    0.0000 </r>
       <r>   50.9764    0.0000 </r>
       <r>   52.5436    0.0000 </r>
       <r>   56.5398    0.0000 </r>
       <r>   56.8763    0.0000 </r>
       <r>   57.3735    0.0000 </r>
       <r>   58.4909    0.0000 </r>
       <r>   60.0242    0.0000 </r>
       <r>   60.2002    0.0000 </r>
       <r>   61.7520    0.0000 </r>
       <r>   62.1506    0.0000 </r>
       <r>   62.9596    0.0000 </r>
       <r>   64.9712    0.0000 </r>
       <r>   65.4725    0.0000 </r>
       <r>   65.8538    0.0000 </r>
       <r>   66.5817    0.0000 </r>
      </set>
      <set comment="kpoint 7">
       <r>   -1.0064    1.0000 </r>
       <r>    2.6063    1.0000 </r>
       <r>    4.6189    1.0000 </r>
       <r>    4.6817    1.0000 </r>
       <r>    5.3773    1.0000 </r>
       <r>    5.4388    1.0000 </r>
       <r>    5.9548    1.0000 </r>
       <r>    6.0663    1.0000 </r>
       <r>    6.2557    1.0000 </r>
       <r>    6.4515    1.0011 </r>
       <r>    7.7589   -0.0000 </r>
       <r>   10.1900   -0.0000 </r>
       <r>   14.5336    0.0000 </r>
       <r>   26.9441    0.0000 </r>
       <r>   28.1947    0.0000 </r>
       <r>   31.5823    0.0000 </r>
       <r>   32.4766    0.0000 </r>
       <r>   33.7695    0.0000 </r>
       <r>   34.1068    0.0000 </r>
       <r>   35.7928    0.0000 </r>
       <r>   36.9453    0.0000 </r>
       <r>   40.8995    0.0000 </r>
       <r>   41.3175    0.0000 </r>
       <r>   41.9775    0.0000 </r>
       <r>   42.9713    0.0000 </r>
       <r>   43.0537    0.0000 </r>
       <r>   43.2354    0.0000 </r>
       <r>   49.3987    0.0000 </r>
       <r>   51.4707    0.0000 </r>
       <r>   51.6192    0.0000 </r>
       <r>   51.7396    0.0000 </r>
       <r>   55.7715    0.0000 </r>
       <r>   57.3151    0.0000 </r>
       <r>   58.3872    0.0000 </r>
       <r>   59.0893    0.0000 </r>
       <r>   60.4309    0.0000 </r>
       <r>   61.4386    0.0000 </r>
       <r>   65.0960    0.0000 </r>
       <r>   66.1266    0.0000 </r>
       <r>   67.2458    0.0000 </r>
      </set>
      <set comment="kpoint 8">
       <r>    0.1487    1.0000 </r>
       <r>    3.1540    1.0000 </r>
       <r>    3.8671    1.0000 </r>
       <r>    4.2977    1.0000 </r>
       <r>    5.0980    1.0000 </r>
       <r>    5.6481    1.0000 </r>
       <r>    5.8698    1.0000 </r>
       <r>    6.2049    1.0000 </r>
       <r>    6.6509    1.0269 </r>
       <r>    6.9623    0.4660 </r>
       <r>    7.7648   -0.0000 </r>
       <r>   12.0491   -0.0000 </r>
       <r>   14.7397    0.0000 </r>
       <r>   23.2631    0.0000 </r>
       <r>   25.8464    0.0000 </r>
       <r>   29.0372    0.0000 </r>
       <r>   31.2487    0.0000 </r>
       <r>   31.5191    0.0000 </r>
       <r>   34.6393    0.0000 </r>
       <r>   35.2211    0.0000 </r>
       <r>   35.9386    0.0000 </r>
       <r>   40.4256    0.0000 </r>
       <r>   40.7083    0.0000 </r>
       <r>   41.5777    0.0000 </r>
       <r>   44.7200    0.0000 </r>
       <r>   45.7262    0.0000 </r>
       <r>   47.5883    0.0000 </r>
       <r>   51.6690    0.0000 </r>
       <r>   53.8777    0.0000 </r>
       <r>   54.4557    0.0000 </r>
       <r>   54.5966    0.0000 </r>
       <r>   56.7689    0.0000 </r>
       <r>   57.7530    0.0000 </r>
       <r>   57.7917    0.0000 </r>
       <r>   58.9659    0.0000 </r>
       <r>   59.2926    0.0000 </r>
       <r>   62.1567    0.0000 </r>
       <r>   65.2157    0.0000 </r>
       <r>   66.4291    0.0000 </r>
       <r>   67.4137    0.0000 </r>
      </set>
      <set comment="kpoint 9">
       <r>    1.5067    1.0000 </r>
       <r>    3.1165    1.0000 </r>
       <r>    3.2571    1.0000 </r>
       <r>    4.3562    1.0000 </r>
       <r>    5.1577    1.0000 </r>
       <r>    5.3113    1.0000 </r>
       <r>    5.8442    1.0000 </r>
       <r>    6.6172    1.0192 </r>
       <r>    7.4164   -0.0026 </r>
       <r>    7.7629   -0.0000 </r>
       <r>    7.8821   -0.0000 </r>
       <r>   14.1698    0.0000 </r>
       <r>   15.0667    0.0000 </r>
       <r>   19.6050    0.0000 </r>
       <r>   24.1402    0.0000 </r>
       <r>   25.6733    0.0000 </r>
       <r>   28.2178    0.0000 </r>
       <r>   30.0643    0.0000 </r>
       <r>   33.8527    0.0000 </r>
       <r>   34.9849    0.0000 </r>
       <r>   36.6553    0.0000 </r>
       <r>   40.1042    0.0000 </r>
       <r>   40.2764    0.0000 </r>
       <r>   42.9464    0.0000 </r>
       <r>   46.6880    0.0000 </r>
       <r>   49.4566    0.0000 </r>
       <r>   50.9603    0.0000 </r>
       <r>   51.5864    0.0000 </r>
       <r>   52.7555    0.0000 </r>
       <r>   55.3230    0.0000 </r>
       <r>   56.7399    0.0000 </r>
       <r>   57.9180    0.0000 </r>
       <r>   58.7632    0.0000 </r>
       <r>   59.3240    0.0000 </r>
       <r>   60.9734    0.0000 </r>
       <r>   62.7858    0.0000 </r>
       <r>   64.1216    0.0000 </r>
       <r>   65.0039    0.0000 </r>
       <r>   65.5625    0.0000 </r>
       <r>   67.3600    0.0000 </r>
      </set>
      <set comment="kpoint 10">
       <r>    2.3938    1.0000 </r>
       <r>    2.8124    1.0000 </r>
       <r>    2.8927    1.0000 </r>
       <r>    4.7465    1.0000 </r>
       <r>    5.1159    1.0000 </r>
       <r>    5.5107    1.0000 </r>
       <r>    5.5235    1.0000 </r>
       <r>    7.5089   -0.0003 </r>
       <r>    7.7533   -0.0000 </r>
       <r>    7.9494   -0.0000 </r>
       <r>    9.0690   -0.0000 </r>
       <r>   14.1626    0.0000 </r>
       <r>   16.4084    0.0000 </r>
       <r>   18.2165    0.0000 </r>
       <r>   22.7072    0.0000 </r>
       <r>   22.8185    0.0000 </r>
       <r>   25.0168    0.0000 </r>
       <r>   29.1801    0.0000 </r>
       <r>   32.8940    0.0000 </r>
       <r>   34.4618    0.0000 </r>
       <r>   37.7037    0.0000 </r>
       <r>   40.5342    0.0000 </r>
       <r>   41.3997    0.0000 </r>
       <r>   42.6850    0.0000 </r>
       <r>   48.0900    0.0000 </r>
       <r>   49.4745    0.0000 </r>
       <r>   51.3866    0.0000 </r>
       <r>   53.1937    0.0000 </r>
       <r>   54.5847    0.0000 </r>
       <r>   56.9145    0.0000 </r>
       <r>   57.5481    0.0000 </r>
       <r>   59.2739    0.0000 </r>
       <r>   60.2478    0.0000 </r>
       <r>   62.4205    0.0000 </r>
       <r>   62.5317    0.0000 </r>
       <r>   63.7101    0.0000 </r>
       <r>   64.1861    0.0000 </r>
       <r>   65.3728    0.0000 </r>
       <r>   66.5078    0.0000 </r>
       <r>   66.9148    0.0000 </r>
      </set>
      <set comment="kpoint 11">
       <r>    2.5701    1.0000 </r>
       <r>    2.7051    1.0000 </r>
       <r>    2.7722    1.0000 </r>
       <r>    5.0621    1.0000 </r>
       <r>    5.1086    1.0000 </r>
       <r>    5.3865    1.0000 </r>
       <r>    5.6272    1.0000 </r>
       <r>    7.7475   -0.0000 </r>
       <r>    8.0133   -0.0000 </r>
       <r>    8.0337   -0.0000 </r>
       <r>   10.2884   -0.0000 </r>
       <r>   12.4292    0.0000 </r>
       <r>   17.9283    0.0000 </r>
       <r>   18.8858    0.0000 </r>
       <r>   20.9364    0.0000 </r>
       <r>   22.0054    0.0000 </r>
       <r>   23.5601    0.0000 </r>
       <r>   28.8655    0.0000 </r>
       <r>   32.5008    0.0000 </r>
       <r>   34.2940    0.0000 </r>
       <r>   37.8554    0.0000 </r>
       <r>   41.5045    0.0000 </r>
       <r>   41.5359    0.0000 </r>
       <r>   43.1760    0.0000 </r>
       <r>   45.7780    0.0000 </r>
       <r>   51.2014    0.0000 </r>
       <r>   51.2266    0.0000 </r>
       <r>   54.1927    0.0000 </r>
       <r>   56.3658    0.0000 </r>
       <r>   56.6917    0.0000 </r>
       <r>   59.9442    0.0000 </r>
       <r>   60.1342    0.0000 </r>
       <r>   60.5046    0.0000 </r>
       <r>   60.5760    0.0000 </r>
       <r>   62.3353    0.0000 </r>
       <r>   64.7711    0.0000 </r>
       <r>   65.7726    0.0000 </r>
       <r>   65.8862    0.0000 </r>
       <r>   66.2359    0.0000 </r>
       <r>   68.1723    0.0000 </r>
      </set>
      <set comment="kpoint 12">
       <r>    1.4012    1.0000 </r>
       <r>    3.4014    1.0000 </r>
       <r>    3.5923    1.0000 </r>
       <r>    3.8533    1.0000 </r>
       <r>    5.1543    1.0000 </r>
       <r>    5.2153    1.0000 </r>
       <r>    5.9901    1.0000 </r>
       <r>    6.1157    1.0000 </r>
       <r>    7.3920   -0.0042 </r>
       <r>    7.6701   -0.0000 </r>
       <r>    7.9452   -0.0000 </r>
       <r>   13.9038    0.0000 </r>
       <r>   15.2120    0.0000 </r>
       <r>   21.2959    0.0000 </r>
       <r>   22.0511    0.0000 </r>
       <r>   27.2047    0.0000 </r>
       <r>   28.5617    0.0000 </r>
       <r>   30.5139    0.0000 </r>
       <r>   31.2305    0.0000 </r>
       <r>   36.3073    0.0000 </r>
       <r>   37.6593    0.0000 </r>
       <r>   41.4733    0.0000 </r>
       <r>   41.4740    0.0000 </r>
       <r>   44.0678    0.0000 </r>
       <r>   44.7621    0.0000 </r>
       <r>   46.7729    0.0000 </r>
       <r>   48.1079    0.0000 </r>
       <r>   53.0567    0.0000 </r>
       <r>   53.5295    0.0000 </r>
       <r>   55.1451    0.0000 </r>
       <r>   55.2290    0.0000 </r>
       <r>   58.4123    0.0000 </r>
       <r>   58.5446    0.0000 </r>
       <r>   61.1291    0.0000 </r>
       <r>   61.4673    0.0000 </r>
       <r>   61.6710    0.0000 </r>
       <r>   61.7547    0.0000 </r>
       <r>   65.5102    0.0000 </r>
       <r>   65.7168    0.0000 </r>
       <r>   68.2810    0.0000 </r>
      </set>
      <set comment="kpoint 13">
       <r>    2.6107    1.0000 </r>
       <r>    3.0979    1.0000 </r>
       <r>    3.3384    1.0000 </r>
       <r>    4.0339    1.0000 </r>
       <r>    4.9731    1.0000 </r>
       <r>    5.4263    1.0000 </r>
       <r>    5.6061    1.0000 </r>
       <r>    6.6680    1.0306 </r>
       <r>    7.5879   -0.0000 </r>
       <r>    7.8933   -0.0000 </r>
       <r>    9.2006   -0.0000 </r>
       <r>   15.6838    0.0000 </r>
       <r>   16.0678    0.0000 </r>
       <r>   18.4675    0.0000 </r>
       <r>   20.4554    0.0000 </r>
       <r>   24.5796    0.0000 </r>
       <r>   26.9843    0.0000 </r>
       <r>   27.0753    0.0000 </r>
       <r>   29.8993    0.0000 </r>
       <r>   38.1369    0.0000 </r>
       <r>   38.3948    0.0000 </r>
       <r>   41.4899    0.0000 </r>
       <r>   43.6736    0.0000 </r>
       <r>   44.6802    0.0000 </r>
       <r>   46.0564    0.0000 </r>
       <r>   47.9636    0.0000 </r>
       <r>   49.3190    0.0000 </r>
       <r>   50.8320    0.0000 </r>
       <r>   54.0324    0.0000 </r>
       <r>   54.6192    0.0000 </r>
       <r>   56.7691    0.0000 </r>
       <r>   59.2839    0.0000 </r>
       <r>   60.6154    0.0000 </r>
       <r>   61.6619    0.0000 </r>
       <r>   63.8222    0.0000 </r>
       <r>   63.9265    0.0000 </r>
       <r>   64.9619    0.0000 </r>
       <r>   65.8615    0.0000 </r>
       <r>   66.7981    0.0000 </r>
       <r>   68.1569    0.0000 </r>
      </set>
      <set comment="kpoint 14">
       <r>    2.9568    1.0000 </r>
       <r>    3.0388    1.0000 </r>
       <r>    3.1387    1.0000 </r>
       <r>    4.5069    1.0000 </r>
       <r>    4.9702    1.0000 </r>
       <r>    5.2238    1.0000 </r>
       <r>    5.6905    1.0000 </r>
       <r>    7.3521   -0.0083 </r>
       <r>    7.5400   -0.0001 </r>
       <r>    7.9168   -0.0000 </r>
       <r>   10.7875   -0.0000 </r>
       <r>   13.8220    0.0000 </r>
       <r>   18.2821    0.0000 </r>
       <r>   18.7916    0.0000 </r>
       <r>   19.6746    0.0000 </r>
       <r>   21.9302    0.0000 </r>
       <r>   24.1669    0.0000 </r>
       <r>   26.3866    0.0000 </r>
       <r>   29.2498    0.0000 </r>
       <r>   38.0339    0.0000 </r>
       <r>   40.2018    0.0000 </r>
       <r>   41.9692    0.0000 </r>
       <r>   43.5875    0.0000 </r>
       <r>   44.3701    0.0000 </r>
       <r>   48.0543    0.0000 </r>
       <r>   48.4043    0.0000 </r>
       <r>   50.3746    0.0000 </r>
       <r>   50.6660    0.0000 </r>
       <r>   54.3262    0.0000 </r>
       <r>   55.5969    0.0000 </r>
       <r>   56.1029    0.0000 </r>
       <r>   59.5560    0.0000 </r>
       <r>   59.9922    0.0000 </r>
       <r>   60.9054    0.0000 </r>
       <r>   64.9479    0.0000 </r>
       <r>   65.2657    0.0000 </r>
       <r>   66.7304    0.0000 </r>
       <r>   66.9577    0.0000 </r>
       <r>   67.0731    0.0000 </r>
       <r>   67.3271    0.0000 </r>
      </set>
      <set comment="kpoint 15">
       <r>    3.0844    1.0000 </r>
       <r>    3.3952    1.0000 </r>
       <r>    3.7230    1.0000 </r>
       <r>    3.7526    1.0000 </r>
       <r>    4.8208    1.0000 </r>
       <r>    5.2299    1.0000 </r>
       <r>    5.7341    1.0000 </r>
       <r>    6.9299    0.6023 </r>
       <r>    7.4334   -0.0018 </r>
       <r>    7.8867   -0.0000 </r>
       <r>   10.9117   -0.0000 </r>
       <r>   15.9262    0.0000 </r>
       <r>   16.4677    0.0000 </r>
       <r>   18.3096    0.0000 </r>
       <r>   19.5145    0.0000 </r>
       <r>   23.9245    0.0000 </r>
       <r>   23.9724    0.0000 </r>
       <r>   25.8568    0.0000 </r>
       <r>   26.7384    0.0000 </r>
       <r>   39.9968    0.0000 </r>
       <r>   40.9129    0.0000 </r>
       <r>   43.9871    0.0000 </r>
       <r>   44.9332    0.0000 </r>
       <r>   46.0036    0.0000 </r>
       <r>   46.0941    0.0000 </r>
       <r>   46.5267    0.0000 </r>
       <r>   48.9513    0.0000 </r>
       <r>   51.4609    0.0000 </r>
       <r>   51.7789    0.0000 </r>
       <r>   55.2243    0.0000 </r>
       <r>   55.7984    0.0000 </r>
       <r>   58.2411    0.0000 </r>
       <r>   59.8559    0.0000 </r>
       <r>   61.0955    0.0000 </r>
       <r>   64.7637    0.0000 </r>
       <r>   65.7974    0.0000 </r>
       <r>   65.8785    0.0000 </r>
       <r>   67.4382    0.0000 </r>
       <r>   67.7114    0.0000 </r>
       <r>   68.2420    0.0000 </r>
      </set>
      <set comment="kpoint 16">
       <r>    3.1070    1.0000 </r>
       <r>    3.5537    1.0000 </r>
       <r>    3.5864    1.0000 </r>
       <r>    4.0829    1.0000 </r>
       <r>    4.8855    1.0000 </r>
       <r>    4.9422    1.0000 </r>
       <r>    5.8804    1.0000 </r>
       <r>    7.2922   -0.0190 </r>
       <r>    7.3742   -0.0057 </r>
       <r>    7.5886   -0.0000 </r>
       <r>   12.6672    0.0000 </r>
       <r>   13.9373    0.0000 </r>
       <r>   16.0869    0.0000 </r>
       <r>   20.2645    0.0000 </r>
       <r>   20.4911    0.0000 </r>
       <r>   21.7354    0.0000 </r>
       <r>   23.7290    0.0000 </r>
       <r>   24.2143    0.0000 </r>
       <r>   26.1314    0.0000 </r>
       <r>   40.4246    0.0000 </r>
       <r>   43.1421    0.0000 </r>
       <r>   44.2446    0.0000 </r>
       <r>   44.3912    0.0000 </r>
       <r>   45.3381    0.0000 </r>
       <r>   47.0037    0.0000 </r>
       <r>   47.4708    0.0000 </r>
       <r>   50.5190    0.0000 </r>
       <r>   50.5513    0.0000 </r>
       <r>   50.9619    0.0000 </r>
       <r>   54.4523    0.0000 </r>
       <r>   55.9460    0.0000 </r>
       <r>   56.4088    0.0000 </r>
       <r>   59.6224    0.0000 </r>
       <r>   60.1768    0.0000 </r>
       <r>   65.4016    0.0000 </r>
       <r>   66.0860    0.0000 </r>
       <r>   67.6265    0.0000 </r>
       <r>   67.6790    0.0000 </r>
       <r>   67.7470    0.0000 </r>
       <r>   67.7619    0.0000 </r>
      </set>
      <set comment="kpoint 17">
       <r>   -1.8877    1.0000 </r>
       <r>    1.9083    1.0000 </r>
       <r>    4.7949    1.0000 </r>
       <r>    5.3668    1.0000 </r>
       <r>    5.3669    1.0000 </r>
       <r>    5.6805    1.0000 </r>
       <r>    5.6807    1.0000 </r>
       <r>    6.1455    1.0000 </r>
       <r>    6.6318    1.0225 </r>
       <r>    6.6318    1.0225 </r>
       <r>    7.6992   -0.0000 </r>
       <r>    7.6993   -0.0000 </r>
       <r>   14.8352    0.0000 </r>
       <r>   29.8292    0.0000 </r>
       <r>   30.7050    0.0000 </r>
       <r>   33.1662    0.0000 </r>
       <r>   35.4765    0.0000 </r>
       <r>   35.4766    0.0000 </r>
       <r>   36.2935    0.0000 </r>
       <r>   36.2937    0.0000 </r>
       <r>   38.0502    0.0000 </r>
       <r>   39.1284    0.0000 </r>
       <r>   39.1284    0.0000 </r>
       <r>   40.5203    0.0000 </r>
       <r>   42.4968    0.0000 </r>
       <r>   42.4968    0.0000 </r>
       <r>   43.9439    0.0000 </r>
       <r>   46.8249    0.0000 </r>
       <r>   46.8252    0.0000 </r>
       <r>   48.8560    0.0000 </r>
       <r>   48.8561    0.0000 </r>
       <r>   50.8957    0.0000 </r>
       <r>   58.2667    0.0000 </r>
       <r>   61.5195    0.0000 </r>
       <r>   61.5203    0.0000 </r>
       <r>   62.2401    0.0000 </r>
       <r>   62.3502    0.0000 </r>
       <r>   62.3506    0.0000 </r>
       <r>   63.7324    0.0000 </r>
       <r>   64.9969    0.0000 </r>
      </set>
      <set comment="kpoint 18">
       <r>   -1.5603    1.0000 </r>
       <r>    2.1550    1.0000 </r>
       <r>    4.7935    1.0000 </r>
       <r>    5.2984    1.0000 </r>
       <r>    5.3038    1.0000 </r>
       <r>    5.5507    1.0000 </r>
       <r>    5.6435    1.0000 </r>
       <r>    5.8538    1.0000 </r>
       <r>    6.5015    1.0031 </r>
       <r>    6.5273    1.0051 </r>
       <r>    7.7301   -0.0000 </r>
       <r>    8.6991   -0.0000 </r>
       <r>   14.8909    0.0000 </r>
       <r>   28.9642    0.0000 </r>
       <r>   30.5239    0.0000 </r>
       <r>   31.6121    0.0000 </r>
       <r>   32.7278    0.0000 </r>
       <r>   34.4256    0.0000 </r>
       <r>   35.8277    0.0000 </r>
       <r>   37.6516    0.0000 </r>
       <r>   38.3129    0.0000 </r>
       <r>   39.2555    0.0000 </r>
       <r>   39.6381    0.0000 </r>
       <r>   40.2116    0.0000 </r>
       <r>   43.6191    0.0000 </r>
       <r>   43.8030    0.0000 </r>
       <r>   44.7668    0.0000 </r>
       <r>   44.8921    0.0000 </r>
       <r>   47.7763    0.0000 </r>
       <r>   50.0760    0.0000 </r>
       <r>   51.1223    0.0000 </r>
       <r>   52.8880    0.0000 </r>
       <r>   57.0905    0.0000 </r>
       <r>   59.9397    0.0000 </r>
       <r>   60.6656    0.0000 </r>
       <r>   61.6115    0.0000 </r>
       <r>   61.9831    0.0000 </r>
       <r>   63.5960    0.0000 </r>
       <r>   64.7649    0.0000 </r>
       <r>   65.2313    0.0000 </r>
      </set>
      <set comment="kpoint 19">
       <r>   -0.6351    1.0000 </r>
       <r>    2.7427    1.0000 </r>
       <r>    4.3134    1.0000 </r>
       <r>    4.5934    1.0000 </r>
       <r>    5.1435    1.0000 </r>
       <r>    5.6554    1.0000 </r>
       <r>    6.0303    1.0000 </r>
       <r>    6.2418    1.0000 </r>
       <r>    6.2689    1.0000 </r>
       <r>    6.3938    1.0003 </r>
       <r>    7.7824   -0.0000 </r>
       <r>   10.3443   -0.0000 </r>
       <r>   15.1169    0.0000 </r>
       <r>   25.2734    0.0000 </r>
       <r>   29.8403    0.0000 </r>
       <r>   29.9430    0.0000 </r>
       <r>   31.1719    0.0000 </r>
       <r>   31.4772    0.0000 </r>
       <r>   35.4284    0.0000 </r>
       <r>   36.8804    0.0000 </r>
       <r>   37.2208    0.0000 </r>
       <r>   37.9236    0.0000 </r>
       <r>   40.6599    0.0000 </r>
       <r>   41.9051    0.0000 </r>
       <r>   44.0633    0.0000 </r>
       <r>   45.0041    0.0000 </r>
       <r>   46.4262    0.0000 </r>
       <r>   48.9041    0.0000 </r>
       <r>   50.5849    0.0000 </r>
       <r>   53.3292    0.0000 </r>
       <r>   54.0571    0.0000 </r>
       <r>   55.2222    0.0000 </r>
       <r>   56.2343    0.0000 </r>
       <r>   58.2328    0.0000 </r>
       <r>   58.9857    0.0000 </r>
       <r>   60.4689    0.0000 </r>
       <r>   61.9940    0.0000 </r>
       <r>   64.5409    0.0000 </r>
       <r>   65.6042    0.0000 </r>
       <r>   66.5969    0.0000 </r>
      </set>
      <set comment="kpoint 20">
       <r>    0.6742    1.0000 </r>
       <r>    3.0462    1.0000 </r>
       <r>    3.5377    1.0000 </r>
       <r>    4.5110    1.0000 </r>
       <r>    4.9550    1.0000 </r>
       <r>    5.7127    1.0000 </r>
       <r>    5.9309    1.0000 </r>
       <r>    6.5157    1.0041 </r>
       <r>    6.8656    0.8374 </r>
       <r>    7.0321    0.1967 </r>
       <r>    7.8151   -0.0000 </r>
       <r>   12.0708   -0.0000 </r>
       <r>   15.6334    0.0000 </r>
       <r>   21.2973    0.0000 </r>
       <r>   26.7493    0.0000 </r>
       <r>   27.5437    0.0000 </r>
       <r>   29.0923    0.0000 </r>
       <r>   31.6211    0.0000 </r>
       <r>   33.7244    0.0000 </r>
       <r>   36.0167    0.0000 </r>
       <r>   36.1861    0.0000 </r>
       <r>   38.6861    0.0000 </r>
       <r>   38.9782    0.0000 </r>
       <r>   42.5151    0.0000 </r>
       <r>   47.4890    0.0000 </r>
       <r>   48.8231    0.0000 </r>
       <r>   49.7507    0.0000 </r>
       <r>   50.0275    0.0000 </r>
       <r>   53.6014    0.0000 </r>
       <r>   53.8937    0.0000 </r>
       <r>   55.4710    0.0000 </r>
       <r>   56.9155    0.0000 </r>
       <r>   57.7977    0.0000 </r>
       <r>   58.0777    0.0000 </r>
       <r>   59.9545    0.0000 </r>
       <r>   60.9246    0.0000 </r>
       <r>   63.1059    0.0000 </r>
       <r>   64.7251    0.0000 </r>
       <r>   65.3935    0.0000 </r>
       <r>   66.8382    0.0000 </r>
      </set>
      <set comment="kpoint 21">
       <r>    1.8321    1.0000 </r>
       <r>    2.7656    1.0000 </r>
       <r>    3.0971    1.0000 </r>
       <r>    4.4869    1.0000 </r>
       <r>    5.3676    1.0000 </r>
       <r>    5.5666    1.0000 </r>
       <r>    5.6941    1.0000 </r>
       <r>    7.6178   -0.0000 </r>
       <r>    7.6411   -0.0000 </r>
       <r>    7.6686   -0.0000 </r>
       <r>    7.8674   -0.0000 </r>
       <r>   13.4407    0.0000 </r>
       <r>   16.2114    0.0000 </r>
       <r>   18.5246    0.0000 </r>
       <r>   23.5372    0.0000 </r>
       <r>   25.7161    0.0000 </r>
       <r>   26.3985    0.0000 </r>
       <r>   30.9023    0.0000 </r>
       <r>   32.6505    0.0000 </r>
       <r>   34.7311    0.0000 </r>
       <r>   37.2062    0.0000 </r>
       <r>   37.8542    0.0000 </r>
       <r>   39.9367    0.0000 </r>
       <r>   43.0385    0.0000 </r>
       <r>   47.9667    0.0000 </r>
       <r>   50.8522    0.0000 </r>
       <r>   51.9062    0.0000 </r>
       <r>   53.2496    0.0000 </r>
       <r>   54.1633    0.0000 </r>
       <r>   55.9524    0.0000 </r>
       <r>   56.9262    0.0000 </r>
       <r>   58.0299    0.0000 </r>
       <r>   58.9445    0.0000 </r>
       <r>   59.6511    0.0000 </r>
       <r>   61.7461    0.0000 </r>
       <r>   63.2954    0.0000 </r>
       <r>   64.4503    0.0000 </r>
       <r>   64.5234    0.0000 </r>
       <r>   66.6470    0.0000 </r>
       <r>   66.7681    0.0000 </r>
      </set>
      <set comment="kpoint 22">
       <r>    2.2664    1.0000 </r>
       <r>    2.4724    1.0000 </r>
       <r>    2.9716    1.0000 </r>
       <r>    4.5584    1.0000 </r>
       <r>    5.5580    1.0000 </r>
       <r>    5.5708    1.0000 </r>
       <r>    5.8514    1.0000 </r>
       <r>    7.7843   -0.0000 </r>
       <r>    8.0877   -0.0000 </r>
       <r>    8.2060   -0.0000 </r>
       <r>    9.2392   -0.0000 </r>
       <r>   12.5644    0.0000 </r>
       <r>   16.9176    0.0000 </r>
       <r>   18.5147    0.0000 </r>
       <r>   21.4392    0.0000 </r>
       <r>   23.6915    0.0000 </r>
       <r>   24.6980    0.0000 </r>
       <r>   30.3189    0.0000 </r>
       <r>   32.3086    0.0000 </r>
       <r>   33.8737    0.0000 </r>
       <r>   37.3891    0.0000 </r>
       <r>   38.7849    0.0000 </r>
       <r>   40.1197    0.0000 </r>
       <r>   43.8171    0.0000 </r>
       <r>   45.9610    0.0000 </r>
       <r>   51.8270    0.0000 </r>
       <r>   52.0040    0.0000 </r>
       <r>   55.6649    0.0000 </r>
       <r>   56.3651    0.0000 </r>
       <r>   57.7402    0.0000 </r>
       <r>   59.1719    0.0000 </r>
       <r>   59.9621    0.0000 </r>
       <r>   60.0593    0.0000 </r>
       <r>   61.9550    0.0000 </r>
       <r>   62.5147    0.0000 </r>
       <r>   63.2125    0.0000 </r>
       <r>   64.7749    0.0000 </r>
       <r>   65.9251    0.0000 </r>
       <r>   65.9258    0.0000 </r>
       <r>   66.4505    0.0000 </r>
      </set>
      <set comment="kpoint 23">
       <r>   -0.9314    1.0000 </r>
       <r>    2.5900    1.0000 </r>
       <r>    4.5763    1.0000 </r>
       <r>    4.6314    1.0000 </r>
       <r>    5.3394    1.0000 </r>
       <r>    5.4054    1.0000 </r>
       <r>    5.9208    1.0000 </r>
       <r>    6.1175    1.0000 </r>
       <r>    6.2919    1.0000 </r>
       <r>    6.5014    1.0031 </r>
       <r>    7.7417   -0.0000 </r>
       <r>    9.8936   -0.0000 </r>
       <r>   15.0357    0.0000 </r>
       <r>   26.9860    0.0000 </r>
       <r>   28.2523    0.0000 </r>
       <r>   30.9124    0.0000 </r>
       <r>   32.0068    0.0000 </r>
       <r>   33.9621    0.0000 </r>
       <r>   34.5844    0.0000 </r>
       <r>   35.1095    0.0000 </r>
       <r>   37.5799    0.0000 </r>
       <r>   40.9367    0.0000 </r>
       <r>   41.4077    0.0000 </r>
       <r>   42.0298    0.0000 </r>
       <r>   42.3960    0.0000 </r>
       <r>   43.4928    0.0000 </r>
       <r>   44.0480    0.0000 </r>
       <r>   49.2233    0.0000 </r>
       <r>   51.0333    0.0000 </r>
       <r>   51.9133    0.0000 </r>
       <r>   52.1933    0.0000 </r>
       <r>   55.5975    0.0000 </r>
       <r>   55.7195    0.0000 </r>
       <r>   58.4461    0.0000 </r>
       <r>   59.7488    0.0000 </r>
       <r>   60.9221    0.0000 </r>
       <r>   61.3473    0.0000 </r>
       <r>   64.4901    0.0000 </r>
       <r>   65.4562    0.0000 </r>
       <r>   66.4621    0.0000 </r>
      </set>
      <set comment="kpoint 24">
       <r>    0.2108    1.0000 </r>
       <r>    3.1579    1.0000 </r>
       <r>    3.8056    1.0000 </r>
       <r>    4.3198    1.0000 </r>
       <r>    5.0722    1.0000 </r>
       <r>    5.5348    1.0000 </r>
       <r>    6.0120    1.0000 </r>
       <r>    6.1789    1.0000 </r>
       <r>    6.7067    1.0354 </r>
       <r>    6.9430    0.5476 </r>
       <r>    7.7510   -0.0000 </r>
       <r>   11.4992   -0.0000 </r>
       <r>   15.4461    0.0000 </r>
       <r>   23.3294    0.0000 </r>
       <r>   25.9137    0.0000 </r>
       <r>   28.6649    0.0000 </r>
       <r>   30.7694    0.0000 </r>
       <r>   31.9652    0.0000 </r>
       <r>   34.0730    0.0000 </r>
       <r>   35.0646    0.0000 </r>
       <r>   36.4366    0.0000 </r>
       <r>   40.0337    0.0000 </r>
       <r>   41.2622    0.0000 </r>
       <r>   42.2442    0.0000 </r>
       <r>   44.7261    0.0000 </r>
       <r>   45.6338    0.0000 </r>
       <r>   47.8231    0.0000 </r>
       <r>   51.1220    0.0000 </r>
       <r>   53.2556    0.0000 </r>
       <r>   54.4338    0.0000 </r>
       <r>   55.0389    0.0000 </r>
       <r>   56.6886    0.0000 </r>
       <r>   56.8517    0.0000 </r>
       <r>   58.4637    0.0000 </r>
       <r>   58.8743    0.0000 </r>
       <r>   60.0992    0.0000 </r>
       <r>   62.2399    0.0000 </r>
       <r>   65.2131    0.0000 </r>
       <r>   65.7330    0.0000 </r>
       <r>   66.4578    0.0000 </r>
      </set>
      <set comment="kpoint 25">
       <r>    1.5333    1.0000 </r>
       <r>    3.1061    1.0000 </r>
       <r>    3.2718    1.0000 </r>
       <r>    4.3434    1.0000 </r>
       <r>    5.0748    1.0000 </r>
       <r>    5.4401    1.0000 </r>
       <r>    5.8459    1.0000 </r>
       <r>    6.6311    1.0223 </r>
       <r>    7.4387   -0.0016 </r>
       <r>    7.6508   -0.0000 </r>
       <r>    7.9441   -0.0000 </r>
       <r>   13.1261    0.0000 </r>
       <r>   16.2115    0.0000 </r>
       <r>   19.6783    0.0000 </r>
       <r>   24.1934    0.0000 </r>
       <r>   25.3167    0.0000 </r>
       <r>   28.6164    0.0000 </r>
       <r>   29.8261    0.0000 </r>
       <r>   34.1276    0.0000 </r>
       <r>   34.7157    0.0000 </r>
       <r>   35.9892    0.0000 </r>
       <r>   39.6332    0.0000 </r>
       <r>   41.3452    0.0000 </r>
       <r>   43.6034    0.0000 </r>
       <r>   46.5081    0.0000 </r>
       <r>   48.4626    0.0000 </r>
       <r>   50.4088    0.0000 </r>
       <r>   52.3476    0.0000 </r>
       <r>   53.3560    0.0000 </r>
       <r>   54.8094    0.0000 </r>
       <r>   57.1132    0.0000 </r>
       <r>   57.9663    0.0000 </r>
       <r>   58.4950    0.0000 </r>
       <r>   59.5959    0.0000 </r>
       <r>   61.2662    0.0000 </r>
       <r>   62.4947    0.0000 </r>
       <r>   64.2042    0.0000 </r>
       <r>   65.0128    0.0000 </r>
       <r>   65.3647    0.0000 </r>
       <r>   66.6869    0.0000 </r>
      </set>
      <set comment="kpoint 26">
       <r>    2.3267    1.0000 </r>
       <r>    2.7535    1.0000 </r>
       <r>    3.0753    1.0000 </r>
       <r>    4.4498    1.0000 </r>
       <r>    5.3677    1.0000 </r>
       <r>    5.4908    1.0000 </r>
       <r>    5.6642    1.0000 </r>
       <r>    7.4937   -0.0005 </r>
       <r>    7.6892   -0.0000 </r>
       <r>    7.9646   -0.0000 </r>
       <r>    9.0526   -0.0000 </r>
       <r>   13.7035    0.0000 </r>
       <r>   16.5566    0.0000 </r>
       <r>   18.5588    0.0000 </r>
       <r>   22.2546    0.0000 </r>
       <r>   23.1084    0.0000 </r>
       <r>   25.4687    0.0000 </r>
       <r>   28.9342    0.0000 </r>
       <r>   33.1351    0.0000 </r>
       <r>   34.4261    0.0000 </r>
       <r>   37.0425    0.0000 </r>
       <r>   39.5280    0.0000 </r>
       <r>   42.0878    0.0000 </r>
       <r>   43.6450    0.0000 </r>
       <r>   47.2604    0.0000 </r>
       <r>   49.5746    0.0000 </r>
       <r>   51.4643    0.0000 </r>
       <r>   53.4155    0.0000 </r>
       <r>   55.2300    0.0000 </r>
       <r>   56.6537    0.0000 </r>
       <r>   57.4851    0.0000 </r>
       <r>   59.1145    0.0000 </r>
       <r>   60.2408    0.0000 </r>
       <r>   62.1470    0.0000 </r>
       <r>   63.0299    0.0000 </r>
       <r>   63.8072    0.0000 </r>
       <r>   64.2122    0.0000 </r>
       <r>   65.0360    0.0000 </r>
       <r>   66.3052    0.0000 </r>
       <r>   67.4436    0.0000 </r>
      </set>
      <set comment="kpoint 27">
       <r>    2.4626    1.0000 </r>
       <r>    2.5856    1.0000 </r>
       <r>    3.0707    1.0000 </r>
       <r>    4.5300    1.0000 </r>
       <r>    5.3374    1.0000 </r>
       <r>    5.6773    1.0000 </r>
       <r>    5.7198    1.0000 </r>
       <r>    7.6808   -0.0000 </r>
       <r>    8.0085   -0.0000 </r>
       <r>    8.0393   -0.0000 </r>
       <r>   10.2286   -0.0000 </r>
       <r>   12.3532   -0.0000 </r>
       <r>   17.7500    0.0000 </r>
       <r>   18.4664    0.0000 </r>
       <r>   21.5117    0.0000 </r>
       <r>   22.2225    0.0000 </r>
       <r>   23.8121    0.0000 </r>
       <r>   28.6253    0.0000 </r>
       <r>   32.7280    0.0000 </r>
       <r>   34.2833    0.0000 </r>
       <r>   37.5358    0.0000 </r>
       <r>   39.7920    0.0000 </r>
       <r>   41.7645    0.0000 </r>
       <r>   45.0926    0.0000 </r>
       <r>   45.3655    0.0000 </r>
       <r>   50.3015    0.0000 </r>
       <r>   51.9128    0.0000 </r>
       <r>   54.6808    0.0000 </r>
       <r>   56.4434    0.0000 </r>
       <r>   56.8405    0.0000 </r>
       <r>   59.4216    0.0000 </r>
       <r>   59.8123    0.0000 </r>
       <r>   60.4931    0.0000 </r>
       <r>   61.0320    0.0000 </r>
       <r>   62.1112    0.0000 </r>
       <r>   65.2063    0.0000 </r>
       <r>   65.6246    0.0000 </r>
       <r>   66.1767    0.0000 </r>
       <r>   66.4411    0.0000 </r>
       <r>   67.7836    0.0000 </r>
      </set>
      <set comment="kpoint 28">
       <r>    1.4406    1.0000 </r>
       <r>    3.3538    1.0000 </r>
       <r>    3.6287    1.0000 </r>
       <r>    3.8728    1.0000 </r>
       <r>    5.1512    1.0000 </r>
       <r>    5.1816    1.0000 </r>
       <r>    5.9610    1.0000 </r>
       <r>    6.1845    1.0000 </r>
       <r>    7.4296   -0.0020 </r>
       <r>    7.5688   -0.0001 </r>
       <r>    7.9994   -0.0000 </r>
       <r>   13.0014    0.0000 </r>
       <r>   16.2351    0.0000 </r>
       <r>   21.3647    0.0000 </r>
       <r>   22.1304    0.0000 </r>
       <r>   26.8514    0.0000 </r>
       <r>   28.1174    0.0000 </r>
       <r>   30.9798    0.0000 </r>
       <r>   31.6017    0.0000 </r>
       <r>   35.2212    0.0000 </r>
       <r>   38.1018    0.0000 </r>
       <r>   41.4259    0.0000 </r>
       <r>   42.2710    0.0000 </r>
       <r>   43.9278    0.0000 </r>
       <r>   44.1209    0.0000 </r>
       <r>   47.4572    0.0000 </r>
       <r>   48.0303    0.0000 </r>
       <r>   52.3564    0.0000 </r>
       <r>   53.2283    0.0000 </r>
       <r>   54.4794    0.0000 </r>
       <r>   57.0789    0.0000 </r>
       <r>   58.5423    0.0000 </r>
       <r>   58.5450    0.0000 </r>
       <r>   60.3755    0.0000 </r>
       <r>   60.8557    0.0000 </r>
       <r>   62.3235    0.0000 </r>
       <r>   62.4978    0.0000 </r>
       <r>   65.6092    0.0000 </r>
       <r>   65.7118    0.0000 </r>
       <r>   66.1291    0.0000 </r>
      </set>
      <set comment="kpoint 29">
       <r>    2.5891    1.0000 </r>
       <r>    3.1079    1.0000 </r>
       <r>    3.3660    1.0000 </r>
       <r>    4.0409    1.0000 </r>
       <r>    4.9967    1.0000 </r>
       <r>    5.4007    1.0000 </r>
       <r>    5.6311    1.0000 </r>
       <r>    6.6920    1.0344 </r>
       <r>    7.5151   -0.0003 </r>
       <r>    7.9229   -0.0000 </r>
       <r>    9.2193   -0.0000 </r>
       <r>   14.5180    0.0000 </r>
       <r>   17.1787    0.0000 </r>
       <r>   18.6637    0.0000 </r>
       <r>   20.5329    0.0000 </r>
       <r>   24.1673    0.0000 </r>
       <r>   26.5567    0.0000 </r>
       <r>   27.6116    0.0000 </r>
       <r>   30.3943    0.0000 </r>
       <r>   36.7748    0.0000 </r>
       <r>   38.7858    0.0000 </r>
       <r>   41.8214    0.0000 </r>
       <r>   43.5613    0.0000 </r>
       <r>   44.8496    0.0000 </r>
       <r>   46.0886    0.0000 </r>
       <r>   47.1351    0.0000 </r>
       <r>   50.1478    0.0000 </r>
       <r>   50.8634    0.0000 </r>
       <r>   53.4489    0.0000 </r>
       <r>   55.6041    0.0000 </r>
       <r>   57.0434    0.0000 </r>
       <r>   59.3215    0.0000 </r>
       <r>   60.5484    0.0000 </r>
       <r>   61.6110    0.0000 </r>
       <r>   63.5974    0.0000 </r>
       <r>   64.0794    0.0000 </r>
       <r>   64.7577    0.0000 </r>
       <r>   65.8952    0.0000 </r>
       <r>   66.5742    0.0000 </r>
       <r>   67.6466    0.0000 </r>
      </set>
      <set comment="kpoint 30">
       <r>    2.8055    1.0000 </r>
       <r>    3.0778    1.0000 </r>
       <r>    3.3249    1.0000 </r>
       <r>    4.3137    1.0000 </r>
       <r>    5.0546    1.0000 </r>
       <r>    5.2531    1.0000 </r>
       <r>    5.7713    1.0000 </r>
       <r>    7.3569   -0.0077 </r>
       <r>    7.4679   -0.0008 </r>
       <r>    7.9361   -0.0000 </r>
       <r>   10.8050   -0.0000 </r>
       <r>   13.7336    0.0000 </r>
       <r>   17.6898    0.0000 </r>
       <r>   19.3434    0.0000 </r>
       <r>   19.5723    0.0000 </r>
       <r>   22.0457    0.0000 </r>
       <r>   24.6410    0.0000 </r>
       <r>   25.9670    0.0000 </r>
       <r>   29.7903    0.0000 </r>
       <r>   37.7342    0.0000 </r>
       <r>   39.3849    0.0000 </r>
       <r>   41.0122    0.0000 </r>
       <r>   44.4192    0.0000 </r>
       <r>   45.1508    0.0000 </r>
       <r>   47.5317    0.0000 </r>
       <r>   47.9688    0.0000 </r>
       <r>   50.2689    0.0000 </r>
       <r>   52.0478    0.0000 </r>
       <r>   54.7145    0.0000 </r>
       <r>   55.4485    0.0000 </r>
       <r>   56.2524    0.0000 </r>
       <r>   59.5079    0.0000 </r>
       <r>   59.7770    0.0000 </r>
       <r>   61.2458    0.0000 </r>
       <r>   64.5676    0.0000 </r>
       <r>   65.1805    0.0000 </r>
       <r>   66.2311    0.0000 </r>
       <r>   66.6163    0.0000 </r>
       <r>   67.3562    0.0000 </r>
       <r>   67.6173    0.0000 </r>
      </set>
      <set comment="kpoint 31">
       <r>    3.0764    1.0000 </r>
       <r>    3.4011    1.0000 </r>
       <r>    3.6894    1.0000 </r>
       <r>    3.8059    1.0000 </r>
       <r>    4.8726    1.0000 </r>
       <r>    5.1621    1.0000 </r>
       <r>    5.7542    1.0000 </r>
       <r>    6.9626    0.4649 </r>
       <r>    7.3580   -0.0075 </r>
       <r>    7.9127   -0.0000 </r>
       <r>   10.9518   -0.0000 </r>
       <r>   15.5963    0.0000 </r>
       <r>   16.5440    0.0000 </r>
       <r>   18.1771    0.0000 </r>
       <r>   20.0063    0.0000 </r>
       <r>   23.5119    0.0000 </r>
       <r>   23.5491    0.0000 </r>
       <r>   26.4951    0.0000 </r>
       <r>   27.2954    0.0000 </r>
       <r>   38.5529    0.0000 </r>
       <r>   41.4713    0.0000 </r>
       <r>   43.5639    0.0000 </r>
       <r>   43.9749    0.0000 </r>
       <r>   45.9245    0.0000 </r>
       <r>   46.1205    0.0000 </r>
       <r>   47.8511    0.0000 </r>
       <r>   49.6897    0.0000 </r>
       <r>   51.4158    0.0000 </r>
       <r>   51.7623    0.0000 </r>
       <r>   55.3489    0.0000 </r>
       <r>   56.2531    0.0000 </r>
       <r>   58.4331    0.0000 </r>
       <r>   59.4870    0.0000 </r>
       <r>   61.4263    0.0000 </r>
       <r>   64.7679    0.0000 </r>
       <r>   65.7200    0.0000 </r>
       <r>   65.7561    0.0000 </r>
       <r>   67.5008    0.0000 </r>
       <r>   67.7367    0.0000 </r>
       <r>   68.0309    0.0000 </r>
      </set>
      <set comment="kpoint 32">
       <r>    3.1066    1.0000 </r>
       <r>    3.5755    1.0000 </r>
       <r>    3.6277    1.0000 </r>
       <r>    4.0361    1.0000 </r>
       <r>    4.8624    1.0000 </r>
       <r>    4.9508    1.0000 </r>
       <r>    5.8942    1.0000 </r>
       <r>    7.2966   -0.0180 </r>
       <r>    7.3177   -0.0138 </r>
       <r>    7.6162   -0.0000 </r>
       <r>   12.7417    0.0000 </r>
       <r>   13.9352    0.0000 </r>
       <r>   16.1025    0.0000 </r>
       <r>   19.8413    0.0000 </r>
       <r>   20.0065    0.0000 </r>
       <r>   22.1854    0.0000 </r>
       <r>   23.5844    0.0000 </r>
       <r>   24.6708    0.0000 </r>
       <r>   26.7288    0.0000 </r>
       <r>   39.5082    0.0000 </r>
       <r>   41.8846    0.0000 </r>
       <r>   43.4752    0.0000 </r>
       <r>   44.4235    0.0000 </r>
       <r>   46.4267    0.0000 </r>
       <r>   47.1981    0.0000 </r>
       <r>   48.6719    0.0000 </r>
       <r>   50.2581    0.0000 </r>
       <r>   50.8354    0.0000 </r>
       <r>   51.5322    0.0000 </r>
       <r>   54.2385    0.0000 </r>
       <r>   55.7198    0.0000 </r>
       <r>   56.7303    0.0000 </r>
       <r>   59.8122    0.0000 </r>
       <r>   60.3171    0.0000 </r>
       <r>   65.3273    0.0000 </r>
       <r>   66.0621    0.0000 </r>
       <r>   67.2898    0.0000 </r>
       <r>   67.5481    0.0000 </r>
       <r>   68.0171    0.0000 </r>
       <r>   68.0471    0.0000 </r>
      </set>
      <set comment="kpoint 33">
       <r>   -1.6472    1.0000 </r>
       <r>    1.7952    1.0000 </r>
       <r>    4.7308    1.0000 </r>
       <r>    5.3418    1.0000 </r>
       <r>    5.3419    1.0000 </r>
       <r>    5.6133    1.0000 </r>
       <r>    5.6288    1.0000 </r>
       <r>    5.6289    1.0000 </r>
       <r>    6.7415    1.0306 </r>
       <r>    6.7415    1.0305 </r>
       <r>    7.6662   -0.0000 </r>
       <r>    7.6663   -0.0000 </r>
       <r>   15.8671    0.0000 </r>
       <r>   28.4905    0.0000 </r>
       <r>   30.6199    0.0000 </r>
       <r>   32.7314    0.0000 </r>
       <r>   35.6287    0.0000 </r>
       <r>   35.6287    0.0000 </r>
       <r>   36.2830    0.0000 </r>
       <r>   36.2832    0.0000 </r>
       <r>   38.8994    0.0000 </r>
[...]
       <r>   21.7047    0.0000 </r>
       <r>   22.4512    0.0000 </r>
       <r>   27.0290    0.0000 </r>
       <r>   28.1469    0.0000 </r>
       <r>   32.5696    0.0000 </r>
       <r>   33.6397    0.0000 </r>
       <r>   35.8524    0.0000 </r>
       <r>   37.3528    0.0000 </r>
       <r>   42.0763    0.0000 </r>
       <r>   42.4291    0.0000 </r>
       <r>   51.5875    0.0000 </r>
       <r>   52.2286    0.0000 </r>
       <r>   52.8059    0.0000 </r>
       <r>   54.4969    0.0000 </r>
       <r>   56.3297    0.0000 </r>
       <r>   56.9026    0.0000 </r>
       <r>   57.6851    0.0000 </r>
       <r>   59.1925    0.0000 </r>
       <r>   61.2688    0.0000 </r>
       <r>   61.6084    0.0000 </r>
       <r>   63.4190    0.0000 </r>
       <r>   63.6130    0.0000 </r>
       <r>   64.9472    0.0000 </r>
       <r>   65.1631    0.0000 </r>
       <r>   65.9520    0.0000 </r>
       <r>   66.4879    0.0000 </r>
      </set>
      <set comment="kpoint 95">
       <r>    3.0857    1.0000 </r>
       <r>    3.1343    1.0000 </r>
       <r>    4.0685    1.0000 </r>
       <r>    4.2891    1.0000 </r>
       <r>    4.6633    1.0000 </r>
       <r>    4.8741    1.0000 </r>
       <r>    6.0773    1.0000 </r>
       <r>    6.2796    1.0000 </r>
       <r>    7.7638   -0.0000 </r>
       <r>    7.9446   -0.0000 </r>
       <r>   11.8763   -0.0000 </r>
       <r>   12.4039   -0.0000 </r>
       <r>   18.0838    0.0000 </r>
       <r>   18.5096    0.0000 </r>
       <r>   19.8867    0.0000 </r>
       <r>   20.2801    0.0000 </r>
       <r>   27.1853    0.0000 </r>
       <r>   28.8095    0.0000 </r>
       <r>   32.6621    0.0000 </r>
       <r>   34.0616    0.0000 </r>
       <r>   35.6454    0.0000 </r>
       <r>   36.7532    0.0000 </r>
       <r>   44.2508    0.0000 </r>
       <r>   44.6531    0.0000 </r>
       <r>   48.5095    0.0000 </r>
       <r>   48.6160    0.0000 </r>
       <r>   55.3117    0.0000 </r>
       <r>   55.9657    0.0000 </r>
       <r>   56.3866    0.0000 </r>
       <r>   57.4619    0.0000 </r>
       <r>   58.9191    0.0000 </r>
       <r>   59.1096    0.0000 </r>
       <r>   59.8230    0.0000 </r>
       <r>   59.9727    0.0000 </r>
       <r>   62.3150    0.0000 </r>
       <r>   63.1383    0.0000 </r>
       <r>   64.8092    0.0000 </r>
       <r>   64.8645    0.0000 </r>
       <r>   65.7809    0.0000 </r>
       <r>   66.0062    0.0000 </r>
      </set>
      <set comment="kpoint 96">
       <r>    3.2884    1.0000 </r>
       <r>    3.4161    1.0000 </r>
       <r>    3.9953    1.0000 </r>
       <r>    4.0803    1.0000 </r>
       <r>    4.6815    1.0000 </r>
       <r>    4.8022    1.0000 </r>
       <r>    6.1388    1.0000 </r>
       <r>    6.2929    1.0000 </r>
       <r>    7.7390   -0.0000 </r>
       <r>    7.8054   -0.0000 </r>
       <r>   13.6925    0.0000 </r>
       <r>   13.8230    0.0000 </r>
       <r>   16.4182    0.0000 </r>
       <r>   16.7546    0.0000 </r>
       <r>   19.2406    0.0000 </r>
       <r>   19.6886    0.0000 </r>
       <r>   28.8699    0.0000 </r>
       <r>   29.6105    0.0000 </r>
       <r>   31.7661    0.0000 </r>
       <r>   32.0999    0.0000 </r>
       <r>   35.3882    0.0000 </r>
       <r>   36.2178    0.0000 </r>
       <r>   45.4314    0.0000 </r>
       <r>   46.0688    0.0000 </r>
       <r>   50.1079    0.0000 </r>
       <r>   50.5183    0.0000 </r>
       <r>   52.7914    0.0000 </r>
       <r>   53.1565    0.0000 </r>
       <r>   56.7266    0.0000 </r>
       <r>   57.9900    0.0000 </r>
       <r>   59.1342    0.0000 </r>
       <r>   60.0644    0.0000 </r>
       <r>   60.3574    0.0000 </r>
       <r>   60.8850    0.0000 </r>
       <r>   61.5001    0.0000 </r>
       <r>   62.6705    0.0000 </r>
       <r>   64.1876    0.0000 </r>
       <r>   65.0176    0.0000 </r>
       <r>   67.4373    0.0000 </r>
       <r>   67.5221    0.0000 </r>
      </set>
     </set>
    </set>
   </array>
  </eigenvalues>
  <separator name="orbital magnetization" >
   <v name="MAGDIPOLOUT">      0.00000000      0.00000000      0.00000000</v>
  </separator>
  <dos>
   <i name="efermi">      6.95427533 </i>
   <total>
    <array>
     <dimension dim="1">gridpoints</dimension>
     <dimension dim="2">spin</dimension>
     <field>energy</field>
     <field>total</field>
     <field>integrated</field>
     <set>
      <set comment="spin 1">
       <r>    -5.5203     0.0000     0.0000 </r>
       <r>    -5.2598     0.0000     0.0000 </r>
       <r>    -4.9994     0.0000     0.0000 </r>
       <r>    -4.7390     0.0000     0.0000 </r>
       <r>    -4.4785     0.0000     0.0000 </r>
       <r>    -4.2181     0.0000     0.0000 </r>
       <r>    -3.9577     0.0000     0.0000 </r>
       <r>    -3.6972    -0.0000    -0.0000 </r>
       <r>    -3.4368    -0.0000    -0.0000 </r>
       <r>    -3.1764    -0.0000    -0.0000 </r>
       <r>    -2.9159    -0.0000    -0.0000 </r>
       <r>    -2.6555    -0.0000    -0.0000 </r>
       <r>    -2.3951    -0.0000    -0.0000 </r>
       <r>    -2.1346    -0.0004    -0.0001 </r>
       <r>    -1.8742     0.0085     0.0021 </r>
       <r>    -1.6138     0.0555     0.0166 </r>
       <r>    -1.3533     0.0992     0.0424 </r>
       <r>    -1.0929     0.0601     0.0580 </r>
       <r>    -0.8324     0.1545     0.0983 </r>
       <r>    -0.5720     0.1767     0.1443 </r>
       <r>    -0.3116     0.1890     0.1935 </r>
       <r>    -0.0511     0.0808     0.2145 </r>
       <r>     0.2093     0.2597     0.2822 </r>
       <r>     0.4697     0.2931     0.3585 </r>
       <r>     0.7302     0.2935     0.4350 </r>
       <r>     0.9906     0.3037     0.5141 </r>
       <r>     1.2510     0.2047     0.5674 </r>
       <r>     1.5115     0.4843     0.6935 </r>
       <r>     1.7719     0.7071     0.8777 </r>
       <r>     2.0323     0.9731     1.1311 </r>
       <r>     2.2928     1.6401     1.5582 </r>
       <r>     2.5532     2.0881     2.1020 </r>
       <r>     2.8136     2.7478     2.8177 </r>
       <r>     3.0741     2.4070     3.4445 </r>
       <r>     3.3345     2.7448     4.1594 </r>
       <r>     3.5949     2.3507     4.7716 </r>
       <r>     3.8554     3.2632     5.6214 </r>
       <r>     4.1158     3.1903     6.4523 </r>
       <r>     4.3762     2.9181     7.2122 </r>
       <r>     4.6367     2.2035     7.7861 </r>
       <r>     4.8971     2.8840     8.5372 </r>
       <r>     5.1575     4.1278     9.6122 </r>
       <r>     5.4180     3.8221    10.6076 </r>
       <r>     5.6784     4.0555    11.6638 </r>
       <r>     5.9388     3.8244    12.6598 </r>
       <r>     6.1993     3.7785    13.6439 </r>
       <r>     6.4597     2.9637    14.4157 </r>
       <r>     6.7202     3.2797    15.2699 </r>
       <r>     6.9806     3.0679    16.0689 </r>
       <r>     7.2410     2.4959    16.7189 </r>
       <r>     7.5015     4.2095    17.8152 </r>
       <r>     7.7619     5.2202    19.1747 </r>
       <r>     8.0223     4.8058    20.4263 </r>
       <r>     8.2828     2.9433    21.1928 </r>
       <r>     8.5432     0.2260    21.2517 </r>
       <r>     8.8036     0.3306    21.3378 </r>
       <r>     9.0641     0.9351    21.5813 </r>
       <r>     9.3245     0.7829    21.7852 </r>
       <r>     9.5849     0.5190    21.9204 </r>
       <r>     9.8454     0.5975    22.0760 </r>
       <r>    10.1058     0.4637    22.1968 </r>
       <r>    10.3662     0.3425    22.2860 </r>
       <r>    10.6267     0.3219    22.3698 </r>
       <r>    10.8871     0.7531    22.5659 </r>
       <r>    11.1475     0.6400    22.7326 </r>
       <r>    11.4080     0.3503    22.8238 </r>
       <r>    11.6684     0.3436    22.9133 </r>
       <r>    11.9288     0.4891    23.0407 </r>
       <r>    12.1893     0.4991    23.1707 </r>
       <r>    12.4497     0.2832    23.2444 </r>
       <r>    12.7101     0.2733    23.3156 </r>
       <r>    12.9706     0.3425    23.4048 </r>
       <r>    13.2310     0.4264    23.5158 </r>
       <r>    13.4914     0.3014    23.5943 </r>
       <r>    13.7519     0.3713    23.6910 </r>
       <r>    14.0123     0.5840    23.8431 </r>
       <r>    14.2727     0.1699    23.8874 </r>
       <r>    14.5332     0.1529    23.9272 </r>
       <r>    14.7936     0.2534    23.9932 </r>
       <r>    15.0541     0.2648    24.0622 </r>
       <r>    15.3145     0.1658    24.1054 </r>
       <r>    15.5749     0.1768    24.1514 </r>
       <r>    15.8354     0.1655    24.1945 </r>
       <r>    16.0958     0.2482    24.2591 </r>
       <r>    16.3562     0.6150    24.4193 </r>
       <r>    16.6167     0.5753    24.5692 </r>
       <r>    16.8771     0.9357    24.8128 </r>
       <r>    17.1375     0.8340    25.0300 </r>
       <r>    17.3980     0.6618    25.2024 </r>
       <r>    17.6584     0.4469    25.3188 </r>
       <r>    17.9188     0.7144    25.5048 </r>
       <r>    18.1793     0.6390    25.6712 </r>
       <r>    18.4397     0.6846    25.8495 </r>
       <r>    18.7001     1.0189    26.1149 </r>
       <r>    18.9606     0.4465    26.2312 </r>
       <r>    19.2210     0.7412    26.4242 </r>
       <r>    19.4814     0.6933    26.6048 </r>
       <r>    19.7419     0.8338    26.8219 </r>
       <r>    20.0023     0.6624    26.9944 </r>
       <r>    20.2627     0.4771    27.1187 </r>
       <r>    20.5232     0.8023    27.3276 </r>
       <r>    20.7836     0.6162    27.4881 </r>
       <r>    21.0440     0.5061    27.6199 </r>
       <r>    21.3045     0.4740    27.7433 </r>
       <r>    21.5649     0.6256    27.9063 </r>
       <r>    21.8253     0.5641    28.0532 </r>
       <r>    22.0858     0.5701    28.2016 </r>
       <r>    22.3462     0.7868    28.4066 </r>
       <r>    22.6067     0.5951    28.5615 </r>
       <r>    22.8671     0.6290    28.7254 </r>
       <r>    23.1275     0.6948    28.9063 </r>
       <r>    23.3880     0.8329    29.1232 </r>
       <r>    23.6484     1.1097    29.4123 </r>
       <r>    23.9088     0.7848    29.6166 </r>
       <r>    24.1693     0.9568    29.8658 </r>
       <r>    24.4297     0.9018    30.1007 </r>
       <r>    24.6901     0.6059    30.2585 </r>
       <r>    24.9506     0.9233    30.4989 </r>
       <r>    25.2110     0.6645    30.6720 </r>
       <r>    25.4714     0.7773    30.8744 </r>
       <r>    25.7319     1.4596    31.2546 </r>
       <r>    25.9923     1.2004    31.5672 </r>
       <r>    26.2527     0.6572    31.7384 </r>
       <r>    26.5132     0.7487    31.9333 </r>
       <r>    26.7736     0.9153    32.1717 </r>
       <r>    27.0340     0.6903    32.3515 </r>
       <r>    27.2945     1.4672    32.7336 </r>
       <r>    27.5549     0.7826    32.9374 </r>
       <r>    27.8153     0.5249    33.0741 </r>
       <r>    28.0758     1.0171    33.3390 </r>
       <r>    28.3362     0.7368    33.5309 </r>
       <r>    28.5966     0.9579    33.7804 </r>
       <r>    28.8571     1.0998    34.0668 </r>
       <r>    29.1175     0.6350    34.2322 </r>
       <r>    29.3779     0.3507    34.3235 </r>
       <r>    29.6384     0.7919    34.5298 </r>
       <r>    29.8988     0.9522    34.7778 </r>
       <r>    30.1593     0.5648    34.9249 </r>
       <r>    30.4197     0.6502    35.0942 </r>
       <r>    30.6801     0.7125    35.2797 </r>
       <r>    30.9406     0.8863    35.5105 </r>
       <r>    31.2010     0.7804    35.7138 </r>
       <r>    31.4614     0.6161    35.8742 </r>
       <r>    31.7219     0.6562    36.0451 </r>
       <r>    31.9823     0.6263    36.2082 </r>
       <r>    32.2427     1.1761    36.5145 </r>
       <r>    32.5032     0.6862    36.6932 </r>
       <r>    32.7636     0.8853    36.9238 </r>
       <r>    33.0240     0.7940    37.1306 </r>
       <r>    33.2845     0.6953    37.3116 </r>
       <r>    33.5449     0.5685    37.4597 </r>
       <r>    33.8053     1.0339    37.7290 </r>
       <r>    34.0658     0.9415    37.9742 </r>
       <r>    34.3262     1.0231    38.2406 </r>
       <r>    34.5866     0.7776    38.4432 </r>
       <r>    34.8471     0.8506    38.6647 </r>
       <r>    35.1075     1.1382    38.9611 </r>
       <r>    35.3679     0.9124    39.1987 </r>
       <r>    35.6284     0.7441    39.3925 </r>
       <r>    35.8888     1.3628    39.7474 </r>
       <r>    36.1492     1.0685    40.0257 </r>
       <r>    36.4097     1.0361    40.2955 </r>
       <r>    36.6701     0.6367    40.4614 </r>
       <r>    36.9305     0.9265    40.7027 </r>
       <r>    37.1910     0.8739    40.9303 </r>
       <r>    37.4514     0.5734    41.0796 </r>
       <r>    37.7119     0.8339    41.2968 </r>
       <r>    37.9723     0.6884    41.4761 </r>
       <r>    38.2327     0.5817    41.6276 </r>
       <r>    38.4932     0.9833    41.8837 </r>
       <r>    38.7536     0.8418    42.1029 </r>
       <r>    39.0140     0.8013    42.3116 </r>
       <r>    39.2745     0.7907    42.5175 </r>
       <r>    39.5349     1.3076    42.8581 </r>
       <r>    39.7953     0.9536    43.1064 </r>
       <r>    40.0558     0.7884    43.3117 </r>
       <r>    40.3162     0.8375    43.5299 </r>
       <r>    40.5766     0.9143    43.7680 </r>
       <r>    40.8371     0.6080    43.9263 </r>
       <r>    41.0975     0.6071    44.0844 </r>
       <r>    41.3579     0.8663    44.3100 </r>
       <r>    41.6184     1.2296    44.6303 </r>
       <r>    41.8788     0.9827    44.8862 </r>
       <r>    42.1392     1.3605    45.2405 </r>
       <r>    42.3997     1.0078    45.5030 </r>
       <r>    42.6601     0.9278    45.7446 </r>
       <r>    42.9205     0.6665    45.9182 </r>
       <r>    43.1810     1.2530    46.2445 </r>
       <r>    43.4414     0.6451    46.4125 </r>
       <r>    43.7018     1.3743    46.7705 </r>
       <r>    43.9623     1.4850    47.1572 </r>
       <r>    44.2227     1.0777    47.4379 </r>
       <r>    44.4831     0.8439    47.6577 </r>
       <r>    44.7436     1.2398    47.9806 </r>
       <r>    45.0040     1.3357    48.3284 </r>
       <r>    45.2645     0.7872    48.5334 </r>
       <r>    45.5249     0.9564    48.7825 </r>
       <r>    45.7853     0.7100    48.9674 </r>
       <r>    46.0458     0.9281    49.2091 </r>
       <r>    46.3062     0.6319    49.3737 </r>
       <r>    46.5666     0.6440    49.5414 </r>
       <r>    46.8271     0.7591    49.7391 </r>
       <r>    47.0875     0.7941    49.9459 </r>
       <r>    47.3479     1.1206    50.2378 </r>
       <r>    47.6084     1.3775    50.5965 </r>
       <r>    47.8688     0.9168    50.8353 </r>
       <r>    48.1292     1.1620    51.1379 </r>
       <r>    48.3897     0.8845    51.3683 </r>
       <r>    48.6501     0.8483    51.5892 </r>
       <r>    48.9105     1.5430    51.9911 </r>
       <r>    49.1710     1.2292    52.3112 </r>
       <r>    49.4314     0.9605    52.5613 </r>
       <r>    49.6918     0.6377    52.7274 </r>
       <r>    49.9523     0.5258    52.8643 </r>
       <r>    50.2127     1.1727    53.1697 </r>
       <r>    50.4731     1.6642    53.6032 </r>
       <r>    50.7336     1.4734    53.9869 </r>
       <r>    50.9940     1.2672    54.3169 </r>
       <r>    51.2544     0.9653    54.5683 </r>
       <r>    51.5149     1.2426    54.8919 </r>
       <r>    51.7753     0.7978    55.0997 </r>
       <r>    52.0357     1.1053    55.3875 </r>
       <r>    52.2962     1.0828    55.6696 </r>
       <r>    52.5566     1.1881    55.9790 </r>
       <r>    52.8171     1.0109    56.2423 </r>
       <r>    53.0775     0.8331    56.4592 </r>
       <r>    53.3379     1.4339    56.8327 </r>
       <r>    53.5984     1.4174    57.2018 </r>
       <r>    53.8588     1.2297    57.5221 </r>
       <r>    54.1192     0.8716    57.7491 </r>
       <r>    54.3797     1.1544    58.0497 </r>
       <r>    54.6401     1.5000    58.4404 </r>
       <r>    54.9005     1.2624    58.7691 </r>
       <r>    55.1610     1.1105    59.0583 </r>
       <r>    55.4214     1.2047    59.3721 </r>
       <r>    55.6818     1.4429    59.7479 </r>
       <r>    55.9423     0.9954    60.0071 </r>
       <r>    56.2027     1.2122    60.3228 </r>
       <r>    56.4631     1.4518    60.7009 </r>
       <r>    56.7236     1.7228    61.1496 </r>
       <r>    56.9840     2.4043    61.7757 </r>
       <r>    57.2444     1.3463    62.1264 </r>
       <r>    57.5049     0.8095    62.3372 </r>
       <r>    57.7653     1.5393    62.7381 </r>
       <r>    58.0257     1.5052    63.1301 </r>
       <r>    58.2862     1.5114    63.5237 </r>
       <r>    58.5466     2.1020    64.0711 </r>
       <r>    58.8070     1.4978    64.4612 </r>
       <r>    59.0675     1.5115    64.8548 </r>
       <r>    59.3279     2.0060    65.3773 </r>
       <r>    59.5883     2.1563    65.9389 </r>
       <r>    59.8488     2.0612    66.4757 </r>
       <r>    60.1092     1.3880    66.8372 </r>
       <r>    60.3696     1.5154    67.2318 </r>
       <r>    60.6301     1.8402    67.7111 </r>
       <r>    60.8905     0.6304    67.8753 </r>
       <r>    61.1510     1.5539    68.2799 </r>
       <r>    61.4114     1.3260    68.6253 </r>
       <r>    61.6718     1.3461    68.9758 </r>
       <r>    61.9323     2.0586    69.5119 </r>
       <r>    62.1927     1.7930    69.9789 </r>
       <r>    62.4531     1.9209    70.4792 </r>
       <r>    62.7136     1.6420    70.9068 </r>
       <r>    62.9740     1.4203    71.2767 </r>
       <r>    63.2344     1.8198    71.7506 </r>
       <r>    63.4949     1.7384    72.2034 </r>
       <r>    63.7553     1.6898    72.6435 </r>
       <r>    64.0157     1.3886    73.0051 </r>
       <r>    64.2762     1.3582    73.3588 </r>
       <r>    64.5366     1.3541    73.7115 </r>
       <r>    64.7970     2.1632    74.2748 </r>
       <r>    65.0575     2.3837    74.8956 </r>
       <r>    65.3179     2.1559    75.4571 </r>
       <r>    65.5783     1.8050    75.9272 </r>
       <r>    65.8388     2.0127    76.4514 </r>
       <r>    66.0992     1.6743    76.8874 </r>
       <r>    66.3596     1.6037    77.3051 </r>
       <r>    66.6201     2.0394    77.8362 </r>
       <r>    66.8805     1.4297    78.2085 </r>
       <r>    67.1409     1.2854    78.5433 </r>
       <r>    67.4014     1.7529    78.9998 </r>
       <r>    67.6618     1.7865    79.4651 </r>
       <r>    67.9222     1.0146    79.7293 </r>
       <r>    68.1827     0.7022    79.9122 </r>
       <r>    68.4431     0.2226    79.9701 </r>
       <r>    68.7036     0.0480    79.9826 </r>
       <r>    68.9640     0.0076    79.9846 </r>
       <r>    69.2244     0.0589    79.9999 </r>
       <r>    69.4849     0.0006    80.0001 </r>
       <r>    69.7453    -0.0004    80.0000 </r>
       <r>    70.0057    -0.0000    80.0000 </r>
       <r>    70.2662    -0.0000    80.0000 </r>
       <r>    70.5266    -0.0000    80.0000 </r>
       <r>    70.7870     0.0000    80.0000 </r>
       <r>    71.0475     0.0000    80.0000 </r>
       <r>    71.3079     0.0000    80.0000 </r>
       <r>    71.5683     0.0000    80.0000 </r>
       <r>    71.8288     0.0000    80.0000 </r>
       <r>    72.0892     0.0000    80.0000 </r>
       <r>    72.3496     0.0000    80.0000 </r>
       <r>    72.6101     0.0000    80.0000 </r>
      </set>
     </set>
    </array>
   </total>
  </dos>
 </calculation>
 <structure name="finalpos" >
  <crystal>
   <varray name="basis" >
    <v>       2.37660000       0.00000000       0.00000000 </v>
    <v>      -1.18830000       2.05819597       0.00000000 </v>
    <v>       0.00000000       0.00000000       4.14018000 </v>
   </varray>
   <i name="volume">     20.25172588 </i>
   <varray name="rec_basis" >
    <v>       0.42076917       0.24293119       0.00000000 </v>
    <v>       0.00000000       0.48586238       0.00000000 </v>
    <v>       0.00000000       0.00000000       0.24153539 </v>
   </varray>
  </crystal>
  <varray name="positions" >
   <v>       0.00000000       0.00000000       0.00000000 </v>
   <v>       0.33333333       0.66666667       0.50000000 </v>
  </varray>
 </structure>
</modeling>
