   2   2   0   0
  0.1002956E+02  0.2353300E-09  0.2353300E-09  0.4182410E-09  0.5000000E-15
  1.000000000000000E-004
  CAR 
 unknown system                          
     72.98022830     -5.47551571  301      7.07822927      1.00000000
     -5.476  0.0000E+00  0.0000E+00
     -5.214  0.0000E+00  0.0000E+00
     -4.952  0.0000E+00  0.0000E+00
     -4.691  0.0000E+00  0.0000E+00
     -4.429  0.0000E+00  0.0000E+00
     -4.168  0.0000E+00  0.0000E+00
     -3.906  0.0000E+00  0.0000E+00
     -3.645 -0.2790E-34 -0.7297E-35
     -3.383 -0.3086E-25 -0.8070E-26
     -3.122 -0.1088E-17 -0.2846E-18
     -2.860 -0.1166E-11 -0.3050E-12
     -2.599 -0.3986E-07 -0.1042E-07
     -2.337 -0.3974E-04 -0.1040E-04
     -2.076 -0.4234E-03 -0.1211E-03
     -1.814  0.8658E-02  0.2143E-02
     -1.553  0.5348E-01  0.1613E-01
     -1.291  0.1016E+00  0.4270E-01
     -1.030  0.5750E-01  0.5774E-01
     -0.768  0.1510E+00  0.9723E-01
     -0.507  0.1751E+00  0.1430E+00
     -0.245  0.1949E+00  0.1940E+00
      0.016  0.8163E-01  0.2154E+00
      0.278  0.2394E+00  0.2779E+00
      0.539  0.2980E+00  0.3559E+00
      0.801  0.3007E+00  0.4345E+00
      1.062  0.3056E+00  0.5145E+00
      1.324  0.2238E+00  0.5730E+00
      1.586  0.4192E+00  0.6826E+00
      1.847  0.7447E+00  0.8774E+00
      2.109  0.1073E+01  0.1158E+01
      2.370  0.1673E+01  0.1596E+01
      2.632  0.2115E+01  0.2149E+01
      2.893  0.2761E+01  0.2871E+01
      3.155  0.2417E+01  0.3503E+01
      3.416  0.2640E+01  0.4193E+01
      3.678  0.2475E+01  0.4840E+01
      3.939  0.3227E+01  0.5684E+01
      4.201  0.3178E+01  0.6516E+01
      4.462  0.2844E+01  0.7259E+01
      4.724  0.2286E+01  0.7857E+01
      4.985  0.2794E+01  0.8588E+01
      5.247  0.4087E+01  0.9657E+01
      5.508  0.3668E+01  0.1062E+02
      5.770  0.3836E+01  0.1162E+02
      6.031  0.3394E+01  0.1251E+02
      6.293  0.3708E+01  0.1348E+02
      6.554  0.3158E+01  0.1430E+02
      6.816  0.3353E+01  0.1518E+02
      7.077  0.3130E+01  0.1600E+02
      7.339  0.2704E+01  0.1670E+02
      7.600  0.4050E+01  0.1776E+02
      7.862  0.5004E+01  0.1907E+02
      8.123  0.4390E+01  0.2022E+02
      8.385  0.3453E+01  0.2112E+02
      8.647  0.4976E+00  0.2125E+02
      8.908  0.3429E+00  0.2134E+02
      9.170  0.6547E+00  0.2151E+02
      9.431  0.7673E+00  0.2172E+02
      9.693  0.7539E+00  0.2191E+02
      9.954  0.5597E+00  0.2206E+02
     10.216  0.4458E+00  0.2218E+02
     10.477  0.3603E+00  0.2227E+02
     10.739  0.4072E+00  0.2238E+02
     11.000  0.4668E+00  0.2250E+02
     11.262  0.6648E+00  0.2267E+02
     11.523  0.4945E+00  0.2280E+02
     11.785  0.3810E+00  0.2290E+02
     12.046  0.4688E+00  0.2302E+02
     12.308  0.5335E+00  0.2316E+02
     12.569  0.1657E+00  0.2321E+02
     12.831  0.3441E+00  0.2330E+02
     13.092  0.3253E+00  0.2338E+02
     13.354  0.4614E+00  0.2350E+02
     13.615  0.2570E+00  0.2357E+02
     13.877  0.2771E+00  0.2364E+02
     14.138  0.4581E+00  0.2376E+02
     14.400  0.4994E+00  0.2389E+02
     14.661  0.2457E+00  0.2396E+02
     14.923  0.2561E+00  0.2402E+02
     15.184  0.2742E+00  0.2410E+02
     15.446  0.1380E+00  0.2413E+02
     15.708  0.1121E+00  0.2416E+02
     15.969  0.1772E+00  0.2421E+02
     16.231  0.3085E+00  0.2429E+02
     16.492  0.4115E+00  0.2440E+02
     16.754  0.4250E+00  0.2451E+02
     17.015  0.8107E+00  0.2472E+02
     17.277  0.9529E+00  0.2497E+02
     17.538  0.7226E+00  0.2516E+02
     17.800  0.6896E+00  0.2534E+02
     18.061  0.5332E+00  0.2548E+02
     18.323  0.4996E+00  0.2561E+02
     18.584  0.7574E+00  0.2581E+02
     18.846  0.8409E+00  0.2603E+02
     19.107  0.6987E+00  0.2621E+02
     19.369  0.6653E+00  0.2638E+02
     19.630  0.9113E+00  0.2662E+02
     19.892  0.3371E+00  0.2671E+02
     20.153  0.7655E+00  0.2691E+02
     20.415  0.6937E+00  0.2709E+02
     20.676  0.6304E+00  0.2725E+02
     20.938  0.6568E+00  0.2743E+02
     21.199  0.4448E+00  0.2754E+02
     21.461  0.7244E+00  0.2773E+02
     21.722  0.4373E+00  0.2785E+02
     21.984  0.4833E+00  0.2797E+02
     22.246  0.8886E+00  0.2821E+02
     22.507  0.4854E+00  0.2833E+02
     22.769  0.7276E+00  0.2852E+02
     23.030  0.6914E+00  0.2870E+02
     23.292  0.5357E+00  0.2884E+02
     23.553  0.6192E+00  0.2901E+02
     23.815  0.1251E+01  0.2933E+02
     24.076  0.1084E+01  0.2962E+02
     24.338  0.5798E+00  0.2977E+02
     24.599  0.9671E+00  0.3002E+02
     24.861  0.8564E+00  0.3024E+02
     25.122  0.4956E+00  0.3037E+02
     25.384  0.9873E+00  0.3063E+02
     25.645  0.9972E+00  0.3089E+02
     25.907  0.1126E+01  0.3119E+02
     26.168  0.8769E+00  0.3142E+02
     26.430  0.7530E+00  0.3161E+02
     26.691  0.1088E+01  0.3190E+02
     26.953  0.9924E+00  0.3216E+02
     27.214  0.1206E+01  0.3247E+02
     27.476  0.7461E+00  0.3267E+02
     27.737  0.6289E+00  0.3283E+02
     27.999  0.8125E+00  0.3305E+02
     28.260  0.9394E+00  0.3329E+02
     28.522  0.8060E+00  0.3350E+02
     28.783  0.8056E+00  0.3371E+02
     29.045  0.1011E+01  0.3398E+02
     29.307  0.8113E+00  0.3419E+02
     29.568  0.5878E+00  0.3434E+02
     29.830  0.6832E+00  0.3452E+02
     30.091  0.7273E+00  0.3471E+02
     30.353  0.5421E+00  0.3485E+02
     30.614  0.5354E+00  0.3499E+02
     30.876  0.8102E+00  0.3521E+02
     31.137  0.9233E+00  0.3545E+02
     31.399  0.6773E+00  0.3562E+02
     31.660  0.7659E+00  0.3582E+02
     31.922  0.6073E+00  0.3598E+02
     32.183  0.7304E+00  0.3617E+02
     32.445  0.8972E+00  0.3641E+02
     32.706  0.9363E+00  0.3665E+02
     32.968  0.7486E+00  0.3685E+02
     33.229  0.7025E+00  0.3703E+02
     33.491  0.7503E+00  0.3723E+02
     33.752  0.6615E+00  0.3740E+02
     34.014  0.7442E+00  0.3760E+02
     34.275  0.9555E+00  0.3785E+02
     34.537  0.1182E+01  0.3816E+02
     34.798  0.5680E+00  0.3831E+02
     35.060  0.1135E+01  0.3860E+02
     35.321  0.8941E+00  0.3884E+02
     35.583  0.1104E+01  0.3912E+02
     35.845  0.7513E+00  0.3932E+02
     36.106  0.9217E+00  0.3956E+02
     36.368  0.1495E+01  0.3995E+02
     36.629  0.1037E+01  0.4022E+02
     36.891  0.9426E+00  0.4047E+02
     37.152  0.1002E+01  0.4073E+02
     37.414  0.7513E+00  0.4093E+02
     37.675  0.8590E+00  0.4115E+02
     37.937  0.6146E+00  0.4131E+02
     38.198  0.6555E+00  0.4149E+02
     38.460  0.5296E+00  0.4162E+02
     38.721  0.9359E+00  0.4187E+02
     38.983  0.7033E+00  0.4205E+02
     39.244  0.5813E+00  0.4221E+02
     39.506  0.8019E+00  0.4241E+02
     39.767  0.1321E+01  0.4276E+02
     40.029  0.1077E+01  0.4304E+02
     40.290  0.6673E+00  0.4322E+02
     40.552  0.8268E+00  0.4343E+02
     40.813  0.8288E+00  0.4365E+02
     41.075  0.5435E+00  0.4379E+02
     41.336  0.1092E+01  0.4408E+02
     41.598  0.6272E+00  0.4424E+02
     41.859  0.9553E+00  0.4449E+02
     42.121  0.1222E+01  0.4481E+02
     42.382  0.1297E+01  0.4515E+02
     42.644  0.7614E+00  0.4535E+02
     42.906  0.1171E+01  0.4565E+02
     43.167  0.1029E+01  0.4592E+02
     43.429  0.6455E+00  0.4609E+02
     43.690  0.1180E+01  0.4640E+02
     43.952  0.1145E+01  0.4670E+02
     44.213  0.1127E+01  0.4700E+02
     44.475  0.1339E+01  0.4735E+02
     44.736  0.9630E+00  0.4760E+02
     44.998  0.1091E+01  0.4788E+02
     45.259  0.1100E+01  0.4817E+02
     45.521  0.1002E+01  0.4843E+02
     45.782  0.8251E+00  0.4865E+02
     46.044  0.8624E+00  0.4887E+02
     46.305  0.1114E+01  0.4917E+02
     46.567  0.7360E+00  0.4936E+02
     46.828  0.4801E+00  0.4948E+02
     47.090  0.6884E+00  0.4966E+02
     47.351  0.1209E+01  0.4998E+02
     47.613  0.1240E+01  0.5030E+02
     47.874  0.9899E+00  0.5056E+02
     48.136  0.9674E+00  0.5082E+02
     48.397  0.8189E+00  0.5103E+02
     48.659  0.1069E+01  0.5131E+02
     48.920  0.1053E+01  0.5158E+02
     49.182  0.9186E+00  0.5182E+02
     49.444  0.1207E+01  0.5214E+02
     49.705  0.1061E+01  0.5242E+02
     49.967  0.9746E+00  0.5267E+02
     50.228  0.4466E+00  0.5279E+02
     50.490  0.1127E+01  0.5308E+02
     50.751  0.1678E+01  0.5352E+02
     51.013  0.1618E+01  0.5395E+02
     51.274  0.9708E+00  0.5420E+02
     51.536  0.1214E+01  0.5452E+02
     51.797  0.1307E+01  0.5486E+02
     52.059  0.7240E+00  0.5505E+02
     52.320  0.9242E+00  0.5529E+02
     52.582  0.1416E+01  0.5566E+02
     52.843  0.1047E+01  0.5593E+02
     53.105  0.7301E+00  0.5613E+02
     53.366  0.9306E+00  0.5637E+02
     53.628  0.1107E+01  0.5666E+02
     53.889  0.1449E+01  0.5704E+02
     54.151  0.1281E+01  0.5737E+02
     54.412  0.1239E+01  0.5770E+02
     54.674  0.1172E+01  0.5800E+02
     54.935  0.1180E+01  0.5831E+02
     55.197  0.1351E+01  0.5866E+02
     55.458  0.1501E+01  0.5906E+02
     55.720  0.1451E+01  0.5944E+02
     55.981  0.1006E+01  0.5970E+02
     56.243  0.1118E+01  0.5999E+02
     56.505  0.7569E+00  0.6019E+02
     56.766  0.1152E+01  0.6049E+02
     57.028  0.1744E+01  0.6095E+02
     57.289  0.2465E+01  0.6159E+02
     57.551  0.1857E+01  0.6208E+02
     57.812  0.1126E+01  0.6237E+02
     58.074  0.1086E+01  0.6266E+02
     58.335  0.1224E+01  0.6298E+02
     58.597  0.1828E+01  0.6345E+02
     58.858  0.1798E+01  0.6392E+02
     59.120  0.1757E+01  0.6438E+02
     59.381  0.1479E+01  0.6477E+02
     59.643  0.1935E+01  0.6528E+02
     59.904  0.1861E+01  0.6576E+02
     60.166  0.2037E+01  0.6630E+02
     60.427  0.1824E+01  0.6677E+02
     60.689  0.1603E+01  0.6719E+02
     60.950  0.1675E+01  0.6763E+02
     61.212  0.1421E+01  0.6800E+02
     61.473  0.1261E+01  0.6833E+02
     61.735  0.1363E+01  0.6869E+02
     61.996  0.1296E+01  0.6903E+02
     62.258  0.2129E+01  0.6958E+02
     62.519  0.2336E+01  0.7020E+02
     62.781  0.1142E+01  0.7049E+02
     63.043  0.1829E+01  0.7097E+02
     63.304  0.1590E+01  0.7139E+02
     63.566  0.1725E+01  0.7184E+02
     63.827  0.1603E+01  0.7226E+02
     64.089  0.1546E+01  0.7266E+02
     64.350  0.1130E+01  0.7296E+02
     64.612  0.1697E+01  0.7340E+02
     64.873  0.1404E+01  0.7377E+02
     65.135  0.2174E+01  0.7434E+02
     65.396  0.2146E+01  0.7490E+02
     65.658  0.2299E+01  0.7550E+02
     65.919  0.2004E+01  0.7602E+02
     66.181  0.1385E+01  0.7639E+02
     66.442  0.1496E+01  0.7678E+02
     66.704  0.2072E+01  0.7732E+02
     66.965  0.1781E+01  0.7779E+02
     67.227  0.1581E+01  0.7820E+02
     67.488  0.1366E+01  0.7856E+02
     67.750  0.1644E+01  0.7899E+02
     68.011  0.1531E+01  0.7939E+02
     68.273  0.1144E+01  0.7969E+02
     68.534  0.6840E+00  0.7986E+02
     68.796  0.3179E+00  0.7995E+02
     69.057  0.1331E+00  0.7998E+02
     69.319  0.9374E-02  0.7998E+02
     69.580  0.5817E-01  0.8000E+02
     69.842  0.4920E-03  0.8000E+02
     70.104 -0.3416E-03  0.8000E+02
     70.365 -0.4252E-06  0.8000E+02
     70.627 -0.1342E-10  0.8000E+02
     70.888 -0.1531E-16  0.8000E+02
     71.150  0.0000E+00  0.8000E+02
     71.411  0.0000E+00  0.8000E+02
     71.673  0.0000E+00  0.8000E+02
     71.934  0.0000E+00  0.8000E+02
     72.196  0.0000E+00  0.8000E+02
     72.457  0.0000E+00  0.8000E+02
     72.719  0.0000E+00  0.8000E+02
     72.980  0.0000E+00  0.8000E+02
