    2    2    1    1
  0.1002956E+02  0.2353300E-09  0.2353300E-09  0.4182410E-09  0.5000000E-15
  1.000000000000000E-004
  CAR 
 unknown system                          
     16     96     40
 
  0.0000000E+00  0.0000000E+00  0.0000000E+00  0.7513148E-03
    1       -1.909346   1.000000
    2        1.970360   1.000000
    3        4.773735   1.000000
    4        5.475598   1.000000
    5        5.475694   1.000000
    6        5.776113   1.000000
    7        5.776228   1.000000
    8        6.262876   1.000000
    9        6.796377   1.031429
   10        6.796403   1.031433
   11        7.846079  -0.000000
   12        7.846106  -0.000000
   13       14.378152   0.000000
   14       30.436649   0.000000
   15       30.766832   0.000000
   16       33.723217   0.000000
   17       36.189968   0.000000
   18       36.190027   0.000000
   19       37.008020   0.000000
   20       37.008184   0.000000
   21       37.230324   0.000000
   22       39.725363   0.000000
   23       39.725386   0.000000
   24       40.731057   0.000000
   25       43.330629   0.000000
   26       43.330638   0.000000
   27       43.939432   0.000000
   28       47.196648   0.000000
   29       47.197028   0.000000
   30       49.072646   0.000000
   31       49.072768   0.000000
   32       51.416221   0.000000
   33       59.092380   0.000000
   34       61.925540   0.000000
   35       61.926394   0.000000
   36       62.230405   0.000000
   37       62.988904   0.000000
   38       64.128992   0.000000
   39       64.129997   0.000000
   40       65.015868   0.000000
 
  0.9090909E-01  0.7900541E-17  0.0000000E+00  0.4507889E-02
    1       -1.572860   1.000000
    2        2.224770   1.000000
    3        4.802094   1.000000
    4        5.396526   1.000000
    5        5.447628   1.000000
    6        5.657360   1.000000
    7        5.670427   1.000000
    8        5.959588   1.000000
    9        6.634797   1.003727
   10        6.681971   1.008489
   11        7.872975  -0.000000
   12        8.928636  -0.000000
   13       14.399767   0.000000
   14       29.497593   0.000000
   15       30.810965   0.000000
   16       32.093844   0.000000
   17       33.357762   0.000000
   18       35.612056   0.000000
   19       35.665129   0.000000
   20       37.075583   0.000000
   21       39.085627   0.000000
   22       39.854892   0.000000
   23       39.940323   0.000000
   24       40.629004   0.000000
   25       44.533688   0.000000
   26       44.544531   0.000000
   27       44.829650   0.000000
   28       44.946723   0.000000
   29       48.414959   0.000000
   30       50.374712   0.000000
   31       51.461763   0.000000
   32       53.395388   0.000000
   33       58.371449   0.000000
   34       60.517825   0.000000
   35       60.643533   0.000000
   36       61.332857   0.000000
   37       61.694306   0.000000
   38       64.935788   0.000000
   39       65.039584   0.000000
   40       65.851959   0.000000
 
  0.1818182E+00  0.8996804E-17  0.0000000E+00  0.4507889E-02
    1       -0.621125   1.000000
    2        2.825595   1.000000
    3        4.396008   1.000000
    4        4.652355   1.000000
    5        5.196152   1.000000
    6        5.766249   1.000000
    7        6.224253   1.000000
    8        6.255140   1.000000
    9        6.414470   1.000014
   10        6.473007   1.000081
   11        7.922537  -0.000000
   12       10.750432  -0.000000
   13       14.506308   0.000000
   14       25.725212   0.000000
   15       30.513584   0.000000
   16       30.830237   0.000000
   17       31.074672   0.000000
   18       31.950362   0.000000
   19       36.012085   0.000000
   20       36.910251   0.000000
   21       37.384129   0.000000
   22       38.155595   0.000000
   23       40.897162   0.000000
   24       41.680906   0.000000
   25       44.606875   0.000000
   26       45.770366   0.000000
   27       47.241131   0.000000
   28       49.444895   0.000000
   29       51.212903   0.000000
   30       53.772008   0.000000
   31       54.343931   0.000000
   32       56.791593   0.000000
   33       57.099632   0.000000
   34       57.557174   0.000000
   35       58.948206   0.000000
   36       60.417259   0.000000
   37       62.106728   0.000000
   38       64.801507   0.000000
   39       66.177747   0.000000
   40       66.243937   0.000000
 
  0.2727273E+00  0.7506940E-17  0.0000000E+00  0.4507889E-02
    1        0.727897   1.000000
    2        3.115174   1.000000
    3        3.580680   1.000000
    4        4.621021   1.000000
    5        5.009780   1.000000
    6        5.779939   1.000000
    7        6.109990   1.000000
    8        6.526491   1.000338
    9        7.007019   0.781186
   10        7.187718   0.104965
   11        7.947202  -0.000000
   12       12.822354   0.000000
   13       14.745870   0.000000
   14       21.681116   0.000000
   15       27.437675   0.000000
   16       28.064884   0.000000
   17       29.112016   0.000000
   18       31.997044   0.000000
   19       34.176783   0.000000
   20       37.023652   0.000000
   21       37.456766   0.000000
   22       37.774185   0.000000
   23       38.426789   0.000000
   24       41.958344   0.000000
   25       48.249653   0.000000
   26       49.662945   0.000000
   27       50.775119   0.000000
   28       51.814497   0.000000
   29       52.602045   0.000000
   30       54.179314   0.000000
   31       55.532702   0.000000
   32       56.991541   0.000000
   33       58.731861   0.000000
   34       58.812761   0.000000
   35       59.875335   0.000000
   36       61.734733   0.000000
   37       63.226253   0.000000
   38       64.623604   0.000000
   39       66.540182   0.000000
   40       66.594923   0.000000
 
  0.3636364E+00  0.6152823E-16  0.0000000E+00  0.4507889E-02
    1        1.930626   1.000000
    2        2.844347   1.000000
    3        3.042431   1.000000
    4        4.779250   1.000000
    5        5.358640   1.000000
    6        5.446263   1.000000
    7        5.857857   1.000000
    8        7.784722  -0.000004
    9        7.797007  -0.000002
   10        7.909572  -0.000000
   11        7.945444  -0.000000
   12       14.723603   0.000000
   13       15.050169   0.000000
   14       18.706498   0.000000
   15       24.111764   0.000000
   16       26.200669   0.000000
   17       26.210723   0.000000
   18       31.206427   0.000000
   19       33.153984   0.000000
   20       36.366412   0.000000
   21       37.033515   0.000000
   22       38.624234   0.000000
   23       38.990777   0.000000
   24       42.132283   0.000000
   25       49.269592   0.000000
   26       50.762265   0.000000
   27       51.702185   0.000000
   28       54.866495   0.000000
   29       54.911766   0.000000
   30       55.394428   0.000000
   31       57.393548   0.000000
   32       58.726021   0.000000
   33       58.994631   0.000000
   34       60.238790   0.000000
   35       62.164764   0.000000
   36       63.723003   0.000000
   37       64.288713   0.000000
   38       65.364019   0.000000
   39       66.739761   0.000000
   40       67.242535   0.000000
 
  0.4545455E+00  0.2793002E-16  0.0000000E+00  0.4507889E-02
    1        2.395299   1.000000
    2        2.605080   1.000000
    3        2.778462   1.000000
    4        5.110982   1.000000
    5        5.340712   1.000000
    6        5.688218   1.000000
    7        5.715265   1.000000
    8        7.938930  -0.000000
    9        8.284779  -0.000000
   10        8.394104  -0.000000
   11        9.493770  -0.000000
   12       12.953102   0.000000
   13       17.166357   0.000000
   14       18.613211   0.000000
   15       21.462426   0.000000
   16       23.470687   0.000000
   17       25.158280   0.000000
   18       30.596753   0.000000
   19       32.830072   0.000000
   20       35.219888   0.000000
   21       36.802853   0.000000
   22       39.543586   0.000000
   23       41.352730   0.000000
   24       41.792849   0.000000
   25       45.873768   0.000000
   26       51.144025   0.000000
   27       52.781959   0.000000
   28       56.740258   0.000000
   29       57.315530   0.000000
   30       58.100624   0.000000
   31       59.042772   0.000000
   32       60.469738   0.000000
   33       60.668340   0.000000
   34       62.050573   0.000000
   35       62.860001   0.000000
   36       63.672460   0.000000
   37       65.526301   0.000000
   38       65.880348   0.000000
   39       66.764838   0.000000
   40       67.458470   0.000000
 
  0.9090909E-01  0.9090909E-01  0.0000000E+00  0.4507889E-02
    1       -0.925948   1.000000
    2        2.671886   1.000000
    3        4.671791   1.000000
    4        4.682738   1.000000
    5        5.432056   1.000000
    6        5.439163   1.000000
    7        6.075776   1.000000
    8        6.238876   1.000000
    9        6.357084   1.000002
   10        6.636987   1.003884
   11        7.879181  -0.000000
   12       10.241861  -0.000000
   13       14.469265   0.000000
   14       27.470804   0.000000
   15       28.773280   0.000000
   16       31.381604   0.000000
   17       32.810267   0.000000
   18       34.383228   0.000000
   19       34.603195   0.000000
   20       35.904909   0.000000
   21       36.795493   0.000000
   22       41.585780   0.000000
   23       41.729275   0.000000
   24       42.490339   0.000000
   25       43.451938   0.000000
   26       43.734228   0.000000
   27       43.983086   0.000000
   28       50.042266   0.000000
   29       52.015444   0.000000
   30       52.163283   0.000000
   31       52.365042   0.000000
   32       56.273481   0.000000
   33       57.475002   0.000000
   34       58.283185   0.000000
   35       59.254676   0.000000
   36       60.437360   0.000000
   37       61.641156   0.000000
   38       65.094613   0.000000
   39       66.295402   0.000000
   40       66.305277   0.000000
 
  0.1818182E+00  0.9090909E-01  0.0000000E+00  0.9015778E-02
    1        0.250444   1.000000
    2        3.244146   1.000000
    3        3.875921   1.000000
    4        4.388749   1.000000
    5        5.115170   1.000000
    6        5.786906   1.000000
    7        5.882068   1.000000
    8        6.375942   1.000004
    9        6.796716   1.031492
   10        7.094642   0.430809
   11        7.869799  -0.000000
   12       12.095670  -0.000000
   13       14.686028   0.000000
   14       23.749421   0.000000
   15       26.386166   0.000000
   16       29.291313   0.000000
   17       31.418611   0.000000
   18       31.950687   0.000000
   19       34.984890   0.000000
   20       35.038253   0.000000
   21       36.230126   0.000000
   22       40.610770   0.000000
   23       41.075358   0.000000
   24       42.241645   0.000000
   25       45.328402   0.000000
   26       46.260881   0.000000
   27       48.305265   0.000000
   28       52.097674   0.000000
   29       54.272159   0.000000
   30       54.579709   0.000000
   31       55.111819   0.000000
   32       57.105692   0.000000
   33       58.034120   0.000000
   34       58.206452   0.000000
   35       59.250027   0.000000
   36       59.762984   0.000000
   37       62.456708   0.000000
   38       65.273204   0.000000
   39       66.712297   0.000000
   40       66.830867   0.000000
 
  0.2727273E+00  0.9090909E-01  0.0000000E+00  0.9015778E-02
    1        1.619268   1.000000
    2        3.183849   1.000000
    3        3.283634   1.000000
    4        4.472523   1.000000
    5        5.186025   1.000000
    6        5.405568   1.000000
    7        6.005432   1.000000
    8        6.676390   1.007760
    9        7.585704  -0.000978
   10        7.853395  -0.000000
   11        8.053304  -0.000000
   12       14.219281   0.000000
   13       15.061859   0.000000
   14       20.012316   0.000000
   15       24.666979   0.000000
   16       25.858287   0.000000
   17       28.559034   0.000000
   18       30.316693   0.000000
   19       34.237222   0.000000
   20       35.496999   0.000000
   21       36.492334   0.000000
   22       40.074459   0.000000
   23       40.475709   0.000000
   24       43.381917   0.000000
   25       47.278388   0.000000
   26       49.967684   0.000000
   27       51.198502   0.000000
   28       51.430464   0.000000
   29       53.443265   0.000000
   30       55.632921   0.000000
   31       56.703272   0.000000
   32       58.569118   0.000000
   33       59.484887   0.000000
   34       59.905671   0.000000
   35       61.397896   0.000000
   36       63.216882   0.000000
   37       64.867425   0.000000
   38       65.277003   0.000000
   39       65.757131   0.000000
   40       67.066796   0.000000
 
  0.3636364E+00  0.9090909E-01  0.0000000E+00  0.9015778E-02
    1        2.471969   1.000000
    2        2.867597   1.000000
    3        2.933223   1.000000
    4        4.884573   1.000000
    5        5.161075   1.000000
    6        5.577189   1.000000
    7        5.691896   1.000000
    8        7.626963  -0.000364
    9        7.833225  -0.000001
   10        8.127525  -0.000000
   11        9.272140  -0.000000
   12       14.356962   0.000000
   13       16.469124   0.000000
   14       18.427014   0.000000
   15       22.832423   0.000000
   16       23.300247   0.000000
   17       25.309891   0.000000
   18       29.434455   0.000000
   19       33.290072   0.000000
   20       35.004805   0.000000
   21       37.892793   0.000000
   22       40.443885   0.000000
   23       41.239126   0.000000
   24       42.823305   0.000000
   25       47.869021   0.000000
   26       49.999009   0.000000
   27       51.558210   0.000000
   28       53.519532   0.000000
   29       55.045476   0.000000
   30       57.139321   0.000000
   31       58.278502   0.000000
   32       59.904748   0.000000
   33       60.752329   0.000000
   34       62.919931   0.000000
   35       63.157552   0.000000
   36       64.284280   0.000000
   37       64.567029   0.000000
   38       65.922165   0.000000
   39       66.760162   0.000000
   40       67.626332   0.000000
 
  0.4545455E+00  0.9090909E-01  0.0000000E+00  0.4507889E-02
    1        2.612970   1.000000
    2        2.767864   1.000000
    3        2.818535   1.000000
    4        5.079081   1.000000
    5        5.290882   1.000000
    6        5.567790   1.000000
    7        5.679495   1.000000
    8        7.824342  -0.000001
    9        8.173000  -0.000000
   10        8.199773  -0.000000
   11       10.509419  -0.000000
   12       12.677080   0.000000
   13       18.000230   0.000000
   14       19.062939   0.000000
   15       21.038033   0.000000
   16       22.366884   0.000000
   17       23.912123   0.000000
   18       29.120199   0.000000
   19       32.897006   0.000000
   20       34.836587   0.000000
   21       38.162282   0.000000
   22       41.267898   0.000000
   23       41.716755   0.000000
   24       42.855328   0.000000
   25       45.602856   0.000000
   26       51.394087   0.000000
   27       51.486444   0.000000
   28       54.175174   0.000000
   29       57.161870   0.000000
   30       57.441971   0.000000
   31       60.567259   0.000000
   32       60.847175   0.000000
   33       61.008887   0.000000
   34       61.011108   0.000000
   35       62.623359   0.000000
   36       65.155968   0.000000
   37       66.371081   0.000000
   38       66.425530   0.000000
   39       66.694253   0.000000
   40       68.357486   0.000000
 
  0.1818182E+00  0.1818182E+00  0.0000000E+00  0.4507889E-02
    1        1.524379   1.000000
    2        3.426852   1.000000
    3        3.709789   1.000000
    4        3.932884   1.000000
    5        5.174183   1.000000
    6        5.333590   1.000000
    7        6.129845   1.000000
    8        6.138412   1.000000
    9        7.558498  -0.001779
   10        7.750641  -0.000011
   11        8.123106  -0.000000
   12       13.957266   0.000000
   13       15.192659   0.000000
   14       21.754015   0.000000
   15       22.530037   0.000000
   16       27.430422   0.000000
   17       28.790013   0.000000
   18       30.901569   0.000000
   19       31.546693   0.000000
   20       36.000241   0.000000
   21       37.932468   0.000000
   22       41.709156   0.000000
   23       42.174142   0.000000
   24       44.431799   0.000000
   25       45.269280   0.000000
   26       47.253709   0.000000
   27       48.342842   0.000000
   28       52.857570   0.000000
   29       54.201774   0.000000
   30       55.150474   0.000000
   31       55.326416   0.000000
   32       58.971048   0.000000
   33       59.226516   0.000000
   34       62.000410   0.000000
   35       62.085030   0.000000
   36       62.209338   0.000000
   37       62.272406   0.000000
   38       65.654621   0.000000
   39       65.947024   0.000000
   40       68.275189   0.000000
 
  0.2727273E+00  0.1818182E+00  0.0000000E+00  0.9015778E-02
    1        2.739292   1.000000
    2        3.145631   1.000000
    3        3.418523   1.000000
    4        4.152607   1.000000
    5        5.067340   1.000000
    6        5.463048   1.000000
    7        5.730373   1.000000
    8        6.716799   1.014158
    9        7.647979  -0.000212
   10        8.054602  -0.000000
   11        9.427986  -0.000000
   12       15.800738   0.000000
   13       16.131216   0.000000
   14       18.811283   0.000000
   15       20.898716   0.000000
   16       24.760471   0.000000
   17       27.200591   0.000000
   18       27.380151   0.000000
   19       30.240348   0.000000
   20       38.204500   0.000000
   21       38.435315   0.000000
   22       41.658170   0.000000
   23       43.929540   0.000000
   24       45.333606   0.000000
   25       46.240405   0.000000
   26       48.330860   0.000000
   27       49.543453   0.000000
   28       50.762324   0.000000
   29       54.045907   0.000000
   30       54.946913   0.000000
   31       57.394436   0.000000
   32       60.014115   0.000000
   33       61.176013   0.000000
   34       62.386929   0.000000
   35       64.358157   0.000000
   36       64.540812   0.000000
   37       65.625095   0.000000
   38       66.106668   0.000000
   39       67.285917   0.000000
   40       68.820227   0.000000
 
  0.3636364E+00  0.1818182E+00  0.0000000E+00  0.9015778E-02
    1        3.021700   1.000000
    2        3.113241   1.000000
    3        3.234186   1.000000
    4        4.664334   1.000000
    5        5.034795   1.000000
    6        5.343084   1.000000
    7        5.740601   1.000000
    8        7.444859  -0.013190
    9        7.589588  -0.000895
   10        8.050751  -0.000000
   11       11.054330  -0.000000
   12       14.121175   0.000000
   13       18.368033   0.000000
   14       19.058271   0.000000
   15       20.028934   0.000000
   16       22.054846   0.000000
   17       24.401980   0.000000
   18       26.601363   0.000000
   19       29.589901   0.000000
   20       38.430590   0.000000
   21       40.288871   0.000000
   22       41.969859   0.000000
   23       43.435236   0.000000
   24       44.469469   0.000000
   25       48.073174   0.000000
   26       48.729201   0.000000
   27       50.432913   0.000000
   28       51.200764   0.000000
   29       54.853466   0.000000
   30       56.126537   0.000000
   31       56.882627   0.000000
   32       60.057400   0.000000
   33       60.674395   0.000000
   34       61.328683   0.000000
   35       65.559574   0.000000
   36       65.676188   0.000000
   37       67.360449   0.000000
   38       67.372252   0.000000
   39       67.465409   0.000000
   40       67.521562   0.000000
 
  0.2727273E+00  0.2727273E+00  0.0000000E+00  0.4507889E-02
    1        3.162778   1.000000
    2        3.519334   1.000000
    3        3.836047   1.000000
    4        3.872842   1.000000
    5        4.906150   1.000000
    6        5.319278   1.000000
    7        5.774353   1.000000
    8        6.986520   0.846488
    9        7.467471  -0.009475
   10        8.012737  -0.000000
   11       11.191211  -0.000000
   12       16.236559   0.000000
   13       16.852925   0.000000
   14       18.400481   0.000000
   15       19.738823   0.000000
   16       24.090863   0.000000
   17       24.137676   0.000000
   18       26.143812   0.000000
   19       27.002520   0.000000
   20       39.907934   0.000000
   21       40.760952   0.000000
   22       44.522319   0.000000
   23       45.535145   0.000000
   24       45.919872   0.000000
   25       46.069911   0.000000
   26       46.801271   0.000000
   27       49.228247   0.000000
   28       51.713298   0.000000
   29       51.987405   0.000000
   30       56.089891   0.000000
   31       56.288169   0.000000
   32       58.802300   0.000000
   33       60.561941   0.000000
   34       61.493219   0.000000
   35       65.409372   0.000000
   36       66.227925   0.000000
   37       66.363975   0.000000
   38       67.665363   0.000000
   39       67.821657   0.000000
   40       68.903783   0.000000
 
  0.3636364E+00  0.2727273E+00  0.0000000E+00  0.4507889E-02
    1        3.203739   1.000000
    2        3.656740   1.000000
    3        3.716086   1.000000
    4        4.220306   1.000000
    5        4.976832   1.000000
    6        5.002889   1.000000
    7        5.920949   1.000000
    8        7.369876  -0.029467
    9        7.397862  -0.023151
   10        7.684098  -0.000079
   11       12.980171   0.000000
   12       14.279757   0.000000
   13       16.468593   0.000000
   14       20.381486   0.000000
   15       20.712273   0.000000
   16       21.865923   0.000000
   17       23.894623   0.000000
   18       24.437539   0.000000
   19       26.397454   0.000000
   20       40.301024   0.000000
   21       43.198277   0.000000
   22       44.104547   0.000000
   23       44.684754   0.000000
   24       45.339627   0.000000
   25       46.965333   0.000000
   26       47.786818   0.000000
   27       50.968597   0.000000
   28       51.337070   0.000000
   29       51.632744   0.000000
   30       55.074506   0.000000
   31       56.399422   0.000000
   32       56.964853   0.000000
   33       60.123893   0.000000
   34       60.610382   0.000000
   35       65.650099   0.000000
   36       66.551529   0.000000
   37       67.831466   0.000000
   38       67.886550   0.000000
   39       68.199321   0.000000
   40       68.440810   0.000000
 
  0.0000000E+00  0.0000000E+00  0.9090909E-01  0.1502630E-02
    1       -1.829808   1.000000
    2        1.936740   1.000000
    3        4.752845   1.000000
    4        5.467601   1.000000
    5        5.467695   1.000000
    6        5.759846   1.000000
    7        5.759959   1.000000
    8        6.049848   1.000000
    9        6.831430   1.035445
   10        6.831456   1.035445
   11        7.832669  -0.000001
   12        7.832696  -0.000001
   13       14.751039   0.000000
   14       29.668272   0.000000
   15       30.950620   0.000000
   16       33.559607   0.000000
   17       36.237767   0.000000
   18       36.237820   0.000000
   19       37.007779   0.000000
   20       37.007937   0.000000
   21       37.747921   0.000000
   22       39.640567   0.000000
   23       39.640581   0.000000
   24       40.980178   0.000000
   25       42.990719   0.000000
   26       42.990731   0.000000
   27       44.154109   0.000000
   28       47.447508   0.000000
   29       47.447868   0.000000
   30       49.484706   0.000000
   31       49.484819   0.000000
   32       51.270523   0.000000
   33       58.396401   0.000000
   34       61.662222   0.000000
   35       61.663036   0.000000
   36       62.301624   0.000000
   37       62.476925   0.000000
   38       62.477374   0.000000
   39       63.757999   0.000000
   40       64.011185   0.000000
 
  0.9090909E-01  0.7900541E-17  0.9090909E-01  0.9015778E-02
    1       -1.495084   1.000000
    2        2.195366   1.000000
    3        4.790566   1.000000
    4        5.290966   1.000000
    5        5.370184   1.000000
    6        5.660355   1.000000
    7        5.689796   1.000000
    8        5.942267   1.000000
    9        6.679170   1.008117
   10        6.725055   1.015777
   11        7.861302  -0.000000
   12        8.778921  -0.000000
   13       14.809485   0.000000
   14       29.427649   0.000000
   15       30.256070   0.000000
   16       32.085495   0.000000
   17       33.427313   0.000000
   18       34.933167   0.000000
   19       36.266726   0.000000
   20       37.483547   0.000000
   21       38.803615   0.000000
   22       39.958284   0.000000
   23       40.027647   0.000000
   24       40.841722   0.000000
   25       44.179554   0.000000
   26       44.335917   0.000000
   27       45.361172   0.000000
   28       45.461690   0.000000
   29       48.263272   0.000000
   30       50.643635   0.000000
   31       51.770055   0.000000
   32       53.344983   0.000000
   33       57.187181   0.000000
   34       60.076391   0.000000
   35       60.828320   0.000000
   36       61.593353   0.000000
   37       62.037362   0.000000
   38       63.726569   0.000000
   39       64.230234   0.000000
   40       65.057478   0.000000
 
  0.1818182E+00  0.8996804E-17  0.9090909E-01  0.9015778E-02
    1       -0.550759   1.000000
    2        2.809407   1.000000
    3        4.318230   1.000000
    4        4.667758   1.000000
    5        5.165653   1.000000
    6        5.695812   1.000000
    7        6.178785   1.000000
    8        6.362664   1.000003
    9        6.412559   1.000013
   10        6.537717   1.000447
   11        7.902638  -0.000000
   12       10.399884  -0.000000
   13       15.043117   0.000000
   14       25.779784   0.000000
   15       30.163204   0.000000
   16       30.603349   0.000000
   17       31.326659   0.000000
   18       31.556509   0.000000
   19       35.661970   0.000000
   20       37.217268   0.000000
   21       37.668131   0.000000
   22       37.954771   0.000000
   23       41.282869   0.000000
   24       42.204641   0.000000
   25       44.842920   0.000000
   26       45.695100   0.000000
   27       47.031909   0.000000
   28       49.472930   0.000000
   29       51.016688   0.000000
   30       53.840003   0.000000
   31       54.647060   0.000000
   32       55.499006   0.000000
   33       56.617344   0.000000
   34       58.376617   0.000000
   35       58.949874   0.000000
   36       60.583859   0.000000
   37       62.184969   0.000000
   38       64.611710   0.000000
   39       64.956474   0.000000
   40       66.697036   0.000000
 
  0.2727273E+00  0.7506940E-17  0.9090909E-01  0.9015778E-02
    1        0.776727   1.000000
    2        3.108022   1.000000
    3        3.560457   1.000000
    4        4.624203   1.000000
    5        4.972450   1.000000
    6        5.794583   1.000000
    7        6.130665   1.000000
    8        6.568528   1.000930
    9        7.015893   0.750099
   10        7.173698   0.142600
   11        7.924145  -0.000000
   12       12.115524  -0.000000
   13       15.585475   0.000000
   14       21.743747   0.000000
   15       27.009319   0.000000
   16       28.170242   0.000000
   17       29.417615   0.000000
   18       31.732368   0.000000
   19       34.043649   0.000000
   20       36.221454   0.000000
   21       36.465040   0.000000
   22       38.771214   0.000000
   23       39.443652   0.000000
   24       42.600782   0.000000
   25       48.347686   0.000000
   26       49.297207   0.000000
   27       50.340633   0.000000
   28       50.411705   0.000000
   29       53.972825   0.000000
   30       54.310064   0.000000
   31       55.784184   0.000000
   32       57.256068   0.000000
   33       57.868379   0.000000
   34       58.485952   0.000000
   35       60.400135   0.000000
   36       61.489535   0.000000
   37       63.508749   0.000000
   38       64.809593   0.000000
   39       65.253412   0.000000
   40       67.083647   0.000000
 
  0.3636364E+00  0.6152823E-16  0.9090909E-01  0.9015778E-02
    1        1.921044   1.000000
    2        2.805682   1.000000
    3        3.132938   1.000000
    4        4.566772   1.000000
    5        5.440964   1.000000
    6        5.641113   1.000000
    7        5.890852   1.000000
    8        7.748369  -0.000012
    9        7.790270  -0.000003
   10        7.824052  -0.000001
   11        7.991518  -0.000000
   12       13.502725   0.000000
   13       16.289014   0.000000
   14       18.811743   0.000000
   15       23.724615   0.000000
   16       26.318213   0.000000
   17       26.639113   0.000000
   18       31.161366   0.000000
   19       33.117391   0.000000
   20       35.185076   0.000000
   21       37.072640   0.000000
   22       38.241611   0.000000
   23       40.046554   0.000000
   24       42.849147   0.000000
   25       47.951843   0.000000
   26       51.493786   0.000000
   27       52.062114   0.000000
   28       53.914624   0.000000
   29       54.504919   0.000000
   30       56.432002   0.000000
   31       57.216101   0.000000
   32       58.544885   0.000000
   33       59.576878   0.000000
   34       60.107279   0.000000
   35       62.226781   0.000000
   36       63.675715   0.000000
   37       64.635208   0.000000
   38       64.637474   0.000000
   39       67.155396   0.000000
   40       67.231594   0.000000
 
  0.4545455E+00  0.2793002E-16  0.9090909E-01  0.9015778E-02
    1        2.321322   1.000000
    2        2.507539   1.000000
    3        3.005323   1.000000
    4        4.632392   1.000000
    5        5.623603   1.000000
    6        5.753068   1.000000
    7        5.977650   1.000000
    8        7.881563  -0.000000
    9        8.289000  -0.000000
   10        8.394808  -0.000000
   11        9.404988  -0.000000
   12       12.761774   0.000000
   13       17.037139   0.000000
   14       18.671797   0.000000
   15       21.545320   0.000000
   16       23.865437   0.000000
   17       25.284846   0.000000
   18       30.595481   0.000000
   19       32.819978   0.000000
   20       34.317730   0.000000
   21       37.749261   0.000000