<?xml version="1.0" encoding="ISO-8859-1"?>
<modeling>
 <generator>
  <i name="program" type="string">vasp </i>
  <i name="version" type="string">6.2.0  </i>
  <i name="subversion" type="string">18Jan21 (build Mar 17 2021 09:06:54) complex                          serial </i>
  <i name="platform" type="string">LinuxIFC </i>
  <i name="date" type="string">2021 09 09 </i>
  <i name="time" type="string">12:06:05 </i>
 </generator>
 <incar>
  <i type="string" name="PREC">normal</i>
  <i type="int" name="ICHARG">     1</i>
  <i type="int" name="IBRION">     1</i>
  <i name="EDIFF">      0.00000100</i>
  <i type="int" name="NSW">     0</i>
  <i type="int" name="ISIF">     2</i>
  <i name="ENCUT">    280.00000000</i>
  <i type="int" name="NBANDS">    40</i>
  <i type="int" name="ISMEAR">     1</i>
  <i name="SIGMA">      0.20000000</i>
  <i type="logical" name="LCHARG"> T  </i>
  <i type="int" name="KPAR">     1</i>
  <i type="int" name="NCORE">     1</i>
  <i type="string" name="GGA">PE</i>
 </incar>
 <primitive_cell>
  <structure name="primitive_cell" >
   <crystal>
    <varray name="basis" >
     <v>       2.35330000       0.00000000       0.00000000 </v>
     <v>      -1.17665000       2.03801758       0.00000000 </v>
     <v>       0.00000000       0.00000000       4.18241000 </v>
    </varray>
    <i name="volume">     20.05911765 </i>
    <varray name="rec_basis" >
     <v>       0.42493520       0.24533645       0.00000000 </v>
     <v>       0.00000000       0.49067290       0.00000000 </v>
     <v>       0.00000000       0.00000000       0.23909660 </v>
    </varray>
   </crystal>
   <varray name="positions" >
    <v>       0.00000000       0.00000000       0.00000000 </v>
    <v>       0.33333333       0.66666667       0.50000000 </v>
   </varray>
  </structure>
  <varray name="primitive_index" >
   <v type="int" >        1 </v>
   <v type="int" >        2 </v>
  </varray>
 </primitive_cell>
 <kpoints>
  <generation param="Monkhorst-Pack">
   <v type="int" name="divisions">      11       11       11 </v>
   <v name="usershift">      0.00000000       0.00000000       0.00000000 </v>
   <v name="genvec1">      0.09090909      -0.00000000       0.00000000 </v>
   <v name="genvec2">      0.00000000       0.09090909       0.00000000 </v>
   <v name="genvec3">      0.00000000       0.00000000       0.09090909 </v>
   <v name="shift">      0.00000000       0.00000000       0.00000000 </v>
  </generation>
  <varray name="kpointlist" >
   <v>       0.00000000       0.00000000       0.00000000 </v>
   <v>       0.09090909       0.00000000       0.00000000 </v>
   <v>       0.18181818       0.00000000       0.00000000 </v>
   <v>       0.27272727       0.00000000       0.00000000 </v>
   <v>       0.36363636       0.00000000       0.00000000 </v>
   <v>       0.45454545       0.00000000       0.00000000 </v>
   <v>       0.09090909       0.09090909       0.00000000 </v>
   <v>       0.18181818       0.09090909       0.00000000 </v>
   <v>       0.27272727       0.09090909       0.00000000 </v>
   <v>       0.36363636       0.09090909       0.00000000 </v>
   <v>       0.45454545       0.09090909       0.00000000 </v>
   <v>       0.18181818       0.18181818       0.00000000 </v>
   <v>       0.27272727       0.18181818       0.00000000 </v>
   <v>       0.36363636       0.18181818       0.00000000 </v>
   <v>       0.27272727       0.27272727       0.00000000 </v>
   <v>       0.36363636       0.27272727       0.00000000 </v>
   <v>       0.00000000       0.00000000       0.09090909 </v>
   <v>       0.09090909       0.00000000       0.09090909 </v>
   <v>       0.18181818       0.00000000       0.09090909 </v>
   <v>       0.27272727       0.00000000       0.09090909 </v>
   <v>       0.36363636       0.00000000       0.09090909 </v>
   <v>       0.45454545       0.00000000       0.09090909 </v>
   <v>       0.09090909       0.09090909       0.09090909 </v>
   <v>       0.18181818       0.09090909       0.09090909 </v>
   <v>       0.27272727       0.09090909       0.09090909 </v>
   <v>       0.36363636       0.09090909       0.09090909 </v>
   <v>       0.45454545       0.09090909       0.09090909 </v>
   <v>       0.18181818       0.18181818       0.09090909 </v>
   <v>       0.27272727       0.18181818       0.09090909 </v>
   <v>       0.36363636       0.18181818       0.09090909 </v>
   <v>       0.27272727       0.27272727       0.09090909 </v>
   <v>       0.36363636       0.27272727       0.09090909 </v>
   <v>       0.00000000       0.00000000       0.18181818 </v>
   <v>       0.09090909       0.00000000       0.18181818 </v>
   <v>       0.18181818       0.00000000       0.18181818 </v>
   <v>       0.27272727       0.00000000       0.18181818 </v>
   <v>       0.36363636       0.00000000       0.18181818 </v>
   <v>       0.45454545       0.00000000       0.18181818 </v>
   <v>       0.09090909       0.09090909       0.18181818 </v>
   <v>       0.18181818       0.09090909       0.18181818 </v>
   <v>       0.27272727       0.09090909       0.18181818 </v>
   <v>       0.36363636       0.09090909       0.18181818 </v>
   <v>       0.45454545       0.09090909       0.18181818 </v>
   <v>       0.18181818       0.18181818       0.18181818 </v>
   <v>       0.27272727       0.18181818       0.18181818 </v>
   <v>       0.36363636       0.18181818       0.18181818 </v>
   <v>       0.27272727       0.27272727       0.18181818 </v>
   <v>       0.36363636       0.27272727       0.18181818 </v>
   <v>       0.00000000       0.00000000       0.27272727 </v>
   <v>       0.09090909       0.00000000       0.27272727 </v>
   <v>       0.18181818       0.00000000       0.27272727 </v>
   <v>       0.27272727       0.00000000       0.27272727 </v>
   <v>       0.36363636       0.00000000       0.27272727 </v>
   <v>       0.45454545       0.00000000       0.27272727 </v>
   <v>       0.09090909       0.09090909       0.27272727 </v>
   <v>       0.18181818       0.09090909       0.27272727 </v>
   <v>       0.27272727       0.09090909       0.27272727 </v>
   <v>       0.36363636       0.09090909       0.27272727 </v>
   <v>       0.45454545       0.09090909       0.27272727 </v>
   <v>       0.18181818       0.18181818       0.27272727 </v>
   <v>       0.27272727       0.18181818       0.27272727 </v>
   <v>       0.36363636       0.18181818       0.27272727 </v>
   <v>       0.27272727       0.27272727       0.27272727 </v>
   <v>       0.36363636       0.27272727       0.27272727 </v>
   <v>       0.00000000       0.00000000       0.36363636 </v>
   <v>       0.09090909       0.00000000       0.36363636 </v>
   <v>       0.18181818       0.00000000       0.36363636 </v>
   <v>       0.27272727       0.00000000       0.36363636 </v>
   <v>       0.36363636       0.00000000       0.36363636 </v>
   <v>       0.45454545       0.00000000       0.36363636 </v>
   <v>       0.09090909       0.09090909       0.36363636 </v>
   <v>       0.18181818       0.09090909       0.36363636 </v>
   <v>       0.27272727       0.09090909       0.36363636 </v>
   <v>       0.36363636       0.09090909       0.36363636 </v>
   <v>       0.45454545       0.09090909       0.36363636 </v>
   <v>       0.18181818       0.18181818       0.36363636 </v>
   <v>       0.27272727       0.18181818       0.36363636 </v>
   <v>       0.36363636       0.18181818       0.36363636 </v>
   <v>       0.27272727       0.27272727       0.36363636 </v>
   <v>       0.36363636       0.27272727       0.36363636 </v>
   <v>       0.00000000       0.00000000       0.45454545 </v>
   <v>       0.09090909       0.00000000       0.45454545 </v>
   <v>       0.18181818       0.00000000       0.45454545 </v>
   <v>       0.27272727       0.00000000       0.45454545 </v>
   <v>       0.36363636       0.00000000       0.45454545 </v>
   <v>       0.45454545       0.00000000       0.45454545 </v>
   <v>       0.09090909       0.09090909       0.45454545 </v>
   <v>       0.18181818       0.09090909       0.45454545 </v>
   <v>       0.27272727       0.09090909       0.45454545 </v>
   <v>       0.36363636       0.09090909       0.45454545 </v>
   <v>       0.45454545       0.09090909       0.45454545 </v>
   <v>       0.18181818       0.18181818       0.45454545 </v>
   <v>       0.27272727       0.18181818       0.45454545 </v>
   <v>       0.36363636       0.18181818       0.45454545 </v>
   <v>       0.27272727       0.27272727       0.45454545 </v>
   <v>       0.36363636       0.27272727       0.45454545 </v>
  </varray>
  <varray name="weights" >
   <v>       0.00075131 </v>
   <v>       0.00450789 </v>
   <v>       0.00450789 </v>
   <v>       0.00450789 </v>
   <v>       0.00450789 </v>
   <v>       0.00450789 </v>
   <v>       0.00450789 </v>
   <v>       0.00901578 </v>
   <v>       0.00901578 </v>
   <v>       0.00901578 </v>
   <v>       0.00450789 </v>
   <v>       0.00450789 </v>
   <v>       0.00901578 </v>
   <v>       0.00901578 </v>
   <v>       0.00450789 </v>
   <v>       0.00450789 </v>
   <v>       0.00150263 </v>
   <v>       0.00901578 </v>
   <v>       0.00901578 </v>
   <v>       0.00901578 </v>
   <v>       0.00901578 </v>
   <v>       0.00901578 </v>
   <v>       0.00901578 </v>
   <v>       0.01803156 </v>
   <v>       0.01803156 </v>
   <v>       0.01803156 </v>
   <v>       0.00901578 </v>
   <v>       0.00901578 </v>
   <v>       0.01803156 </v>
   <v>       0.01803156 </v>
   <v>       0.00901578 </v>
   <v>       0.00901578 </v>
   <v>       0.00150263 </v>
   <v>       0.00901578 </v>
   <v>       0.00901578 </v>
   <v>       0.00901578 </v>
   <v>       0.00901578 </v>
   <v>       0.00901578 </v>
   <v>       0.00901578 </v>
   <v>       0.01803156 </v>
   <v>       0.01803156 </v>
   <v>       0.01803156 </v>
   <v>       0.00901578 </v>
   <v>       0.00901578 </v>
   <v>       0.01803156 </v>
   <v>       0.01803156 </v>
   <v>       0.00901578 </v>
   <v>       0.00901578 </v>
   <v>       0.00150263 </v>
   <v>       0.00901578 </v>
   <v>       0.00901578 </v>
   <v>       0.00901578 </v>
   <v>       0.00901578 </v>
   <v>       0.00901578 </v>
   <v>       0.00901578 </v>
   <v>       0.01803156 </v>
   <v>       0.01803156 </v>
   <v>       0.01803156 </v>
   <v>       0.00901578 </v>
   <v>       0.00901578 </v>
   <v>       0.01803156 </v>
   <v>       0.01803156 </v>
   <v>       0.00901578 </v>
   <v>       0.00901578 </v>
   <v>       0.00150263 </v>
   <v>       0.00901578 </v>
   <v>       0.00901578 </v>
   <v>       0.00901578 </v>
   <v>       0.00901578 </v>
   <v>       0.00901578 </v>
   <v>       0.00901578 </v>
   <v>       0.01803156 </v>
   <v>       0.01803156 </v>
   <v>       0.01803156 </v>
   <v>       0.00901578 </v>
   <v>       0.00901578 </v>
   <v>       0.01803156 </v>
   <v>       0.01803156 </v>
   <v>       0.00901578 </v>
   <v>       0.00901578 </v>
   <v>       0.00150263 </v>
   <v>       0.00901578 </v>
   <v>       0.00901578 </v>
   <v>       0.00901578 </v>
   <v>       0.00901578 </v>
   <v>       0.00901578 </v>
   <v>       0.00901578 </v>
   <v>       0.01803156 </v>
   <v>       0.01803156 </v>
   <v>       0.01803156 </v>
   <v>       0.00901578 </v>
   <v>       0.00901578 </v>
   <v>       0.01803156 </v>
   <v>       0.01803156 </v>
   <v>       0.00901578 </v>
   <v>       0.00901578 </v>
  </varray>
 </kpoints>
 <parameters>
  <separator name="general" >
   <i type="string" name="SYSTEM">unknown system</i>
   <i type="logical" name="LCOMPAT"> F  </i>
  </separator>
  <separator name="electronic" >
   <i type="string" name="PREC">normal</i>
   <i name="ENMAX">    280.00000000</i>
   <i name="ENAUG">    511.36800000</i>
   <i name="EDIFF">      0.00000100</i>
   <i type="int" name="IALGO">    38</i>
   <i type="int" name="IWAVPR">     0</i>
   <i type="int" name="NBANDS">    40</i>
   <i type="int" name="NBANDSLOW">    -1</i>
   <i type="int" name="NBANDSHIGH">    -1</i>
   <i name="NELECT">     16.00000000</i>
   <i type="int" name="TURBO">     0</i>
   <i type="int" name="IRESTART">     0</i>
   <i type="int" name="NREBOOT">     0</i>
   <i type="int" name="NMIN">     0</i>
   <i name="EREF">      0.00000000</i>
   <separator name="electronic smearing" >
    <i type="int" name="ISMEAR">     1</i>
    <i name="SIGMA">      0.20000000</i>
    <i name="KSPACING">      0.50000000</i>
    <i type="logical" name="KGAMMA"> T  </i>
    <i type="logical" name="KBLOWUP"> T  </i>
   </separator>
   <separator name="electronic projectors" >
    <i type="logical" name="LREAL"> F  </i>
    <v name="ROPT">      0.00000000</v>
    <i type="int" name="LMAXPAW">  -100</i>
    <i type="int" name="LMAXMIX">     2</i>
    <i type="logical" name="NLSPLINE"> F  </i>
   </separator>
   <separator name="electronic startup" >
    <i type="int" name="ISTART">     0</i>
    <i type="int" name="ICHARG">     1</i>
    <i type="int" name="INIWAV">     1</i>
   </separator>
   <separator name="electronic spin" >
    <i type="int" name="ISPIN">     1</i>
    <i type="logical" name="LNONCOLLINEAR"> F  </i>
    <v name="MAGMOM">      1.00000000      1.00000000</v>
    <i name="NUPDOWN">     -1.00000000</i>
    <i type="logical" name="LSORBIT"> F  </i>
    <v name="SAXIS">      0.00000000      0.00000000      1.00000000</v>
    <i type="logical" name="LSPIRAL"> F  </i>
    <v name="QSPIRAL">      0.00000000      0.00000000      0.00000000</v>
    <i type="logical" name="LZEROZ"> F  </i>
   </separator>
   <separator name="electronic exchange-correlation" >
    <i type="logical" name="LASPH"> F  </i>
    <i type="logical" name="LMETAGGA"> F  </i>
   </separator>
   <separator name="electronic convergence" >
    <i type="int" name="NELM">    60</i>
    <i type="int" name="NELMDL">    -5</i>
    <i type="int" name="NELMIN">     2</i>
    <i name="ENINI">    280.00000000</i>
    <separator name="electronic convergence detail" >
     <i type="logical" name="LDIAG"> T  </i>
     <i type="logical" name="LSUBROT"> F  </i>
     <i name="WEIMIN">      0.00000000</i>
     <i name="EBREAK">      0.00000001</i>
     <i name="DEPER">      0.30000000</i>
     <i type="int" name="NRMM">     4</i>
     <i name="TIME">      0.40000000</i>
    </separator>
   </separator>
   <separator name="electronic mixer" >
    <i name="AMIX">      0.40000000</i>
    <i name="BMIX">      1.00000000</i>
    <i name="AMIN">      0.10000000</i>
    <i name="AMIX_MAG">      1.60000000</i>
    <i name="BMIX_MAG">      1.00000000</i>
    <separator name="electronic mixer details" >
     <i type="int" name="IMIX">     4</i>
     <i type="logical" name="MIXFIRST"> F  </i>
     <i type="int" name="MAXMIX">   -45</i>
     <i name="WC">    100.00000000</i>
     <i type="int" name="INIMIX">     1</i>
     <i type="int" name="MIXPRE">     1</i>
     <i type="int" name="MREMOVE">     5</i>
    </separator>
   </separator>
   <separator name="electronic dipolcorrection" >
    <i type="logical" name="LDIPOL"> F  </i>
    <i type="logical" name="LMONO"> F  </i>
    <i type="int" name="IDIPOL">     0</i>
    <i name="EPSILON">      1.00000000</i>
    <v name="DIPOL">   -100.00000000   -100.00000000   -100.00000000</v>
    <i name="EFIELD">      0.00000000</i>
   </separator>
  </separator>
  <separator name="grids" >
   <i type="int" name="NGX">    10</i>
   <i type="int" name="NGY">    10</i>
   <i type="int" name="NGZ">    18</i>
   <i type="int" name="NGXF">    20</i>
   <i type="int" name="NGYF">    20</i>
   <i type="int" name="NGZF">    36</i>
   <i type="logical" name="ADDGRID"> F  </i>
  </separator>
  <separator name="ionic" >
   <i type="int" name="NSW">     0</i>
   <i type="int" name="IBRION">    -1</i>
   <i type="int" name="MDALGO">     0</i>
   <i type="int" name="ISIF">     2</i>
   <i name="PSTRESS">      0.00000000</i>
   <i name="EDIFFG">      0.00001000</i>
   <i type="int" name="NFREE">     0</i>
   <i name="POTIM">      0.50000000</i>
   <i name="SMASS">     -3.00000000</i>
   <i name="SCALEE">      1.00000000</i>
  </separator>
  <separator name="ionic md" >
   <i name="TEBEG">      0.00010000</i>
   <i name="TEEND">      0.00010000</i>
   <i type="int" name="NBLOCK">     1</i>
   <i type="int" name="KBLOCK">     1</i>
   <i type="int" name="NPACO">   256</i>
   <i name="APACO">     16.00000000</i>
  </separator>
  <separator name="symmetry" >
   <i type="int" name="ISYM">     2</i>
   <i name="SYMPREC">      0.00001000</i>
  </separator>
  <separator name="dos" >
   <i type="int" name="LORBIT">     0</i>
   <v name="RWIGS">     -1.00000000</v>
   <i type="int" name="NEDOS">   301</i>
   <i name="EMIN">     10.00000000</i>
   <i name="EMAX">    -10.00000000</i>
   <i name="EFERMI">      0.00000000</i>
  </separator>
  <separator name="writing" >
   <i type="int" name="NWRITE">     2</i>
   <i type="logical" name="LWAVE"> T  </i>
   <i type="logical" name="LDOWNSAMPLE"> F  </i>
   <i type="logical" name="LCHARG"> T  </i>
   <i type="logical" name="LPARD"> F  </i>
   <i type="logical" name="LVTOT"> F  </i>
   <i type="logical" name="LVHAR"> F  </i>
   <i type="logical" name="LELF"> F  </i>
   <i type="logical" name="LOPTICS"> F  </i>
   <v name="STM">      0.00000000      0.00000000      0.00000000      0.00000000      0.00000000      0.00000000      0.00000000</v>
  </separator>
  <separator name="performance" >
   <i type="int" name="NPAR">     1</i>
   <i type="int" name="NSIM">     4</i>
   <i type="int" name="NBLK">    -1</i>
   <i type="logical" name="LPLANE"> T  </i>
   <i type="logical" name="LSCALAPACK"> F  </i>
   <i type="logical" name="LSCAAWARE"> F  </i>
   <i type="logical" name="LSCALU"> F  </i>
   <i type="logical" name="LASYNC"> F  </i>
   <i type="logical" name="LORBITALREAL"> F  </i>
  </separator>
  <separator name="miscellaneous" >
   <i type="int" name="IDIOT">     3</i>
   <i type="int" name="PHON_NSTRUCT">    -1</i>
   <i type="logical" name="LMUSIC"> F  </i>
   <v name="POMASS">     55.84700000</v>
   <v name="DARWINR">      0.00000000</v>
   <v name="DARWINV">      1.00000000</v>
   <i type="logical" name="LCORR"> T  </i>
  </separator>
  <i type="logical" name="GGA_COMPAT"> T  </i>
  <i type="logical" name="LBERRY"> F  </i>
  <i type="int" name="ICORELEVEL">     0</i>
  <i type="logical" name="LDAU"> F  </i>
  <i type="int" name="I_CONSTRAINED_M">     0</i>
  <separator name="electronic exchange-correlation" >
   <i type="string" name="GGA">PE</i>
   <i type="int" name="VOSKOWN">     0</i>
   <i type="logical" name="LHFCALC"> F  </i>
   <i type="string" name="PRECFOCK"></i>
   <i type="logical" name="LSYMGRAD"> F  </i>
   <i type="logical" name="LHFONE"> F  </i>
   <i type="logical" name="LRHFCALC"> F  </i>
   <i type="logical" name="LTHOMAS"> F  </i>
   <i type="logical" name="LMODELHF"> F  </i>
   <i type="logical" name="LFOCKACE"> F  </i>
   <i name="ENCUT4O">     -1.00000000</i>
   <i type="int" name="EXXOEP">     0</i>
   <i type="int" name="FOURORBIT">     0</i>
   <i name="AEXX">      0.00000000</i>
   <i name="HFALPHA">      0.00000000</i>
   <i name="MCALPHA">      0.00000000</i>
   <i name="ALDAX">      1.00000000</i>
   <i name="AGGAX">      1.00000000</i>
   <i name="ALDAC">      1.00000000</i>
   <i name="AGGAC">      1.00000000</i>
   <i type="int" name="NKREDX">     1</i>
   <i type="int" name="NKREDY">     1</i>
   <i type="int" name="NKREDZ">     1</i>
   <i type="logical" name="SHIFTRED"> F  </i>
   <i type="logical" name="ODDONLY"> F  </i>
   <i type="logical" name="EVENONLY"> F  </i>
   <i type="int" name="LMAXFOCK">     0</i>
   <i type="int" name="NMAXFOCKAE">     0</i>
   <i type="logical" name="LFOCKAEDFT"> F  </i>
   <i name="HFSCREEN">      0.00000000</i>
   <i name="HFSCREENC">      0.00000000</i>
   <i type="int" name="NBANDSGWLOW">     0</i>
  </separator>
  <separator name="vdW DFT" >
   <i type="logical" name="LUSE_VDW"> F  </i>
   <i name="Zab_VDW">     -0.84910000</i>
   <i name="PARAM1">      0.12340000</i>
   <i name="PARAM2">      1.00000000</i>
   <i name="PARAM3">      0.00000000</i>
  </separator>
  <separator name="model GW" >
   <i type="int" name="MODEL_GW">     0</i>
   <i name="MODEL_EPS0">      6.01773530</i>
   <i name="MODEL_ALPHA">      1.00000000</i>
  </separator>
  <separator name="linear response parameters" >
   <i type="logical" name="LEPSILON"> F  </i>
   <i type="logical" name="LRPA"> F  </i>
   <i type="logical" name="LNABLA"> F  </i>
   <i type="logical" name="LVEL"> F  </i>
   <i type="int" name="KINTER">     0</i>
   <i name="CSHIFT">      0.10000000</i>
   <i name="OMEGAMAX">     -1.00000000</i>
   <i name="DEG_THRESHOLD">      0.00200000</i>
   <i name="RTIME">     -0.10000000</i>
   <i name="WPLASMAI">      0.00000000</i>
   <v name="DFIELD">      0.00000000      0.00000000      0.00000000</v>
   <v name="WPLASMA">      0.00000000      0.00000000      0.00000000      0.00000000      0.00000000      0.00000000      0.00000000      0.00000000      0.00000000</v>
  </separator>
  <separator name="orbital magnetization" >
   <i type="logical" name="NUCIND"> F  </i>
   <v name="MAGPOS">      0.00000000      0.00000000      0.00000000</v>
   <i type="logical" name="LNICSALL"> T  </i>
   <i type="logical" name="ORBITALMAG"> F  </i>
   <i type="logical" name="LMAGBLOCH"> F  </i>
   <i type="logical" name="LCHIMAG"> F  </i>
   <i type="logical" name="LGAUGE"> T  </i>
   <i type="int" name="MAGATOM">     0</i>
   <v name="MAGDIPOL">      0.00000000      0.00000000      0.00000000</v>
   <v name="AVECCONST">      0.00000000      0.00000000      0.00000000</v>
  </separator>
  <separator name="response functions" >
   <i type="logical" name="LFINITE_TEMPERATURE"> F  </i>
   <i type="logical" name="LADDER"> F  </i>
   <i type="logical" name="LRPAFORCE"> F  </i>
   <i type="logical" name="LFXC"> F  </i>
   <i type="logical" name="LHARTREE"> T  </i>
   <i type="int" name="IBSE">     0</i>
   <v type="int" name="KPOINT">    -1     0     0     0</v>
   <i type="logical" name="LTCTC"> F  </i>
   <i type="logical" name="LTCTE"> F  </i>
   <i type="logical" name="LTETE"> F  </i>
   <i type="logical" name="LTRIPLET"> F  </i>
   <i type="logical" name="LFXCEPS"> F  </i>
   <i type="logical" name="LFXHEG"> F  </i>
   <i type="int" name="NATURALO">     2</i>
   <i type="logical" name="LHOLEGF"> F  </i>
   <i type="logical" name="L2ORDER"> F  </i>
   <i type="logical" name="LDMP1"> F  </i>
   <i type="logical" name="LMP2LT"> F  </i>
   <i type="logical" name="LSMP2LT"> F  </i>
   <i type="logical" name="LGWLF"> F  </i>
   <i name="ENCUTGW">     -2.00000000</i>
   <i name="ENCUTGWSOFT">     -2.00000000</i>
   <i name="ENCUTLF">     -1.00000000</i>
   <i type="logical" name="LESF_SPLINES"> F  </i>
   <i type="int" name="LMAXMP2">    -1</i>
   <i name="SCISSOR">      0.00000000</i>
   <i type="int" name="NOMEGA">     0</i>
   <i type="int" name="NOMEGAR">     0</i>
   <i type="int" name="NBANDSGW">    -1</i>
   <i type="int" name="NBANDSO">    -1</i>
   <i type="int" name="NBANDSV">    -1</i>
   <i type="int" name="NELM">     1</i>
   <i type="int" name="NELMHF">     1</i>
   <i type="int" name="DIM">     3</i>
   <i type="int" name="IESPILON">     4</i>
   <i type="int" name="ANTIRES">     0</i>
   <i name="OMEGAMAX">    -30.00000000</i>
   <i name="OMEGAMIN">    -30.00000000</i>
   <i name="OMEGATL">   -200.00000000</i>
   <i type="int" name="OMEGAGRID">     0</i>
   <i name="CSHIFT">     -0.10000000</i>
   <i type="logical" name="LSELFENERGY"> F  </i>
   <i type="logical" name="LSPECTRAL"> F  </i>
   <i type="logical" name="LSPECTRALGW"> F  </i>
   <i type="logical" name="LSINGLES"> F  </i>
   <i type="logical" name="LFERMIGW"> F  </i>
   <i type="logical" name="ODDONLYGW"> F  </i>
   <i type="logical" name="EVENONLYGW"> F  </i>
   <i type="int" name="NKREDLFX">     1</i>
   <i type="int" name="NKREDLFY">     1</i>
   <i type="int" name="NKREDLFZ">     1</i>
   <i type="int" name="MAXMEM">  2800</i>
   <i type="int" name="TELESCOPE">     0</i>
   <i type="int" name="NTAUPAR">    -1</i>
   <i type="int" name="NOMEGAPAR">    -1</i>
   <i name="DAMP_NEWTON">      0.80000001</i>
   <i name="LAMBDA">      1.00000000</i>
  </separator>
  <separator name="External order field" >
   <i name="OFIELD_KAPPA">      0.00000000</i>
   <v name="OFIELD_K">      0.00000000      0.00000000      0.00000000</v>
   <i name="OFIELD_Q6_NEAR">      0.00000000</i>
   <i name="OFIELD_Q6_FAR">      0.00000000</i>
   <i name="OFIELD_A">      0.00000000</i>
  </separator>
 </parameters>
 <atominfo>
  <atoms>       2 </atoms>
  <types>       1 </types>
  <array name="atoms" >
   <dimension dim="1">ion</dimension>
   <field type="string">element</field>
   <field type="int">atomtype</field>
   <set>
    <rc><c>Fe</c><c>   1</c></rc>
    <rc><c>Fe</c><c>   1</c></rc>
   </set>
  </array>
  <array name="atomtypes" >
   <dimension dim="1">type</dimension>
   <field type="int">atomspertype</field>
   <field type="string">element</field>
   <field>mass</field>
   <field>valence</field>
   <field type="string">pseudopotential</field>
   <set>
    <rc><c>   2</c><c>Fe</c><c>     55.84700000</c><c>      8.00000000</c><c>  PAW_PBE Fe 06Sep2000                  </c></rc>
   </set>
  </array>
 </atominfo>
 <structure name="initialpos" >
  <crystal>
   <varray name="basis" >
    <v>       2.35330000       0.00000000       0.00000000 </v>
    <v>      -1.17665000       2.03801758       0.00000000 </v>
    <v>       0.00000000       0.00000000       4.18241000 </v>
   </varray>
   <i name="volume">     20.05911765 </i>
   <varray name="rec_basis" >
    <v>       0.42493520       0.24533645       0.00000000 </v>
    <v>       0.00000000       0.49067290       0.00000000 </v>
    <v>       0.00000000       0.00000000       0.23909660 </v>
   </varray>
  </crystal>
  <varray name="positions" >
   <v>       0.00000000       0.00000000       0.00000000 </v>
   <v>       0.33333333       0.66666667       0.50000000 </v>
  </varray>
 </structure>
 <calculation>
  <scstep>
   <time name="dav">    0.84    0.86</time>
   <time name="total">    0.85    0.87</time>
   <energy>
    <i name="alphaZ">    137.82017176 </i>
    <i name="ewald">  -1232.91426021 </i>
    <i name="hartreedc">   -205.38171186 </i>
    <i name="XCdc">      8.59679796 </i>
    <i name="pawpsdc">   1109.69170683 </i>
    <i name="pawaedc">  -1125.09647265 </i>
    <i name="eentropy">     -0.00417703 </i>
    <i name="bandstr">    178.98499967 </i>
    <i name="atom">   1188.57490811 </i>
    <i name="e_fr_energy">     60.27196258 </i>
    <i name="e_wo_entrp">     60.27613961 </i>
    <i name="e_0_energy">     60.27335492 </i>
   </energy>
  </scstep>
  <scstep>
   <time name="dav">    0.69    0.69</time>
   <time name="total">    0.70    0.70</time>
   <energy>
    <i name="e_fr_energy">    -14.67199836 </i>
    <i name="e_wo_entrp">    -14.67556930 </i>
    <i name="e_0_energy">    -14.67318867 </i>
   </energy>
  </scstep>
  <scstep>
   <time name="dav">    0.79    0.79</time>
   <time name="total">    0.80    0.80</time>
   <energy>
    <i name="e_fr_energy">    -19.07993014 </i>
    <i name="e_wo_entrp">    -19.08064616 </i>
    <i name="e_0_energy">    -19.08016881 </i>
   </energy>
  </scstep>
  <scstep>
   <time name="dav">    0.77    0.77</time>
   <time name="total">    0.77    0.77</time>
   <energy>
    <i name="e_fr_energy">    -19.09970964 </i>
    <i name="e_wo_entrp">    -19.10040254 </i>
    <i name="e_0_energy">    -19.09994060 </i>
   </energy>
  </scstep>
  <scstep>
   <time name="dav">    0.76    0.76</time>
   <time name="total">    0.79    0.79</time>
   <energy>
    <i name="e_fr_energy">    -19.09973209 </i>
    <i name="e_wo_entrp">    -19.10042497 </i>
    <i name="e_0_energy">    -19.09996305 </i>
   </energy>
  </scstep>
  <scstep>
   <time name="dav">    0.91    0.91</time>
   <time name="total">    0.94    0.94</time>
   <energy>
    <i name="e_fr_energy">    -16.27335904 </i>
    <i name="e_wo_entrp">    -16.27597583 </i>
    <i name="e_0_energy">    -16.27423131 </i>
   </energy>
  </scstep>
  <scstep>
   <time name="dav">    0.83    0.83</time>
   <time name="total">    0.86    0.86</time>
   <energy>
    <i name="e_fr_energy">    -16.08879574 </i>
    <i name="e_wo_entrp">    -16.09134901 </i>
    <i name="e_0_energy">    -16.08964683 </i>
   </energy>
  </scstep>
  <scstep>
   <time name="dav">    0.83    0.83</time>
   <time name="total">    0.86    0.86</time>
   <energy>
    <i name="e_fr_energy">    -16.06106607 </i>
    <i name="e_wo_entrp">    -16.06366991 </i>
    <i name="e_0_energy">    -16.06193402 </i>
   </energy>
  </scstep>
  <scstep>
   <time name="dav">    0.90    0.90</time>
   <time name="total">    0.93    0.93</time>
   <energy>
    <i name="e_fr_energy">    -16.05078397 </i>
    <i name="e_wo_entrp">    -16.05338719 </i>
    <i name="e_0_energy">    -16.05165171 </i>
   </energy>
  </scstep>
  <scstep>
   <time name="dav">    0.75    0.75</time>
   <time name="total">    0.79    0.79</time>
   <energy>
    <i name="e_fr_energy">    -16.05081438 </i>
    <i name="e_wo_entrp">    -16.05341340 </i>
    <i name="e_0_energy">    -16.05168072 </i>
   </energy>
  </scstep>
  <scstep>
   <time name="dav">    0.76    0.76</time>
   <time name="total">    0.79    0.79</time>
   <energy>
    <i name="e_fr_energy">    -16.05080614 </i>
    <i name="e_wo_entrp">    -16.05340508 </i>
    <i name="e_0_energy">    -16.05167245 </i>
   </energy>
  </scstep>
  <scstep>
   <time name="dav">    0.58    0.58</time>
   <time name="total">    0.60    0.60</time>
   <energy>
    <i name="alphaZ">    137.82017176 </i>
    <i name="ewald">  -1232.91426021 </i>
    <i name="hartreedc">   -171.32659652 </i>
    <i name="XCdc">      7.00784701 </i>
    <i name="pawpsdc">   1496.06419671 </i>
    <i name="pawaedc">  -1513.72019710 </i>
    <i name="eentropy">      0.00259913 </i>
    <i name="bandstr">     72.44052589 </i>
    <i name="atom">   1188.57490811 </i>
    <i name="e_fr_energy">    -16.05080522 </i>
    <i name="e_wo_entrp">    -16.05340435 </i>
    <i name="e_0_energy">    -16.05167160 </i>
   </energy>
  </scstep>
  <structure>
   <crystal>
    <varray name="basis" >
     <v>       2.35330000       0.00000000       0.00000000 </v>
     <v>      -1.17665000       2.03801758       0.00000000 </v>
     <v>       0.00000000       0.00000000       4.18241000 </v>
    </varray>
    <i name="volume">     20.05911765 </i>
    <varray name="rec_basis" >
     <v>       0.42493520       0.24533645       0.00000000 </v>
     <v>       0.00000000       0.49067290       0.00000000 </v>
     <v>       0.00000000       0.00000000       0.23909660 </v>
    </varray>
   </crystal>
   <varray name="positions" >
    <v>       0.00000000       0.00000000       0.00000000 </v>
    <v>       0.33333333       0.66666667       0.50000000 </v>
   </varray>
  </structure>
  <varray name="forces" >
   <v>       0.00000000       0.00000000       0.00000000 </v>
   <v>      -0.00000000      -0.00000000      -0.00000000 </v>
  </varray>
  <varray name="stress" >
   <v>     237.94493971      -0.00000000       0.00000000 </v>
   <v>      -0.00000000     237.94493971      -0.00000000 </v>
   <v>       0.00000000       0.00000000    -300.84718885 </v>
  </varray>
  <energy>
   <i name="e_fr_energy">    -16.05080522 </i>
   <i name="e_wo_entrp">    -16.05340435 </i>
   <i name="e_0_energy">    -16.05167160 </i>
  </energy>
  <time name="totalsc">    9.99   10.01</time>
  <eigenvalues>
   <array>
    <dimension dim="1">band</dimension>
    <dimension dim="2">kpoint</dimension>
    <dimension dim="3">spin</dimension>
    <field>eigene</field>
    <field>occ</field>
    <set>
     <set comment="spin 1">
      <set comment="kpoint 1">
       <r>   -1.9093    1.0000 </r>
       <r>    1.9704    1.0000 </r>
       <r>    4.7737    1.0000 </r>
       <r>    5.4756    1.0000 </r>
       <r>    5.4757    1.0000 </r>
       <r>    5.7761    1.0000 </r>
       <r>    5.7762    1.0000 </r>
       <r>    6.2629    1.0000 </r>
       <r>    6.7964    1.0314 </r>
       <r>    6.7964    1.0314 </r>
       <r>    7.8461   -0.0000 </r>
       <r>    7.8461   -0.0000 </r>
       <r>   14.3782    0.0000 </r>
       <r>   30.4366    0.0000 </r>
       <r>   30.7668    0.0000 </r>
       <r>   33.7232    0.0000 </r>
       <r>   36.1900    0.0000 </r>
       <r>   36.1900    0.0000 </r>
       <r>   37.0080    0.0000 </r>
       <r>   37.0082    0.0000 </r>
       <r>   37.2303    0.0000 </r>
       <r>   39.7254    0.0000 </r>
       <r>   39.7254    0.0000 </r>
       <r>   40.7311    0.0000 </r>
       <r>   43.3306    0.0000 </r>
       <r>   43.3306    0.0000 </r>
       <r>   43.9394    0.0000 </r>
       <r>   47.1966    0.0000 </r>
       <r>   47.1970    0.0000 </r>
       <r>   49.0726    0.0000 </r>
       <r>   49.0728    0.0000 </r>
       <r>   51.4162    0.0000 </r>
       <r>   59.0924    0.0000 </r>
       <r>   61.9255    0.0000 </r>
       <r>   61.9264    0.0000 </r>
       <r>   62.2304    0.0000 </r>
       <r>   62.9889    0.0000 </r>
       <r>   64.1290    0.0000 </r>
       <r>   64.1300    0.0000 </r>
       <r>   65.0159    0.0000 </r>
      </set>
      <set comment="kpoint 2">
       <r>   -1.5729    1.0000 </r>
       <r>    2.2248    1.0000 </r>
       <r>    4.8021    1.0000 </r>
       <r>    5.3965    1.0000 </r>
       <r>    5.4476    1.0000 </r>
       <r>    5.6574    1.0000 </r>
       <r>    5.6704    1.0000 </r>
       <r>    5.9596    1.0000 </r>
       <r>    6.6348    1.0037 </r>
       <r>    6.6820    1.0085 </r>
       <r>    7.8730   -0.0000 </r>
       <r>    8.9286   -0.0000 </r>
       <r>   14.3998    0.0000 </r>
       <r>   29.4976    0.0000 </r>
       <r>   30.8110    0.0000 </r>
       <r>   32.0938    0.0000 </r>
       <r>   33.3578    0.0000 </r>
       <r>   35.6121    0.0000 </r>
       <r>   35.6651    0.0000 </r>
       <r>   37.0756    0.0000 </r>
       <r>   39.0856    0.0000 </r>
       <r>   39.8549    0.0000 </r>
       <r>   39.9403    0.0000 </r>
       <r>   40.6290    0.0000 </r>
       <r>   44.5337    0.0000 </r>
       <r>   44.5445    0.0000 </r>
       <r>   44.8296    0.0000 </r>
       <r>   44.9467    0.0000 </r>
       <r>   48.4150    0.0000 </r>
       <r>   50.3747    0.0000 </r>
       <r>   51.4618    0.0000 </r>
       <r>   53.3954    0.0000 </r>
       <r>   58.3714    0.0000 </r>
       <r>   60.5178    0.0000 </r>
       <r>   60.6435    0.0000 </r>
       <r>   61.3329    0.0000 </r>
       <r>   61.6943    0.0000 </r>
       <r>   64.9358    0.0000 </r>
       <r>   65.0396    0.0000 </r>
       <r>   65.8520    0.0000 </r>
      </set>
      <set comment="kpoint 3">
       <r>   -0.6211    1.0000 </r>
       <r>    2.8256    1.0000 </r>
       <r>    4.3960    1.0000 </r>
       <r>    4.6524    1.0000 </r>
       <r>    5.1962    1.0000 </r>
       <r>    5.7662    1.0000 </r>
       <r>    6.2243    1.0000 </r>
       <r>    6.2551    1.0000 </r>
       <r>    6.4145    1.0000 </r>
       <r>    6.4730    1.0001 </r>
       <r>    7.9225   -0.0000 </r>
       <r>   10.7504   -0.0000 </r>
       <r>   14.5063    0.0000 </r>
       <r>   25.7252    0.0000 </r>
       <r>   30.5136    0.0000 </r>
       <r>   30.8302    0.0000 </r>
       <r>   31.0747    0.0000 </r>
       <r>   31.9504    0.0000 </r>
       <r>   36.0121    0.0000 </r>
       <r>   36.9103    0.0000 </r>
       <r>   37.3841    0.0000 </r>
       <r>   38.1556    0.0000 </r>
       <r>   40.8972    0.0000 </r>
       <r>   41.6809    0.0000 </r>
       <r>   44.6069    0.0000 </r>
       <r>   45.7704    0.0000 </r>
       <r>   47.2411    0.0000 </r>
       <r>   49.4449    0.0000 </r>
       <r>   51.2129    0.0000 </r>
       <r>   53.7720    0.0000 </r>
       <r>   54.3439    0.0000 </r>
       <r>   56.7916    0.0000 </r>
       <r>   57.0996    0.0000 </r>
       <r>   57.5572    0.0000 </r>
       <r>   58.9482    0.0000 </r>
       <r>   60.4173    0.0000 </r>
       <r>   62.1067    0.0000 </r>
       <r>   64.8015    0.0000 </r>
       <r>   66.1777    0.0000 </r>
       <r>   66.2439    0.0000 </r>
      </set>
      <set comment="kpoint 4">
       <r>    0.7279    1.0000 </r>
       <r>    3.1152    1.0000 </r>
       <r>    3.5807    1.0000 </r>
       <r>    4.6210    1.0000 </r>
       <r>    5.0098    1.0000 </r>
       <r>    5.7799    1.0000 </r>
       <r>    6.1100    1.0000 </r>
       <r>    6.5265    1.0003 </r>
       <r>    7.0070    0.7812 </r>
       <r>    7.1877    0.1050 </r>
       <r>    7.9472   -0.0000 </r>
       <r>   12.8224    0.0000 </r>
       <r>   14.7459    0.0000 </r>
       <r>   21.6811    0.0000 </r>
       <r>   27.4377    0.0000 </r>
       <r>   28.0649    0.0000 </r>
       <r>   29.1120    0.0000 </r>
       <r>   31.9970    0.0000 </r>
       <r>   34.1768    0.0000 </r>
       <r>   37.0237    0.0000 </r>
       <r>   37.4568    0.0000 </r>
       <r>   37.7742    0.0000 </r>
       <r>   38.4268    0.0000 </r>
       <r>   41.9583    0.0000 </r>
       <r>   48.2497    0.0000 </r>
       <r>   49.6629    0.0000 </r>
       <r>   50.7751    0.0000 </r>
       <r>   51.8145    0.0000 </r>
       <r>   52.6020    0.0000 </r>
       <r>   54.1793    0.0000 </r>
       <r>   55.5327    0.0000 </r>
       <r>   56.9915    0.0000 </r>
       <r>   58.7319    0.0000 </r>
       <r>   58.8128    0.0000 </r>
       <r>   59.8753    0.0000 </r>
       <r>   61.7347    0.0000 </r>
       <r>   63.2263    0.0000 </r>
       <r>   64.6236    0.0000 </r>
       <r>   66.5402    0.0000 </r>
       <r>   66.5949    0.0000 </r>
      </set>
      <set comment="kpoint 5">
       <r>    1.9306    1.0000 </r>
       <r>    2.8443    1.0000 </r>
       <r>    3.0424    1.0000 </r>
       <r>    4.7792    1.0000 </r>
       <r>    5.3586    1.0000 </r>
       <r>    5.4463    1.0000 </r>
       <r>    5.8579    1.0000 </r>
       <r>    7.7847   -0.0000 </r>
       <r>    7.7970   -0.0000 </r>
       <r>    7.9096   -0.0000 </r>
       <r>    7.9454   -0.0000 </r>
       <r>   14.7236    0.0000 </r>
       <r>   15.0502    0.0000 </r>
       <r>   18.7065    0.0000 </r>
       <r>   24.1118    0.0000 </r>
       <r>   26.2007    0.0000 </r>
       <r>   26.2107    0.0000 </r>
       <r>   31.2064    0.0000 </r>
       <r>   33.1540    0.0000 </r>
       <r>   36.3664    0.0000 </r>
       <r>   37.0335    0.0000 </r>
       <r>   38.6242    0.0000 </r>
       <r>   38.9908    0.0000 </r>
       <r>   42.1323    0.0000 </r>
       <r>   49.2696    0.0000 </r>
       <r>   50.7623    0.0000 </r>
       <r>   51.7022    0.0000 </r>
       <r>   54.8665    0.0000 </r>
       <r>   54.9118    0.0000 </r>
       <r>   55.3944    0.0000 </r>
       <r>   57.3935    0.0000 </r>
       <r>   58.7260    0.0000 </r>
       <r>   58.9946    0.0000 </r>
       <r>   60.2388    0.0000 </r>
       <r>   62.1648    0.0000 </r>
       <r>   63.7230    0.0000 </r>
       <r>   64.2887    0.0000 </r>
       <r>   65.3640    0.0000 </r>
       <r>   66.7398    0.0000 </r>
       <r>   67.2425    0.0000 </r>
      </set>
      <set comment="kpoint 6">
       <r>    2.3953    1.0000 </r>
       <r>    2.6051    1.0000 </r>
       <r>    2.7785    1.0000 </r>
       <r>    5.1110    1.0000 </r>
       <r>    5.3407    1.0000 </r>
       <r>    5.6882    1.0000 </r>
       <r>    5.7153    1.0000 </r>
       <r>    7.9389   -0.0000 </r>
       <r>    8.2848   -0.0000 </r>
       <r>    8.3941   -0.0000 </r>
       <r>    9.4938   -0.0000 </r>
       <r>   12.9531    0.0000 </r>
       <r>   17.1664    0.0000 </r>
       <r>   18.6132    0.0000 </r>
       <r>   21.4624    0.0000 </r>
       <r>   23.4707    0.0000 </r>
       <r>   25.1583    0.0000 </r>
       <r>   30.5968    0.0000 </r>
       <r>   32.8301    0.0000 </r>
       <r>   35.2199    0.0000 </r>
       <r>   36.8029    0.0000 </r>
       <r>   39.5436    0.0000 </r>
       <r>   41.3527    0.0000 </r>
       <r>   41.7928    0.0000 </r>
       <r>   45.8738    0.0000 </r>
       <r>   51.1440    0.0000 </r>
       <r>   52.7820    0.0000 </r>
       <r>   56.7403    0.0000 </r>
       <r>   57.3155    0.0000 </r>
       <r>   58.1006    0.0000 </r>
       <r>   59.0428    0.0000 </r>
       <r>   60.4697    0.0000 </r>
       <r>   60.6683    0.0000 </r>
       <r>   62.0506    0.0000 </r>
       <r>   62.8600    0.0000 </r>
       <r>   63.6725    0.0000 </r>
       <r>   65.5263    0.0000 </r>
       <r>   65.8803    0.0000 </r>
       <r>   66.7648    0.0000 </r>
       <r>   67.4585    0.0000 </r>
      </set>
      <set comment="kpoint 7">
       <r>   -0.9259    1.0000 </r>
       <r>    2.6719    1.0000 </r>
       <r>    4.6718    1.0000 </r>
       <r>    4.6827    1.0000 </r>
       <r>    5.4321    1.0000 </r>
       <r>    5.4392    1.0000 </r>
       <r>    6.0758    1.0000 </r>
       <r>    6.2389    1.0000 </r>
       <r>    6.3571    1.0000 </r>
       <r>    6.6370    1.0039 </r>
       <r>    7.8792   -0.0000 </r>
       <r>   10.2419   -0.0000 </r>
       <r>   14.4693    0.0000 </r>
       <r>   27.4708    0.0000 </r>
       <r>   28.7733    0.0000 </r>
       <r>   31.3816    0.0000 </r>
       <r>   32.8103    0.0000 </r>
       <r>   34.3832    0.0000 </r>
       <r>   34.6032    0.0000 </r>
       <r>   35.9049    0.0000 </r>
       <r>   36.7955    0.0000 </r>
       <r>   41.5858    0.0000 </r>
       <r>   41.7293    0.0000 </r>
       <r>   42.4903    0.0000 </r>
       <r>   43.4519    0.0000 </r>
       <r>   43.7342    0.0000 </r>
       <r>   43.9831    0.0000 </r>
       <r>   50.0423    0.0000 </r>
       <r>   52.0154    0.0000 </r>
       <r>   52.1633    0.0000 </r>
       <r>   52.3650    0.0000 </r>
       <r>   56.2735    0.0000 </r>
       <r>   57.4750    0.0000 </r>
       <r>   58.2832    0.0000 </r>
       <r>   59.2547    0.0000 </r>
       <r>   60.4374    0.0000 </r>
       <r>   61.6412    0.0000 </r>
       <r>   65.0946    0.0000 </r>
       <r>   66.2954    0.0000 </r>
       <r>   66.3053    0.0000 </r>
      </set>
      <set comment="kpoint 8">
       <r>    0.2504    1.0000 </r>
       <r>    3.2441    1.0000 </r>
       <r>    3.8759    1.0000 </r>
       <r>    4.3887    1.0000 </r>
       <r>    5.1152    1.0000 </r>
       <r>    5.7869    1.0000 </r>
       <r>    5.8821    1.0000 </r>
       <r>    6.3759    1.0000 </r>
       <r>    6.7967    1.0315 </r>
       <r>    7.0946    0.4308 </r>
       <r>    7.8698   -0.0000 </r>
       <r>   12.0957   -0.0000 </r>
       <r>   14.6860    0.0000 </r>
       <r>   23.7494    0.0000 </r>
       <r>   26.3862    0.0000 </r>
       <r>   29.2913    0.0000 </r>
       <r>   31.4186    0.0000 </r>
       <r>   31.9507    0.0000 </r>
       <r>   34.9849    0.0000 </r>
       <r>   35.0383    0.0000 </r>
       <r>   36.2301    0.0000 </r>
       <r>   40.6108    0.0000 </r>
       <r>   41.0754    0.0000 </r>
       <r>   42.2416    0.0000 </r>
       <r>   45.3284    0.0000 </r>
       <r>   46.2609    0.0000 </r>
       <r>   48.3053    0.0000 </r>
       <r>   52.0977    0.0000 </r>
       <r>   54.2722    0.0000 </r>
       <r>   54.5797    0.0000 </r>
       <r>   55.1118    0.0000 </r>
       <r>   57.1057    0.0000 </r>
       <r>   58.0341    0.0000 </r>
       <r>   58.2065    0.0000 </r>
       <r>   59.2500    0.0000 </r>
       <r>   59.7630    0.0000 </r>
       <r>   62.4567    0.0000 </r>
       <r>   65.2732    0.0000 </r>
       <r>   66.7123    0.0000 </r>
       <r>   66.8309    0.0000 </r>
      </set>
      <set comment="kpoint 9">
       <r>    1.6193    1.0000 </r>
       <r>    3.1838    1.0000 </r>
       <r>    3.2836    1.0000 </r>
       <r>    4.4725    1.0000 </r>
       <r>    5.1860    1.0000 </r>
       <r>    5.4056    1.0000 </r>
       <r>    6.0054    1.0000 </r>
       <r>    6.6764    1.0078 </r>
       <r>    7.5857   -0.0010 </r>
       <r>    7.8534   -0.0000 </r>
       <r>    8.0533   -0.0000 </r>
       <r>   14.2193    0.0000 </r>
       <r>   15.0619    0.0000 </r>
       <r>   20.0123    0.0000 </r>
       <r>   24.6670    0.0000 </r>
       <r>   25.8583    0.0000 </r>
       <r>   28.5590    0.0000 </r>
       <r>   30.3167    0.0000 </r>
       <r>   34.2372    0.0000 </r>
       <r>   35.4970    0.0000 </r>
       <r>   36.4923    0.0000 </r>
       <r>   40.0745    0.0000 </r>
       <r>   40.4757    0.0000 </r>
       <r>   43.3819    0.0000 </r>
       <r>   47.2784    0.0000 </r>
       <r>   49.9677    0.0000 </r>
       <r>   51.1985    0.0000 </r>
       <r>   51.4305    0.0000 </r>
       <r>   53.4433    0.0000 </r>
       <r>   55.6329    0.0000 </r>
       <r>   56.7033    0.0000 </r>
       <r>   58.5691    0.0000 </r>
       <r>   59.4849    0.0000 </r>
       <r>   59.9057    0.0000 </r>
       <r>   61.3979    0.0000 </r>
       <r>   63.2169    0.0000 </r>
       <r>   64.8674    0.0000 </r>
       <r>   65.2770    0.0000 </r>
       <r>   65.7571    0.0000 </r>
       <r>   67.0668    0.0000 </r>
      </set>
      <set comment="kpoint 10">
       <r>    2.4720    1.0000 </r>
       <r>    2.8676    1.0000 </r>
       <r>    2.9332    1.0000 </r>
       <r>    4.8846    1.0000 </r>
       <r>    5.1611    1.0000 </r>
       <r>    5.5772    1.0000 </r>
       <r>    5.6919    1.0000 </r>
       <r>    7.6270   -0.0004 </r>
       <r>    7.8332   -0.0000 </r>
       <r>    8.1275   -0.0000 </r>
       <r>    9.2721   -0.0000 </r>
       <r>   14.3570    0.0000 </r>
       <r>   16.4691    0.0000 </r>
       <r>   18.4270    0.0000 </r>
       <r>   22.8324    0.0000 </r>
       <r>   23.3002    0.0000 </r>
       <r>   25.3099    0.0000 </r>
       <r>   29.4345    0.0000 </r>
       <r>   33.2901    0.0000 </r>
       <r>   35.0048    0.0000 </r>
       <r>   37.8928    0.0000 </r>
       <r>   40.4439    0.0000 </r>
       <r>   41.2391    0.0000 </r>
       <r>   42.8233    0.0000 </r>
       <r>   47.8690    0.0000 </r>
       <r>   49.9990    0.0000 </r>
       <r>   51.5582    0.0000 </r>
       <r>   53.5195    0.0000 </r>
       <r>   55.0455    0.0000 </r>
       <r>   57.1393    0.0000 </r>
       <r>   58.2785    0.0000 </r>
       <r>   59.9047    0.0000 </r>
       <r>   60.7523    0.0000 </r>
       <r>   62.9199    0.0000 </r>
       <r>   63.1576    0.0000 </r>
       <r>   64.2843    0.0000 </r>
       <r>   64.5670    0.0000 </r>
       <r>   65.9222    0.0000 </r>
       <r>   66.7602    0.0000 </r>
       <r>   67.6263    0.0000 </r>
      </set>
      <set comment="kpoint 11">
       <r>    2.6130    1.0000 </r>
       <r>    2.7679    1.0000 </r>
       <r>    2.8185    1.0000 </r>
       <r>    5.0791    1.0000 </r>
       <r>    5.2909    1.0000 </r>
       <r>    5.5678    1.0000 </r>
       <r>    5.6795    1.0000 </r>
       <r>    7.8243   -0.0000 </r>
       <r>    8.1730   -0.0000 </r>
       <r>    8.1998   -0.0000 </r>
       <r>   10.5094   -0.0000 </r>
       <r>   12.6771    0.0000 </r>
       <r>   18.0002    0.0000 </r>
       <r>   19.0629    0.0000 </r>
       <r>   21.0380    0.0000 </r>
       <r>   22.3669    0.0000 </r>
       <r>   23.9121    0.0000 </r>
       <r>   29.1202    0.0000 </r>
       <r>   32.8970    0.0000 </r>
       <r>   34.8366    0.0000 </r>
       <r>   38.1623    0.0000 </r>
       <r>   41.2679    0.0000 </r>
       <r>   41.7168    0.0000 </r>
       <r>   42.8553    0.0000 </r>
       <r>   45.6029    0.0000 </r>
       <r>   51.3941    0.0000 </r>
       <r>   51.4864    0.0000 </r>
       <r>   54.1752    0.0000 </r>
       <r>   57.1619    0.0000 </r>
       <r>   57.4420    0.0000 </r>
       <r>   60.5673    0.0000 </r>
       <r>   60.8472    0.0000 </r>
       <r>   61.0089    0.0000 </r>
       <r>   61.0111    0.0000 </r>
       <r>   62.6234    0.0000 </r>
       <r>   65.1560    0.0000 </r>
       <r>   66.3711    0.0000 </r>
       <r>   66.4255    0.0000 </r>
       <r>   66.6943    0.0000 </r>
       <r>   68.3575    0.0000 </r>
      </set>
      <set comment="kpoint 12">
       <r>    1.5244    1.0000 </r>
       <r>    3.4269    1.0000 </r>
       <r>    3.7098    1.0000 </r>
       <r>    3.9329    1.0000 </r>
       <r>    5.1742    1.0000 </r>
       <r>    5.3336    1.0000 </r>
       <r>    6.1298    1.0000 </r>
       <r>    6.1384    1.0000 </r>
       <r>    7.5585   -0.0018 </r>
       <r>    7.7506   -0.0000 </r>
       <r>    8.1231   -0.0000 </r>
       <r>   13.9573    0.0000 </r>
       <r>   15.1927    0.0000 </r>
       <r>   21.7540    0.0000 </r>
       <r>   22.5300    0.0000 </r>
       <r>   27.4304    0.0000 </r>
       <r>   28.7900    0.0000 </r>
       <r>   30.9016    0.0000 </r>
       <r>   31.5467    0.0000 </r>
       <r>   36.0002    0.0000 </r>
       <r>   37.9325    0.0000 </r>
       <r>   41.7092    0.0000 </r>
       <r>   42.1741    0.0000 </r>
       <r>   44.4318    0.0000 </r>
       <r>   45.2693    0.0000 </r>
       <r>   47.2537    0.0000 </r>
       <r>   48.3428    0.0000 </r>
       <r>   52.8576    0.0000 </r>
       <r>   54.2018    0.0000 </r>
       <r>   55.1505    0.0000 </r>
       <r>   55.3264    0.0000 </r>
       <r>   58.9710    0.0000 </r>
       <r>   59.2265    0.0000 </r>
       <r>   62.0004    0.0000 </r>
       <r>   62.0850    0.0000 </r>
       <r>   62.2093    0.0000 </r>
       <r>   62.2724    0.0000 </r>
       <r>   65.6546    0.0000 </r>
       <r>   65.9470    0.0000 </r>
       <r>   68.2752    0.0000 </r>
      </set>
      <set comment="kpoint 13">
       <r>    2.7393    1.0000 </r>
       <r>    3.1456    1.0000 </r>
       <r>    3.4185    1.0000 </r>
       <r>    4.1526    1.0000 </r>
       <r>    5.0673    1.0000 </r>
       <r>    5.4630    1.0000 </r>
       <r>    5.7304    1.0000 </r>
       <r>    6.7168    1.0142 </r>
       <r>    7.6480   -0.0002 </r>
       <r>    8.0546   -0.0000 </r>
       <r>    9.4280   -0.0000 </r>
       <r>   15.8007    0.0000 </r>
       <r>   16.1312    0.0000 </r>
       <r>   18.8113    0.0000 </r>
       <r>   20.8987    0.0000 </r>
       <r>   24.7605    0.0000 </r>
       <r>   27.2006    0.0000 </r>
       <r>   27.3802    0.0000 </r>
       <r>   30.2403    0.0000 </r>
       <r>   38.2045    0.0000 </r>
       <r>   38.4353    0.0000 </r>
       <r>   41.6582    0.0000 </r>
       <r>   43.9295    0.0000 </r>
       <r>   45.3336    0.0000 </r>
       <r>   46.2404    0.0000 </r>
       <r>   48.3309    0.0000 </r>
       <r>   49.5435    0.0000 </r>
       <r>   50.7623    0.0000 </r>
       <r>   54.0459    0.0000 </r>
       <r>   54.9469    0.0000 </r>
       <r>   57.3944    0.0000 </r>
       <r>   60.0141    0.0000 </r>
       <r>   61.1760    0.0000 </r>
       <r>   62.3869    0.0000 </r>
       <r>   64.3582    0.0000 </r>
       <r>   64.5408    0.0000 </r>
       <r>   65.6251    0.0000 </r>
       <r>   66.1067    0.0000 </r>
       <r>   67.2859    0.0000 </r>
       <r>   68.8202    0.0000 </r>
      </set>
      <set comment="kpoint 14">
       <r>    3.0217    1.0000 </r>
       <r>    3.1132    1.0000 </r>
       <r>    3.2342    1.0000 </r>
       <r>    4.6643    1.0000 </r>
       <r>    5.0348    1.0000 </r>
       <r>    5.3431    1.0000 </r>
       <r>    5.7406    1.0000 </r>
       <r>    7.4449   -0.0132 </r>
       <r>    7.5896   -0.0009 </r>
       <r>    8.0508   -0.0000 </r>
       <r>   11.0543   -0.0000 </r>
       <r>   14.1212    0.0000 </r>
       <r>   18.3680    0.0000 </r>
       <r>   19.0583    0.0000 </r>
       <r>   20.0289    0.0000 </r>
       <r>   22.0548    0.0000 </r>
       <r>   24.4020    0.0000 </r>
       <r>   26.6014    0.0000 </r>
       <r>   29.5899    0.0000 </r>
       <r>   38.4306    0.0000 </r>
       <r>   40.2889    0.0000 </r>
       <r>   41.9699    0.0000 </r>
       <r>   43.4352    0.0000 </r>
       <r>   44.4695    0.0000 </r>
       <r>   48.0732    0.0000 </r>
       <r>   48.7292    0.0000 </r>
       <r>   50.4329    0.0000 </r>
       <r>   51.2008    0.0000 </r>
       <r>   54.8535    0.0000 </r>
       <r>   56.1265    0.0000 </r>
       <r>   56.8826    0.0000 </r>
       <r>   60.0574    0.0000 </r>
       <r>   60.6744    0.0000 </r>
       <r>   61.3287    0.0000 </r>
       <r>   65.5596    0.0000 </r>
       <r>   65.6762    0.0000 </r>
       <r>   67.3604    0.0000 </r>
       <r>   67.3723    0.0000 </r>
       <r>   67.4654    0.0000 </r>
       <r>   67.5216    0.0000 </r>
      </set>
      <set comment="kpoint 15">
       <r>    3.1628    1.0000 </r>
       <r>    3.5193    1.0000 </r>
       <r>    3.8360    1.0000 </r>
       <r>    3.8728    1.0000 </r>
       <r>    4.9062    1.0000 </r>
       <r>    5.3193    1.0000 </r>
       <r>    5.7744    1.0000 </r>
       <r>    6.9865    0.8465 </r>
       <r>    7.4675   -0.0095 </r>
       <r>    8.0127   -0.0000 </r>
       <r>   11.1912   -0.0000 </r>
       <r>   16.2366    0.0000 </r>
       <r>   16.8529    0.0000 </r>
       <r>   18.4005    0.0000 </r>
       <r>   19.7388    0.0000 </r>
       <r>   24.0909    0.0000 </r>
       <r>   24.1377    0.0000 </r>
       <r>   26.1438    0.0000 </r>
       <r>   27.0025    0.0000 </r>
       <r>   39.9079    0.0000 </r>
       <r>   40.7610    0.0000 </r>
       <r>   44.5223    0.0000 </r>
       <r>   45.5351    0.0000 </r>
       <r>   45.9199    0.0000 </r>
       <r>   46.0699    0.0000 </r>
       <r>   46.8013    0.0000 </r>
       <r>   49.2282    0.0000 </r>
       <r>   51.7133    0.0000 </r>
       <r>   51.9874    0.0000 </r>
       <r>   56.0899    0.0000 </r>
       <r>   56.2882    0.0000 </r>
       <r>   58.8023    0.0000 </r>
       <r>   60.5619    0.0000 </r>
       <r>   61.4932    0.0000 </r>
       <r>   65.4094    0.0000 </r>
       <r>   66.2279    0.0000 </r>
       <r>   66.3640    0.0000 </r>
       <r>   67.6654    0.0000 </r>
       <r>   67.8217    0.0000 </r>
       <r>   68.9038    0.0000 </r>
      </set>
      <set comment="kpoint 16">
       <r>    3.2037    1.0000 </r>
       <r>    3.6567    1.0000 </r>
       <r>    3.7161    1.0000 </r>
       <r>    4.2203    1.0000 </r>
       <r>    4.9768    1.0000 </r>
       <r>    5.0029    1.0000 </r>
       <r>    5.9209    1.0000 </r>
       <r>    7.3699   -0.0295 </r>
       <r>    7.3979   -0.0232 </r>
       <r>    7.6841   -0.0001 </r>
       <r>   12.9802    0.0000 </r>
       <r>   14.2798    0.0000 </r>
       <r>   16.4686    0.0000 </r>
       <r>   20.3815    0.0000 </r>
       <r>   20.7123    0.0000 </r>
       <r>   21.8659    0.0000 </r>
       <r>   23.8946    0.0000 </r>
       <r>   24.4375    0.0000 </r>
       <r>   26.3975    0.0000 </r>
       <r>   40.3010    0.0000 </r>
       <r>   43.1983    0.0000 </r>
       <r>   44.1045    0.0000 </r>
       <r>   44.6848    0.0000 </r>
       <r>   45.3396    0.0000 </r>
       <r>   46.9653    0.0000 </r>
       <r>   47.7868    0.0000 </r>
       <r>   50.9686    0.0000 </r>
       <r>   51.3371    0.0000 </r>
       <r>   51.6327    0.0000 </r>
       <r>   55.0745    0.0000 </r>
       <r>   56.3994    0.0000 </r>
       <r>   56.9649    0.0000 </r>
       <r>   60.1239    0.0000 </r>
       <r>   60.6104    0.0000 </r>
       <r>   65.6501    0.0000 </r>
       <r>   66.5515    0.0000 </r>
       <r>   67.8315    0.0000 </r>
       <r>   67.8865    0.0000 </r>
       <r>   68.1993    0.0000 </r>
       <r>   68.4408    0.0000 </r>
      </set>
      <set comment="kpoint 17">
       <r>   -1.8298    1.0000 </r>
       <r>    1.9367    1.0000 </r>
       <r>    4.7528    1.0000 </r>
       <r>    5.4676    1.0000 </r>
       <r>    5.4677    1.0000 </r>
       <r>    5.7598    1.0000 </r>
       <r>    5.7600    1.0000 </r>
       <r>    6.0498    1.0000 </r>
       <r>    6.8314    1.0354 </r>
       <r>    6.8315    1.0354 </r>
       <r>    7.8327   -0.0000 </r>
       <r>    7.8327   -0.0000 </r>
       <r>   14.7510    0.0000 </r>
       <r>   29.6683    0.0000 </r>
       <r>   30.9506    0.0000 </r>
       <r>   33.5596    0.0000 </r>
       <r>   36.2378    0.0000 </r>
       <r>   36.2378    0.0000 </r>
       <r>   37.0078    0.0000 </r>
       <r>   37.0079    0.0000 </r>
       <r>   37.7479    0.0000 </r>
       <r>   39.6406    0.0000 </r>
       <r>   39.6406    0.0000 </r>
       <r>   40.9802    0.0000 </r>
       <r>   42.9907    0.0000 </r>
       <r>   42.9907    0.0000 </r>
       <r>   44.1541    0.0000 </r>
       <r>   47.4475    0.0000 </r>
       <r>   47.4479    0.0000 </r>
       <r>   49.4847    0.0000 </r>
       <r>   49.4848    0.0000 </r>
       <r>   51.2705    0.0000 </r>
       <r>   58.3964    0.0000 </r>
       <r>   61.6622    0.0000 </r>
       <r>   61.6630    0.0000 </r>
       <r>   62.3016    0.0000 </r>
       <r>   62.4769    0.0000 </r>
       <r>   62.4774    0.0000 </r>
       <r>   63.7580    0.0000 </r>
       <r>   64.0112    0.0000 </r>
      </set>
      <set comment="kpoint 18">
       <r>   -1.4951    1.0000 </r>
       <r>    2.1954    1.0000 </r>
       <r>    4.7906    1.0000 </r>
       <r>    5.2910    1.0000 </r>
       <r>    5.3702    1.0000 </r>
       <r>    5.6604    1.0000 </r>
       <r>    5.6898    1.0000 </r>
       <r>    5.9423    1.0000 </r>
       <r>    6.6792    1.0081 </r>
       <r>    6.7251    1.0158 </r>
       <r>    7.8613   -0.0000 </r>
       <r>    8.7789   -0.0000 </r>
       <r>   14.8095    0.0000 </r>
       <r>   29.4276    0.0000 </r>
       <r>   30.2561    0.0000 </r>
       <r>   32.0855    0.0000 </r>
       <r>   33.4273    0.0000 </r>
       <r>   34.9332    0.0000 </r>
       <r>   36.2667    0.0000 </r>
       <r>   37.4835    0.0000 </r>
       <r>   38.8036    0.0000 </r>
       <r>   39.9583    0.0000 </r>
       <r>   40.0276    0.0000 </r>
       <r>   40.8417    0.0000 </r>
       <r>   44.1796    0.0000 </r>
       <r>   44.3359    0.0000 </r>
       <r>   45.3612    0.0000 </r>
       <r>   45.4617    0.0000 </r>
       <r>   48.2633    0.0000 </r>
       <r>   50.6436    0.0000 </r>
       <r>   51.7701    0.0000 </r>
       <r>   53.3450    0.0000 </r>
       <r>   57.1872    0.0000 </r>
       <r>   60.0764    0.0000 </r>
       <r>   60.8283    0.0000 </r>
       <r>   61.5934    0.0000 </r>
       <r>   62.0374    0.0000 </r>
       <r>   63.7266    0.0000 </r>
       <r>   64.2302    0.0000 </r>
       <r>   65.0575    0.0000 </r>
      </set>
      <set comment="kpoint 19">
       <r>   -0.5508    1.0000 </r>
       <r>    2.8094    1.0000 </r>
       <r>    4.3182    1.0000 </r>
       <r>    4.6678    1.0000 </r>
       <r>    5.1657    1.0000 </r>
       <r>    5.6958    1.0000 </r>
       <r>    6.1788    1.0000 </r>
       <r>    6.3627    1.0000 </r>
       <r>    6.4126    1.0000 </r>
       <r>    6.5377    1.0004 </r>
       <r>    7.9026   -0.0000 </r>
       <r>   10.3999   -0.0000 </r>
       <r>   15.0431    0.0000 </r>
       <r>   25.7798    0.0000 </r>
       <r>   30.1632    0.0000 </r>
       <r>   30.6033    0.0000 </r>
       <r>   31.3267    0.0000 </r>
       <r>   31.5565    0.0000 </r>
       <r>   35.6620    0.0000 </r>
       <r>   37.2173    0.0000 </r>
       <r>   37.6681    0.0000 </r>
       <r>   37.9548    0.0000 </r>
       <r>   41.2829    0.0000 </r>
       <r>   42.2046    0.0000 </r>
       <r>   44.8429    0.0000 </r>
       <r>   45.6951    0.0000 </r>
       <r>   47.0319    0.0000 </r>
       <r>   49.4729    0.0000 </r>
       <r>   51.0167    0.0000 </r>
       <r>   53.8400    0.0000 </r>
       <r>   54.6471    0.0000 </r>
       <r>   55.4990    0.0000 </r>
       <r>   56.6173    0.0000 </r>
       <r>   58.3766    0.0000 </r>
       <r>   58.9499    0.0000 </r>
       <r>   60.5839    0.0000 </r>
       <r>   62.1850    0.0000 </r>
       <r>   64.6117    0.0000 </r>
       <r>   64.9565    0.0000 </r>
       <r>   66.6970    0.0000 </r>
      </set>
      <set comment="kpoint 20">
       <r>    0.7767    1.0000 </r>
       <r>    3.1080    1.0000 </r>
       <r>    3.5605    1.0000 </r>
       <r>    4.6242    1.0000 </r>
       <r>    4.9724    1.0000 </r>
       <r>    5.7946    1.0000 </r>
       <r>    6.1307    1.0000 </r>
       <r>    6.5685    1.0009 </r>
       <r>    7.0159    0.7501 </r>
       <r>    7.1737    0.1426 </r>
       <r>    7.9241   -0.0000 </r>
       <r>   12.1155   -0.0000 </r>
       <r>   15.5855    0.0000 </r>
       <r>   21.7437    0.0000 </r>
       <r>   27.0093    0.0000 </r>
       <r>   28.1702    0.0000 </r>
       <r>   29.4176    0.0000 </r>
       <r>   31.7324    0.0000 </r>
       <r>   34.0436    0.0000 </r>
       <r>   36.2215    0.0000 </r>
       <r>   36.4650    0.0000 </r>
       <r>   38.7712    0.0000 </r>
       <r>   39.4437    0.0000 </r>
       <r>   42.6008    0.0000 </r>
       <r>   48.3477    0.0000 </r>
       <r>   49.2972    0.0000 </r>
       <r>   50.3406    0.0000 </r>
       <r>   50.4117    0.0000 </r>
       <r>   53.9728    0.0000 </r>
       <r>   54.3101    0.0000 </r>
       <r>   55.7842    0.0000 </r>
       <r>   57.2561    0.0000 </r>
       <r>   57.8684    0.0000 </r>
       <r>   58.4860    0.0000 </r>
       <r>   60.4001    0.0000 </r>
       <r>   61.4895    0.0000 </r>
       <r>   63.5087    0.0000 </r>
       <r>   64.8096    0.0000 </r>
       <r>   65.2534    0.0000 </r>
       <r>   67.0836    0.0000 </r>
      </set>
      <set comment="kpoint 21">
       <r>    1.9210    1.0000 </r>
       <r>    2.8057    1.0000 </r>
       <r>    3.1329    1.0000 </r>
       <r>    4.5668    1.0000 </r>
       <r>    5.4410    1.0000 </r>
       <r>    5.6411    1.0000 </r>
       <r>    5.8909    1.0000 </r>
       <r>    7.7484   -0.0000 </r>
       <r>    7.7903   -0.0000 </r>
       <r>    7.8241   -0.0000 </r>
       <r>    7.9915   -0.0000 </r>
       <r>   13.5027    0.0000 </r>
       <r>   16.2890    0.0000 </r>
       <r>   18.8117    0.0000 </r>
       <r>   23.7246    0.0000 </r>
       <r>   26.3182    0.0000 </r>
       <r>   26.6391    0.0000 </r>
       <r>   31.1614    0.0000 </r>
       <r>   33.1174    0.0000 </r>
       <r>   35.1851    0.0000 </r>
       <r>   37.0726    0.0000 </r>
       <r>   38.2416    0.0000 </r>
       <r>   40.0466    0.0000 </r>
       <r>   42.8491    0.0000 </r>
       <r>   47.9518    0.0000 </r>
       <r>   51.4938    0.0000 </r>
       <r>   52.0621    0.0000 </r>
       <r>   53.9146    0.0000 </r>
       <r>   54.5049    0.0000 </r>
       <r>   56.4320    0.0000 </r>
       <r>   57.2161    0.0000 </r>
       <r>   58.5449    0.0000 </r>
       <r>   59.5769    0.0000 </r>
       <r>   60.1073    0.0000 </r>
       <r>   62.2268    0.0000 </r>
       <r>   63.6757    0.0000 </r>
       <r>   64.6352    0.0000 </r>
       <r>   64.6375    0.0000 </r>
       <r>   67.1554    0.0000 </r>
       <r>   67.2316    0.0000 </r>
      </set>
      <set comment="kpoint 22">
       <r>    2.3213    1.0000 </r>
       <r>    2.5075    1.0000 </r>
       <r>    3.0053    1.0000 </r>
       <r>    4.6324    1.0000 </r>
       <r>    5.6236    1.0000 </r>
       <r>    5.7531    1.0000 </r>
       <r>    5.9776    1.0000 </r>
       <r>    7.8816   -0.0000 </r>
       <r>    8.2890   -0.0000 </r>
       <r>    8.3948   -0.0000 </r>
       <r>    9.4050   -0.0000 </r>
       <r>   12.7618    0.0000 </r>
       <r>   17.0371    0.0000 </r>
       <r>   18.6718    0.0000 </r>
       <r>   21.5453    0.0000 </r>
       <r>   23.8654    0.0000 </r>
       <r>   25.2848    0.0000 </r>
       <r>   30.5955    0.0000 </r>
       <r>   32.8200    0.0000 </r>
       <r>   34.3177    0.0000 </r>
       <r>   37.7493    0.0000 </r>
       <r>   38.7065    0.0000 </r>
       <r>   40.1994    0.0000 </r>
       <r>   43.5146    0.0000 </r>
       <r>   45.7662    0.0000 </r>
       <r>   51.9084    0.0000 </r>
       <r>   52.2403    0.0000 </r>
       <r>   55.6506    0.0000 </r>
       <r>   57.1791    0.0000 </r>
       <r>   58.4408    0.0000 </r>
       <r>   59.7398    0.0000 </r>
       <r>   60.5088    0.0000 </r>
       <r>   60.5541    0.0000 </r>
       <r>   62.1956    0.0000 </r>
       <r>   63.1479    0.0000 </r>
       <r>   63.8894    0.0000 </r>
       <r>   65.2564    0.0000 </r>
       <r>   66.3942    0.0000 </r>
       <r>   66.8275    0.0000 </r>
       <r>   67.2460    0.0000 </r>
      </set>
      <set comment="kpoint 23">
       <r>   -0.8527    1.0000 </r>
       <r>    2.6516    1.0000 </r>
       <r>    4.5750    1.0000 </r>
       <r>    4.6935    1.0000 </r>
       <r>    5.3567    1.0000 </r>
       <r>    5.4541    1.0000 </r>
       <r>    6.0500    1.0000 </r>
       <r>    6.2606    1.0000 </r>
       <r>    6.4105    1.0000 </r>
       <r>    6.6800    1.0082 </r>
       <r>    7.8620   -0.0000 </r>
       <r>    9.9547   -0.0000 </r>
       <r>   14.9601    0.0000 </r>
       <r>   27.5115    0.0000 </r>
       <r>   28.8278    0.0000 </r>
       <r>   30.7021    0.0000 </r>
       <r>   32.3875    0.0000 </r>
       <r>   34.5416    0.0000 </r>
       <r>   35.0471    0.0000 </r>
       <r>   35.2902    0.0000 </r>
       <r>   37.5320    0.0000 </r>
       <r>   41.5922    0.0000 </r>
       <r>   41.7654    0.0000 </r>
       <r>   42.6466    0.0000 </r>
       <r>   42.9261    0.0000 </r>
       <r>   44.1685    0.0000 </r>
       <r>   44.6324    0.0000 </r>
       <r>   49.8716    0.0000 </r>
       <r>   51.5479    0.0000 </r>
       <r>   52.5214    0.0000 </r>
       <r>   52.7559    0.0000 </r>
       <r>   55.8526    0.0000 </r>
       <r>   56.0267    0.0000 </r>
       <r>   58.6989    0.0000 </r>
       <r>   59.7102    0.0000 </r>
       <r>   60.9460    0.0000 </r>
       <r>   61.5615    0.0000 </r>
       <r>   64.2429    0.0000 </r>
       <r>   65.0593    0.0000 </r>
       <r>   66.6576    0.0000 </r>
      </set>
      <set comment="kpoint 24">
       <r>    0.3107    1.0000 </r>
       <r>    3.2417    1.0000 </r>
       <r>    3.8217    1.0000 </r>
       <r>    4.4101    1.0000 </r>
       <r>    5.0906    1.0000 </r>
       <r>    5.6169    1.0000 </r>
       <r>    6.0878    1.0000 </r>
       <r>    6.3455    1.0000 </r>
       <r>    6.8499    1.0343 </r>
       <r>    7.0763    0.5084 </r>
       <r>    7.8558   -0.0000 </r>
       <r>   11.5498   -0.0000 </r>
       <r>   15.3851    0.0000 </r>
       <r>   23.8124    0.0000 </r>
       <r>   26.4489    0.0000 </r>
       <r>   28.9572    0.0000 </r>
       <r>   30.9210    0.0000 </r>
       <r>   32.3509    0.0000 </r>
       <r>   33.9467    0.0000 </r>
       <r>   35.5007    0.0000 </r>
       <r>   36.7321    0.0000 </r>
       <r>   40.5103    0.0000 </r>
       <r>   41.3251    0.0000 </r>
       <r>   42.8366    0.0000 </r>
       <r>   45.2597    0.0000 </r>
       <r>   46.1926    0.0000 </r>
       <r>   48.5164    0.0000 </r>
       <r>   51.4137    0.0000 </r>
       <r>   53.7242    0.0000 </r>
       <r>   54.6344    0.0000 </r>
       <r>   55.6235    0.0000 </r>
       <r>   57.0763    0.0000 </r>
       <r>   57.2778    0.0000 </r>
       <r>   58.8528    0.0000 </r>
       <r>   59.0361    0.0000 </r>
       <r>   60.4318    0.0000 </r>
       <r>   62.5571    0.0000 </r>
       <r>   64.9900    0.0000 </r>
       <r>   65.5664    0.0000 </r>
       <r>   66.6769    0.0000 </r>
      </set>
      <set comment="kpoint 25">
       <r>    1.6431    1.0000 </r>
       <r>    3.1560    1.0000 </r>
       <r>    3.3153    1.0000 </r>
       <r>    4.4493    1.0000 </r>
       <r>    5.1263    1.0000 </r>
       <r>    5.5196    1.0000 </r>
       <r>    6.0117    1.0000 </r>
       <r>    6.6919    1.0099 </r>
       <r>    7.6044   -0.0006 </r>
       <r>    7.7631   -0.0000 </r>
       <r>    8.0968   -0.0000 </r>
       <r>   13.1765    0.0000 </r>
       <r>   16.2076    0.0000 </r>
       <r>   20.0805    0.0000 </r>
       <r>   24.6962    0.0000 </r>
       <r>   25.5568    0.0000 </r>
       <r>   28.8978    0.0000 </r>
       <r>   30.1058    0.0000 </r>
       <r>   34.4052    0.0000 </r>
       <r>   34.9730    0.0000 </r>
       <r>   36.2063    0.0000 </r>
       <r>   39.9401    0.0000 </r>
       <r>   41.2868    0.0000 </r>
       <r>   43.9368    0.0000 </r>
       <r>   47.0072    0.0000 </r>
       <r>   48.7910    0.0000 </r>
       <r>   50.7728    0.0000 </r>
       <r>   52.6558    0.0000 </r>
       <r>   53.7977    0.0000 </r>
       <r>   55.0644    0.0000 </r>
       <r>   57.1308    0.0000 </r>
       <r>   58.6032    0.0000 </r>
       <r>   59.1108    0.0000 </r>
       <r>   60.2044    0.0000 </r>
       <r>   61.6656    0.0000 </r>
       <r>   62.9952    0.0000 </r>
       <r>   64.5474    0.0000 </r>
       <r>   65.2492    0.0000 </r>
       <r>   65.6960    0.0000 </r>
       <r>   66.7867    0.0000 </r>
      </set>
      <set comment="kpoint 26">
       <r>    2.4035    1.0000 </r>
       <r>    2.7974    1.0000 </r>
       <r>    3.1234    1.0000 </r>
       <r>    4.5449    1.0000 </r>
       <r>    5.5002    1.0000 </r>
       <r>    5.5456    1.0000 </r>
       <r>    5.8054    1.0000 </r>
       <r>    7.6134   -0.0005 </r>
       <r>    7.7720   -0.0000 </r>
       <r>    8.1413   -0.0000 </r>
       <r>    9.2559   -0.0000 </r>
       <r>   13.8633    0.0000 </r>
       <r>   16.7153    0.0000 </r>
       <r>   18.7120    0.0000 </r>
       <r>   22.4508    0.0000 </r>
       <r>   23.5565    0.0000 </r>
       <r>   25.7073    0.0000 </r>
       <r>   29.2117    0.0000 </r>
       <r>   33.5140    0.0000 </r>
       <r>   34.9275    0.0000 </r>
       <r>   37.1384    0.0000 </r>
       <r>   39.5965    0.0000 </r>
       <r>   42.1999    0.0000 </r>
       <r>   43.4697    0.0000 </r>
       <r>   47.2720    0.0000 </r>
       <r>   49.8817    0.0000 </r>
       <r>   51.6979    0.0000 </r>
       <r>   53.8147    0.0000 </r>
       <r>   55.6304    0.0000 </r>
       <r>   56.8658    0.0000 </r>
       <r>   58.1796    0.0000 </r>
       <r>   59.7593    0.0000 </r>
       <r>   60.7418    0.0000 </r>
       <r>   62.6154    0.0000 </r>
       <r>   63.6917    0.0000 </r>
       <r>   64.4406    0.0000 </r>
       <r>   64.5266    0.0000 </r>
       <r>   65.5197    0.0000 </r>
       <r>   66.7415    0.0000 </r>
       <r>   67.9633    0.0000 </r>
      </set>
      <set comment="kpoint 27">
       <r>    2.5227    1.0000 </r>
       <r>    2.6267    1.0000 </r>
       <r>    3.1146    1.0000 </r>
       <r>    4.6142    1.0000 </r>
       <r>    5.4803    1.0000 </r>
       <r>    5.7938    1.0000 </r>
       <r>    5.8161    1.0000 </r>
       <r>    7.7613   -0.0000 </r>
       <r>    8.1679   -0.0000 </r>
       <r>    8.2017   -0.0000 </r>
       <r>   10.4482   -0.0000 </r>
       <r>   12.5968    0.0000 </r>
       <r>   17.8501    0.0000 </r>
       <r>   18.6607    0.0000 </r>
       <r>   21.5949    0.0000 </r>
       <r>   22.5932    0.0000 </r>
       <r>   24.1219    0.0000 </r>
       <r>   28.9005    0.0000 </r>
       <r>   33.1081    0.0000 </r>
       <r>   34.8059    0.0000 </r>
       <r>   37.8055    0.0000 </r>
       <r>   39.5923    0.0000 </r>
       <r>   41.9599    0.0000 </r>
       <r>   44.7260    0.0000 </r>
       <r>   45.3231    0.0000 </r>
       <r>   50.4188    0.0000 </r>
       <r>   52.1263    0.0000 </r>
       <r>   54.8018    0.0000 </r>
       <r>   57.2219    0.0000 </r>
       <r>   57.4848    0.0000 </r>
       <r>   60.2005    0.0000 </r>
       <r>   60.2898    0.0000 </r>
       <r>   60.8635    0.0000 </r>
       <r>   61.6558    0.0000 </r>
       <r>   62.4525    0.0000 </r>
       <r>   65.7175    0.0000 </r>
       <r>   66.1664    0.0000 </r>
       <r>   66.6074    0.0000 </r>
       <r>   66.9537    0.0000 </r>
       <r>   68.1220    0.0000 </r>
      </set>
      <set comment="kpoint 28">
       <r>    1.5614    1.0000 </r>
       <r>    3.3817    1.0000 </r>
       <r>    3.7426    1.0000 </r>
       <r>    3.9524    1.0000 </r>
       <r>    5.1708    1.0000 </r>
       <r>    5.2871    1.0000 </r>
       <r>    6.1141    1.0000 </r>
       <r>    6.2159    1.0000 </r>
       <r>    7.5948   -0.0008 </r>
       <r>    7.6640   -0.0001 </r>
       <r>    8.1640   -0.0000 </r>
       <r>   13.0554    0.0000 </r>
       <r>   16.2117    0.0000 </r>
       <r>   21.8247    0.0000 </r>
       <r>   22.6077    0.0000 </r>
       <r>   27.1063    0.0000 </r>
       <r>   28.3804    0.0000 </r>
       <r>   31.3395    0.0000 </r>
       <r>   31.8250    0.0000 </r>
       <r>   35.0350    0.0000 </r>
       <r>   38.4905    0.0000 </r>
       <r>   42.1218    0.0000 </r>
       <r>   42.3913    0.0000 </r>
       <r>   44.2346    0.0000 </r>
       <r>   44.6144    0.0000 </r>
       <r>   47.9351    0.0000 </r>
       <r>   48.2234    0.0000 </r>
       <r>   52.6131    0.0000 </r>
       <r>   53.3718    0.0000 </r>
       <r>   54.8418    0.0000 </r>
       <r>   57.0882    0.0000 </r>
       <r>   59.0656    0.0000 </r>
       <r>   59.2165    0.0000 </r>
       <r>   61.1175    0.0000 </r>
       <r>   61.4827    0.0000 </r>
       <r>   62.8938    0.0000 </r>
       <r>   63.1100    0.0000 </r>
       <r>   65.7250    0.0000 </r>
       <r>   65.8785    0.0000 </r>
       <r>   65.8791    0.0000 </r>
      </set>
      <set comment="kpoint 29">
       <r>    2.7098    1.0000 </r>
       <r>    3.1608    1.0000 </r>
       <r>    3.4447    1.0000 </r>
       <r>    4.1531    1.0000 </r>
       <r>    5.0893    1.0000 </r>
       <r>    5.4473    1.0000 </r>
       <r>    5.7540    1.0000 </r>
       <r>    6.7454    1.0201 </r>
       <r>    7.5798   -0.0011 </r>
       <r>    8.0830   -0.0000 </r>
       <r>    9.4444   -0.0000 </r>
       <r>   14.6206    0.0000 </r>
       <r>   17.3102    0.0000 </r>
       <r>   18.9602    0.0000 </r>
       <r>   20.9691    0.0000 </r>
       <r>   24.3743    0.0000 </r>
       <r>   26.8054    0.0000 </r>
       <r>   27.8662    0.0000 </r>
       <r>   30.6908    0.0000 </r>
       <r>   36.6358    0.0000 </r>
       <r>   39.2029    0.0000 </r>
       <r>   42.0443    0.0000 </r>
       <r>   43.6450    0.0000 </r>
       <r>   45.4627    0.0000 </r>
       <r>   46.2588    0.0000 </r>
       <r>   47.4193    0.0000 </r>
       <r>   50.5202    0.0000 </r>
       <r>   50.8789    0.0000 </r>
       <r>   53.5828    0.0000 </r>
       <r>   55.8067    0.0000 </r>
       <r>   57.5639    0.0000 </r>
       <r>   60.0340    0.0000 </r>
       <r>   61.1057    0.0000 </r>
       <r>   62.3162    0.0000 </r>
       <r>   64.1803    0.0000 </r>
       <r>   64.6891    0.0000 </r>
       <r>   65.1587    0.0000 </r>
       <r>   66.2924    0.0000 </r>
       <r>   66.9313    0.0000 </r>
       <r>   67.7518    0.0000 </r>
      </set>
      <set comment="kpoint 30">
       <r>    2.8818    1.0000 </r>
       <r>    3.1449    1.0000 </r>
       <r>    3.4123    1.0000 </r>
       <r>    4.4354    1.0000 </r>
       <r>    5.1763    1.0000 </r>
       <r>    5.3316    1.0000 </r>
       <r>    5.8434    1.0000 </r>
       <r>    7.4504   -0.0122 </r>
       <r>    7.5202   -0.0038 </r>
       <r>    8.0690   -0.0000 </r>
       <r>   11.0696   -0.0000 </r>
       <r>   14.0222    0.0000 </r>
       <r>   17.8600    0.0000 </r>
       <r>   19.5291    0.0000 </r>
       <r>   19.9485    0.0000 </r>
       <r>   22.1801    0.0000 </r>
       <r>   24.8370    0.0000 </r>
       <r>   26.2108    0.0000 </r>
       <r>   30.0914    0.0000 </r>
       <r>   37.9008    0.0000 </r>
       <r>   39.6035    0.0000 </r>
       <r>   41.1648    0.0000 </r>
       <r>   44.3312    0.0000 </r>
       <r>   45.1919    0.0000 </r>
       <r>   47.7005    0.0000 </r>
       <r>   47.9827    0.0000 </r>
       <r>   50.8207    0.0000 </r>
       <r>   52.2930    0.0000 </r>
       <r>   55.1705    0.0000 </r>
       <r>   55.9498    0.0000 </r>
       <r>   56.9969    0.0000 </r>
       <r>   60.0680    0.0000 </r>
       <r>   60.3506    0.0000 </r>
       <r>   61.6850    0.0000 </r>
       <r>   64.9473    0.0000 </r>
       <r>   65.6540    0.0000 </r>
       <r>   66.6327    0.0000 </r>
       <r>   67.2074    0.0000 </r>
       <r>   67.5991    0.0000 </r>
       <r>   67.9033    0.0000 </r>
      </set>
      <set comment="kpoint 31">
       <r>    3.1544    1.0000 </r>
       <r>    3.5279    1.0000 </r>
       <r>    3.7926    1.0000 </r>
       <r>    3.9251    1.0000 </r>
       <r>    4.9605    1.0000 </r>
       <r>    5.2454    1.0000 </r>
       <r>    5.8036    1.0000 </r>
       <r>    7.0242    0.7198 </r>
       <r>    7.3961   -0.0236 </r>
       <r>    8.0389   -0.0000 </r>
       <r>   11.2294   -0.0000 </r>
       <r>   15.8634    0.0000 </r>
       <r>   16.9262    0.0000 </r>
       <r>   18.3878    0.0000 </r>
       <r>   20.1632    0.0000 </r>
       <r>   23.7141    0.0000 </r>
       <r>   23.7412    0.0000 </r>
       <r>   26.7438    0.0000 </r>
       <r>   27.5168    0.0000 </r>
       <r>   38.3767    0.0000 </r>
       <r>   41.5088    0.0000 </r>
       <r>   43.9175    0.0000 </r>
       <r>   44.2401    0.0000 </r>
       <r>   46.2881    0.0000 </r>
       <r>   46.4184    0.0000 </r>
       <r>   47.8810    0.0000 </r>
       <r>   50.0302    0.0000 </r>
       <r>   51.6461    0.0000 </r>
       <r>   51.9633    0.0000 </r>
       <r>   56.2057    0.0000 </r>
       <r>   56.6824    0.0000 </r>
       <r>   58.9512    0.0000 </r>
       <r>   60.1841    0.0000 </r>
       <r>   61.8357    0.0000 </r>
       <r>   65.4130    0.0000 </r>
       <r>   66.0723    0.0000 </r>
       <r>   66.3046    0.0000 </r>
       <r>   67.8072    0.0000 </r>
       <r>   67.8756    0.0000 </r>
       <r>   68.6478    0.0000 </r>
      </set>
      <set comment="kpoint 32">
       <r>    3.2028    1.0000 </r>
       <r>    3.6770    1.0000 </r>
       <r>    3.7565    1.0000 </r>
       <r>    4.1666    1.0000 </r>
       <r>    4.9483    1.0000 </r>
       <r>    5.0177    1.0000 </r>
       <r>    5.9399    1.0000 </r>
       <r>    7.3246   -0.0355 </r>
       <r>    7.3982   -0.0231 </r>
       <r>    7.7135   -0.0000 </r>
       <r>   13.0509    0.0000 </r>
       <r>   14.2747    0.0000 </r>
       <r>   16.4770    0.0000 </r>
       <r>   20.0607    0.0000 </r>
       <r>   20.1568    0.0000 </r>
       <r>   22.3439    0.0000 </r>
       <r>   23.7546    0.0000 </r>
       <r>   24.8623    0.0000 </r>
       <r>   26.9565    0.0000 </r>
       <r>   39.3223    0.0000 </r>
       <r>   41.8996    0.0000 </r>
       <r>   43.7771    0.0000 </r>
       <r>   44.4681    0.0000 </r>
       <r>   46.5408    0.0000 </r>
       <r>   47.2165    0.0000 </r>
       <r>   48.9758    0.0000 </r>
       <r>   50.6896    0.0000 </r>
       <r>   51.6045    0.0000 </r>
       <r>   52.0252    0.0000 </r>
       <r>   54.8648    0.0000 </r>
       <r>   56.2055    0.0000 </r>
       <r>   57.2617    0.0000 </r>
       <r>   60.2797    0.0000 </r>
       <r>   60.7133    0.0000 </r>
       <r>   65.5708    0.0000 </r>
       <r>   66.5175    0.0000 </r>
       <r>   67.5275    0.0000 </r>
       <r>   67.9461    0.0000 </r>
       <r>   68.3168    0.0000 </r>
       <r>   68.5636    0.0000 </r>
      </set>
      <set comment="kpoint 33">
       <r>   -1.5943    1.0000 </r>
       <r>    1.8159    1.0000 </r>
       <r>    4.6943    1.0000 </r>
       <r>    5.4516    1.0000 </r>
       <r>    5.4517    1.0000 </r>
       <r>    5.5478    1.0000 </r>
       <r>    5.7153    1.0000 </r>
       <r>    5.7154    1.0000 </r>
       <r>    6.9299    0.9735 </r>
       <r>    6.9300    0.9735 </r>
       <r>    7.8009   -0.0000 </r>
       <r>    7.8009   -0.0000 </r>
       <r>   15.7532    0.0000 </r>
       <r>   28.1964    0.0000 </r>
       <r>   31.0176    0.0000 </r>
       <r>   33.1453    0.0000 </r>
       <r>   36.3797    0.0000 </r>
       <r>   36.3797    0.0000 </r>
       <r>   37.0350    0.0000 </r>
       <r>   37.0351    0.0000 </r>
       <r>   38.9755    0.0000 </r>
[...]
       <r>   22.0848    0.0000 </r>
       <r>   22.8145    0.0000 </r>
       <r>   26.9546    0.0000 </r>
       <r>   28.0506    0.0000 </r>
       <r>   32.6181    0.0000 </r>
       <r>   33.6733    0.0000 </r>
       <r>   36.0599    0.0000 </r>
       <r>   37.5867    0.0000 </r>
       <r>   42.5918    0.0000 </r>
       <r>   42.9700    0.0000 </r>
       <r>   52.2224    0.0000 </r>
       <r>   52.9172    0.0000 </r>
       <r>   53.1134    0.0000 </r>
       <r>   54.6723    0.0000 </r>
       <r>   56.7969    0.0000 </r>
       <r>   57.4404    0.0000 </r>
       <r>   57.8156    0.0000 </r>
       <r>   58.9205    0.0000 </r>
       <r>   61.0934    0.0000 </r>
       <r>   61.6128    0.0000 </r>
       <r>   63.3873    0.0000 </r>
       <r>   63.9019    0.0000 </r>
       <r>   65.4779    0.0000 </r>
       <r>   65.5402    0.0000 </r>
       <r>   66.4382    0.0000 </r>
       <r>   66.9214    0.0000 </r>
      </set>
      <set comment="kpoint 95">
       <r>    3.1650    1.0000 </r>
       <r>    3.2206    1.0000 </r>
       <r>    4.1447    1.0000 </r>
       <r>    4.3612    1.0000 </r>
       <r>    4.7631    1.0000 </r>
       <r>    4.9681    1.0000 </r>
       <r>    6.1643    1.0000 </r>
       <r>    6.3638    1.0000 </r>
       <r>    7.8757   -0.0000 </r>
       <r>    8.0645   -0.0000 </r>
       <r>   12.1228   -0.0000 </r>
       <r>   12.6380    0.0000 </r>
       <r>   18.4141    0.0000 </r>
       <r>   18.8347    0.0000 </r>
       <r>   20.2137    0.0000 </r>
       <r>   20.6072    0.0000 </r>
       <r>   27.1249    0.0000 </r>
       <r>   28.7084    0.0000 </r>
       <r>   32.7192    0.0000 </r>
       <r>   34.0848    0.0000 </r>
       <r>   35.7732    0.0000 </r>
       <r>   36.8640    0.0000 </r>
       <r>   44.9818    0.0000 </r>
       <r>   45.3937    0.0000 </r>
       <r>   49.1831    0.0000 </r>
       <r>   49.2820    0.0000 </r>
       <r>   55.2032    0.0000 </r>
       <r>   56.4224    0.0000 </r>
       <r>   56.9959    0.0000 </r>
       <r>   57.4330    0.0000 </r>
       <r>   59.1723    0.0000 </r>
       <r>   59.2533    0.0000 </r>
       <r>   59.9866    0.0000 </r>
       <r>   60.0321    0.0000 </r>
       <r>   62.1161    0.0000 </r>
       <r>   62.8963    0.0000 </r>
       <r>   65.2759    0.0000 </r>
       <r>   65.4037    0.0000 </r>
       <r>   66.3363    0.0000 </r>
       <r>   66.4415    0.0000 </r>
      </set>
      <set comment="kpoint 96">
       <r>    3.3756    1.0000 </r>
       <r>    3.5037    1.0000 </r>
       <r>    4.0846    1.0000 </r>
       <r>    4.1776    1.0000 </r>
       <r>    4.7601    1.0000 </r>
       <r>    4.8905    1.0000 </r>
       <r>    6.2144    1.0000 </r>
       <r>    6.3648    1.0000 </r>
       <r>    7.8558   -0.0000 </r>
       <r>    7.9242   -0.0000 </r>
       <r>   13.9702    0.0000 </r>
       <r>   14.1081    0.0000 </r>
       <r>   16.7103    0.0000 </r>
       <r>   17.0380    0.0000 </r>
       <r>   19.5619    0.0000 </r>
       <r>   20.0041    0.0000 </r>
       <r>   28.8389    0.0000 </r>
       <r>   29.5593    0.0000 </r>
       <r>   31.7682    0.0000 </r>
       <r>   32.0870    0.0000 </r>
       <r>   35.4875    0.0000 </r>
       <r>   36.3050    0.0000 </r>
       <r>   46.1542    0.0000 </r>
       <r>   46.7864    0.0000 </r>
       <r>   50.8905    0.0000 </r>
       <r>   51.3189    0.0000 </r>
       <r>   53.4989    0.0000 </r>
       <r>   53.8858    0.0000 </r>
       <r>   56.7653    0.0000 </r>
       <r>   57.6292    0.0000 </r>
       <r>   59.1913    0.0000 </r>
       <r>   59.9830    0.0000 </r>
       <r>   60.0238    0.0000 </r>
       <r>   60.7535    0.0000 </r>
       <r>   61.7498    0.0000 </r>
       <r>   62.8854    0.0000 </r>
       <r>   64.4063    0.0000 </r>
       <r>   64.7759    0.0000 </r>
       <r>   67.8968    0.0000 </r>
       <r>   68.0107    0.0000 </r>
      </set>
     </set>
    </set>
   </array>
  </eigenvalues>
  <separator name="orbital magnetization" >
   <v name="MAGDIPOLOUT">      0.00000000      0.00000000      0.00000000</v>
  </separator>
  <dos>
   <i name="efermi">      7.07822927 </i>
   <total>
    <array>
     <dimension dim="1">gridpoints</dimension>
     <dimension dim="2">spin</dimension>
     <field>energy</field>
     <field>total</field>
     <field>integrated</field>
     <set>
      <set comment="spin 1">
       <r>    -5.4755     0.0000     0.0000 </r>
       <r>    -5.2140     0.0000     0.0000 </r>
       <r>    -4.9525     0.0000     0.0000 </r>
       <r>    -4.6910     0.0000     0.0000 </r>
       <r>    -4.4294     0.0000     0.0000 </r>
       <r>    -4.1679     0.0000     0.0000 </r>
       <r>    -3.9064     0.0000     0.0000 </r>
       <r>    -3.6449    -0.0000    -0.0000 </r>
       <r>    -3.3834    -0.0000    -0.0000 </r>
       <r>    -3.1218    -0.0000    -0.0000 </r>
       <r>    -2.8603    -0.0000    -0.0000 </r>
       <r>    -2.5988    -0.0000    -0.0000 </r>
       <r>    -2.3373    -0.0000    -0.0000 </r>
       <r>    -2.0758    -0.0004    -0.0001 </r>
       <r>    -1.8142     0.0087     0.0021 </r>
       <r>    -1.5527     0.0535     0.0161 </r>
       <r>    -1.2912     0.1016     0.0427 </r>
       <r>    -1.0297     0.0575     0.0577 </r>
       <r>    -0.7682     0.1510     0.0972 </r>
       <r>    -0.5067     0.1751     0.1430 </r>
       <r>    -0.2451     0.1949     0.1940 </r>
       <r>     0.0164     0.0816     0.2154 </r>
       <r>     0.2779     0.2394     0.2779 </r>
       <r>     0.5394     0.2980     0.3559 </r>
       <r>     0.8009     0.3007     0.4345 </r>
       <r>     1.0625     0.3056     0.5145 </r>
       <r>     1.3240     0.2238     0.5730 </r>
       <r>     1.5855     0.4192     0.6826 </r>
       <r>     1.8470     0.7447     0.8774 </r>
       <r>     2.1085     1.0732     1.1581 </r>
       <r>     2.3701     1.6732     1.5956 </r>
       <r>     2.6316     2.1148     2.1487 </r>
       <r>     2.8931     2.7607     2.8707 </r>
       <r>     3.1546     2.4172     3.5028 </r>
       <r>     3.4161     2.6398     4.1932 </r>
       <r>     3.6777     2.4751     4.8405 </r>
       <r>     3.9392     3.2271     5.6844 </r>
       <r>     4.2007     3.1778     6.5155 </r>
       <r>     4.4622     2.8440     7.2593 </r>
       <r>     4.7237     2.2864     7.8572 </r>
       <r>     4.9853     2.7943     8.5880 </r>
       <r>     5.2468     4.0874     9.6569 </r>
       <r>     5.5083     3.6678    10.6161 </r>
       <r>     5.7698     3.8359    11.6192 </r>
       <r>     6.0313     3.3943    12.5069 </r>
       <r>     6.2928     3.7078    13.4766 </r>
       <r>     6.5544     3.1580    14.3024 </r>
       <r>     6.8159     3.3529    15.1793 </r>
       <r>     7.0774     3.1296    15.9977 </r>
       <r>     7.3389     2.7044    16.7050 </r>
       <r>     7.6004     4.0497    17.7641 </r>
       <r>     7.8620     5.0044    19.0728 </r>
       <r>     8.1235     4.3901    20.2209 </r>
       <r>     8.3850     3.4532    21.1240 </r>
       <r>     8.6465     0.4976    21.2541 </r>
       <r>     8.9080     0.3429    21.3438 </r>
       <r>     9.1696     0.6547    21.5150 </r>
       <r>     9.4311     0.7673    21.7157 </r>
       <r>     9.6926     0.7539    21.9128 </r>
       <r>     9.9541     0.5597    22.0592 </r>
       <r>    10.2156     0.4458    22.1758 </r>
       <r>    10.4772     0.3603    22.2700 </r>
       <r>    10.7387     0.4072    22.3765 </r>
       <r>    11.0002     0.4668    22.4986 </r>
       <r>    11.2617     0.6648    22.6724 </r>
       <r>    11.5232     0.4945    22.8017 </r>
       <r>    11.7847     0.3810    22.9014 </r>
       <r>    12.0463     0.4688    23.0240 </r>
       <r>    12.3078     0.5335    23.1635 </r>
       <r>    12.5693     0.1657    23.2068 </r>
       <r>    12.8308     0.3441    23.2968 </r>
       <r>    13.0923     0.3253    23.3819 </r>
       <r>    13.3539     0.4614    23.5025 </r>
       <r>    13.6154     0.2570    23.5697 </r>
       <r>    13.8769     0.2771    23.6422 </r>
       <r>    14.1384     0.4581    23.7620 </r>
       <r>    14.3999     0.4994    23.8926 </r>
       <r>    14.6615     0.2457    23.9568 </r>
       <r>    14.9230     0.2561    24.0238 </r>
       <r>    15.1845     0.2742    24.0955 </r>
       <r>    15.4460     0.1380    24.1316 </r>
       <r>    15.7075     0.1121    24.1609 </r>
       <r>    15.9691     0.1772    24.2073 </r>
       <r>    16.2306     0.3085    24.2879 </r>
       <r>    16.4921     0.4115    24.3955 </r>
       <r>    16.7536     0.4250    24.5067 </r>
       <r>    17.0151     0.8107    24.7187 </r>
       <r>    17.2767     0.9529    24.9679 </r>
       <r>    17.5382     0.7226    25.1569 </r>
       <r>    17.7997     0.6896    25.3372 </r>
       <r>    18.0612     0.5332    25.4767 </r>
       <r>    18.3227     0.4996    25.6073 </r>
       <r>    18.5842     0.7574    25.8054 </r>
       <r>    18.8458     0.8409    26.0253 </r>
       <r>    19.1073     0.6987    26.2080 </r>
       <r>    19.3688     0.6653    26.3820 </r>
       <r>    19.6303     0.9113    26.6203 </r>
       <r>    19.8918     0.3371    26.7085 </r>
       <r>    20.1534     0.7655    26.9087 </r>
       <r>    20.4149     0.6937    27.0901 </r>
       <r>    20.6764     0.6304    27.2549 </r>
       <r>    20.9379     0.6568    27.4267 </r>
       <r>    21.1994     0.4448    27.5430 </r>
       <r>    21.4610     0.7244    27.7325 </r>
       <r>    21.7225     0.4373    27.8468 </r>
       <r>    21.9840     0.4833    27.9732 </r>
       <r>    22.2455     0.8886    28.2056 </r>
       <r>    22.5070     0.4854    28.3326 </r>
       <r>    22.7686     0.7276    28.5229 </r>
       <r>    23.0301     0.6914    28.7037 </r>
       <r>    23.2916     0.5357    28.8438 </r>
       <r>    23.5531     0.6192    29.0057 </r>
       <r>    23.8146     1.2511    29.3329 </r>
       <r>    24.0761     1.0845    29.6165 </r>
       <r>    24.3377     0.5798    29.7681 </r>
       <r>    24.5992     0.9671    30.0210 </r>
       <r>    24.8607     0.8564    30.2450 </r>
       <r>    25.1222     0.4956    30.3746 </r>
       <r>    25.3837     0.9873    30.6328 </r>
       <r>    25.6453     0.9972    30.8936 </r>
       <r>    25.9068     1.1262    31.1881 </r>
       <r>    26.1683     0.8769    31.4174 </r>
       <r>    26.4298     0.7530    31.6144 </r>
       <r>    26.6913     1.0879    31.8989 </r>
       <r>    26.9529     0.9924    32.1584 </r>
       <r>    27.2144     1.2064    32.4739 </r>
       <r>    27.4759     0.7461    32.6690 </r>
       <r>    27.7374     0.6289    32.8335 </r>
       <r>    27.9989     0.8125    33.0460 </r>
       <r>    28.2605     0.9394    33.2917 </r>
       <r>    28.5220     0.8060    33.5025 </r>
       <r>    28.7835     0.8056    33.7131 </r>
       <r>    29.0450     1.0112    33.9776 </r>
       <r>    29.3065     0.8113    34.1897 </r>
       <r>    29.5680     0.5878    34.3435 </r>
       <r>    29.8296     0.6832    34.5221 </r>
       <r>    30.0911     0.7273    34.7124 </r>
       <r>    30.3526     0.5421    34.8541 </r>
       <r>    30.6141     0.5354    34.9941 </r>
       <r>    30.8756     0.8102    35.2060 </r>
       <r>    31.1372     0.9233    35.4475 </r>
       <r>    31.3987     0.6773    35.6246 </r>
       <r>    31.6602     0.7659    35.8249 </r>
       <r>    31.9217     0.6073    35.9837 </r>
       <r>    32.1832     0.7304    36.1747 </r>
       <r>    32.4448     0.8972    36.4094 </r>
       <r>    32.7063     0.9363    36.6542 </r>
       <r>    32.9678     0.7486    36.8500 </r>
       <r>    33.2293     0.7025    37.0337 </r>
       <r>    33.4908     0.7503    37.2299 </r>
       <r>    33.7524     0.6615    37.4029 </r>
       <r>    34.0139     0.7442    37.5975 </r>
       <r>    34.2754     0.9555    37.8474 </r>
       <r>    34.5369     1.1818    38.1565 </r>
       <r>    34.7984     0.5680    38.3050 </r>
       <r>    35.0600     1.1353    38.6019 </r>
       <r>    35.3215     0.8941    38.8357 </r>
       <r>    35.5830     1.1042    39.1245 </r>
       <r>    35.8445     0.7513    39.3210 </r>
       <r>    36.1060     0.9217    39.5620 </r>
       <r>    36.3675     1.4946    39.9529 </r>
       <r>    36.6291     1.0368    40.2240 </r>
       <r>    36.8906     0.9426    40.4705 </r>
       <r>    37.1521     1.0023    40.7326 </r>
       <r>    37.4136     0.7513    40.9291 </r>
       <r>    37.6751     0.8590    41.1538 </r>
       <r>    37.9367     0.6146    41.3145 </r>
       <r>    38.1982     0.6555    41.4859 </r>
       <r>    38.4597     0.5296    41.6244 </r>
       <r>    38.7212     0.9359    41.8692 </r>
       <r>    38.9827     0.7033    42.0531 </r>
       <r>    39.2443     0.5813    42.2052 </r>
       <r>    39.5058     0.8019    42.4149 </r>
       <r>    39.7673     1.3207    42.7603 </r>
       <r>    40.0288     1.0771    43.0420 </r>
       <r>    40.2903     0.6673    43.2165 </r>
       <r>    40.5519     0.8268    43.4327 </r>
       <r>    40.8134     0.8288    43.6494 </r>
       <r>    41.0749     0.5435    43.7916 </r>
       <r>    41.3364     1.0915    44.0770 </r>
       <r>    41.5979     0.6272    44.2410 </r>
       <r>    41.8594     0.9553    44.4909 </r>
       <r>    42.1210     1.2220    44.8104 </r>
       <r>    42.3825     1.2967    45.1496 </r>
       <r>    42.6440     0.7614    45.3487 </r>
       <r>    42.9055     1.1706    45.6548 </r>
       <r>    43.1670     1.0289    45.9239 </r>
       <r>    43.4286     0.6455    46.0927 </r>
       <r>    43.6901     1.1800    46.4013 </r>
       <r>    43.9516     1.1454    46.7008 </r>
       <r>    44.2131     1.1273    46.9956 </r>
       <r>    44.4746     1.3387    47.3457 </r>
       <r>    44.7362     0.9630    47.5976 </r>
       <r>    44.9977     1.0915    47.8830 </r>
       <r>    45.2592     1.0999    48.1707 </r>
       <r>    45.5207     1.0018    48.4327 </r>
       <r>    45.7822     0.8251    48.6484 </r>
       <r>    46.0438     0.8624    48.8740 </r>
       <r>    46.3053     1.1143    49.1654 </r>
       <r>    46.5668     0.7360    49.3579 </r>
       <r>    46.8283     0.4801    49.4834 </r>
       <r>    47.0898     0.6884    49.6635 </r>
       <r>    47.3514     1.2086    49.9795 </r>
       <r>    47.6129     1.2400    50.3038 </r>
       <r>    47.8744     0.9899    50.5627 </r>
       <r>    48.1359     0.9674    50.8157 </r>
       <r>    48.3974     0.8189    51.0299 </r>
       <r>    48.6589     1.0690    51.3094 </r>
       <r>    48.9205     1.0528    51.5847 </r>
       <r>    49.1820     0.9186    51.8250 </r>
       <r>    49.4435     1.2066    52.1405 </r>
       <r>    49.7050     1.0609    52.4180 </r>
       <r>    49.9665     0.9746    52.6728 </r>
       <r>    50.2281     0.4466    52.7896 </r>
       <r>    50.4896     1.1274    53.0845 </r>
       <r>    50.7511     1.6776    53.5232 </r>
       <r>    51.0126     1.6180    53.9463 </r>
       <r>    51.2741     0.9708    54.2002 </r>
       <r>    51.5357     1.2138    54.5177 </r>
       <r>    51.7972     1.3071    54.8595 </r>
       <r>    52.0587     0.7240    55.0488 </r>
       <r>    52.3202     0.9242    55.2905 </r>
       <r>    52.5817     1.4159    55.6608 </r>
       <r>    52.8433     1.0471    55.9347 </r>
       <r>    53.1048     0.7301    56.1256 </r>
       <r>    53.3663     0.9306    56.3690 </r>
       <r>    53.6278     1.1072    56.6585 </r>
       <r>    53.8893     1.4488    57.0374 </r>
       <r>    54.1508     1.2813    57.3725 </r>
       <r>    54.4124     1.2393    57.6966 </r>
       <r>    54.6739     1.1717    58.0030 </r>
       <r>    54.9354     1.1801    58.3117 </r>
       <r>    55.1969     1.3509    58.6649 </r>
       <r>    55.4584     1.5008    59.0574 </r>
       <r>    55.7200     1.4511    59.4369 </r>
       <r>    55.9815     1.0060    59.7000 </r>
       <r>    56.2430     1.1180    59.9924 </r>
       <r>    56.5045     0.7569    60.1903 </r>
       <r>    56.7660     1.1517    60.4915 </r>
       <r>    57.0276     1.7438    60.9476 </r>
       <r>    57.2891     2.4653    61.5923 </r>
       <r>    57.5506     1.8569    62.0779 </r>
       <r>    57.8121     1.1257    62.3723 </r>
       <r>    58.0736     1.0859    62.6563 </r>
       <r>    58.3352     1.2244    62.9765 </r>
       <r>    58.5967     1.8276    63.4544 </r>
       <r>    58.8582     1.7984    63.9247 </r>
       <r>    59.1197     1.7567    64.3841 </r>
       <r>    59.3812     1.4790    64.7709 </r>
       <r>    59.6428     1.9345    65.2769 </r>
       <r>    59.9043     1.8608    65.7635 </r>
       <r>    60.1658     2.0371    66.2962 </r>
       <r>    60.4273     1.8244    66.7733 </r>
       <r>    60.6888     1.6032    67.1926 </r>
       <r>    60.9503     1.6750    67.6306 </r>
       <r>    61.2119     1.4207    68.0022 </r>
       <r>    61.4734     1.2612    68.3320 </r>
       <r>    61.7349     1.3635    68.6886 </r>
       <r>    61.9964     1.2962    69.0275 </r>
       <r>    62.2579     2.1287    69.5842 </r>
       <r>    62.5195     2.3358    70.1951 </r>
       <r>    62.7810     1.1424    70.4939 </r>
       <r>    63.0425     1.8293    70.9723 </r>
       <r>    63.3040     1.5902    71.3881 </r>
       <r>    63.5655     1.7251    71.8393 </r>
       <r>    63.8271     1.6031    72.2585 </r>
       <r>    64.0886     1.5457    72.6627 </r>
       <r>    64.3501     1.1301    72.9583 </r>
       <r>    64.6116     1.6968    73.4020 </r>
       <r>    64.8731     1.4037    73.7691 </r>
       <r>    65.1347     2.1742    74.3377 </r>
       <r>    65.3962     2.1462    74.8990 </r>
       <r>    65.6577     2.2990    75.5002 </r>
       <r>    65.9192     2.0044    76.0244 </r>
       <r>    66.1807     1.3853    76.3867 </r>
       <r>    66.4422     1.4959    76.7779 </r>
       <r>    66.7038     2.0716    77.3197 </r>
       <r>    66.9653     1.7807    77.7854 </r>
       <r>    67.2268     1.5810    78.1988 </r>
       <r>    67.4883     1.3655    78.5560 </r>
       <r>    67.7498     1.6439    78.9859 </r>
       <r>    68.0114     1.5315    79.3864 </r>
       <r>    68.2729     1.1437    79.6855 </r>
       <r>    68.5344     0.6840    79.8643 </r>
       <r>    68.7959     0.3179    79.9475 </r>
       <r>    69.0574     0.1331    79.9823 </r>
       <r>    69.3190     0.0094    79.9847 </r>
       <r>    69.5805     0.0582    80.0000 </r>
       <r>    69.8420     0.0005    80.0001 </r>
       <r>    70.1035    -0.0003    80.0000 </r>
       <r>    70.3650    -0.0000    80.0000 </r>
       <r>    70.6266    -0.0000    80.0000 </r>
       <r>    70.8881    -0.0000    80.0000 </r>
       <r>    71.1496     0.0000    80.0000 </r>
       <r>    71.4111     0.0000    80.0000 </r>
       <r>    71.6726     0.0000    80.0000 </r>
       <r>    71.9342     0.0000    80.0000 </r>
       <r>    72.1957     0.0000    80.0000 </r>
       <r>    72.4572     0.0000    80.0000 </r>
       <r>    72.7187     0.0000    80.0000 </r>
       <r>    72.9802     0.0000    80.0000 </r>
      </set>
     </set>
    </array>
   </total>
  </dos>
 </calculation>
 <structure name="finalpos" >
  <crystal>
   <varray name="basis" >
    <v>       2.35330000       0.00000000       0.00000000 </v>
    <v>      -1.17665000       2.03801758       0.00000000 </v>
    <v>       0.00000000       0.00000000       4.18241000 </v>
   </varray>
   <i name="volume">     20.05911765 </i>
   <varray name="rec_basis" >
    <v>       0.42493520       0.24533645       0.00000000 </v>
    <v>       0.00000000       0.49067290       0.00000000 </v>
    <v>       0.00000000       0.00000000       0.23909660 </v>
   </varray>
  </crystal>
  <varray name="positions" >
   <v>       0.00000000       0.00000000       0.00000000 </v>
   <v>       0.33333333       0.66666667       0.50000000 </v>
  </varray>
 </structure>
</modeling>
