 vasp.6.2.0 18Jan21 (build Mar 17 2021 09:06:54) complex                        
  
 POSCAR found type information on POSCAR Fe
 POSCAR found :  1 types and       2 ions
 LDA part: xc-table for Pade appr. of Perdew
 POSCAR, INCAR and KPOINTS ok, starting setup
 FFT: planning ...
 WAVECAR not read
 WARNING: chargedensity file is incomplete
 entering main loop
       N       E                     dE             d eps       ncg     rms          rms(c)
DAV:   1     0.602719625768E+02    0.60272E+02   -0.26418E+03  9312   0.320E+02
DAV:   2    -0.146719983593E+02   -0.74944E+02   -0.63541E+02  7952   0.953E+01
DAV:   3    -0.190799301353E+02   -0.44079E+01   -0.41765E+01  9496   0.240E+01
DAV:   4    -0.190997096370E+02   -0.19780E-01   -0.19767E-01  9160   0.170E+00
DAV:   5    -0.190997320924E+02   -0.22455E-04   -0.22454E-04  9208   0.541E-02    0.172E+01
DAV:   6    -0.162733590437E+02    0.28264E+01   -0.17682E+00 11184   0.246E+01    0.229E+00
DAV:   7    -0.160887957448E+02    0.18456E+00   -0.11379E-01 10168   0.524E+00    0.111E+00
DAV:   8    -0.160610660687E+02    0.27730E-01   -0.33913E-03 10104   0.383E-01    0.504E-01
DAV:   9    -0.160507839656E+02    0.10282E-01   -0.92302E-04 11000   0.168E-01    0.567E-02
DAV:  10    -0.160508143829E+02   -0.30417E-04   -0.36999E-05  8936   0.244E-02    0.250E-02
DAV:  11    -0.160508061430E+02    0.82399E-05   -0.42471E-07  8912   0.607E-03    0.192E-03
DAV:  12    -0.160508052219E+02    0.92109E-06   -0.57516E-08  6160   0.125E-03
   1 F= -.16050805E+02 E0= -.16051672E+02  d E =0.259913E-02
 writing wavefunctions
