<?xml version="1.0" encoding="ISO-8859-1"?>
<modeling>
 <generator>
  <i name="program" type="string">vasp </i>
  <i name="version" type="string">6.2.0  </i>
  <i name="subversion" type="string">18Jan21 (build Mar 17 2021 09:06:54) complex                          serial </i>
  <i name="platform" type="string">LinuxIFC </i>
  <i name="date" type="string">2021 08 03 </i>
  <i name="time" type="string">10:15:12 </i>
 </generator>
 <incar>
  <i type="string" name="PREC">normal</i>
  <i type="int" name="ICHARG">     1</i>
  <i type="int" name="IBRION">    -1</i>
  <i name="EDIFF">      0.00000100</i>
  <i type="int" name="NSW">     0</i>
  <i name="ENCUT">    320.00000000</i>
  <i type="int" name="NBANDS">    30</i>
  <i type="int" name="ISMEAR">     1</i>
  <i name="SIGMA">      0.20000000</i>
  <i type="logical" name="LCHARG"> T  </i>
  <i type="int" name="KPAR">     1</i>
  <i type="int" name="NCORE">     1</i>
  <i type="string" name="GGA">PE</i>
 </incar>
 <primitive_cell>
  <structure name="primitive_cell" >
   <crystal>
    <varray name="basis" >
     <v>       1.81750000      -1.81750000       0.00000000 </v>
     <v>       1.81750000       0.00000000       1.81750000 </v>
     <v>       0.00000000      -1.81750000       1.81750000 </v>
    </varray>
    <i name="volume">     12.00751822 </i>
    <varray name="rec_basis" >
     <v>       0.27510316      -0.27510316      -0.27510316 </v>
     <v>       0.27510316       0.27510316       0.27510316 </v>
     <v>      -0.27510316      -0.27510316       0.27510316 </v>
    </varray>
   </crystal>
   <varray name="positions" >
    <v>       0.00000000       0.00000000       0.00000000 </v>
   </varray>
  </structure>
  <varray name="primitive_index" >
   <v type="int" >        1 </v>
  </varray>
 </primitive_cell>
 <kpoints>
  <generation param="Monkhorst-Pack">
   <v type="int" name="divisions">       5        5        5 </v>
   <v name="usershift">      0.00000000       0.00000000       0.00000000 </v>
   <v name="genvec1">      0.20000000       0.00000000       0.00000000 </v>
   <v name="genvec2">      0.00000000       0.20000000       0.00000000 </v>
   <v name="genvec3">      0.00000000       0.00000000       0.20000000 </v>
   <v name="shift">      0.00000000       0.00000000       0.00000000 </v>
  </generation>
  <varray name="kpointlist" >
   <v>       0.00000000       0.00000000       0.00000000 </v>
   <v>       0.20000000       0.00000000       0.00000000 </v>
   <v>       0.40000000       0.00000000       0.00000000 </v>
   <v>       0.20000000       0.20000000       0.00000000 </v>
   <v>       0.40000000       0.20000000       0.00000000 </v>
   <v>       0.40000000       0.40000000       0.00000000 </v>
   <v>       0.20000000       0.20000000       0.20000000 </v>
   <v>       0.40000000       0.20000000       0.20000000 </v>
   <v>       0.40000000       0.40000000       0.20000000 </v>
   <v>       0.40000000       0.40000000       0.40000000 </v>
  </varray>
  <varray name="weights" >
   <v>       0.00800000 </v>
   <v>       0.04800000 </v>
   <v>       0.04800000 </v>
   <v>       0.09600000 </v>
   <v>       0.19200000 </v>
   <v>       0.09600000 </v>
   <v>       0.06400000 </v>
   <v>       0.19200000 </v>
   <v>       0.19200000 </v>
   <v>       0.06400000 </v>
  </varray>
 </kpoints>
 <parameters>
  <separator name="general" >
   <i type="string" name="SYSTEM">unknown system</i>
   <i type="logical" name="LCOMPAT"> F  </i>
  </separator>
  <separator name="electronic" >
   <i type="string" name="PREC">normal</i>
   <i name="ENMAX">    320.00000000</i>
   <i name="ENAUG">    586.98000000</i>
   <i name="EDIFF">      0.00000100</i>
   <i type="int" name="IALGO">    38</i>
   <i type="int" name="IWAVPR">     0</i>
   <i type="int" name="NBANDS">    30</i>
   <i type="int" name="NBANDSLOW">    -1</i>
   <i type="int" name="NBANDSHIGH">    -1</i>
   <i name="NELECT">     44.00000000</i>
   <i type="int" name="TURBO">     0</i>
   <i type="int" name="IRESTART">     0</i>
   <i type="int" name="NREBOOT">     0</i>
   <i type="int" name="NMIN">     0</i>
   <i name="EREF">      0.00000000</i>
   <separator name="electronic smearing" >
    <i type="int" name="ISMEAR">     1</i>
    <i name="SIGMA">      0.20000000</i>
    <i name="KSPACING">      0.50000000</i>
    <i type="logical" name="KGAMMA"> T  </i>
    <i type="logical" name="KBLOWUP"> T  </i>
   </separator>
   <separator name="electronic projectors" >
    <i type="logical" name="LREAL"> F  </i>
    <v name="ROPT">      0.00000000</v>
    <i type="int" name="LMAXPAW">  -100</i>
    <i type="int" name="LMAXMIX">     2</i>
    <i type="logical" name="NLSPLINE"> F  </i>
   </separator>
   <separator name="electronic startup" >
    <i type="int" name="ISTART">     1</i>
    <i type="int" name="ICHARG">     1</i>
    <i type="int" name="INIWAV">     1</i>
   </separator>
   <separator name="electronic spin" >
    <i type="int" name="ISPIN">     1</i>
    <i type="logical" name="LNONCOLLINEAR"> F  </i>
    <v name="MAGMOM">      1.00000000      1.00000000      1.00000000      1.00000000</v>
    <i name="NUPDOWN">     -1.00000000</i>
    <i type="logical" name="LSORBIT"> F  </i>
    <v name="SAXIS">      0.00000000      0.00000000      1.00000000</v>
    <i type="logical" name="LSPIRAL"> F  </i>
    <v name="QSPIRAL">      0.00000000      0.00000000      0.00000000</v>
    <i type="logical" name="LZEROZ"> F  </i>
   </separator>
   <separator name="electronic exchange-correlation" >
    <i type="logical" name="LASPH"> F  </i>
    <i type="logical" name="LMETAGGA"> F  </i>
   </separator>
   <separator name="electronic convergence" >
    <i type="int" name="NELM">    60</i>
    <i type="int" name="NELMDL">     0</i>
    <i type="int" name="NELMIN">     2</i>
    <i name="ENINI">    320.00000000</i>
    <separator name="electronic convergence detail" >
     <i type="logical" name="LDIAG"> T  </i>
     <i type="logical" name="LSUBROT"> F  </i>
     <i name="WEIMIN">      0.00000000</i>
     <i name="EBREAK">      0.00000001</i>
     <i name="DEPER">      0.30000000</i>
     <i type="int" name="NRMM">     4</i>
     <i name="TIME">      0.40000000</i>
    </separator>
   </separator>
   <separator name="electronic mixer" >
    <i name="AMIX">      0.40000000</i>
    <i name="BMIX">      1.00000000</i>
    <i name="AMIN">      0.10000000</i>
    <i name="AMIX_MAG">      1.60000000</i>
    <i name="BMIX_MAG">      1.00000000</i>
    <separator name="electronic mixer details" >
     <i type="int" name="IMIX">     4</i>
     <i type="logical" name="MIXFIRST"> F  </i>
     <i type="int" name="MAXMIX">   -45</i>
     <i name="WC">    100.00000000</i>
     <i type="int" name="INIMIX">     1</i>
     <i type="int" name="MIXPRE">     1</i>
     <i type="int" name="MREMOVE">     5</i>
    </separator>
   </separator>
   <separator name="electronic dipolcorrection" >
    <i type="logical" name="LDIPOL"> F  </i>
    <i type="logical" name="LMONO"> F  </i>
    <i type="int" name="IDIPOL">     0</i>
    <i name="EPSILON">      1.00000000</i>
    <v name="DIPOL">   -100.00000000   -100.00000000   -100.00000000</v>
    <i name="EFIELD">      0.00000000</i>
   </separator>
  </separator>
  <separator name="grids" >
   <i type="int" name="NGX">    16</i>
   <i type="int" name="NGY">    16</i>
   <i type="int" name="NGZ">    16</i>
   <i type="int" name="NGXF">    32</i>
   <i type="int" name="NGYF">    32</i>
   <i type="int" name="NGZF">    32</i>
   <i type="logical" name="ADDGRID"> F  </i>
  </separator>
  <separator name="ionic" >
   <i type="int" name="NSW">     0</i>
   <i type="int" name="IBRION">    -1</i>
   <i type="int" name="MDALGO">     0</i>
   <i type="int" name="ISIF">     2</i>
   <i name="PSTRESS">      0.00000000</i>
   <i name="EDIFFG">      0.00001000</i>
   <i type="int" name="NFREE">     0</i>
   <i name="POTIM">      0.50000000</i>
   <i name="SMASS">     -3.00000000</i>
   <i name="SCALEE">      1.00000000</i>
  </separator>
  <separator name="ionic md" >
   <i name="TEBEG">      0.00010000</i>
   <i name="TEEND">      0.00010000</i>
   <i type="int" name="NBLOCK">     1</i>
   <i type="int" name="KBLOCK">     1</i>
   <i type="int" name="NPACO">   256</i>
   <i name="APACO">     16.00000000</i>
  </separator>
  <separator name="symmetry" >
   <i type="int" name="ISYM">     2</i>
   <i name="SYMPREC">      0.00001000</i>
  </separator>
  <separator name="dos" >
   <i type="int" name="LORBIT">     0</i>
   <v name="RWIGS">     -1.00000000</v>
   <i type="int" name="NEDOS">   301</i>
   <i name="EMIN">     10.00000000</i>
   <i name="EMAX">    -10.00000000</i>
   <i name="EFERMI">      0.00000000</i>
  </separator>
  <separator name="writing" >
   <i type="int" name="NWRITE">     2</i>
   <i type="logical" name="LWAVE"> T  </i>
   <i type="logical" name="LDOWNSAMPLE"> F  </i>
   <i type="logical" name="LCHARG"> T  </i>
   <i type="logical" name="LPARD"> F  </i>
   <i type="logical" name="LVTOT"> F  </i>
   <i type="logical" name="LVHAR"> F  </i>
   <i type="logical" name="LELF"> F  </i>
   <i type="logical" name="LOPTICS"> F  </i>
   <v name="STM">      0.00000000      0.00000000      0.00000000      0.00000000      0.00000000      0.00000000      0.00000000</v>
  </separator>
  <separator name="performance" >
   <i type="int" name="NPAR">     1</i>
   <i type="int" name="NSIM">     4</i>
   <i type="int" name="NBLK">    -1</i>
   <i type="logical" name="LPLANE"> T  </i>
   <i type="logical" name="LSCALAPACK"> F  </i>
   <i type="logical" name="LSCAAWARE"> F  </i>
   <i type="logical" name="LSCALU"> F  </i>
   <i type="logical" name="LASYNC"> F  </i>
   <i type="logical" name="LORBITALREAL"> F  </i>
  </separator>
  <separator name="miscellaneous" >
   <i type="int" name="IDIOT">     3</i>
   <i type="int" name="PHON_NSTRUCT">    -1</i>
   <i type="logical" name="LMUSIC"> F  </i>
   <v name="POMASS">     63.54600000</v>
   <v name="DARWINR">      0.00000000</v>
   <v name="DARWINV">      1.00000000</v>
   <i type="logical" name="LCORR"> T  </i>
  </separator>
  <i type="logical" name="GGA_COMPAT"> T  </i>
  <i type="logical" name="LBERRY"> F  </i>
  <i type="int" name="ICORELEVEL">     0</i>
  <i type="logical" name="LDAU"> F  </i>
  <i type="int" name="I_CONSTRAINED_M">     0</i>
  <separator name="electronic exchange-correlation" >
   <i type="string" name="GGA">PE</i>
   <i type="int" name="VOSKOWN">     0</i>
   <i type="logical" name="LHFCALC"> F  </i>
   <i type="string" name="PRECFOCK"></i>
   <i type="logical" name="LSYMGRAD"> F  </i>
   <i type="logical" name="LHFONE"> F  </i>
   <i type="logical" name="LRHFCALC"> F  </i>
   <i type="logical" name="LTHOMAS"> F  </i>
   <i type="logical" name="LMODELHF"> F  </i>
   <i type="logical" name="LFOCKACE"> F  </i>
   <i name="ENCUT4O">     -1.00000000</i>
   <i type="int" name="EXXOEP">     0</i>
   <i type="int" name="FOURORBIT">     0</i>
   <i name="AEXX">      0.00000000</i>
   <i name="HFALPHA">      0.00000000</i>
   <i name="MCALPHA">      0.00000000</i>
   <i name="ALDAX">      1.00000000</i>
   <i name="AGGAX">      1.00000000</i>
   <i name="ALDAC">      1.00000000</i>
   <i name="AGGAC">      1.00000000</i>
   <i type="int" name="NKREDX">     1</i>
   <i type="int" name="NKREDY">     1</i>
   <i type="int" name="NKREDZ">     1</i>
   <i type="logical" name="SHIFTRED"> F  </i>
   <i type="logical" name="ODDONLY"> F  </i>
   <i type="logical" name="EVENONLY"> F  </i>
   <i type="int" name="LMAXFOCK">     0</i>
   <i type="int" name="NMAXFOCKAE">     0</i>
   <i type="logical" name="LFOCKAEDFT"> F  </i>
   <i name="HFSCREEN">      0.00000000</i>
   <i name="HFSCREENC">      0.00000000</i>
   <i type="int" name="NBANDSGWLOW">     0</i>
  </separator>
  <separator name="vdW DFT" >
   <i type="logical" name="LUSE_VDW"> F  </i>
   <i name="Zab_VDW">     -0.84910000</i>
   <i name="PARAM1">      0.12340000</i>
   <i name="PARAM2">      1.00000000</i>
   <i name="PARAM3">      0.00000000</i>
  </separator>
  <separator name="model GW" >
   <i type="int" name="MODEL_GW">     0</i>
   <i name="MODEL_EPS0">      7.20451093</i>
   <i name="MODEL_ALPHA">      1.00000000</i>
  </separator>
  <separator name="linear response parameters" >
   <i type="logical" name="LEPSILON"> F  </i>
   <i type="logical" name="LRPA"> F  </i>
   <i type="logical" name="LNABLA"> F  </i>
   <i type="logical" name="LVEL"> F  </i>
   <i type="int" name="KINTER">     0</i>
   <i name="CSHIFT">      0.10000000</i>
   <i name="OMEGAMAX">     -1.00000000</i>
   <i name="DEG_THRESHOLD">      0.00200000</i>
   <i name="RTIME">     -0.10000000</i>
   <i name="WPLASMAI">      0.00000000</i>
   <v name="DFIELD">      0.00000000      0.00000000      0.00000000</v>
   <v name="WPLASMA">      0.00000000      0.00000000      0.00000000      0.00000000      0.00000000      0.00000000      0.00000000      0.00000000      0.00000000</v>
  </separator>
  <separator name="orbital magnetization" >
   <i type="logical" name="NUCIND"> F  </i>
   <v name="MAGPOS">      0.00000000      0.00000000      0.00000000</v>
   <i type="logical" name="LNICSALL"> T  </i>
   <i type="logical" name="ORBITALMAG"> F  </i>
   <i type="logical" name="LMAGBLOCH"> F  </i>
   <i type="logical" name="LCHIMAG"> F  </i>
   <i type="logical" name="LGAUGE"> T  </i>
   <i type="int" name="MAGATOM">     0</i>
   <v name="MAGDIPOL">      0.00000000      0.00000000      0.00000000</v>
   <v name="AVECCONST">      0.00000000      0.00000000      0.00000000</v>
  </separator>
  <separator name="response functions" >
   <i type="logical" name="LFINITE_TEMPERATURE"> F  </i>
   <i type="logical" name="LADDER"> F  </i>
   <i type="logical" name="LRPAFORCE"> F  </i>
   <i type="logical" name="LFXC"> F  </i>
   <i type="logical" name="LHARTREE"> T  </i>
   <i type="int" name="IBSE">     0</i>
   <v type="int" name="KPOINT">    -1     0     0     0</v>
   <i type="logical" name="LTCTC"> F  </i>
   <i type="logical" name="LTCTE"> F  </i>
   <i type="logical" name="LTETE"> F  </i>
   <i type="logical" name="LTRIPLET"> F  </i>
   <i type="logical" name="LFXCEPS"> F  </i>
   <i type="logical" name="LFXHEG"> F  </i>
   <i type="int" name="NATURALO">     2</i>
   <i type="logical" name="LHOLEGF"> F  </i>
   <i type="logical" name="L2ORDER"> F  </i>
   <i type="logical" name="LDMP1"> F  </i>
   <i type="logical" name="LMP2LT"> F  </i>
   <i type="logical" name="LSMP2LT"> F  </i>
   <i type="logical" name="LGWLF"> F  </i>
   <i name="ENCUTGW">     -2.00000000</i>
   <i name="ENCUTGWSOFT">     -2.00000000</i>
   <i name="ENCUTLF">     -1.00000000</i>
   <i type="logical" name="LESF_SPLINES"> F  </i>
   <i type="int" name="LMAXMP2">    -1</i>
   <i name="SCISSOR">      0.00000000</i>
   <i type="int" name="NOMEGA">     0</i>
   <i type="int" name="NOMEGAR">     0</i>
   <i type="int" name="NBANDSGW">    -1</i>
   <i type="int" name="NBANDSO">    -1</i>
   <i type="int" name="NBANDSV">    -1</i>
   <i type="int" name="NELM">     1</i>
   <i type="int" name="NELMHF">     1</i>
   <i type="int" name="DIM">     3</i>
   <i type="int" name="IESPILON">     4</i>
   <i type="int" name="ANTIRES">     0</i>
   <i name="OMEGAMAX">    -30.00000000</i>
   <i name="OMEGAMIN">    -30.00000000</i>
   <i name="OMEGATL">   -200.00000000</i>
   <i type="int" name="OMEGAGRID">     0</i>
   <i name="CSHIFT">     -0.10000000</i>
   <i type="logical" name="LSELFENERGY"> F  </i>
   <i type="logical" name="LSPECTRAL"> F  </i>
   <i type="logical" name="LSPECTRALGW"> F  </i>
   <i type="logical" name="LSINGLES"> F  </i>
   <i type="logical" name="LFERMIGW"> F  </i>
   <i type="logical" name="ODDONLYGW"> F  </i>
   <i type="logical" name="EVENONLYGW"> F  </i>
   <i type="int" name="NKREDLFX">     1</i>
   <i type="int" name="NKREDLFY">     1</i>
   <i type="int" name="NKREDLFZ">     1</i>
   <i type="int" name="MAXMEM">  2800</i>
   <i type="int" name="TELESCOPE">     0</i>
   <i type="int" name="NTAUPAR">    -1</i>
   <i type="int" name="NOMEGAPAR">    -1</i>
   <i name="DAMP_NEWTON">      0.80000001</i>
   <i name="LAMBDA">      1.00000000</i>
  </separator>
  <separator name="External order field" >
   <i name="OFIELD_KAPPA">      0.00000000</i>
   <v name="OFIELD_K">      0.00000000      0.00000000      0.00000000</v>
   <i name="OFIELD_Q6_NEAR">      0.00000000</i>
   <i name="OFIELD_Q6_FAR">      0.00000000</i>
   <i name="OFIELD_A">      0.00000000</i>
  </separator>
 </parameters>
 <atominfo>
  <atoms>       4 </atoms>
  <types>       1 </types>
  <array name="atoms" >
   <dimension dim="1">ion</dimension>
   <field type="string">element</field>
   <field type="int">atomtype</field>
   <set>
    <rc><c>Cu</c><c>   1</c></rc>
    <rc><c>Cu</c><c>   1</c></rc>
    <rc><c>Cu</c><c>   1</c></rc>
    <rc><c>Cu</c><c>   1</c></rc>
   </set>
  </array>
  <array name="atomtypes" >
   <dimension dim="1">type</dimension>
   <field type="int">atomspertype</field>
   <field type="string">element</field>
   <field>mass</field>
   <field>valence</field>
   <field type="string">pseudopotential</field>
   <set>
    <rc><c>   4</c><c>Cu</c><c>     63.54600000</c><c>     11.00000000</c><c>  PAW_PBE Cu 22Jun2005                  </c></rc>
   </set>
  </array>
 </atominfo>
 <structure name="initialpos" >
  <crystal>
   <varray name="basis" >
    <v>       3.63500000       0.00000000       0.00000000 </v>
    <v>       0.00000000       3.63500000       0.00000000 </v>
    <v>       0.00000000       0.00000000       3.63500000 </v>
   </varray>
   <i name="volume">     48.03007287 </i>
   <varray name="rec_basis" >
    <v>       0.27510316       0.00000000       0.00000000 </v>
    <v>       0.00000000       0.27510316       0.00000000 </v>
    <v>       0.00000000       0.00000000       0.27510316 </v>
   </varray>
  </crystal>
  <varray name="positions" >
   <v>       0.00000000       0.00000000       0.00000000 </v>
   <v>       0.50000000       0.50000000       0.00000000 </v>
   <v>       0.50000000       0.00000000       0.50000000 </v>
   <v>       0.00000000       0.50000000       0.50000000 </v>
  </varray>
 </structure>
 <calculation>
  <scstep>
   <time name="dav">    0.13    0.13</time>
   <time name="total">    0.15    0.15</time>
   <energy>
    <i name="alphaZ">    243.62337785 </i>
    <i name="ewald">  -4395.34838493 </i>
    <i name="hartreedc">  -1368.00149710 </i>
    <i name="XCdc">    178.57657468 </i>
    <i name="pawpsdc">   5243.50620450 </i>
    <i name="pawaedc">  -5674.74988108 </i>
    <i name="eentropy">     -0.02998190 </i>
    <i name="bandstr">    193.83185742 </i>
    <i name="atom">   5563.77610493 </i>
    <i name="e_fr_energy">    -14.81562564 </i>
    <i name="e_wo_entrp">    -14.78564374 </i>
    <i name="e_0_energy">    -14.80563167 </i>
   </energy>
  </scstep>
  <scstep>
   <time name="dav">    0.13    0.13</time>
   <time name="total">    0.15    0.15</time>
   <energy>
    <i name="e_fr_energy">    -14.81385114 </i>
    <i name="e_wo_entrp">    -14.78401542 </i>
    <i name="e_0_energy">    -14.80390590 </i>
   </energy>
  </scstep>
  <scstep>
   <time name="dav">    0.10    0.10</time>
   <time name="total">    0.12    0.12</time>
   <energy>
    <i name="e_fr_energy">    -14.81384912 </i>
    <i name="e_wo_entrp">    -14.78398367 </i>
    <i name="e_0_energy">    -14.80389397 </i>
   </energy>
  </scstep>
  <scstep>
   <time name="dav">    0.07    0.07</time>
   <time name="total">    0.08    0.08</time>
   <energy>
    <i name="alphaZ">    243.62337785 </i>
    <i name="ewald">  -4395.34838493 </i>
    <i name="hartreedc">  -1367.99860342 </i>
    <i name="XCdc">    178.57642902 </i>
    <i name="pawpsdc">   5243.50204090 </i>
    <i name="pawaedc">  -5674.74800654 </i>
    <i name="eentropy">     -0.02987098 </i>
    <i name="bandstr">    193.83306419 </i>
    <i name="atom">   5563.77610493 </i>
    <i name="e_fr_energy">    -14.81384899 </i>
    <i name="e_wo_entrp">    -14.78397801 </i>
    <i name="e_0_energy">    -14.80389200 </i>
   </energy>
  </scstep>
  <structure>
   <crystal>
    <varray name="basis" >
     <v>       3.63500000       0.00000000       0.00000000 </v>
     <v>       0.00000000       3.63500000       0.00000000 </v>
     <v>       0.00000000       0.00000000       3.63500000 </v>
    </varray>
    <i name="volume">     48.03007287 </i>
    <varray name="rec_basis" >
     <v>       0.27510316       0.00000000       0.00000000 </v>
     <v>       0.00000000       0.27510316       0.00000000 </v>
     <v>       0.00000000       0.00000000       0.27510316 </v>
    </varray>
   </crystal>
   <varray name="positions" >
    <v>       0.00000000       0.00000000       0.00000000 </v>
    <v>       0.50000000       0.50000000       0.00000000 </v>
    <v>       0.50000000       0.00000000       0.50000000 </v>
    <v>       0.00000000       0.50000000       0.50000000 </v>
   </varray>
  </structure>
  <varray name="forces" >
   <v>      -0.00000000      -0.00000000      -0.00000000 </v>
   <v>       0.00000000       0.00000000      -0.00000000 </v>
   <v>      -0.00000000      -0.00000000      -0.00000000 </v>
   <v>      -0.00000000      -0.00000000       0.00000000 </v>
  </varray>
  <varray name="stress" >
   <v>       5.59182015      -0.00000000      -0.00000000 </v>
   <v>      -0.00000000       5.59182015      -0.00000000 </v>
   <v>       0.00000000      -0.00000000       5.59182015 </v>
  </varray>
  <energy>
   <i name="e_fr_energy">    -14.81384899 </i>
   <i name="e_wo_entrp">    -14.78397801 </i>
   <i name="e_0_energy">    -14.80389200 </i>
  </energy>
  <time name="totalsc">    0.65    0.66</time>
  <eigenvalues>
   <array>
    <dimension dim="1">band</dimension>
    <dimension dim="2">kpoint</dimension>
    <dimension dim="3">spin</dimension>
    <field>eigene</field>
    <field>occ</field>
    <set>
     <set comment="spin 1">
      <set comment="kpoint 1">
       <r>   -1.8460    1.0000 </r>
       <r>    2.6065    1.0000 </r>
       <r>    2.6065    1.0000 </r>
       <r>    2.6065    1.0000 </r>
       <r>    3.0534    1.0000 </r>
       <r>    3.0534    1.0000 </r>
       <r>    3.0534    1.0000 </r>
       <r>    4.4121    1.0000 </r>
       <r>    4.4121    1.0000 </r>
       <r>    4.4121    1.0000 </r>
       <r>    5.2177    1.0000 </r>
       <r>    5.2177    1.0000 </r>
       <r>    5.7531    1.0000 </r>
       <r>    5.7531    1.0000 </r>
       <r>    5.7531    1.0000 </r>
       <r>    5.9058    1.0000 </r>
       <r>    5.9058    1.0000 </r>
       <r>    5.9058    1.0000 </r>
       <r>    5.9058    1.0000 </r>
       <r>    5.9058    1.0000 </r>
       <r>    5.9058    1.0000 </r>
       <r>    8.8907   -0.0000 </r>
       <r>    8.8907   -0.0000 </r>
       <r>    8.8907   -0.0000 </r>
       <r>   14.3830    0.0000 </r>
       <r>   14.3830    0.0000 </r>
       <r>   14.3830    0.0000 </r>
       <r>   20.3327    0.0000 </r>
       <r>   20.3327    0.0000 </r>
       <r>   20.3327    0.0000 </r>
      </set>
      <set comment="kpoint 2">
       <r>   -1.3692    1.0000 </r>
       <r>    2.5584    1.0000 </r>
       <r>    2.8167    1.0000 </r>
       <r>    2.8167    1.0000 </r>
       <r>    3.1765    1.0000 </r>
       <r>    3.1873    1.0000 </r>
       <r>    3.1873    1.0000 </r>
       <r>    4.2758    1.0000 </r>
       <r>    4.5235    1.0000 </r>
       <r>    4.5235    1.0000 </r>
       <r>    5.0959    1.0000 </r>
       <r>    5.2588    1.0000 </r>
       <r>    5.2588    1.0000 </r>
       <r>    5.2677    1.0000 </r>
       <r>    5.5947    1.0000 </r>
       <r>    5.5947    1.0000 </r>
       <r>    5.7009    1.0000 </r>
       <r>    5.7213    1.0000 </r>
       <r>    5.7213    1.0000 </r>
       <r>    5.9061    1.0000 </r>
       <r>    5.9061    1.0000 </r>
       <r>    6.8305    1.0063 </r>
       <r>    9.9684   -0.0000 </r>
       <r>    9.9684   -0.0000 </r>
       <r>   14.5675    0.0000 </r>
       <r>   14.5675    0.0000 </r>
       <r>   17.4257    0.0000 </r>
       <r>   18.0877    0.0000 </r>
       <r>   18.0877    0.0000 </r>
       <r>   18.7513    0.0000 </r>
      </set>
      <set comment="kpoint 3">
       <r>   -0.0134    1.0000 </r>
       <r>    1.7631    1.0000 </r>
       <r>    3.2404    1.0000 </r>
       <r>    3.2404    1.0000 </r>
       <r>    3.5057    1.0000 </r>
       <r>    3.6006    1.0000 </r>
       <r>    3.6006    1.0000 </r>
       <r>    3.9253    1.0000 </r>
       <r>    4.3101    1.0000 </r>
       <r>    4.3101    1.0000 </r>
       <r>    4.8318    1.0000 </r>
       <r>    4.8393    1.0000 </r>
       <r>    4.8393    1.0000 </r>
       <r>    4.9517    1.0000 </r>
       <r>    5.2532    1.0000 </r>
       <r>    5.2532    1.0000 </r>
       <r>    5.2909    1.0000 </r>
       <r>    5.2909    1.0000 </r>
       <r>    5.3998    1.0000 </r>
       <r>    5.5655    1.0000 </r>
       <r>    5.9064    1.0000 </r>
       <r>    5.9064    1.0000 </r>
       <r>   12.1921   -0.0000 </r>
       <r>   12.1921   -0.0000 </r>
       <r>   14.9665    0.0000 </r>
       <r>   14.9665    0.0000 </r>
       <r>   15.2064    0.0000 </r>
       <r>   15.2064    0.0000 </r>
       <r>   16.6365    0.0000 </r>
       <r>   16.6365    0.0000 </r>
      </set>
      <set comment="kpoint 4">
       <r>   -0.9046    1.0000 </r>
       <r>    2.8011    1.0000 </r>
       <r>    2.8011    1.0000 </r>
       <r>    2.9992    1.0000 </r>
       <r>    3.2928    1.0000 </r>
       <r>    3.2963    1.0000 </r>
       <r>    3.2963    1.0000 </r>
       <r>    4.2174    1.0000 </r>
       <r>    4.5628    1.0000 </r>
       <r>    4.5720    1.0000 </r>
       <r>    4.9338    1.0000 </r>
       <r>    4.9338    1.0000 </r>
       <r>    4.9502    1.0000 </r>
       <r>    5.0760    1.0000 </r>
       <r>    5.2881    1.0000 </r>
       <r>    5.4706    1.0000 </r>
       <r>    5.5881    1.0000 </r>
       <r>    5.5881    1.0000 </r>
       <r>    5.7195    1.0000 </r>
       <r>    5.7195    1.0000 </r>
       <r>    5.7828    1.0000 </r>
       <r>    7.8522   -0.0001 </r>
       <r>    7.8522   -0.0001 </r>
       <r>   10.8350   -0.0000 </r>
       <r>   14.5231    0.0000 </r>
       <r>   14.9903    0.0000 </r>
       <r>   17.7571    0.0000 </r>
       <r>   17.7571    0.0000 </r>
       <r>   18.6756    0.0000 </r>
       <r>   18.6756    0.0000 </r>
      </set>
      <set comment="kpoint 5">
       <r>    0.4075    1.0000 </r>
       <r>    2.0946    1.0000 </r>
       <r>    3.3236    1.0000 </r>
       <r>    3.4055    1.0000 </r>
       <r>    3.5541    1.0000 </r>
       <r>    3.5849    1.0000 </r>
       <r>    3.6607    1.0000 </r>
       <r>    3.9452    1.0000 </r>
       <r>    4.0787    1.0000 </r>
       <r>    4.2599    1.0000 </r>
       <r>    4.4636    1.0000 </r>
       <r>    4.5662    1.0000 </r>
       <r>    4.8501    1.0000 </r>
       <r>    5.0158    1.0000 </r>
       <r>    5.1988    1.0000 </r>
       <r>    5.2573    1.0000 </r>
       <r>    5.2898    1.0000 </r>
       <r>    5.3473    1.0000 </r>
       <r>    5.5336    1.0000 </r>
       <r>    5.7163    1.0000 </r>
       <r>    5.7226    1.0000 </r>
       <r>    6.0670    1.0000 </r>
       <r>    9.5523   -0.0000 </r>
       <r>   11.7517   -0.0000 </r>
       <r>   12.8719    0.0000 </r>
       <r>   15.5592    0.0000 </r>
       <r>   15.5620    0.0000 </r>
       <r>   17.0302    0.0000 </r>
       <r>   18.8428    0.0000 </r>
       <r>   20.2823    0.0000 </r>
      </set>
      <set comment="kpoint 6">
       <r>    1.5471    1.0000 </r>
       <r>    2.8611    1.0000 </r>
       <r>    2.8611    1.0000 </r>
       <r>    3.3768    1.0000 </r>
       <r>    3.7940    1.0000 </r>
       <r>    3.8045    1.0000 </r>
       <r>    3.8045    1.0000 </r>
       <r>    3.9292    1.0000 </r>
       <r>    4.0669    1.0000 </r>
       <r>    4.0669    1.0000 </r>
       <r>    4.0787    1.0000 </r>
       <r>    4.3971    1.0000 </r>
       <r>    4.8876    1.0000 </r>
       <r>    4.9753    1.0000 </r>
       <r>    5.0183    1.0000 </r>
       <r>    5.0695    1.0000 </r>
       <r>    5.0695    1.0000 </r>
       <r>    5.3117    1.0000 </r>
       <r>    5.3117    1.0000 </r>
       <r>    5.4391    1.0000 </r>
       <r>    6.0650    1.0000 </r>
       <r>    7.1493    0.8579 </r>
       <r>    7.1493    0.8579 </r>
       <r>    8.9044   -0.0000 </r>
       <r>   14.6528    0.0000 </r>
       <r>   16.5216    0.0000 </r>
       <r>   17.1873    0.0000 </r>
       <r>   17.1873    0.0000 </r>
       <r>   18.2886    0.0000 </r>
       <r>   18.2886    0.0000 </r>
      </set>
      <set comment="kpoint 7">
       <r>   -0.4582    1.0000 </r>
       <r>    2.9766    1.0000 </r>
       <r>    2.9766    1.0000 </r>
       <r>    2.9766    1.0000 </r>
       <r>    3.4031    1.0000 </r>
       <r>    3.4031    1.0000 </r>
       <r>    3.4031    1.0000 </r>
       <r>    4.1966    1.0000 </r>
       <r>    4.5689    1.0000 </r>
       <r>    4.5689    1.0000 </r>
       <r>    4.6979    1.0000 </r>
       <r>    4.6979    1.0000 </r>
       <r>    4.6979    1.0000 </r>
       <r>    5.2160    1.0000 </r>
       <r>    5.2160    1.0000 </r>
       <r>    5.2584    1.0000 </r>
       <r>    5.2584    1.0000 </r>
       <r>    5.2584    1.0000 </r>
       <r>    5.8218    1.0000 </r>
       <r>    5.8218    1.0000 </r>
       <r>    5.8218    1.0000 </r>
       <r>    8.4846   -0.0000 </r>
       <r>    8.4846   -0.0000 </r>
       <r>    8.4846   -0.0000 </r>
       <r>   15.2997    0.0000 </r>
       <r>   15.2997    0.0000 </r>
       <r>   15.2997    0.0000 </r>
       <r>   18.1224    0.0000 </r>
       <r>   18.1224    0.0000 </r>
       <r>   18.1224    0.0000 </r>
      </set>
      <set comment="kpoint 8">
       <r>    0.7841    1.0000 </r>
       <r>    2.3185    1.0000 </r>
       <r>    3.3033    1.0000 </r>
       <r>    3.3033    1.0000 </r>
       <r>    3.6481    1.0000 </r>
       <r>    3.6481    1.0000 </r>
       <r>    3.7088    1.0000 </r>
       <r>    4.0202    1.0000 </r>
       <r>    4.2523    1.0000 </r>
       <r>    4.2523    1.0000 </r>
       <r>    4.3755    1.0000 </r>
       <r>    4.5243    1.0000 </r>
       <r>    4.6636    1.0000 </r>
       <r>    4.9173    1.0000 </r>
       <r>    5.0461    1.0000 </r>
       <r>    5.0461    1.0000 </r>
       <r>    5.3197    1.0000 </r>
       <r>    5.4933    1.0000 </r>
       <r>    5.7326    1.0000 </r>
       <r>    5.7372    1.0000 </r>
       <r>    5.7372    1.0000 </r>
       <r>    6.2525    1.0000 </r>
       <r>    9.8469   -0.0000 </r>
       <r>    9.8469   -0.0000 </r>
       <r>   12.5015   -0.0000 </r>
       <r>   12.5015   -0.0000 </r>
       <r>   16.8333    0.0000 </r>
       <r>   19.1412    0.0000 </r>
       <r>   19.2213    0.0000 </r>
       <r>   19.2213    0.0000 </r>
      </set>
      <set comment="kpoint 9">
       <r>    1.7435    1.0000 </r>
       <r>    2.7294    1.0000 </r>
       <r>    2.7294    1.0000 </r>
       <r>    3.0435    1.0000 </r>
       <r>    3.9529    1.0000 </r>
       <r>    4.0547    1.0000 </r>
       <r>    4.0547    1.0000 </r>
       <r>    4.2060    1.0000 </r>
       <r>    4.2808    1.0000 </r>
       <r>    4.2808    1.0000 </r>
       <r>    4.4205    1.0000 </r>
       <r>    4.4270    1.0000 </r>
       <r>    4.5861    1.0000 </r>
       <r>    4.7555    1.0000 </r>
       <r>    4.7555    1.0000 </r>
       <r>    4.7717    1.0000 </r>
       <r>    5.3417    1.0000 </r>
       <r>    5.6209    1.0000 </r>
       <r>    5.6209    1.0000 </r>
       <r>    5.6382    1.0000 </r>
       <r>    5.9450    1.0000 </r>
       <r>    7.1821    0.7518 </r>
       <r>    7.1821    0.7518 </r>
       <r>    8.8315   -0.0000 </r>
       <r>   11.9378   -0.0000 </r>
       <r>   13.9064    0.0000 </r>
       <r>   13.9064    0.0000 </r>
       <r>   16.1322    0.0000 </r>
       <r>   20.4253    0.0000 </r>
       <r>   22.4065    0.0000 </r>
      </set>
      <set comment="kpoint 10">
       <r>    2.1436    1.0000 </r>
       <r>    2.5682    1.0000 </r>
       <r>    2.5682    1.0000 </r>
       <r>    2.5682    1.0000 </r>
       <r>    4.2613    1.0000 </r>
       <r>    4.2613    1.0000 </r>
       <r>    4.2613    1.0000 </r>
       <r>    4.4264    1.0000 </r>
       <r>    4.4264    1.0000 </r>
       <r>    4.4999    1.0000 </r>
       <r>    4.4999    1.0000 </r>
       <r>    4.4999    1.0000 </r>
       <r>    4.9647    1.0000 </r>
       <r>    4.9647    1.0000 </r>
       <r>    4.9647    1.0000 </r>
       <r>    5.1836    1.0000 </r>
       <r>    5.6642    1.0000 </r>
       <r>    5.6642    1.0000 </r>
       <r>    5.7756    1.0000 </r>
       <r>    5.7756    1.0000 </r>
       <r>    5.7756    1.0000 </r>
       <r>    7.2822    0.3453 </r>
       <r>    7.2822    0.3453 </r>
       <r>    7.2822    0.3453 </r>
       <r>   11.4863   -0.0000 </r>
       <r>   11.4863   -0.0000 </r>
       <r>   11.4863   -0.0000 </r>
       <r>   13.2482    0.0000 </r>
       <r>   25.6820    0.0000 </r>
       <r>   25.6820    0.0000 </r>
      </set>
     </set>
    </set>
   </array>
  </eigenvalues>
  <separator name="orbital magnetization" >
   <v name="MAGDIPOLOUT">      0.00000000      0.00000000      0.00000000</v>
  </separator>
  <dos>
   <i name="efermi">      7.24492619 </i>
   <total>
    <array>
     <dimension dim="1">gridpoints</dimension>
     <dimension dim="2">spin</dimension>
     <field>energy</field>
     <field>total</field>
     <field>integrated</field>
     <set>
      <set comment="spin 1">
       <r>    -3.8460     0.0000     0.0000 </r>
       <r>    -3.7409     0.0000     0.0000 </r>
       <r>    -3.6358     0.0000     0.0000 </r>
       <r>    -3.5307    -0.0000    -0.0000 </r>
       <r>    -3.4256    -0.0000    -0.0000 </r>
       <r>    -3.3205    -0.0000    -0.0000 </r>
       <r>    -3.2154    -0.0000    -0.0000 </r>
       <r>    -3.1103    -0.0000    -0.0000 </r>
       <r>    -3.0052    -0.0000    -0.0000 </r>
       <r>    -2.9001    -0.0000    -0.0000 </r>
       <r>    -2.7950    -0.0000    -0.0000 </r>
       <r>    -2.6900    -0.0000    -0.0000 </r>
       <r>    -2.5849    -0.0000    -0.0000 </r>
       <r>    -2.4798    -0.0000    -0.0000 </r>
       <r>    -2.3747    -0.0001    -0.0000 </r>
       <r>    -2.2696    -0.0007    -0.0001 </r>
       <r>    -2.1645    -0.0027    -0.0004 </r>
       <r>    -2.0594    -0.0011    -0.0005 </r>
       <r>    -1.9543     0.0210     0.0017 </r>
       <r>    -1.8492     0.0561     0.0076 </r>
       <r>    -1.7441     0.0501     0.0129 </r>
       <r>    -1.6390     0.0035     0.0132 </r>
       <r>    -1.5339     0.0337     0.0168 </r>
       <r>    -1.4288     0.2293     0.0409 </r>
       <r>    -1.3237     0.3801     0.0808 </r>
       <r>    -1.2186     0.2308     0.1051 </r>
       <r>    -1.1136     0.0444     0.1098 </r>
       <r>    -1.0085     0.2522     0.1363 </r>
       <r>    -0.9034     0.6899     0.2088 </r>
       <r>    -0.7983     0.6773     0.2799 </r>
       <r>    -0.6932     0.2412     0.3053 </r>
       <r>    -0.5881     0.1030     0.3161 </r>
       <r>    -0.4830     0.3750     0.3555 </r>
       <r>    -0.3779     0.4865     0.4067 </r>
       <r>    -0.2728     0.2287     0.4307 </r>
       <r>    -0.1677     0.0641     0.4374 </r>
       <r>    -0.0626     0.2236     0.4609 </r>
       <r>     0.0425     0.3406     0.4967 </r>
       <r>     0.1476     0.1629     0.5138 </r>
       <r>     0.2527     0.2253     0.5375 </r>
       <r>     0.3578     0.9859     0.6411 </r>
       <r>     0.4628     1.4898     0.7977 </r>
       <r>     0.5679     0.9380     0.8963 </r>
       <r>     0.6730     0.6427     0.9638 </r>
       <r>     0.7781     1.2863     1.0990 </r>
       <r>     0.8832     1.3976     1.2459 </r>
       <r>     0.9883     0.5762     1.3064 </r>
       <r>     1.0934    -0.0116     1.3052 </r>
       <r>     1.1985    -0.0969     1.2950 </r>
       <r>     1.3036    -0.0699     1.2877 </r>
       <r>     1.4087     0.0715     1.2952 </r>
       <r>     1.5138     0.5085     1.3486 </r>
       <r>     1.6189     1.2073     1.4755 </r>
       <r>     1.7240     1.9167     1.6769 </r>
       <r>     1.8291     1.8222     1.8684 </r>
       <r>     1.9342     1.0004     1.9736 </r>
       <r>     2.0392     1.1143     2.0907 </r>
       <r>     2.1443     2.0048     2.3014 </r>
       <r>     2.2494     2.1994     2.5325 </r>
       <r>     2.3545     1.7765     2.7192 </r>
       <r>     2.4596     1.4720     2.8739 </r>
       <r>     2.5647     2.1488     3.0997 </r>
       <r>     2.6698     4.0786     3.5284 </r>
       <r>     2.7749     6.1860     4.1785 </r>
       <r>     2.8800     6.7097     4.8836 </r>
       <r>     2.9851     5.5920     5.4713 </r>
       <r>     3.0902     4.4252     5.9364 </r>
       <r>     3.1953     5.4491     6.5090 </r>
       <r>     3.3004     9.1360     7.4692 </r>
       <r>     3.4055    10.6965     8.5933 </r>
       <r>     3.5105     9.1414     9.5540 </r>
       <r>     3.6156     9.1301    10.5135 </r>
       <r>     3.7207     9.2428    11.4849 </r>
       <r>     3.8258     7.3277    12.2550 </r>
       <r>     3.9309     7.4988    13.0430 </r>
       <r>     4.0360    10.6235    14.1595 </r>
       <r>     4.1411    13.2111    15.5479 </r>
       <r>     4.2462    15.3033    17.1562 </r>
       <r>     4.3513    16.7255    18.9139 </r>
       <r>     4.4564    16.4625    20.6440 </r>
       <r>     4.5615    15.2671    22.2485 </r>
       <r>     4.6666    12.9525    23.6097 </r>
       <r>     4.7717    11.2742    24.7945 </r>
       <r>     4.8768    12.2096    26.0777 </r>
       <r>     4.9819    14.1459    27.5643 </r>
       <r>     5.0869    14.1491    29.0513 </r>
       <r>     5.1920    14.2583    30.5497 </r>
       <r>     5.2971    16.3419    32.2672 </r>
       <r>     5.4022    14.9027    33.8333 </r>
       <r>     5.5073    11.5904    35.0514 </r>
       <r>     5.6124    14.2366    36.5476 </r>
       <r>     5.7175    19.3871    38.5850 </r>
       <r>     5.8226    17.8163    40.4574 </r>
       <r>     5.9277    10.5894    41.5703 </r>
       <r>     6.0328     5.2293    42.1198 </r>
       <r>     6.1379     3.1611    42.4520 </r>
       <r>     6.2430     2.2386    42.6873 </r>
       <r>     6.3481     1.3827    42.8326 </r>
       <r>     6.4532     0.4407    42.8789 </r>
       <r>     6.5583    -0.0690    42.8717 </r>
       <r>     6.6633    -0.0584    42.8655 </r>
       <r>     6.7684     0.1284    42.8790 </r>
       <r>     6.8735     0.1439    42.8942 </r>
       <r>     6.9786     0.2989    42.9256 </r>
       <r>     7.0837     2.1240    43.1488 </r>
       <r>     7.1888     5.0463    43.6791 </r>
       <r>     7.2939     5.2848    44.2345 </r>
       <r>     7.3990     2.5200    44.4993 </r>
       <r>     7.5041     0.2493    44.5255 </r>
       <r>     7.6092    -0.2855    44.4955 </r>
       <r>     7.7143     0.1860    44.5151 </r>
       <r>     7.8194     1.1470    44.6356 </r>
       <r>     7.9245     1.5378    44.7972 </r>
       <r>     8.0296     0.8096    44.8823 </r>
       <r>     8.1347     0.0323    44.8857 </r>
       <r>     8.2397    -0.1489    44.8701 </r>
       <r>     8.3448     0.2411    44.8954 </r>
       <r>     8.4499     1.1070    45.0117 </r>
       <r>     8.5550     1.4332    45.1624 </r>
       <r>     8.6601     0.9014    45.2571 </r>
       <r>     8.7652     1.1498    45.3779 </r>
       <r>     8.8703     2.2098    45.6102 </r>
       <r>     8.9754     2.0447    45.8250 </r>
       <r>     9.0805     0.7440    45.9032 </r>
       <r>     9.1856    -0.0654    45.8964 </r>
       <r>     9.2907    -0.1760    45.8779 </r>
       <r>     9.3958     0.1297    45.8915 </r>
       <r>     9.5009     0.8970    45.9858 </r>
       <r>     9.6060     1.4102    46.1340 </r>
       <r>     9.7111     1.5557    46.2975 </r>
       <r>     9.8161     2.6367    46.5746 </r>
       <r>     9.9212     3.5145    46.9439 </r>
       <r>    10.0263     2.3429    47.1901 </r>
       <r>    10.1314     0.6136    47.2546 </r>
       <r>    10.2365    -0.0850    47.2457 </r>
       <r>    10.3416    -0.1012    47.2351 </r>
       <r>    10.4467    -0.0425    47.2306 </r>
       <r>    10.5518    -0.0432    47.2260 </r>
       <r>    10.6569     0.0390    47.2301 </r>
       <r>    10.7620     0.4065    47.2729 </r>
       <r>    10.8671     0.7692    47.3537 </r>
       <r>    10.9722     0.5835    47.4150 </r>
       <r>    11.0773     0.1250    47.4282 </r>
       <r>    11.1824    -0.1071    47.4169 </r>
       <r>    11.2875    -0.0255    47.4142 </r>
       <r>    11.3925     0.5775    47.4749 </r>
       <r>    11.4976     1.3740    47.6193 </r>
       <r>    11.6027     1.4939    47.7763 </r>
       <r>    11.7078     1.4589    47.9296 </r>
       <r>    11.8129     1.8799    48.1272 </r>
       <r>    11.9180     2.0861    48.3464 </r>
       <r>    12.0231     1.6607    48.5210 </r>
       <r>    12.1282     0.9949    48.6255 </r>
       <r>    12.2333     0.6179    48.6905 </r>
       <r>    12.3384     0.7556    48.7699 </r>
       <r>    12.4435     1.9734    48.9773 </r>
       <r>    12.5486     3.0211    49.2948 </r>
       <r>    12.6537     2.0316    49.5083 </r>
       <r>    12.7588     0.8683    49.5995 </r>
       <r>    12.8639     1.1878    49.7244 </r>
       <r>    12.9689     1.3350    49.8646 </r>
       <r>    13.0740     0.6165    49.9294 </r>
       <r>    13.1791     0.2807    49.9589 </r>
       <r>    13.2842     0.4442    50.0056 </r>
       <r>    13.3893     0.3538    50.0428 </r>
       <r>    13.4944     0.0448    50.0475 </r>
       <r>    13.5995    -0.1665    50.0300 </r>
       <r>    13.7046    -0.0155    50.0284 </r>
       <r>    13.8097     1.2041    50.1549 </r>
       <r>    13.9148     2.8956    50.4592 </r>
       <r>    14.0199     2.6911    50.7421 </r>
       <r>    14.1250     0.9006    50.8367 </r>
       <r>    14.2301    -0.1239    50.8237 </r>
       <r>    14.3352    -0.0377    50.8197 </r>
       <r>    14.4403     0.6929    50.8925 </r>
       <r>    14.5453     1.7379    51.0752 </r>
       <r>    14.6504     2.0304    51.2886 </r>
       <r>    14.7555     1.1928    51.4139 </r>
       <r>    14.8606     0.6604    51.4833 </r>
       <r>    14.9657     1.1492    51.6041 </r>
       <r>    15.0708     1.4980    51.7615 </r>
       <r>    15.1759     1.5468    51.9241 </r>
       <r>    15.2810     1.9006    52.1238 </r>
       <r>    15.3861     2.0083    52.3349 </r>
       <r>    15.4912     2.3966    52.5867 </r>
       <r>    15.5963     3.0799    52.9104 </r>
       <r>    15.7014     2.1808    53.1396 </r>
       <r>    15.8065     0.4535    53.1873 </r>
       <r>    15.9116    -0.1844    53.1679 </r>
       <r>    16.0167     0.3504    53.2047 </r>
       <r>    16.1217     1.3026    53.3416 </r>
       <r>    16.2268     1.4074    53.4895 </r>
       <r>    16.3319     0.5986    53.5524 </r>
       <r>    16.4370     0.3360    53.5877 </r>
       <r>    16.5421     0.9083    53.6832 </r>
       <r>    16.6472     1.3544    53.8255 </r>
       <r>    16.7523     1.4988    53.9831 </r>
       <r>    16.8574     1.7514    54.1671 </r>
       <r>    16.9625     1.9987    54.3772 </r>
       <r>    17.0676     2.2675    54.6155 </r>
       <r>    17.1727     2.3490    54.8623 </r>
       <r>    17.2778     1.7339    55.0445 </r>
       <r>    17.3829     0.8077    55.1294 </r>
       <r>    17.4880     0.2788    55.1587 </r>
       <r>    17.5930     0.2807    55.1882 </r>
       <r>    17.6981     0.9146    55.2843 </r>
       <r>    17.8032     1.4285    55.4345 </r>
       <r>    17.9083     1.0190    55.5416 </r>
       <r>    18.0134     1.0288    55.6497 </r>
       <r>    18.1185     2.1815    55.8789 </r>
       <r>    18.2236     2.8478    56.1782 </r>
       <r>    18.3287     2.2059    56.4101 </r>
       <r>    18.4338     0.9548    56.5104 </r>
       <r>    18.5389     0.3669    56.5490 </r>
       <r>    18.6440     1.2105    56.6762 </r>
       <r>    18.7491     2.4220    56.9307 </r>
       <r>    18.8542     2.4579    57.1890 </r>
       <r>    18.9593     1.4504    57.3414 </r>
       <r>    19.0644     1.4915    57.4982 </r>
       <r>    19.1694     3.4453    57.8603 </r>
       <r>    19.2745     4.2613    58.3081 </r>
       <r>    19.3796     2.2865    58.5484 </r>
       <r>    19.4847     0.2739    58.5772 </r>
       <r>    19.5898    -0.2095    58.5552 </r>
       <r>    19.6949    -0.0906    58.5456 </r>
       <r>    19.8000    -0.0210    58.5434 </r>
       <r>    19.9051    -0.0410    58.5391 </r>
       <r>    20.0102    -0.1076    58.5278 </r>
       <r>    20.1153     0.0521    58.5333 </r>
       <r>    20.2204     0.9643    58.6346 </r>
       <r>    20.3255     2.3052    58.8769 </r>
       <r>    20.4306     2.6918    59.1598 </r>
       <r>    20.5357     1.6700    59.3353 </r>
       <r>    20.6408     0.4154    59.3790 </r>
       <r>    20.7458    -0.0844    59.3701 </r>
       <r>    20.8509    -0.0759    59.3621 </r>
       <r>    20.9560    -0.0179    59.3602 </r>
       <r>    21.0611    -0.0020    59.3600 </r>
       <r>    21.1662    -0.0001    59.3600 </r>
       <r>    21.2713    -0.0000    59.3600 </r>
       <r>    21.3764    -0.0000    59.3600 </r>
       <r>    21.4815    -0.0000    59.3600 </r>
       <r>    21.5866    -0.0000    59.3600 </r>
       <r>    21.6917    -0.0000    59.3600 </r>
       <r>    21.7968    -0.0002    59.3600 </r>
       <r>    21.9019    -0.0036    59.3596 </r>
       <r>    22.0070    -0.0256    59.3569 </r>
       <r>    22.1121    -0.0761    59.3489 </r>
       <r>    22.2172     0.0373    59.3528 </r>
       <r>    22.3222     0.7120    59.4277 </r>
       <r>    22.4273     1.5036    59.5857 </r>
       <r>    22.5324     1.2614    59.7182 </r>
       <r>    22.6375     0.3718    59.7573 </r>
       <r>    22.7426    -0.0557    59.7514 </r>
       <r>    22.8477    -0.0567    59.7455 </r>
       <r>    22.9528    -0.0128    59.7441 </r>
       <r>    23.0579    -0.0013    59.7440 </r>
       <r>    23.1630    -0.0001    59.7440 </r>
       <r>    23.2681    -0.0000    59.7440 </r>
       <r>    23.3732    -0.0000    59.7440 </r>
       <r>    23.4783    -0.0000    59.7440 </r>
       <r>    23.5834    -0.0000    59.7440 </r>
       <r>    23.6885    -0.0000    59.7440 </r>
       <r>    23.7936     0.0000    59.7440 </r>
       <r>    23.8986     0.0000    59.7440 </r>
       <r>    24.0037    -0.0000    59.7440 </r>
       <r>    24.1088    -0.0000    59.7440 </r>
       <r>    24.2139    -0.0000    59.7440 </r>
       <r>    24.3190    -0.0000    59.7440 </r>
       <r>    24.4241    -0.0000    59.7440 </r>
       <r>    24.5292    -0.0000    59.7440 </r>
       <r>    24.6343    -0.0000    59.7440 </r>
       <r>    24.7394    -0.0000    59.7440 </r>
       <r>    24.8445    -0.0000    59.7440 </r>
       <r>    24.9496    -0.0000    59.7440 </r>
       <r>    25.0547    -0.0001    59.7440 </r>
       <r>    25.1598    -0.0016    59.7438 </r>
       <r>    25.2649    -0.0129    59.7425 </r>
       <r>    25.3700    -0.0460    59.7376 </r>
       <r>    25.4750    -0.0084    59.7367 </r>
       <r>    25.5801     0.3732    59.7760 </r>
       <r>    25.6852     0.9472    59.8755 </r>
       <r>    25.7903     0.9218    59.9724 </r>
       <r>    25.8954     0.3378    60.0079 </r>
       <r>    26.0005    -0.0179    60.0060 </r>
       <r>    26.1056    -0.0440    60.0014 </r>
       <r>    26.2107    -0.0116    60.0002 </r>
       <r>    26.3158    -0.0014    60.0000 </r>
       <r>    26.4209    -0.0001    60.0000 </r>
       <r>    26.5260    -0.0000    60.0000 </r>
       <r>    26.6311    -0.0000    60.0000 </r>
       <r>    26.7362    -0.0000    60.0000 </r>
       <r>    26.8413    -0.0000    60.0000 </r>
       <r>    26.9464    -0.0000    60.0000 </r>
       <r>    27.0514     0.0000    60.0000 </r>
       <r>    27.1565     0.0000    60.0000 </r>
       <r>    27.2616     0.0000    60.0000 </r>
       <r>    27.3667     0.0000    60.0000 </r>
       <r>    27.4718     0.0000    60.0000 </r>
       <r>    27.5769     0.0000    60.0000 </r>
       <r>    27.6820     0.0000    60.0000 </r>
      </set>
     </set>
    </array>
   </total>
  </dos>
 </calculation>
 <structure name="finalpos" >
  <crystal>
   <varray name="basis" >
    <v>       3.63500000       0.00000000       0.00000000 </v>
    <v>       0.00000000       3.63500000       0.00000000 </v>
    <v>       0.00000000       0.00000000       3.63500000 </v>
   </varray>
   <i name="volume">     48.03007287 </i>
   <varray name="rec_basis" >
    <v>       0.27510316       0.00000000       0.00000000 </v>
    <v>       0.00000000       0.27510316       0.00000000 </v>
    <v>       0.00000000       0.00000000       0.27510316 </v>
   </varray>
  </crystal>
  <varray name="positions" >
   <v>       0.00000000       0.00000000       0.00000000 </v>
   <v>       0.50000000       0.50000000       0.00000000 </v>
   <v>       0.50000000       0.00000000       0.50000000 </v>
   <v>       0.00000000       0.50000000       0.50000000 </v>
  </varray>
 </structure>
</modeling>
