unknown system                          
   1.00000000000000     
     3.635000    0.000000    0.000000
     0.000000    3.635000    0.000000
     0.000000    0.000000    3.635000
   Cu
     4
Direct
  0.000000  0.000000  0.000000
  0.500000  0.500000  0.000000
  0.500000  0.000000  0.500000
  0.000000  0.500000  0.500000
 
   28   28   28
  836.95      774.67      612.74      410.68      229.64      106.00      43.874      22.745      14.397      10.074    
  8.5203      7.7835      7.5192      7.8667      8.1642      7.8667      7.5192      7.7835      8.5203      10.074    
  14.397      22.745      43.874      106.00      229.64      410.68      612.74      774.67      774.67      716.69    
  566.04      378.33      210.78      97.262      41.075      22.178      14.140      9.9804      8.4488      7.6768    
  7.3487      7.6120      7.8667      7.6120      7.3487      7.6768      8.4488      9.9804      14.140      22.178    
  41.075      97.262      210.78      378.33      566.04      716.69      612.74      566.04      444.92      294.89    
  162.69      75.477      34.362      20.613      13.388      9.7401      8.3588      7.6091      7.2263      7.3487    
  7.5192      7.3487      7.2263      7.6091      8.3588      9.7401      13.388      20.613      34.362      75.477    
  162.69      294.89      444.92      566.04      410.68      378.33      294.89      192.89      105.50      50.916    
  27.278      18.170      12.248      9.4280      8.4048      7.8782      7.6091      7.6768      7.7835      7.6768    
  7.6091      7.8782      8.4048      9.4280      12.248      18.170      27.278      50.916      105.50      192.89    
  294.89      378.33      229.64      210.78      162.69      105.50      59.105      32.763      21.893      15.241    
  10.977      9.1320      8.5845      8.4048      8.3588      8.4488      8.5203      8.4488      8.3588      8.4048    
  8.5845      9.1320      10.977      15.241      21.893      32.763      59.105      105.50      162.69      210.78    
  106.00      97.262      75.477      50.916      32.763      23.213      17.139      12.522      9.9723      9.1097    
  9.1320      9.4280      9.7401      9.9804      10.074      9.9804      9.7401      9.4280      9.1320      9.1097    
  9.9723      12.522      17.139      23.213      32.763      50.916      75.477      97.262      43.874      41.075    
  34.362      27.278      21.893      17.139      13.157      10.653      9.7053      9.9723      10.977      12.248    
  13.388      14.140      14.397      14.140      13.388      12.248      10.977      9.9723      9.7053      10.653    
  13.157      17.139      21.893      27.278      34.362      41.075      22.745      22.178      20.613      18.170    
  15.241      12.522      10.653      9.9965      10.653      12.522      15.241      18.170      20.613      22.178    
  22.745      22.178      20.613      18.170      15.241      12.522      10.653      9.9965      10.653      12.522    
  15.241      18.170      20.613      22.178      14.397      14.140      13.388      12.248      10.977      9.9723    
  9.7053      10.653      13.157      17.139      21.893      27.278      34.362      41.075      43.874      41.075    
  34.362      27.278      21.893      17.139      13.157      10.653      9.7053      9.9723      10.977      12.248    
  13.388      14.140      10.074      9.9804      9.7401      9.4280      9.1320      9.1097      9.9723      12.522    
  17.139      23.213      32.763      50.916      75.477      97.262      106.00      97.262      75.477      50.916    
  32.763      23.213      17.139      12.522      9.9723      9.1097      9.1320      9.4280      9.7401      9.9804    
  8.5203      8.4488      8.3588      8.4048      8.5845      9.1320      10.977      15.241      21.893      32.763    
  59.105      105.50      162.69      210.78      229.64      210.78      162.69      105.50      59.105      32.763    
  21.893      15.241      10.977      9.1320      8.5845      8.4048      8.3588      8.4488      7.7835      7.6768    
  7.6091      7.8782      8.4048      9.4280      12.248      18.170      27.278      50.916      105.50      192.89    
  294.89      378.33      410.68      378.33      294.89      192.89      105.50      50.916      27.278      18.170    
  12.248      9.4280      8.4048      7.8782      7.6091      7.6768      7.5192      7.3487      7.2263      7.6091    
  8.3588      9.7401      13.388      20.613      34.362      75.477      162.69      294.89      444.92      566.04    
  612.74      566.04      444.92      294.89      162.69      75.477      34.362      20.613      13.388      9.7401    
  8.3588      7.6091      7.2263      7.3487      7.8667      7.6120      7.3487      7.6768      8.4488      9.9804    
  14.140      22.178      41.075      97.262      210.78      378.33      566.04      716.69      774.67      716.69    
  566.04      378.33      210.78      97.262      41.075      22.178      14.140      9.9804      8.4488      7.6768    
  7.3487      7.6120      8.1642      7.8667      7.5192      7.7835      8.5203      10.074      14.397      22.745    
  43.874      106.00      229.64      410.68      612.74      774.67      836.95      774.67      612.74      410.68    
  229.64      106.00      43.874      22.745      14.397      10.074      8.5203      7.7835      7.5192      7.8667    
  7.8667      7.6120      7.3487      7.6768      8.4488      9.9804      14.140      22.178      41.075      97.262    
  210.78      378.33      566.04      716.69      774.67      716.69      566.04      378.33      210.78      97.262    
  41.075      22.178      14.140      9.9804      8.4488      7.6768      7.3487      7.6120      7.5192      7.3487    
  7.2263      7.6091      8.3588      9.7401      13.388      20.613      34.362      75.477      162.69      294.89    
  444.92      566.04      612.74      566.04      444.92      294.89      162.69      75.477      34.362      20.613    
  13.388      9.7401      8.3588      7.6091      7.2263      7.3487      7.7835      7.6768      7.6091      7.8782    
  8.4048      9.4280      12.248      18.170      27.278      50.916      105.50      192.89      294.89      378.33    
  410.68      378.33      294.89      192.89      105.50      50.916      27.278      18.170      12.248      9.4280    
  8.4048      7.8782      7.6091      7.6768      8.5203      8.4488      8.3588      8.4048      8.5845      9.1320    
  10.977      15.241      21.893      32.763      59.105      105.50      162.69      210.78      229.64      210.78    
  162.69      105.50      59.105      32.763      21.893      15.241      10.977      9.1320      8.5845      8.4048    
  8.3588      8.4488      10.074      9.9804      9.7401      9.4280      9.1320      9.1097      9.9723      12.522    
  17.139      23.213      32.763      50.916      75.477      97.262      106.00      97.262      75.477      50.916    
  32.763      23.213      17.139      12.522      9.9723      9.1097      9.1320      9.4280      9.7401      9.9804    
  14.397      14.140      13.388      12.248      10.977      9.9723      9.7053      10.653      13.157      17.139    
  21.893      27.278      34.362      41.075      43.874      41.075      34.362      27.278      21.893      17.139    
  13.157      10.653      9.7053      9.9723      10.977      12.248      13.388      14.140      22.745      22.178    
  20.613      18.170      15.241      12.522      10.653      9.9965      10.653      12.522      15.241      18.170    
  20.613      22.178      22.745      22.178      20.613      18.170      15.241      12.522      10.653      9.9965    
  10.653      12.522      15.241      18.170      20.613      22.178      43.874      41.075      34.362      27.278    
  21.893      17.139      13.157      10.653      9.7053      9.9723      10.977      12.248      13.388      14.140    
  14.397      14.140      13.388      12.248      10.977      9.9723      9.7053      10.653      13.157      17.139    
  21.893      27.278      34.362      41.075      106.00      97.262      75.477      50.916      32.763      23.213    
  17.139      12.522      9.9723      9.1097      9.1320      9.4280      9.7401      9.9804      10.074      9.9804    
  9.7401      9.4280      9.1320      9.1097      9.9723      12.522      17.139      23.213      32.763      50.916    
  75.477      97.262      229.64      210.78      162.69      105.50      59.105      32.763      21.893      15.241    
  10.977      9.1320      8.5845      8.4048      8.3588      8.4488      8.5203      8.4488      8.3588      8.4048    
  8.5845      9.1320      10.977      15.241      21.893      32.763      59.105      105.50      162.69      210.78    
  410.68      378.33      294.89      192.89      105.50      50.916      27.278      18.170      12.248      9.4280    
  8.4048      7.8782      7.6091      7.6768      7.7835      7.6768      7.6091      7.8782      8.4048      9.4280    
  12.248      18.170      27.278      50.916      105.50      192.89      294.89      378.33      612.74      566.04    
  444.92      294.89      162.69      75.477      34.362      20.613      13.388      9.7401      8.3588      7.6091    
  7.2263      7.3487      7.5192      7.3487      7.2263      7.6091      8.3588      9.7401      13.388      20.613    
  34.362      75.477      162.69      294.89      444.92      566.04      774.67      716.69      566.04      378.33    
  210.78      97.262      41.075      22.178      14.140      9.9804      8.4488      7.6768      7.3487      7.6120    
  7.8667      7.6120      7.3487      7.6768      8.4488      9.9804      14.140      22.178      41.075      97.262    
  210.78      378.33      566.04      716.69      774.67      716.69      566.04      378.33      210.78      97.262    
  41.075      22.178      14.140      9.9804      8.4488      7.6768      7.3487      7.6120      7.8667      7.6120    
  7.3487      7.6768      8.4488      9.9804      14.140      22.178      41.075      97.262      210.78      378.33    
  566.04      716.69      716.69      662.73      522.62      348.34      193.39      89.291      38.573      21.644    
  13.894      9.9014      8.3982      7.5985      7.2131      7.3978      7.6120      7.3978      7.2131      7.5985    
  8.3982      9.9014      13.894      21.644      38.573      89.291      193.39      348.34      522.62      662.73    
  566.04      522.62      410.12      271.07      149.13      69.492      32.591      20.124      13.177      9.6954    
  8.3509      7.5858      7.1578      7.2131      7.3487      7.2131      7.1578      7.5858      8.3509      9.6954    
  13.177      20.124      32.591      69.492      149.13      271.07      410.12      522.62      378.33      348.34    
  271.07      176.91      96.760      47.331      26.275      17.740      12.092      9.4192      8.4300      7.8925    
  7.5858      7.5985      7.6768      7.5985      7.5858      7.8925      8.4300      9.4192      12.092      17.740    
  26.275      47.331      96.760      176.91      271.07      348.34      210.78      193.39      149.13      96.760    
  54.670      31.127      21.296      14.914      10.883      9.1487      8.6230      8.4300      8.3509      8.3982    
  8.4488      8.3982      8.3509      8.4300      8.6230      9.1487      10.883      14.914      21.296      31.127    
  54.670      96.760      149.13      193.39      97.262      89.291      69.492      47.331      31.127      22.534    
  16.693      12.311      9.9226      9.1249      9.1487      9.4192      9.6954      9.9014      9.9804      9.9014    
  9.6954      9.4192      9.1487      9.1249      9.9226      12.311      16.693      22.534      31.127      47.331    
  69.492      89.291      41.075      38.573      32.591      26.275      21.296      16.693      12.890      10.528    
  9.6526      9.9226      10.883      12.092      13.177      13.894      14.140      13.894      13.177      12.092    
  10.883      9.9226      9.6526      10.528      12.890      16.693      21.296      26.275      32.591      38.573    
  22.178      21.644      20.124      17.740      14.914      12.311      10.528      9.9031      10.528      12.311    
  14.914      17.740      20.124      21.644      22.178      21.644      20.124      17.740      14.914      12.311    
  10.528      9.9031      10.528      12.311      14.914      17.740      20.124      21.644      14.140      13.894    
  13.177      12.092      10.883      9.9226      9.6526      10.528      12.890      16.693      21.296      26.275    
  32.591      38.573      41.075      38.573      32.591      26.275      21.296      16.693      12.890      10.528    
  9.6526      9.9226      10.883      12.092      13.177      13.894      9.9804      9.9014      9.6954      9.4192    
  9.1487      9.1249      9.9226      12.311      16.693      22.534      31.127      47.331      69.492      89.291    
  97.262      89.291      69.492      47.331      31.127      22.534      16.693      12.311      9.9226      9.1249    
  9.1487      9.4192      9.6954      9.9014      8.4488      8.3982      8.3509      8.4300      8.6230      9.1487    
  10.883      14.914      21.296      31.127      54.670      96.760      149.13      193.39      210.78      193.39    
  149.13      96.760      54.670      31.127      21.296      14.914      10.883      9.1487      8.6230      8.4300    
  8.3509      8.3982      7.6768      7.5985      7.5858      7.8925      8.4300      9.4192      12.092      17.740    
  26.275      47.331      96.760      176.91      271.07      348.34      378.33      348.34      271.07      176.91    
  96.760      47.331      26.275      17.740      12.092      9.4192      8.4300      7.8925      7.5858      7.5985    
  7.3487      7.2131      7.1578      7.5858      8.3509      9.6954      13.177      20.124      32.591      69.492    
  149.13      271.07      410.12      522.62      566.04      522.62      410.12      271.07      149.13      69.492    
  32.591      20.124      13.177      9.6954      8.3509      7.5858      7.1578      7.2131      7.6120      7.3978    
  7.2131      7.5985      8.3982      9.9014      13.894      21.644      38.573      89.291      193.39      348.34    
  522.62      662.73      716.69      662.73      522.62      348.34      193.39      89.291      38.573      21.644    
  13.894      9.9014      8.3982      7.5985      7.2131      7.3978      7.8667      7.6120      7.3487      7.6768    
  8.4488      9.9804      14.140      22.178      41.075      97.262      210.78      378.33      566.04      716.69    
  774.67      716.69      566.04      378.33      210.78      97.262      41.075      22.178      14.140      9.9804    
  8.4488      7.6768      7.3487      7.6120      7.6120      7.3978      7.2131      7.5985      8.3982      9.9014    
  13.894      21.644      38.573      89.291      193.39      348.34      522.62      662.73      716.69      662.73    
  522.62      348.34      193.39      89.291      38.573      21.644      13.894      9.9014      8.3982      7.5985    
  7.2131      7.3978      7.3487      7.2131      7.1578      7.5858      8.3509      9.6954      13.177      20.124    
  32.591      69.492      149.13      271.07      410.12      522.62      566.04      522.62      410.12      271.07    
  149.13      69.492      32.591      20.124      13.177      9.6954      8.3509      7.5858      7.1578      7.2131    
  7.6768      7.5985      7.5858      7.8925      8.4300      9.4192      12.092      17.740      26.275      47.331    
  96.760      176.91      271.07      348.34      378.33      348.34      271.07      176.91      96.760      47.331    
  26.275      17.740      12.092      9.4192      8.4300      7.8925      7.5858      7.5985      8.4488      8.3982    
  8.3509      8.4300      8.6230      9.1487      10.883      14.914      21.296      31.127      54.670      96.760    
  149.13      193.39      210.78      193.39      149.13      96.760      54.670      31.127      21.296      14.914    
  10.883      9.1487      8.6230      8.4300      8.3509      8.3982      9.9804      9.9014      9.6954      9.4192    
  9.1487      9.1249      9.9226      12.311      16.693      22.534      31.127      47.331      69.492      89.291    
  97.262      89.291      69.492      47.331      31.127      22.534      16.693      12.311      9.9226      9.1249    
  9.1487      9.4192      9.6954      9.9014      14.140      13.894      13.177      12.092      10.883      9.9226    
  9.6526      10.528      12.890      16.693      21.296      26.275      32.591      38.573      41.075      38.573    
  32.591      26.275      21.296      16.693      12.890      10.528      9.6526      9.9226      10.883      12.092    
  13.177      13.894      22.178      21.644      20.124      17.740      14.914      12.311      10.528      9.9031    
  10.528      12.311      14.914      17.740      20.124      21.644      22.178      21.644      20.124      17.740    
  14.914      12.311      10.528      9.9031      10.528      12.311      14.914      17.740      20.124      21.644    
  41.075      38.573      32.591      26.275      21.296      16.693      12.890      10.528      9.6526      9.9226    
  10.883      12.092      13.177      13.894      14.140      13.894      13.177      12.092      10.883      9.9226    
  9.6526      10.528      12.890      16.693      21.296      26.275      32.591      38.573      97.262      89.291    
  69.492      47.331      31.127      22.534      16.693      12.311      9.9226      9.1249      9.1487      9.4192    
  9.6954      9.9014      9.9804      9.9014      9.6954      9.4192      9.1487      9.1249      9.9226      12.311    
  16.693      22.534      31.127      47.331      69.492      89.291      210.78      193.39      149.13      96.760    
  54.670      31.127      21.296      14.914      10.883      9.1487      8.6230      8.4300      8.3509      8.3982    
  8.4488      8.3982      8.3509      8.4300      8.6230      9.1487      10.883      14.914      21.296      31.127    
  54.670      96.760      149.13      193.39      378.33      348.34      271.07      176.91      96.760      47.331    
  26.275      17.740      12.092      9.4192      8.4300      7.8925      7.5858      7.5985      7.6768      7.5985    
  7.5858      7.8925      8.4300      9.4192      12.092      17.740      26.275      47.331      96.760      176.91    
  271.07      348.34      566.04      522.62      410.12      271.07      149.13      69.492      32.591      20.124    
  13.177      9.6954      8.3509      7.5858      7.1578      7.2131      7.3487      7.2131      7.1578      7.5858    
  8.3509      9.6954      13.177      20.124      32.591      69.492      149.13      271.07      410.12      522.62    
  716.69      662.73      522.62      348.34      193.39      89.291      38.573      21.644      13.894      9.9014    
  8.3982      7.5985      7.2131      7.3978      7.6120      7.3978      7.2131      7.5985      8.3982      9.9014    
  13.894      21.644      38.573      89.291      193.39      348.34      522.62      662.73      612.74      566.04    
  444.92      294.89      162.69      75.477      34.362      20.613      13.388      9.7401      8.3588      7.6091    
  7.2263      7.3487      7.5192      7.3487      7.2263      7.6091      8.3588      9.7401      13.388      20.613    
  34.362      75.477      162.69      294.89      444.92      566.04      566.04      522.62      410.12      271.07    
  149.13      69.492      32.591      20.124      13.177      9.6954      8.3509      7.5858      7.1578      7.2131    
  7.3487      7.2131      7.1578      7.5858      8.3509      9.6954      13.177      20.124      32.591      69.492    
  149.13      271.07      410.12      522.62      444.92      410.12      320.22      209.96      114.87      54.784    
  28.371      18.697      12.565      9.5688      8.3842      7.6663      7.2106      7.1578      7.2263      7.1578    
  7.2106      7.6663      8.3842      9.5688      12.565      18.697      28.371      54.784      114.87      209.96    
  320.22      410.12      294.89      271.07      209.96      136.30      74.988      38.691      23.822      16.520    
  11.641      9.3764      8.5129      8.0055      7.6663      7.5858      7.6091      7.5858      7.6663      8.0055    
  8.5129      9.3764      11.641      16.520      23.822      38.691      74.988      136.30      209.96      271.07    
  162.69      149.13      114.87      74.988      43.904      27.247      19.627      14.018      10.614      9.1688    
  8.7122      8.5129      8.3842      8.3509      8.3588      8.3509      8.3842      8.5129      8.7122      9.1688    
  10.614      14.018      19.627      27.247      43.904      74.988      114.87      149.13      75.477      69.492    
  54.784      38.691      27.247      20.708      15.495      11.758      9.7888      9.1475      9.1688      9.3764    
  9.5688      9.6954      9.7401      9.6954      9.5688      9.3764      9.1688      9.1475      9.7888      11.758    
  15.495      20.708      27.247      38.691      54.784      69.492      34.362      32.591      28.371      23.822    
  19.627      15.495      12.205      10.228      9.5303      9.7888      10.614      11.641      12.565      13.177    
  13.388      13.177      12.565      11.641      10.614      9.7888      9.5303      10.228      12.205      15.495    
  19.627      23.822      28.371      32.591      20.613      20.124      18.697      16.520      14.018      11.758    
  10.228      9.6931      10.228      11.758      14.018      16.520      18.697      20.124      20.613      20.124    
  18.697      16.520      14.018      11.758      10.228      9.6931      10.228      11.758      14.018      16.520    
  18.697      20.124      13.388      13.177      12.565      11.641      10.614      9.7888      9.5303      10.228    
  12.205      15.495      19.627      23.822      28.371      32.591      34.362      32.591      28.371      23.822    
  19.627      15.495      12.205      10.228      9.5303      9.7888      10.614      11.641      12.565      13.177    
  9.7401      9.6954      9.5688      9.3764      9.1688      9.1475      9.7888      11.758      15.495      20.708    
  27.247      38.691      54.784      69.492      75.477      69.492      54.784      38.691      27.247      20.708    
  15.495      11.758      9.7888      9.1475      9.1688      9.3764      9.5688      9.6954      8.3588      8.3509    
  8.3842      8.5129      8.7122      9.1688      10.614      14.018      19.627      27.247      43.904      74.988    
  114.87      149.13      162.69      149.13      114.87      74.988      43.904      27.247      19.627      14.018    
  10.614      9.1688      8.7122      8.5129      8.3842      8.3509      7.6091      7.5858      7.6663      8.0055    
  8.5129      9.3764      11.641      16.520      23.822      38.691      74.988      136.30      209.96      271.07    
  294.89      271.07      209.96      136.30      74.988      38.691      23.822      16.520      11.641      9.3764    
  8.5129      8.0055      7.6663      7.5858      7.2263      7.1578      7.2106      7.6663      8.3842      9.5688    
  12.565      18.697      28.371      54.784      114.87      209.96      320.22      410.12      444.92      410.12    
  320.22      209.96      114.87      54.784      28.371      18.697      12.565      9.5688      8.3842      7.6663    
  7.2106      7.1578      7.3487      7.2131      7.1578      7.5858      8.3509      9.6954      13.177      20.124    
  32.591      69.492      149.13      271.07      410.12      522.62      566.04      522.62      410.12      271.07    
  149.13      69.492      32.591      20.124      13.177      9.6954      8.3509      7.5858      7.1578      7.2131    
  7.5192      7.3487      7.2263      7.6091      8.3588      9.7401      13.388      20.613      34.362      75.477    
  162.69      294.89      444.92      566.04      612.74      566.04      444.92      294.89      162.69      75.477    
  34.362      20.613      13.388      9.7401      8.3588      7.6091      7.2263      7.3487      7.3487      7.2131    
  7.1578      7.5858      8.3509      9.6954      13.177      20.124      32.591      69.492      149.13      271.07    
  410.12      522.62      566.04      522.62      410.12      271.07      149.13      69.492      32.591      20.124    
  13.177      9.6954      8.3509      7.5858      7.1578      7.2131      7.2263      7.1578      7.2106      7.6663    
  8.3842      9.5688      12.565      18.697      28.371      54.784      114.87      209.96      320.22      410.12    
  444.92      410.12      320.22      209.96      114.87      54.784      28.371      18.697      12.565      9.5688    
  8.3842      7.6663      7.2106      7.1578      7.6091      7.5858      7.6663      8.0055      8.5129      9.3764    
  11.641      16.520      23.822      38.691      74.988      136.30      209.96      271.07      294.89      271.07    
  209.96      136.30      74.988      38.691      23.822      16.520      11.641      9.3764      8.5129      8.0055    
  7.6663      7.5858      8.3588      8.3509      8.3842      8.5129      8.7122      9.1688      10.614      14.018    
  19.627      27.247      43.904      74.988      114.87      149.13      162.69      149.13      114.87      74.988    
  43.904      27.247      19.627      14.018      10.614      9.1688      8.7122      8.5129      8.3842      8.3509    
  9.7401      9.6954      9.5688      9.3764      9.1688      9.1475      9.7888      11.758      15.495      20.708    
  27.247      38.691      54.784      69.492      75.477      69.492      54.784      38.691      27.247      20.708    
  15.495      11.758      9.7888      9.1475      9.1688      9.3764      9.5688      9.6954      13.388      13.177    
  12.565      11.641      10.614      9.7888      9.5303      10.228      12.205      15.495      19.627      23.822    
  28.371      32.591      34.362      32.591      28.371      23.822      19.627      15.495      12.205      10.228    
  9.5303      9.7888      10.614      11.641      12.565      13.177      20.613      20.124      18.697      16.520    
  14.018      11.758      10.228      9.6931      10.228      11.758      14.018      16.520      18.697      20.124    
  20.613      20.124      18.697      16.520      14.018      11.758      10.228      9.6931      10.228      11.758    
  14.018      16.520      18.697      20.124      34.362      32.591      28.371      23.822      19.627      15.495    
  12.205      10.228      9.5303      9.7888      10.614      11.641      12.565      13.177      13.388      13.177    
  12.565      11.641      10.614      9.7888      9.5303      10.228      12.205      15.495      19.627      23.822    
  28.371      32.591      75.477      69.492      54.784      38.691      27.247      20.708      15.495      11.758    
  9.7888      9.1475      9.1688      9.3764      9.5688      9.6954      9.7401      9.6954      9.5688      9.3764    
  9.1688      9.1475      9.7888      11.758      15.495      20.708      27.247      38.691      54.784      69.492    
  162.69      149.13      114.87      74.988      43.904      27.247      19.627      14.018      10.614      9.1688    
  8.7122      8.5129      8.3842      8.3509      8.3588      8.3509      8.3842      8.5129      8.7122      9.1688    
  10.614      14.018      19.627      27.247      43.904      74.988      114.87      149.13      294.89      271.07    
  209.96      136.30      74.988      38.691      23.822      16.520      11.641      9.3764      8.5129      8.0055    
  7.6663      7.5858      7.6091      7.5858      7.6663      8.0055      8.5129      9.3764      11.641      16.520    
  23.822      38.691      74.988      136.30      209.96      271.07      444.92      410.12      320.22      209.96    
  114.87      54.784      28.371      18.697      12.565      9.5688      8.3842      7.6663      7.2106      7.1578    
  7.2263      7.1578      7.2106      7.6663      8.3842      9.5688      12.565      18.697      28.371      54.784    
  114.87      209.96      320.22      410.12      566.04      522.62      410.12      271.07      149.13      69.492    
  32.591      20.124      13.177      9.6954      8.3509      7.5858      7.1578      7.2131      7.3487      7.2131    
  7.1578      7.5858      8.3509      9.6954      13.177      20.124      32.591      69.492      149.13      271.07    
  410.12      522.62      410.68      378.33      294.89      192.89      105.50      50.916      27.278      18.170    
  12.248      9.4280      8.4048      7.8782      7.6091      7.6768      7.7835      7.6768      7.6091      7.8782    
  8.4048      9.4280      12.248      18.170      27.278      50.916      105.50      192.89      294.89      378.33    
  378.33      348.34      271.07      176.91      96.760      47.331      26.275      17.740      12.092      9.4192    
  8.4300      7.8925      7.5858      7.5985      7.6768      7.5985      7.5858      7.8925      8.4300      9.4192    
  12.092      17.740      26.275      47.331      96.760      176.91      271.07      348.34      294.89      271.07    
  209.96      136.30      74.988      38.691      23.822      16.520      11.641      9.3764      8.5129      8.0055    
  7.6663      7.5858      7.6091      7.5858      7.6663      8.0055      8.5129      9.3764      11.641      16.520    
  23.822      38.691      74.988      136.30      209.96      271.07      192.89      176.91      136.30      88.493    
  50.464      29.567      20.745      14.741      10.965      9.2754      8.6425      8.2756      8.0055      7.8925    