unknown system                          
   1.00000000000000     
     3.635000    0.000000    0.000000
     0.000000    3.635000    0.000000
     0.000000    0.000000    3.635000
   Cu
     4
Direct
  0.000000  0.000000  0.000000
  0.500000  0.500000  0.000000
  0.500000  0.000000  0.500000
  0.000000  0.500000  0.500000
 
   28   28   28
 0.83694892634E+03 0.77466756944E+03 0.61274147990E+03 0.41068162956E+03 0.22964331142E+03
 0.10600473119E+03 0.43873710305E+02 0.22745235827E+02 0.14397013627E+02 0.10074164625E+02
 0.85202804025E+01 0.77835075959E+01 0.75192333934E+01 0.78666884513E+01 0.81642058409E+01
 0.78666884513E+01 0.75192333934E+01 0.77835075959E+01 0.85202804025E+01 0.10074164625E+02
 0.14397013627E+02 0.22745235827E+02 0.43873710305E+02 0.10600473119E+03 0.22964331142E+03
 0.41068162956E+03 0.61274147990E+03 0.77466756944E+03 0.77466756944E+03 0.71668982546E+03
 0.56603508301E+03 0.37833447320E+03 0.21078387333E+03 0.97262047058E+02 0.41074830654E+02
 0.22177942557E+02 0.14139790447E+02 0.99804190282E+01 0.84488015973E+01 0.76768045137E+01
 0.73486805385E+01 0.76120207610E+01 0.78666884513E+01 0.76120207610E+01 0.73486805385E+01
 0.76768045137E+01 0.84488015973E+01 0.99804190282E+01 0.14139790447E+02 0.22177942557E+02
 0.41074830654E+02 0.97262047058E+02 0.21078387333E+03 0.37833447320E+03 0.56603508301E+03
 0.71668982546E+03 0.61274147990E+03 0.56603508301E+03 0.44492394036E+03 0.29489337507E+03
 0.16268836317E+03 0.75476993839E+02 0.34362411334E+02 0.20612862172E+02 0.13387986935E+02
 0.97400858355E+01 0.83587628693E+01 0.76090735213E+01 0.72262677655E+01 0.73486805385E+01
 0.75192333934E+01 0.73486805385E+01 0.72262677655E+01 0.76090735213E+01 0.83587628693E+01
 0.97400858355E+01 0.13387986935E+02 0.20612862172E+02 0.34362411334E+02 0.75476993839E+02
 0.16268836317E+03 0.29489337507E+03 0.44492394036E+03 0.56603508301E+03 0.41068162956E+03
 0.37833447320E+03 0.29489337507E+03 0.19289293347E+03 0.10549887310E+03 0.50915888952E+02
 0.27277505768E+02 0.18169801969E+02 0.12247655100E+02 0.94280220451E+01 0.84048359534E+01
 0.78782028919E+01 0.76090735213E+01 0.76768045137E+01 0.77835075959E+01 0.76768045137E+01
 0.76090735213E+01 0.78782028919E+01 0.84048359534E+01 0.94280220451E+01 0.12247655100E+02
 0.18169801969E+02 0.27277505768E+02 0.50915888952E+02 0.10549887310E+03 0.19289293347E+03
 0.29489337507E+03 0.37833447320E+03 0.22964331142E+03 0.21078387333E+03 0.16268836317E+03
 0.10549887310E+03 0.59104834548E+02 0.32762961766E+02 0.21893080186E+02 0.15241465254E+02
 0.10976707860E+02 0.91320082132E+01 0.85844876239E+01 0.84048359534E+01 0.83587628693E+01
 0.84488015973E+01 0.85202804025E+01 0.84488015973E+01 0.83587628693E+01 0.84048359534E+01
 0.85844876239E+01 0.91320082132E+01 0.10976707860E+02 0.15241465254E+02 0.21893080186E+02
 0.32762961766E+02 0.59104834548E+02 0.10549887310E+03 0.16268836317E+03 0.21078387333E+03
 0.10600473119E+03 0.97262047058E+02 0.75476993839E+02 0.50915888952E+02 0.32762961766E+02
 0.23212623229E+02 0.17139165994E+02 0.12522416544E+02 0.99722708253E+01 0.91096588472E+01
 0.91320082132E+01 0.94280220451E+01 0.97400858355E+01 0.99804190282E+01 0.10074164625E+02
 0.99804190282E+01 0.97400858355E+01 0.94280220451E+01 0.91320082132E+01 0.91096588472E+01
 0.99722708253E+01 0.12522416544E+02 0.17139165994E+02 0.23212623229E+02 0.32762961766E+02
 0.50915888952E+02 0.75476993839E+02 0.97262047058E+02 0.43873710305E+02 0.41074830654E+02
 0.34362411334E+02 0.27277505768E+02 0.21893080186E+02 0.17139165994E+02 0.13157098892E+02
 0.10653272437E+02 0.97052789429E+01 0.99722708253E+01 0.10976707860E+02 0.12247655100E+02
 0.13387986935E+02 0.14139790447E+02 0.14397013627E+02 0.14139790447E+02 0.13387986935E+02
 0.12247655100E+02 0.10976707860E+02 0.99722708253E+01 0.97052789429E+01 0.10653272437E+02
 0.13157098892E+02 0.17139165994E+02 0.21893080186E+02 0.27277505768E+02 0.34362411334E+02
 0.41074830654E+02 0.22745235827E+02 0.22177942557E+02 0.20612862172E+02 0.18169801969E+02
 0.15241465254E+02 0.12522416544E+02 0.10653272437E+02 0.99965093712E+01 0.10653272437E+02
 0.12522416544E+02 0.15241465254E+02 0.18169801969E+02 0.20612862172E+02 0.22177942557E+02
 0.22745235827E+02 0.22177942557E+02 0.20612862172E+02 0.18169801969E+02 0.15241465254E+02
 0.12522416544E+02 0.10653272437E+02 0.99965093712E+01 0.10653272437E+02 0.12522416544E+02
 0.15241465254E+02 0.18169801969E+02 0.20612862172E+02 0.22177942557E+02 0.14397013627E+02
 0.14139790447E+02 0.13387986935E+02 0.12247655100E+02 0.10976707860E+02 0.99722708253E+01
 0.97052789429E+01 0.10653272437E+02 0.13157098892E+02 0.17139165994E+02 0.21893080186E+02
 0.27277505768E+02 0.34362411334E+02 0.41074830654E+02 0.43873710305E+02 0.41074830654E+02
 0.34362411334E+02 0.27277505768E+02 0.21893080186E+02 0.17139165994E+02 0.13157098892E+02
 0.10653272437E+02 0.97052789429E+01 0.99722708253E+01 0.10976707860E+02 0.12247655100E+02
 0.13387986935E+02 0.14139790447E+02 0.10074164625E+02 0.99804190282E+01 0.97400858355E+01
 0.94280220451E+01 0.91320082132E+01 0.91096588472E+01 0.99722708253E+01 0.12522416544E+02
 0.17139165994E+02 0.23212623229E+02 0.32762961766E+02 0.50915888952E+02 0.75476993839E+02
 0.97262047058E+02 0.10600473119E+03 0.97262047058E+02 0.75476993839E+02 0.50915888952E+02
 0.32762961766E+02 0.23212623229E+02 0.17139165994E+02 0.12522416544E+02 0.99722708253E+01
 0.91096588472E+01 0.91320082132E+01 0.94280220451E+01 0.97400858355E+01 0.99804190282E+01
 0.85202804025E+01 0.84488015973E+01 0.83587628693E+01 0.84048359534E+01 0.85844876239E+01
 0.91320082132E+01 0.10976707860E+02 0.15241465254E+02 0.21893080186E+02 0.32762961766E+02
 0.59104834548E+02 0.10549887310E+03 0.16268836317E+03 0.21078387333E+03 0.22964331142E+03
 0.21078387333E+03 0.16268836317E+03 0.10549887310E+03 0.59104834548E+02 0.32762961766E+02
 0.21893080186E+02 0.15241465254E+02 0.10976707860E+02 0.91320082132E+01 0.85844876239E+01
 0.84048359534E+01 0.83587628693E+01 0.84488015973E+01 0.77835075959E+01 0.76768045137E+01
 0.76090735213E+01 0.78782028919E+01 0.84048359534E+01 0.94280220451E+01 0.12247655100E+02
 0.18169801969E+02 0.27277505768E+02 0.50915888952E+02 0.10549887310E+03 0.19289293347E+03
 0.29489337507E+03 0.37833447320E+03 0.41068162956E+03 0.37833447320E+03 0.29489337507E+03
 0.19289293347E+03 0.10549887310E+03 0.50915888952E+02 0.27277505768E+02 0.18169801969E+02
 0.12247655100E+02 0.94280220451E+01 0.84048359534E+01 0.78782028919E+01 0.76090735213E+01
 0.76768045137E+01 0.75192333934E+01 0.73486805385E+01 0.72262677655E+01 0.76090735213E+01
 0.83587628693E+01 0.97400858355E+01 0.13387986935E+02 0.20612862172E+02 0.34362411334E+02
 0.75476993839E+02 0.16268836317E+03 0.29489337507E+03 0.44492394036E+03 0.56603508301E+03
 0.61274147990E+03 0.56603508301E+03 0.44492394036E+03 0.29489337507E+03 0.16268836317E+03
 0.75476993839E+02 0.34362411334E+02 0.20612862172E+02 0.13387986935E+02 0.97400858355E+01
 0.83587628693E+01 0.76090735213E+01 0.72262677655E+01 0.73486805385E+01 0.78666884513E+01
 0.76120207610E+01 0.73486805385E+01 0.76768045137E+01 0.84488015973E+01 0.99804190282E+01
 0.14139790447E+02 0.22177942557E+02 0.41074830654E+02 0.97262047058E+02 0.21078387333E+03
 0.37833447320E+03 0.56603508301E+03 0.71668982546E+03 0.77466756944E+03 0.71668982546E+03
 0.56603508301E+03 0.37833447320E+03 0.21078387333E+03 0.97262047058E+02 0.41074830654E+02
 0.22177942557E+02 0.14139790447E+02 0.99804190282E+01 0.84488015973E+01 0.76768045137E+01
 0.73486805385E+01 0.76120207610E+01 0.81642058409E+01 0.78666884513E+01 0.75192333934E+01
 0.77835075959E+01 0.85202804025E+01 0.10074164625E+02 0.14397013627E+02 0.22745235827E+02
 0.43873710305E+02 0.10600473119E+03 0.22964331142E+03 0.41068162956E+03 0.61274147990E+03
 0.77466756944E+03 0.83694892634E+03 0.77466756944E+03 0.61274147990E+03 0.41068162956E+03
 0.22964331142E+03 0.10600473119E+03 0.43873710305E+02 0.22745235827E+02 0.14397013627E+02
 0.10074164625E+02 0.85202804025E+01 0.77835075959E+01 0.75192333934E+01 0.78666884513E+01
 0.78666884513E+01 0.76120207610E+01 0.73486805385E+01 0.76768045137E+01 0.84488015973E+01
 0.99804190282E+01 0.14139790447E+02 0.22177942557E+02 0.41074830654E+02 0.97262047058E+02
 0.21078387333E+03 0.37833447320E+03 0.56603508301E+03 0.71668982546E+03 0.77466756944E+03
 0.71668982546E+03 0.56603508301E+03 0.37833447320E+03 0.21078387333E+03 0.97262047058E+02
 0.41074830654E+02 0.22177942557E+02 0.14139790447E+02 0.99804190282E+01 0.84488015973E+01
 0.76768045137E+01 0.73486805385E+01 0.76120207610E+01 0.75192333934E+01 0.73486805385E+01
 0.72262677655E+01 0.76090735213E+01 0.83587628693E+01 0.97400858355E+01 0.13387986935E+02
 0.20612862172E+02 0.34362411334E+02 0.75476993839E+02 0.16268836317E+03 0.29489337507E+03
 0.44492394036E+03 0.56603508301E+03 0.61274147990E+03 0.56603508301E+03 0.44492394036E+03
 0.29489337507E+03 0.16268836317E+03 0.75476993839E+02 0.34362411334E+02 0.20612862172E+02
 0.13387986935E+02 0.97400858355E+01 0.83587628693E+01 0.76090735213E+01 0.72262677655E+01
 0.73486805385E+01 0.77835075959E+01 0.76768045137E+01 0.76090735213E+01 0.78782028919E+01
 0.84048359534E+01 0.94280220451E+01 0.12247655100E+02 0.18169801969E+02 0.27277505768E+02
 0.50915888952E+02 0.10549887310E+03 0.19289293347E+03 0.29489337507E+03 0.37833447320E+03
 0.41068162956E+03 0.37833447320E+03 0.29489337507E+03 0.19289293347E+03 0.10549887310E+03
 0.50915888952E+02 0.27277505768E+02 0.18169801969E+02 0.12247655100E+02 0.94280220451E+01
 0.84048359534E+01 0.78782028919E+01 0.76090735213E+01 0.76768045137E+01 0.85202804025E+01
 0.84488015973E+01 0.83587628693E+01 0.84048359534E+01 0.85844876239E+01 0.91320082132E+01
 0.10976707860E+02 0.15241465254E+02 0.21893080186E+02 0.32762961766E+02 0.59104834548E+02
 0.10549887310E+03 0.16268836317E+03 0.21078387333E+03 0.22964331142E+03 0.21078387333E+03
 0.16268836317E+03 0.10549887310E+03 0.59104834548E+02 0.32762961766E+02 0.21893080186E+02
 0.15241465254E+02 0.10976707860E+02 0.91320082132E+01 0.85844876239E+01 0.84048359534E+01
 0.83587628693E+01 0.84488015973E+01 0.10074164625E+02 0.99804190282E+01 0.97400858355E+01
 0.94280220451E+01 0.91320082132E+01 0.91096588472E+01 0.99722708253E+01 0.12522416544E+02
 0.17139165994E+02 0.23212623229E+02 0.32762961766E+02 0.50915888952E+02 0.75476993839E+02
 0.97262047058E+02 0.10600473119E+03 0.97262047058E+02 0.75476993839E+02 0.50915888952E+02
 0.32762961766E+02 0.23212623229E+02 0.17139165994E+02 0.12522416544E+02 0.99722708253E+01
 0.91096588472E+01 0.91320082132E+01 0.94280220451E+01 0.97400858355E+01 0.99804190282E+01
 0.14397013627E+02 0.14139790447E+02 0.13387986935E+02 0.12247655100E+02 0.10976707860E+02
 0.99722708253E+01 0.97052789429E+01 0.10653272437E+02 0.13157098892E+02 0.17139165994E+02
 0.21893080186E+02 0.27277505768E+02 0.34362411334E+02 0.41074830654E+02 0.43873710305E+02
 0.41074830654E+02 0.34362411334E+02 0.27277505768E+02 0.21893080186E+02 0.17139165994E+02
 0.13157098892E+02 0.10653272437E+02 0.97052789429E+01 0.99722708253E+01 0.10976707860E+02
 0.12247655100E+02 0.13387986935E+02 0.14139790447E+02 0.22745235827E+02 0.22177942557E+02
 0.20612862172E+02 0.18169801969E+02 0.15241465254E+02 0.12522416544E+02 0.10653272437E+02
 0.99965093712E+01 0.10653272437E+02 0.12522416544E+02 0.15241465254E+02 0.18169801969E+02
 0.20612862172E+02 0.22177942557E+02 0.22745235827E+02 0.22177942557E+02 0.20612862172E+02
 0.18169801969E+02 0.15241465254E+02 0.12522416544E+02 0.10653272437E+02 0.99965093712E+01
 0.10653272437E+02 0.12522416544E+02 0.15241465254E+02 0.18169801969E+02 0.20612862172E+02
 0.22177942557E+02 0.43873710305E+02 0.41074830654E+02 0.34362411334E+02 0.27277505768E+02
 0.21893080186E+02 0.17139165994E+02 0.13157098892E+02 0.10653272437E+02 0.97052789429E+01
 0.99722708253E+01 0.10976707860E+02 0.12247655100E+02 0.13387986935E+02 0.14139790447E+02
 0.14397013627E+02 0.14139790447E+02 0.13387986935E+02 0.12247655100E+02 0.10976707860E+02
 0.99722708253E+01 0.97052789429E+01 0.10653272437E+02 0.13157098892E+02 0.17139165994E+02
 0.21893080186E+02 0.27277505768E+02 0.34362411334E+02 0.41074830654E+02 0.10600473119E+03
 0.97262047058E+02 0.75476993839E+02 0.50915888952E+02 0.32762961766E+02 0.23212623229E+02
 0.17139165994E+02 0.12522416544E+02 0.99722708253E+01 0.91096588472E+01 0.91320082132E+01
 0.94280220451E+01 0.97400858355E+01 0.99804190282E+01 0.10074164625E+02 0.99804190282E+01
 0.97400858355E+01 0.94280220451E+01 0.91320082132E+01 0.91096588472E+01 0.99722708253E+01
 0.12522416544E+02 0.17139165994E+02 0.23212623229E+02 0.32762961766E+02 0.50915888952E+02
 0.75476993839E+02 0.97262047058E+02 0.22964331142E+03 0.21078387333E+03 0.16268836317E+03
 0.10549887310E+03 0.59104834548E+02 0.32762961766E+02 0.21893080186E+02 0.15241465254E+02
 0.10976707860E+02 0.91320082132E+01 0.85844876239E+01 0.84048359534E+01 0.83587628693E+01
 0.84488015973E+01 0.85202804025E+01 0.84488015973E+01 0.83587628693E+01 0.84048359534E+01
 0.85844876239E+01 0.91320082132E+01 0.10976707860E+02 0.15241465254E+02 0.21893080186E+02
 0.32762961766E+02 0.59104834548E+02 0.10549887310E+03 0.16268836317E+03 0.21078387333E+03
 0.41068162956E+03 0.37833447320E+03 0.29489337507E+03 0.19289293347E+03 0.10549887310E+03
 0.50915888952E+02 0.27277505768E+02 0.18169801969E+02 0.12247655100E+02 0.94280220451E+01
 0.84048359534E+01 0.78782028919E+01 0.76090735213E+01 0.76768045137E+01 0.77835075959E+01
 0.76768045137E+01 0.76090735213E+01 0.78782028919E+01 0.84048359534E+01 0.94280220451E+01
 0.12247655100E+02 0.18169801969E+02 0.27277505768E+02 0.50915888952E+02 0.10549887310E+03
 0.19289293347E+03 0.29489337507E+03 0.37833447320E+03 0.61274147990E+03 0.56603508301E+03
 0.44492394036E+03 0.29489337507E+03 0.16268836317E+03 0.75476993839E+02 0.34362411334E+02
 0.20612862172E+02 0.13387986935E+02 0.97400858355E+01 0.83587628693E+01 0.76090735213E+01
 0.72262677655E+01 0.73486805385E+01 0.75192333934E+01 0.73486805385E+01 0.72262677655E+01
 0.76090735213E+01 0.83587628693E+01 0.97400858355E+01 0.13387986935E+02 0.20612862172E+02
 0.34362411334E+02 0.75476993839E+02 0.16268836317E+03 0.29489337507E+03 0.44492394036E+03
 0.56603508301E+03 0.77466756944E+03 0.71668982546E+03 0.56603508301E+03 0.37833447320E+03
 0.21078387333E+03 0.97262047058E+02 0.41074830654E+02 0.22177942557E+02 0.14139790447E+02
 0.99804190282E+01 0.84488015973E+01 0.76768045137E+01 0.73486805385E+01 0.76120207610E+01
 0.78666884513E+01 0.76120207610E+01 0.73486805385E+01 0.76768045137E+01 0.84488015973E+01
 0.99804190282E+01 0.14139790447E+02 0.22177942557E+02 0.41074830654E+02 0.97262047058E+02
 0.21078387333E+03 0.37833447320E+03 0.56603508301E+03 0.71668982546E+03 0.77466756944E+03
 0.71668982546E+03 0.56603508301E+03 0.37833447320E+03 0.21078387333E+03 0.97262047058E+02
 0.41074830654E+02 0.22177942557E+02 0.14139790447E+02 0.99804190282E+01 0.84488015973E+01
 0.76768045137E+01 0.73486805385E+01 0.76120207610E+01 0.78666884513E+01 0.76120207610E+01
 0.73486805385E+01 0.76768045137E+01 0.84488015973E+01 0.99804190282E+01 0.14139790447E+02
 0.22177942557E+02 0.41074830654E+02 0.97262047058E+02 0.21078387333E+03 0.37833447320E+03
 0.56603508301E+03 0.71668982546E+03 0.71668982546E+03 0.66273379673E+03 0.52261523797E+03
 0.34834099659E+03 0.19339367952E+03 0.89290756813E+02 0.38573089884E+02 0.21644151799E+02
 0.13894089497E+02 0.99014154898E+01 0.83982365718E+01 0.75984839676E+01 0.72131232910E+01
 0.73978287079E+01 0.76120207610E+01 0.73978287079E+01 0.72131232910E+01 0.75984839676E+01
 0.83982365718E+01 0.99014154898E+01 0.13894089497E+02 0.21644151799E+02 0.38573089884E+02
 0.89290756813E+02 0.19339367952E+03 0.34834099659E+03 0.52261523797E+03 0.66273379673E+03
 0.56603508301E+03 0.52261523797E+03 0.41011945453E+03 0.27106854447E+03 0.14913441360E+03
 0.69492208801E+02 0.32590503981E+02 0.20124352819E+02 0.13177208080E+02 0.96953802534E+01
 0.83508536503E+01 0.75858230760E+01 0.71577536324E+01 0.72131232910E+01 0.73486805385E+01
 0.72131232910E+01 0.71577536324E+01 0.75858230760E+01 0.83508536503E+01 0.96953802534E+01
 0.13177208080E+02 0.20124352819E+02 0.32590503981E+02 0.69492208801E+02 0.14913441360E+03
 0.27106854447E+03 0.41011945453E+03 0.52261523797E+03 0.37833447320E+03 0.34834099659E+03
 0.27106854447E+03 0.17690742341E+03 0.96760458717E+02 0.47330946713E+02 0.26275340112E+02
 0.17739611674E+02 0.12092070210E+02 0.94192179240E+01 0.84299691245E+01 0.78924566150E+01
 0.75858230760E+01 0.75984839676E+01 0.76768045137E+01 0.75984839676E+01 0.75858230760E+01
 0.78924566150E+01 0.84299691245E+01 0.94192179240E+01 0.12092070210E+02 0.17739611674E+02
 0.26275340112E+02 0.47330946713E+02 0.96760458717E+02 0.17690742341E+03 0.27106854447E+03
 0.34834099659E+03 0.21078387333E+03 0.19339367952E+03 0.14913441360E+03 0.96760458717E+02
 0.54670410312E+02 0.31127366196E+02 0.21296471862E+02 0.14914274934E+02 0.10883050740E+02
 0.91487107167E+01 0.86230112221E+01 0.84299691245E+01 0.83508536503E+01 0.83982365718E+01
 0.84488015973E+01 0.83982365718E+01 0.83508536503E+01 0.84299691245E+01 0.86230112221E+01
 0.91487107167E+01 0.10883050740E+02 0.14914274934E+02 0.21296471862E+02 0.31127366196E+02
 0.54670410312E+02 0.96760458717E+02 0.14913441360E+03 0.19339367952E+03 0.97262047058E+02
 0.89290756813E+02 0.69492208801E+02 0.47330946713E+02 0.31127366196E+02 0.22533671171E+02
 0.16692759814E+02 0.12310786691E+02 0.99225935001E+01 0.91248892243E+01 0.91487107167E+01
 0.94192179240E+01 0.96953802534E+01 0.99014154898E+01 0.99804190282E+01 0.99014154898E+01
 0.96953802534E+01 0.94192179240E+01 0.91487107167E+01 0.91248892243E+01 0.99225935001E+01
 0.12310786691E+02 0.16692759814E+02 0.22533671171E+02 0.31127366196E+02 0.47330946713E+02
 0.69492208801E+02 0.89290756813E+02 0.41074830654E+02 0.38573089884E+02 0.32590503981E+02
 0.26275340112E+02 0.21296471862E+02 0.16692759814E+02 0.12889636081E+02 0.10528384110E+02
 0.96526238452E+01 0.99225935001E+01 0.10883050740E+02 0.12092070210E+02 0.13177208080E+02
 0.13894089497E+02 0.14139790447E+02 0.13894089497E+02 0.13177208080E+02 0.12092070210E+02
 0.10883050740E+02 0.99225935001E+01 0.96526238452E+01 0.10528384110E+02 0.12889636081E+02
 0.16692759814E+02 0.21296471862E+02 0.26275340112E+02 0.32590503981E+02 0.38573089884E+02
 0.22177942557E+02 0.21644151799E+02 0.20124352819E+02 0.17739611674E+02 0.14914274934E+02
 0.12310786691E+02 0.10528384110E+02 0.99031166593E+01 0.10528384110E+02 0.12310786691E+02
 0.14914274934E+02 0.17739611674E+02 0.20124352819E+02 0.21644151799E+02 0.22177942557E+02
 0.21644151799E+02 0.20124352819E+02 0.17739611674E+02 0.14914274934E+02 0.12310786691E+02
 0.10528384110E+02 0.99031166593E+01 0.10528384110E+02 0.12310786691E+02 0.14914274934E+02
 0.17739611674E+02 0.20124352819E+02 0.21644151799E+02 0.14139790447E+02 0.13894089497E+02
 0.13177208080E+02 0.12092070210E+02 0.10883050740E+02 0.99225935001E+01 0.96526238452E+01
 0.10528384110E+02 0.12889636081E+02 0.16692759814E+02 0.21296471862E+02 0.26275340112E+02
 0.32590503981E+02 0.38573089884E+02 0.41074830654E+02 0.38573089884E+02 0.32590503981E+02
 0.26275340112E+02 0.21296471862E+02 0.16692759814E+02 0.12889636081E+02 0.10528384110E+02
 0.96526238452E+01 0.99225935001E+01 0.10883050740E+02 0.12092070210E+02 0.13177208080E+02
 0.13894089497E+02 0.99804190282E+01 0.99014154898E+01 0.96953802534E+01 0.94192179240E+01
 0.91487107167E+01 0.91248892243E+01 0.99225935001E+01 0.12310786691E+02 0.16692759814E+02
 0.22533671171E+02 0.31127366196E+02 0.47330946713E+02 0.69492208801E+02 0.89290756813E+02
 0.97262047058E+02 0.89290756813E+02 0.69492208801E+02 0.47330946713E+02 0.31127366196E+02
 0.22533671171E+02 0.16692759814E+02 0.12310786691E+02 0.99225935001E+01 0.91248892243E+01
 0.91487107167E+01 0.94192179240E+01 0.96953802534E+01 0.99014154898E+01 0.84488015973E+01
 0.83982365718E+01 0.83508536503E+01 0.84299691245E+01 0.86230112221E+01 0.91487107167E+01
 0.10883050740E+02 0.14914274934E+02 0.21296471862E+02 0.31127366196E+02 0.54670410312E+02
 0.96760458717E+02 0.14913441360E+03 0.19339367952E+03 0.21078387333E+03 0.19339367952E+03
 0.14913441360E+03 0.96760458717E+02 0.54670410312E+02 0.31127366196E+02 0.21296471862E+02
 0.14914274934E+02 0.10883050740E+02 0.91487107167E+01 0.86230112221E+01 0.84299691245E+01
 0.83508536503E+01 0.83982365718E+01 0.76768045137E+01 0.75984839676E+01 0.75858230760E+01
 0.78924566150E+01 0.84299691245E+01 0.94192179240E+01 0.12092070210E+02 0.17739611674E+02
 0.26275340112E+02 0.47330946713E+02 0.96760458717E+02 0.17690742341E+03 0.27106854447E+03
 0.34834099659E+03 0.37833447320E+03 0.34834099659E+03 0.27106854447E+03 0.17690742341E+03
 0.96760458717E+02 0.47330946713E+02 0.26275340112E+02 0.17739611674E+02 0.12092070210E+02
 0.94192179240E+01 0.84299691245E+01 0.78924566150E+01 0.75858230760E+01 0.75984839676E+01
 0.73486805385E+01 0.72131232910E+01 0.71577536324E+01 0.75858230760E+01 0.83508536503E+01
 0.96953802534E+01 0.13177208080E+02 0.20124352819E+02 0.32590503981E+02 0.69492208801E+02
 0.14913441360E+03 0.27106854447E+03 0.41011945453E+03 0.52261523797E+03 0.56603508301E+03
 0.52261523797E+03 0.41011945453E+03 0.27106854447E+03 0.14913441360E+03 0.69492208801E+02
 0.32590503981E+02 0.20124352819E+02 0.13177208080E+02 0.96953802534E+01 0.83508536503E+01
 0.75858230760E+01 0.71577536324E+01 0.72131232910E+01 0.76120207610E+01 0.73978287079E+01
 0.72131232910E+01 0.75984839676E+01 0.83982365718E+01 0.99014154898E+01 0.13894089497E+02
 0.21644151799E+02 0.38573089884E+02 0.89290756813E+02 0.19339367952E+03 0.34834099659E+03
 0.52261523797E+03 0.66273379673E+03 0.71668982546E+03 0.66273379673E+03 0.52261523797E+03
 0.34834099659E+03 0.19339367952E+03 0.89290756813E+02 0.38573089884E+02 0.21644151799E+02
 0.13894089497E+02 0.99014154898E+01 0.83982365718E+01 0.75984839676E+01 0.72131232910E+01
 0.73978287079E+01 0.78666884513E+01 0.76120207610E+01 0.73486805385E+01 0.76768045137E+01
 0.84488015973E+01 0.99804190282E+01 0.14139790447E+02 0.22177942557E+02 0.41074830654E+02
 0.97262047058E+02 0.21078387333E+03 0.37833447320E+03 0.56603508301E+03 0.71668982546E+03
 0.77466756944E+03 0.71668982546E+03 0.56603508301E+03 0.37833447320E+03 0.21078387333E+03
 0.97262047058E+02 0.41074830654E+02 0.22177942557E+02 0.14139790447E+02 0.99804190282E+01
 0.84488015973E+01 0.76768045137E+01 0.73486805385E+01 0.76120207610E+01 0.76120207610E+01
 0.73978287079E+01 0.72131232910E+01 0.75984839676E+01 0.83982365718E+01 0.99014154898E+01
 0.13894089497E+02 0.21644151799E+02 0.38573089884E+02 0.89290756813E+02 0.19339367952E+03
 0.34834099659E+03 0.52261523797E+03 0.66273379673E+03 0.71668982546E+03 0.66273379673E+03
 0.52261523797E+03 0.34834099659E+03 0.19339367952E+03 0.89290756813E+02 0.38573089884E+02
 0.21644151799E+02 0.13894089497E+02 0.99014154898E+01 0.83982365718E+01 0.75984839676E+01
 0.72131232910E+01 0.73978287079E+01 0.73486805385E+01 0.72131232910E+01 0.71577536324E+01
 0.75858230760E+01 0.83508536503E+01 0.96953802534E+01 0.13177208080E+02 0.20124352819E+02
 0.32590503981E+02 0.69492208801E+02 0.14913441360E+03 0.27106854447E+03 0.41011945453E+03
 0.52261523797E+03 0.56603508301E+03 0.52261523797E+03 0.41011945453E+03 0.27106854447E+03
 0.14913441360E+03 0.69492208801E+02 0.32590503981E+02 0.20124352819E+02 0.13177208080E+02
 0.96953802534E+01 0.83508536503E+01 0.75858230760E+01 0.71577536324E+01 0.72131232910E+01
 0.76768045137E+01 0.75984839676E+01 0.75858230760E+01 0.78924566150E+01 0.84299691245E+01
 0.94192179240E+01 0.12092070210E+02 0.17739611674E+02 0.26275340112E+02 0.47330946713E+02
 0.96760458717E+02 0.17690742341E+03 0.27106854447E+03 0.34834099659E+03 0.37833447320E+03
 0.34834099659E+03 0.27106854447E+03 0.17690742341E+03 0.96760458717E+02 0.47330946713E+02
 0.26275340112E+02 0.17739611674E+02 0.12092070210E+02 0.94192179240E+01 0.84299691245E+01
 0.78924566150E+01 0.75858230760E+01 0.75984839676E+01 0.84488015973E+01 0.83982365718E+01
 0.83508536503E+01 0.84299691245E+01 0.86230112221E+01 0.91487107167E+01 0.10883050740E+02
 0.14914274934E+02 0.21296471862E+02 0.31127366196E+02 0.54670410312E+02 0.96760458717E+02
 0.14913441360E+03 0.19339367952E+03 0.21078387333E+03 0.19339367952E+03 0.14913441360E+03
 0.96760458717E+02 0.54670410312E+02 0.31127366196E+02 0.21296471862E+02 0.14914274934E+02
 0.10883050740E+02 0.91487107167E+01 0.86230112221E+01 0.84299691245E+01 0.83508536503E+01
 0.83982365718E+01 0.99804190282E+01 0.99014154898E+01 0.96953802534E+01 0.94192179240E+01
 0.91487107167E+01 0.91248892243E+01 0.99225935001E+01 0.12310786691E+02 0.16692759814E+02
 0.22533671171E+02 0.31127366196E+02 0.47330946713E+02 0.69492208801E+02 0.89290756813E+02
 0.97262047058E+02 0.89290756813E+02 0.69492208801E+02 0.47330946713E+02 0.31127366196E+02
 0.22533671171E+02 0.16692759814E+02 0.12310786691E+02 0.99225935001E+01 0.91248892243E+01
 0.91487107167E+01 0.94192179240E+01 0.96953802534E+01 0.99014154898E+01 0.14139790447E+02
 0.13894089497E+02 0.13177208080E+02 0.12092070210E+02 0.10883050740E+02 0.99225935001E+01
 0.96526238452E+01 0.10528384110E+02 0.12889636081E+02 0.16692759814E+02 0.21296471862E+02
 0.26275340112E+02 0.32590503981E+02 0.38573089884E+02 0.41074830654E+02 0.38573089884E+02
 0.32590503981E+02 0.26275340112E+02 0.21296471862E+02 0.16692759814E+02 0.12889636081E+02
 0.10528384110E+02 0.96526238452E+01 0.99225935001E+01 0.10883050740E+02 0.12092070210E+02
 0.13177208080E+02 0.13894089497E+02 0.22177942557E+02 0.21644151799E+02 0.20124352819E+02
 0.17739611674E+02 0.14914274934E+02 0.12310786691E+02 0.10528384110E+02 0.99031166593E+01
 0.10528384110E+02 0.12310786691E+02 0.14914274934E+02 0.17739611674E+02 0.20124352819E+02
 0.21644151799E+02 0.22177942557E+02 0.21644151799E+02 0.20124352819E+02 0.17739611674E+02
 0.14914274934E+02 0.12310786691E+02 0.10528384110E+02 0.99031166593E+01 0.10528384110E+02
 0.12310786691E+02 0.14914274934E+02 0.17739611674E+02 0.20124352819E+02 0.21644151799E+02
 0.41074830654E+02 0.38573089884E+02 0.32590503981E+02 0.26275340112E+02 0.21296471862E+02
 0.16692759814E+02 0.12889636081E+02 0.10528384110E+02 0.96526238452E+01 0.99225935001E+01
 0.10883050740E+02 0.12092070210E+02 0.13177208080E+02 0.13894089497E+02 0.14139790447E+02
 0.13894089497E+02 0.13177208080E+02 0.12092070210E+02 0.10883050740E+02 0.99225935001E+01
 0.96526238452E+01 0.10528384110E+02 0.12889636081E+02 0.16692759814E+02 0.21296471862E+02
 0.26275340112E+02 0.32590503981E+02 0.38573089884E+02 0.97262047058E+02 0.89290756813E+02
 0.69492208801E+02 0.47330946713E+02 0.31127366196E+02 0.22533671171E+02 0.16692759814E+02
 0.12310786691E+02 0.99225935001E+01 0.91248892243E+01 0.91487107167E+01 0.94192179240E+01
 0.96953802534E+01 0.99014154898E+01 0.99804190282E+01 0.99014154898E+01 0.96953802534E+01
 0.94192179240E+01 0.91487107167E+01 0.91248892243E+01 0.99225935001E+01 0.12310786691E+02
 0.16692759814E+02 0.22533671171E+02 0.31127366196E+02 0.47330946713E+02 0.69492208801E+02
 0.89290756813E+02 0.21078387333E+03 0.19339367952E+03 0.14913441360E+03 0.96760458717E+02
 0.54670410312E+02 0.31127366196E+02 0.21296471862E+02 0.14914274934E+02 0.10883050740E+02
 0.91487107167E+01 0.86230112221E+01 0.84299691245E+01 0.83508536503E+01 0.83982365718E+01
 0.84488015973E+01 0.83982365718E+01 0.83508536503E+01 0.84299691245E+01 0.86230112221E+01
 0.91487107167E+01 0.10883050740E+02 0.14914274934E+02 0.21296471862E+02 0.31127366196E+02
 0.54670410312E+02 0.96760458717E+02 0.14913441360E+03 0.19339367952E+03 0.37833447320E+03
 0.34834099659E+03 0.27106854447E+03 0.17690742341E+03 0.96760458717E+02 0.47330946713E+02
 0.26275340112E+02 0.17739611674E+02 0.12092070210E+02 0.94192179240E+01 0.84299691245E+01
 0.78924566150E+01 0.75858230760E+01 0.75984839676E+01 0.76768045137E+01 0.75984839676E+01
 0.75858230760E+01 0.78924566150E+01 0.84299691245E+01 0.94192179240E+01 0.12092070210E+02
 0.17739611674E+02 0.26275340112E+02 0.47330946713E+02 0.96760458717E+02 0.17690742341E+03
 0.27106854447E+03 0.34834099659E+03 0.56603508301E+03 0.52261523797E+03 0.41011945453E+03
 0.27106854447E+03 0.14913441360E+03 0.69492208801E+02 0.32590503981E+02 0.20124352819E+02
 0.13177208080E+02 0.96953802534E+01 0.83508536503E+01 0.75858230760E+01 0.71577536324E+01
 0.72131232910E+01 0.73486805385E+01 0.72131232910E+01 0.71577536324E+01 0.75858230760E+01
 0.83508536503E+01 0.96953802534E+01 0.13177208080E+02 0.20124352819E+02 0.32590503981E+02
 0.69492208801E+02 0.14913441360E+03 0.27106854447E+03 0.41011945453E+03 0.52261523797E+03
 0.71668982546E+03 0.66273379673E+03 0.52261523797E+03 0.34834099659E+03 0.19339367952E+03
 0.89290756813E+02 0.38573089884E+02 0.21644151799E+02 0.13894089497E+02 0.99014154898E+01
 0.83982365718E+01 0.75984839676E+01 0.72131232910E+01 0.73978287079E+01 0.76120207610E+01
 0.73978287079E+01 0.72131232910E+01 0.75984839676E+01 0.83982365718E+01 0.99014154898E+01
 0.13894089497E+02 0.21644151799E+02 0.38573089884E+02 0.89290756813E+02 0.19339367952E+03
 0.34834099659E+03 0.52261523797E+03 0.66273379673E+03 0.61274147990E+03 0.56603508301E+03
 0.44492394036E+03 0.29489337507E+03 0.16268836317E+03 0.75476993839E+02 0.34362411334E+02
 0.20612862172E+02 0.13387986935E+02 0.97400858355E+01 0.83587628693E+01 0.76090735213E+01
 0.72262677655E+01 0.73486805385E+01 0.75192333934E+01 0.73486805385E+01 0.72262677655E+01
 0.76090735213E+01 0.83587628693E+01 0.97400858355E+01 0.13387986935E+02 0.20612862172E+02
 0.34362411334E+02 0.75476993839E+02 0.16268836317E+03 0.29489337507E+03 0.44492394036E+03
 0.56603508301E+03 0.56603508301E+03 0.52261523797E+03 0.41011945453E+03 0.27106854447E+03
 0.14913441360E+03 0.69492208801E+02 0.32590503981E+02 0.20124352819E+02 0.13177208080E+02
 0.96953802534E+01 0.83508536503E+01 0.75858230760E+01 0.71577536324E+01 0.72131232910E+01
 0.73486805385E+01 0.72131232910E+01 0.71577536324E+01 0.75858230760E+01 0.83508536503E+01
 0.96953802534E+01 0.13177208080E+02 0.20124352819E+02 0.32590503981E+02 0.69492208801E+02
 0.14913441360E+03 0.27106854447E+03 0.41011945453E+03 0.52261523797E+03 0.44492394036E+03