<?xml version="1.0" encoding="ISO-8859-1"?>
<modeling>
 <generator>
  <i name="program" type="string">vasp </i>
  <i name="version" type="string">6.2.0  </i>
  <i name="subversion" type="string">18Jan21 (build Mar 17 2021 09:06:54) complex                          serial </i>
  <i name="platform" type="string">LinuxIFC </i>
  <i name="date" type="string">2021 08 03 </i>
  <i name="time" type="string">10:19:39 </i>
 </generator>
 <incar>
  <i type="string" name="PREC">normal</i>
  <i type="int" name="ICHARG">     1</i>
  <i type="int" name="IBRION">    -1</i>
  <i name="EDIFF">      0.00000100</i>
  <i type="int" name="NSW">     0</i>
  <i name="ENCUT">    200.00000000</i>
  <i type="int" name="NBANDS">    30</i>
  <i type="int" name="ISMEAR">     1</i>
  <i name="SIGMA">      0.20000000</i>
  <i type="logical" name="LCHARG"> T  </i>
  <i type="int" name="KPAR">     1</i>
  <i type="int" name="NCORE">     1</i>
  <i type="string" name="GGA">PE</i>
 </incar>
 <primitive_cell>
  <structure name="primitive_cell" >
   <crystal>
    <varray name="basis" >
     <v>       1.81750000      -1.81750000       0.00000000 </v>
     <v>       1.81750000       0.00000000       1.81750000 </v>
     <v>       0.00000000      -1.81750000       1.81750000 </v>
    </varray>
    <i name="volume">     12.00751822 </i>
    <varray name="rec_basis" >
     <v>       0.27510316      -0.27510316      -0.27510316 </v>
     <v>       0.27510316       0.27510316       0.27510316 </v>
     <v>      -0.27510316      -0.27510316       0.27510316 </v>
    </varray>
   </crystal>
   <varray name="positions" >
    <v>       0.00000000       0.00000000       0.00000000 </v>
   </varray>
  </structure>
  <varray name="primitive_index" >
   <v type="int" >        1 </v>
  </varray>
 </primitive_cell>
 <kpoints>
  <generation param="Monkhorst-Pack">
   <v type="int" name="divisions">       5        5        5 </v>
   <v name="usershift">      0.00000000       0.00000000       0.00000000 </v>
   <v name="genvec1">      0.20000000       0.00000000       0.00000000 </v>
   <v name="genvec2">      0.00000000       0.20000000       0.00000000 </v>
   <v name="genvec3">      0.00000000       0.00000000       0.20000000 </v>
   <v name="shift">      0.00000000       0.00000000       0.00000000 </v>
  </generation>
  <varray name="kpointlist" >
   <v>       0.00000000       0.00000000       0.00000000 </v>
   <v>       0.20000000       0.00000000       0.00000000 </v>
   <v>       0.40000000       0.00000000       0.00000000 </v>
   <v>       0.20000000       0.20000000       0.00000000 </v>
   <v>       0.40000000       0.20000000       0.00000000 </v>
   <v>       0.40000000       0.40000000       0.00000000 </v>
   <v>       0.20000000       0.20000000       0.20000000 </v>
   <v>       0.40000000       0.20000000       0.20000000 </v>
   <v>       0.40000000       0.40000000       0.20000000 </v>
   <v>       0.40000000       0.40000000       0.40000000 </v>
  </varray>
  <varray name="weights" >
   <v>       0.00800000 </v>
   <v>       0.04800000 </v>
   <v>       0.04800000 </v>
   <v>       0.09600000 </v>
   <v>       0.19200000 </v>
   <v>       0.09600000 </v>
   <v>       0.06400000 </v>
   <v>       0.19200000 </v>
   <v>       0.19200000 </v>
   <v>       0.06400000 </v>
  </varray>
 </kpoints>
 <parameters>
  <separator name="general" >
   <i type="string" name="SYSTEM">unknown system</i>
   <i type="logical" name="LCOMPAT"> F  </i>
  </separator>
  <separator name="electronic" >
   <i type="string" name="PREC">normal</i>
   <i name="ENMAX">    200.00000000</i>
   <i name="ENAUG">    586.98000000</i>
   <i name="EDIFF">      0.00000100</i>
   <i type="int" name="IALGO">    38</i>
   <i type="int" name="IWAVPR">     0</i>
   <i type="int" name="NBANDS">    30</i>
   <i type="int" name="NBANDSLOW">    -1</i>
   <i type="int" name="NBANDSHIGH">    -1</i>
   <i name="NELECT">     44.00000000</i>
   <i type="int" name="TURBO">     0</i>
   <i type="int" name="IRESTART">     0</i>
   <i type="int" name="NREBOOT">     0</i>
   <i type="int" name="NMIN">     0</i>
   <i name="EREF">      0.00000000</i>
   <separator name="electronic smearing" >
    <i type="int" name="ISMEAR">     1</i>
    <i name="SIGMA">      0.20000000</i>
    <i name="KSPACING">      0.50000000</i>
    <i type="logical" name="KGAMMA"> T  </i>
    <i type="logical" name="KBLOWUP"> T  </i>
   </separator>
   <separator name="electronic projectors" >
    <i type="logical" name="LREAL"> F  </i>
    <v name="ROPT">      0.00000000</v>
    <i type="int" name="LMAXPAW">  -100</i>
    <i type="int" name="LMAXMIX">     2</i>
    <i type="logical" name="NLSPLINE"> F  </i>
   </separator>
   <separator name="electronic startup" >
    <i type="int" name="ISTART">     0</i>
    <i type="int" name="ICHARG">     1</i>
    <i type="int" name="INIWAV">     1</i>
   </separator>
   <separator name="electronic spin" >
    <i type="int" name="ISPIN">     1</i>
    <i type="logical" name="LNONCOLLINEAR"> F  </i>
    <v name="MAGMOM">      1.00000000      1.00000000      1.00000000      1.00000000</v>
    <i name="NUPDOWN">     -1.00000000</i>
    <i type="logical" name="LSORBIT"> F  </i>
    <v name="SAXIS">      0.00000000      0.00000000      1.00000000</v>
    <i type="logical" name="LSPIRAL"> F  </i>
    <v name="QSPIRAL">      0.00000000      0.00000000      0.00000000</v>
    <i type="logical" name="LZEROZ"> F  </i>
   </separator>
   <separator name="electronic exchange-correlation" >
    <i type="logical" name="LASPH"> F  </i>
    <i type="logical" name="LMETAGGA"> F  </i>
   </separator>
   <separator name="electronic convergence" >
    <i type="int" name="NELM">    60</i>
    <i type="int" name="NELMDL">    -5</i>
    <i type="int" name="NELMIN">     2</i>
    <i name="ENINI">    200.00000000</i>
    <separator name="electronic convergence detail" >
     <i type="logical" name="LDIAG"> T  </i>
     <i type="logical" name="LSUBROT"> F  </i>
     <i name="WEIMIN">      0.00000000</i>
     <i name="EBREAK">      0.00000001</i>
     <i name="DEPER">      0.30000000</i>
     <i type="int" name="NRMM">     4</i>
     <i name="TIME">      0.40000000</i>
    </separator>
   </separator>
   <separator name="electronic mixer" >
    <i name="AMIX">      0.40000000</i>
    <i name="BMIX">      1.00000000</i>
    <i name="AMIN">      0.10000000</i>
    <i name="AMIX_MAG">      1.60000000</i>
    <i name="BMIX_MAG">      1.00000000</i>
    <separator name="electronic mixer details" >
     <i type="int" name="IMIX">     4</i>
     <i type="logical" name="MIXFIRST"> F  </i>
     <i type="int" name="MAXMIX">   -45</i>
     <i name="WC">    100.00000000</i>
     <i type="int" name="INIMIX">     1</i>
     <i type="int" name="MIXPRE">     1</i>
     <i type="int" name="MREMOVE">     5</i>
    </separator>
   </separator>
   <separator name="electronic dipolcorrection" >
    <i type="logical" name="LDIPOL"> F  </i>
    <i type="logical" name="LMONO"> F  </i>
    <i type="int" name="IDIPOL">     0</i>
    <i name="EPSILON">      1.00000000</i>
    <v name="DIPOL">   -100.00000000   -100.00000000   -100.00000000</v>
    <i name="EFIELD">      0.00000000</i>
   </separator>
  </separator>
  <separator name="grids" >
   <i type="int" name="NGX">    14</i>
   <i type="int" name="NGY">    14</i>
   <i type="int" name="NGZ">    14</i>
   <i type="int" name="NGXF">    28</i>
   <i type="int" name="NGYF">    28</i>
   <i type="int" name="NGZF">    28</i>
   <i type="logical" name="ADDGRID"> F  </i>
  </separator>
  <separator name="ionic" >
   <i type="int" name="NSW">     0</i>
   <i type="int" name="IBRION">    -1</i>
   <i type="int" name="MDALGO">     0</i>
   <i type="int" name="ISIF">     2</i>
   <i name="PSTRESS">      0.00000000</i>
   <i name="EDIFFG">      0.00001000</i>
   <i type="int" name="NFREE">     0</i>
   <i name="POTIM">      0.50000000</i>
   <i name="SMASS">     -3.00000000</i>
   <i name="SCALEE">      1.00000000</i>
  </separator>
  <separator name="ionic md" >
   <i name="TEBEG">      0.00010000</i>
   <i name="TEEND">      0.00010000</i>
   <i type="int" name="NBLOCK">     1</i>
   <i type="int" name="KBLOCK">     1</i>
   <i type="int" name="NPACO">   256</i>
   <i name="APACO">     16.00000000</i>
  </separator>
  <separator name="symmetry" >
   <i type="int" name="ISYM">     2</i>
   <i name="SYMPREC">      0.00001000</i>
  </separator>
  <separator name="dos" >
   <i type="int" name="LORBIT">     0</i>
   <v name="RWIGS">     -1.00000000</v>
   <i type="int" name="NEDOS">   301</i>
   <i name="EMIN">     10.00000000</i>
   <i name="EMAX">    -10.00000000</i>
   <i name="EFERMI">      0.00000000</i>
  </separator>
  <separator name="writing" >
   <i type="int" name="NWRITE">     2</i>
   <i type="logical" name="LWAVE"> T  </i>
   <i type="logical" name="LDOWNSAMPLE"> F  </i>
   <i type="logical" name="LCHARG"> T  </i>
   <i type="logical" name="LPARD"> F  </i>
   <i type="logical" name="LVTOT"> F  </i>
   <i type="logical" name="LVHAR"> F  </i>
   <i type="logical" name="LELF"> F  </i>
   <i type="logical" name="LOPTICS"> F  </i>
   <v name="STM">      0.00000000      0.00000000      0.00000000      0.00000000      0.00000000      0.00000000      0.00000000</v>
  </separator>
  <separator name="performance" >
   <i type="int" name="NPAR">     1</i>
   <i type="int" name="NSIM">     4</i>
   <i type="int" name="NBLK">    -1</i>
   <i type="logical" name="LPLANE"> T  </i>
   <i type="logical" name="LSCALAPACK"> F  </i>
   <i type="logical" name="LSCAAWARE"> F  </i>
   <i type="logical" name="LSCALU"> F  </i>
   <i type="logical" name="LASYNC"> F  </i>
   <i type="logical" name="LORBITALREAL"> F  </i>
  </separator>
  <separator name="miscellaneous" >
   <i type="int" name="IDIOT">     3</i>
   <i type="int" name="PHON_NSTRUCT">    -1</i>
   <i type="logical" name="LMUSIC"> F  </i>
   <v name="POMASS">     63.54600000</v>
   <v name="DARWINR">      0.00000000</v>
   <v name="DARWINV">      1.00000000</v>
   <i type="logical" name="LCORR"> T  </i>
  </separator>
  <i type="logical" name="GGA_COMPAT"> T  </i>
  <i type="logical" name="LBERRY"> F  </i>
  <i type="int" name="ICORELEVEL">     0</i>
  <i type="logical" name="LDAU"> F  </i>
  <i type="int" name="I_CONSTRAINED_M">     0</i>
  <separator name="electronic exchange-correlation" >
   <i type="string" name="GGA">PE</i>
   <i type="int" name="VOSKOWN">     0</i>
   <i type="logical" name="LHFCALC"> F  </i>
   <i type="string" name="PRECFOCK"></i>
   <i type="logical" name="LSYMGRAD"> F  </i>
   <i type="logical" name="LHFONE"> F  </i>
   <i type="logical" name="LRHFCALC"> F  </i>
   <i type="logical" name="LTHOMAS"> F  </i>
   <i type="logical" name="LMODELHF"> F  </i>
   <i type="logical" name="LFOCKACE"> F  </i>
   <i name="ENCUT4O">     -1.00000000</i>
   <i type="int" name="EXXOEP">     0</i>
   <i type="int" name="FOURORBIT">     0</i>
   <i name="AEXX">      0.00000000</i>
   <i name="HFALPHA">      0.00000000</i>
   <i name="MCALPHA">      0.00000000</i>
   <i name="ALDAX">      1.00000000</i>
   <i name="AGGAX">      1.00000000</i>
   <i name="ALDAC">      1.00000000</i>
   <i name="AGGAC">      1.00000000</i>
   <i type="int" name="NKREDX">     1</i>
   <i type="int" name="NKREDY">     1</i>
   <i type="int" name="NKREDZ">     1</i>
   <i type="logical" name="SHIFTRED"> F  </i>
   <i type="logical" name="ODDONLY"> F  </i>
   <i type="logical" name="EVENONLY"> F  </i>
   <i type="int" name="LMAXFOCK">     0</i>
   <i type="int" name="NMAXFOCKAE">     0</i>
   <i type="logical" name="LFOCKAEDFT"> F  </i>
   <i name="HFSCREEN">      0.00000000</i>
   <i name="HFSCREENC">      0.00000000</i>
   <i type="int" name="NBANDSGWLOW">     0</i>
  </separator>
  <separator name="vdW DFT" >
   <i type="logical" name="LUSE_VDW"> F  </i>
   <i name="Zab_VDW">     -0.84910000</i>
   <i name="PARAM1">      0.12340000</i>
   <i name="PARAM2">      1.00000000</i>
   <i name="PARAM3">      0.00000000</i>
  </separator>
  <separator name="model GW" >
   <i type="int" name="MODEL_GW">     0</i>
   <i name="MODEL_EPS0">      7.20451093</i>
   <i name="MODEL_ALPHA">      1.00000000</i>
  </separator>
  <separator name="linear response parameters" >
   <i type="logical" name="LEPSILON"> F  </i>
   <i type="logical" name="LRPA"> F  </i>
   <i type="logical" name="LNABLA"> F  </i>
   <i type="logical" name="LVEL"> F  </i>
   <i type="int" name="KINTER">     0</i>
   <i name="CSHIFT">      0.10000000</i>
   <i name="OMEGAMAX">     -1.00000000</i>
   <i name="DEG_THRESHOLD">      0.00200000</i>
   <i name="RTIME">     -0.10000000</i>
   <i name="WPLASMAI">      0.00000000</i>
   <v name="DFIELD">      0.00000000      0.00000000      0.00000000</v>
   <v name="WPLASMA">      0.00000000      0.00000000      0.00000000      0.00000000      0.00000000      0.00000000      0.00000000      0.00000000      0.00000000</v>
  </separator>
  <separator name="orbital magnetization" >
   <i type="logical" name="NUCIND"> F  </i>
   <v name="MAGPOS">      0.00000000      0.00000000      0.00000000</v>
   <i type="logical" name="LNICSALL"> T  </i>
   <i type="logical" name="ORBITALMAG"> F  </i>
   <i type="logical" name="LMAGBLOCH"> F  </i>
   <i type="logical" name="LCHIMAG"> F  </i>
   <i type="logical" name="LGAUGE"> T  </i>
   <i type="int" name="MAGATOM">     0</i>
   <v name="MAGDIPOL">      0.00000000      0.00000000      0.00000000</v>
   <v name="AVECCONST">      0.00000000      0.00000000      0.00000000</v>
  </separator>
  <separator name="response functions" >
   <i type="logical" name="LFINITE_TEMPERATURE"> F  </i>
   <i type="logical" name="LADDER"> F  </i>
   <i type="logical" name="LRPAFORCE"> F  </i>
   <i type="logical" name="LFXC"> F  </i>
   <i type="logical" name="LHARTREE"> T  </i>
   <i type="int" name="IBSE">     0</i>
   <v type="int" name="KPOINT">    -1     0     0     0</v>
   <i type="logical" name="LTCTC"> F  </i>
   <i type="logical" name="LTCTE"> F  </i>
   <i type="logical" name="LTETE"> F  </i>
   <i type="logical" name="LTRIPLET"> F  </i>
   <i type="logical" name="LFXCEPS"> F  </i>
   <i type="logical" name="LFXHEG"> F  </i>
   <i type="int" name="NATURALO">     2</i>
   <i type="logical" name="LHOLEGF"> F  </i>
   <i type="logical" name="L2ORDER"> F  </i>
   <i type="logical" name="LDMP1"> F  </i>
   <i type="logical" name="LMP2LT"> F  </i>
   <i type="logical" name="LSMP2LT"> F  </i>
   <i type="logical" name="LGWLF"> F  </i>
   <i name="ENCUTGW">     -2.00000000</i>
   <i name="ENCUTGWSOFT">     -2.00000000</i>
   <i name="ENCUTLF">     -1.00000000</i>
   <i type="logical" name="LESF_SPLINES"> F  </i>
   <i type="int" name="LMAXMP2">    -1</i>
   <i name="SCISSOR">      0.00000000</i>
   <i type="int" name="NOMEGA">     0</i>
   <i type="int" name="NOMEGAR">     0</i>
   <i type="int" name="NBANDSGW">    -1</i>
   <i type="int" name="NBANDSO">    -1</i>
   <i type="int" name="NBANDSV">    -1</i>
   <i type="int" name="NELM">     1</i>
   <i type="int" name="NELMHF">     1</i>
   <i type="int" name="DIM">     3</i>
   <i type="int" name="IESPILON">     4</i>
   <i type="int" name="ANTIRES">     0</i>
   <i name="OMEGAMAX">    -30.00000000</i>
   <i name="OMEGAMIN">    -30.00000000</i>
   <i name="OMEGATL">   -200.00000000</i>
   <i type="int" name="OMEGAGRID">     0</i>
   <i name="CSHIFT">     -0.10000000</i>
   <i type="logical" name="LSELFENERGY"> F  </i>
   <i type="logical" name="LSPECTRAL"> F  </i>
   <i type="logical" name="LSPECTRALGW"> F  </i>
   <i type="logical" name="LSINGLES"> F  </i>
   <i type="logical" name="LFERMIGW"> F  </i>
   <i type="logical" name="ODDONLYGW"> F  </i>
   <i type="logical" name="EVENONLYGW"> F  </i>
   <i type="int" name="NKREDLFX">     1</i>
   <i type="int" name="NKREDLFY">     1</i>
   <i type="int" name="NKREDLFZ">     1</i>
   <i type="int" name="MAXMEM">  2800</i>
   <i type="int" name="TELESCOPE">     0</i>
   <i type="int" name="NTAUPAR">    -1</i>
   <i type="int" name="NOMEGAPAR">    -1</i>
   <i name="DAMP_NEWTON">      0.80000001</i>
   <i name="LAMBDA">      1.00000000</i>
  </separator>
  <separator name="External order field" >
   <i name="OFIELD_KAPPA">      0.00000000</i>
   <v name="OFIELD_K">      0.00000000      0.00000000      0.00000000</v>
   <i name="OFIELD_Q6_NEAR">      0.00000000</i>
   <i name="OFIELD_Q6_FAR">      0.00000000</i>
   <i name="OFIELD_A">      0.00000000</i>
  </separator>
 </parameters>
 <atominfo>
  <atoms>       4 </atoms>
  <types>       1 </types>
  <array name="atoms" >
   <dimension dim="1">ion</dimension>
   <field type="string">element</field>
   <field type="int">atomtype</field>
   <set>
    <rc><c>Cu</c><c>   1</c></rc>
    <rc><c>Cu</c><c>   1</c></rc>
    <rc><c>Cu</c><c>   1</c></rc>
    <rc><c>Cu</c><c>   1</c></rc>
   </set>
  </array>
  <array name="atomtypes" >
   <dimension dim="1">type</dimension>
   <field type="int">atomspertype</field>
   <field type="string">element</field>
   <field>mass</field>
   <field>valence</field>
   <field type="string">pseudopotential</field>
   <set>
    <rc><c>   4</c><c>Cu</c><c>     63.54600000</c><c>     11.00000000</c><c>  PAW_PBE Cu 22Jun2005                  </c></rc>
   </set>
  </array>
 </atominfo>
 <structure name="initialpos" >
  <crystal>
   <varray name="basis" >
    <v>       3.63500000       0.00000000       0.00000000 </v>
    <v>       0.00000000       3.63500000       0.00000000 </v>
    <v>       0.00000000       0.00000000       3.63500000 </v>
   </varray>
   <i name="volume">     48.03007287 </i>
   <varray name="rec_basis" >
    <v>       0.27510316       0.00000000       0.00000000 </v>
    <v>       0.00000000       0.27510316       0.00000000 </v>
    <v>       0.00000000       0.00000000       0.27510316 </v>
   </varray>
  </crystal>
  <varray name="positions" >
   <v>       0.00000000       0.00000000       0.00000000 </v>
   <v>       0.50000000       0.50000000       0.00000000 </v>
   <v>       0.50000000       0.00000000       0.50000000 </v>
   <v>       0.00000000       0.50000000       0.50000000 </v>
  </varray>
 </structure>
 <calculation>
  <scstep>
   <time name="dav">    0.10    0.12</time>
   <time name="total">    0.11    0.13</time>
   <energy>
    <i name="alphaZ">    243.62337785 </i>
    <i name="ewald">  -4395.34838493 </i>
    <i name="hartreedc">  -1460.68397360 </i>
    <i name="XCdc">    182.95482720 </i>
    <i name="pawpsdc">   4912.82663951 </i>
    <i name="pawaedc">  -5336.19386850 </i>
    <i name="eentropy">     -0.00891730 </i>
    <i name="bandstr">    513.65001418 </i>
    <i name="atom">   5556.07867217 </i>
    <i name="e_fr_energy">    216.89838657 </i>
    <i name="e_wo_entrp">    216.90730387 </i>
    <i name="e_0_energy">    216.90135900 </i>
   </energy>
  </scstep>
  <scstep>
   <time name="dav">    0.08    0.08</time>
   <time name="total">    0.08    0.08</time>
   <energy>
    <i name="e_fr_energy">     -4.11690358 </i>
    <i name="e_wo_entrp">     -4.10592868 </i>
    <i name="e_0_energy">     -4.11324528 </i>
   </energy>
  </scstep>
  <scstep>
   <time name="dav">    0.08    0.08</time>
   <time name="total">    0.08    0.08</time>
   <energy>
    <i name="e_fr_energy">    -12.58436046 </i>
    <i name="e_wo_entrp">    -12.56743861 </i>
    <i name="e_0_energy">    -12.57871984 </i>
   </energy>
  </scstep>
  <scstep>
   <time name="dav">    0.08    0.08</time>
   <time name="total">    0.08    0.08</time>
   <energy>
    <i name="e_fr_energy">    -12.63946017 </i>
    <i name="e_wo_entrp">    -12.62241387 </i>
    <i name="e_0_energy">    -12.63377807 </i>
   </energy>
  </scstep>
  <scstep>
   <time name="dav">    0.08    0.08</time>
   <time name="total">    0.09    0.09</time>
   <energy>
    <i name="e_fr_energy">    -12.63977635 </i>
    <i name="e_wo_entrp">    -12.62272935 </i>
    <i name="e_0_energy">    -12.63409402 </i>
   </energy>
  </scstep>
  <scstep>
   <time name="dav">    0.08    0.08</time>
   <time name="total">    0.09    0.09</time>
   <energy>
    <i name="e_fr_energy">     -8.72134068 </i>
    <i name="e_wo_entrp">     -8.72659206 </i>
    <i name="e_0_energy">     -8.72309114 </i>
   </energy>
  </scstep>
  <scstep>
   <time name="dav">    0.08    0.08</time>
   <time name="total">    0.09    0.09</time>
   <energy>
    <i name="e_fr_energy">     -6.54870511 </i>
    <i name="e_wo_entrp">     -6.54183731 </i>
    <i name="e_0_energy">     -6.54641584 </i>
   </energy>
  </scstep>
  <scstep>
   <time name="dav">    0.08    0.08</time>
   <time name="total">    0.10    0.10</time>
   <energy>
    <i name="e_fr_energy">     -6.54308848 </i>
    <i name="e_wo_entrp">     -6.53132240 </i>
    <i name="e_0_energy">     -6.53916645 </i>
   </energy>
  </scstep>
  <scstep>
   <time name="dav">    0.09    0.09</time>
   <time name="total">    0.10    0.11</time>
   <energy>
    <i name="e_fr_energy">     -6.54657281 </i>
    <i name="e_wo_entrp">     -6.53715956 </i>
    <i name="e_0_energy">     -6.54343506 </i>
   </energy>
  </scstep>
  <scstep>
   <time name="dav">    0.08    0.08</time>
   <time name="total">    0.09    0.09</time>
   <energy>
    <i name="e_fr_energy">     -6.54596051 </i>
    <i name="e_wo_entrp">     -6.53547071 </i>
    <i name="e_0_energy">     -6.54246391 </i>
   </energy>
  </scstep>
  <scstep>
   <time name="dav">    0.08    0.08</time>
   <time name="total">    0.10    0.10</time>
   <energy>
    <i name="e_fr_energy">     -6.54594873 </i>
    <i name="e_wo_entrp">     -6.53538113 </i>
    <i name="e_0_energy">     -6.54242620 </i>
   </energy>
  </scstep>
  <scstep>
   <time name="dav">    0.06    0.06</time>
   <time name="total">    0.08    0.08</time>
   <energy>
    <i name="e_fr_energy">     -6.54594131 </i>
    <i name="e_wo_entrp">     -6.53532278 </i>
    <i name="e_0_energy">     -6.54240180 </i>
   </energy>
  </scstep>
  <scstep>
   <time name="dav">    0.05    0.05</time>
   <time name="total">    0.06    0.06</time>
   <energy>
    <i name="alphaZ">    243.62337785 </i>
    <i name="ewald">  -4395.34838493 </i>
    <i name="hartreedc">  -1369.54953909 </i>
    <i name="XCdc">    178.13915221 </i>
    <i name="pawpsdc">   5456.41181535 </i>
    <i name="pawaedc">  -5864.96941698 </i>
    <i name="eentropy">     -0.01060397 </i>
    <i name="bandstr">    189.07898629 </i>
    <i name="atom">   5556.07867217 </i>
    <i name="e_fr_energy">     -6.54594111 </i>
    <i name="e_wo_entrp">     -6.53533713 </i>
    <i name="e_0_energy">     -6.54240645 </i>
   </energy>
  </scstep>
  <structure>
   <crystal>
    <varray name="basis" >
     <v>       3.63500000       0.00000000       0.00000000 </v>
     <v>       0.00000000       3.63500000       0.00000000 </v>
     <v>       0.00000000       0.00000000       3.63500000 </v>
    </varray>
    <i name="volume">     48.03007287 </i>
    <varray name="rec_basis" >
     <v>       0.27510316       0.00000000       0.00000000 </v>
     <v>       0.00000000       0.27510316       0.00000000 </v>
     <v>       0.00000000       0.00000000       0.27510316 </v>
    </varray>
   </crystal>
   <varray name="positions" >
    <v>       0.00000000       0.00000000       0.00000000 </v>
    <v>       0.50000000       0.50000000       0.00000000 </v>
    <v>       0.50000000       0.00000000       0.50000000 </v>
    <v>       0.00000000       0.50000000       0.50000000 </v>
   </varray>
  </structure>
  <varray name="forces" >
   <v>      -0.00000000      -0.00000000      -0.00000000 </v>
   <v>      -0.00000000       0.00000000       0.00000000 </v>
   <v>       0.00000000       0.00000000       0.00000000 </v>
   <v>       0.00000000       0.00000000      -0.00000000 </v>
  </varray>
  <varray name="stress" >
   <v>   -3109.86614228      -0.00000000      -0.00000000 </v>
   <v>      -0.00000000   -3109.86614228      -0.00000000 </v>
   <v>       0.00000000      -0.00000000   -3109.86614228 </v>
  </varray>
  <energy>
   <i name="e_fr_energy">     -6.54594111 </i>
   <i name="e_wo_entrp">     -6.53533713 </i>
   <i name="e_0_energy">     -6.54240645 </i>
  </energy>
  <time name="totalsc">    1.25    1.27</time>
  <eigenvalues>
   <array>
    <dimension dim="1">band</dimension>
    <dimension dim="2">kpoint</dimension>
    <dimension dim="3">spin</dimension>
    <field>eigene</field>
    <field>occ</field>
    <set>
     <set comment="spin 1">
      <set comment="kpoint 1">
       <r>   -1.7666    1.0000 </r>
       <r>    3.1051    1.0000 </r>
       <r>    3.1051    1.0000 </r>
       <r>    3.1051    1.0000 </r>
       <r>    3.3960    1.0000 </r>
       <r>    3.3960    1.0000 </r>
       <r>    3.3960    1.0000 </r>
       <r>    4.8936    1.0000 </r>
       <r>    4.8936    1.0000 </r>
       <r>    4.8936    1.0000 </r>
       <r>    5.1265    1.0000 </r>
       <r>    5.1265    1.0000 </r>
       <r>    5.2207    1.0000 </r>
       <r>    5.2207    1.0000 </r>
       <r>    5.2207    1.0000 </r>
       <r>    5.4208    1.0000 </r>
       <r>    5.4208    1.0000 </r>
       <r>    5.4208    1.0000 </r>
       <r>    5.4208    1.0000 </r>
       <r>    5.4208    1.0000 </r>
       <r>    5.4208    1.0000 </r>
       <r>    8.9887   -0.0000 </r>
       <r>    8.9887   -0.0000 </r>
       <r>    8.9887   -0.0000 </r>
       <r>   14.2920    0.0000 </r>
       <r>   14.2920    0.0000 </r>
       <r>   14.2920    0.0000 </r>
       <r>   20.4063    0.0000 </r>
       <r>   20.4063    0.0000 </r>
       <r>   20.4063    0.0000 </r>
      </set>
      <set comment="kpoint 2">
       <r>   -1.2898    1.0000 </r>
       <r>    2.5669    1.0000 </r>
       <r>    3.3055    1.0000 </r>
       <r>    3.3055    1.0000 </r>
       <r>    3.3455    1.0000 </r>
       <r>    3.3455    1.0000 </r>
       <r>    3.6345    1.0000 </r>
       <r>    4.7930    1.0000 </r>
       <r>    5.0299    1.0000 </r>
       <r>    5.0299    1.0000 </r>
       <r>    5.0726    1.0000 </r>
       <r>    5.0726    1.0000 </r>
       <r>    5.1763    1.0000 </r>
       <r>    5.2023    1.0000 </r>
       <r>    5.2218    1.0000 </r>
       <r>    5.2218    1.0000 </r>
       <r>    5.2511    1.0000 </r>
       <r>    5.3038    1.0000 </r>
       <r>    5.3038    1.0000 </r>
       <r>    5.5682    1.0000 </r>
       <r>    5.5682    1.0000 </r>
       <r>    6.8409    1.0233 </r>
       <r>    9.9948   -0.0000 </r>
       <r>    9.9948   -0.0000 </r>
       <r>   14.4815    0.0000 </r>
       <r>   14.4815    0.0000 </r>
       <r>   17.3282    0.0000 </r>
       <r>   18.0962    0.0000 </r>
       <r>   18.0962    0.0000 </r>
       <r>   18.7732    0.0000 </r>
      </set>
      <set comment="kpoint 3">
       <r>    0.0641    1.0000 </r>
       <r>    1.8284    1.0000 </r>
       <r>    3.1151    1.0000 </r>
       <r>    3.1151    1.0000 </r>
       <r>    3.7380    1.0000 </r>
       <r>    3.7380    1.0000 </r>
       <r>    3.8996    1.0000 </r>
       <r>    4.1693    1.0000 </r>
       <r>    4.1693    1.0000 </r>
       <r>    4.2684    1.0000 </r>
       <r>    4.5352    1.0000 </r>
       <r>    4.5352    1.0000 </r>
       <r>    4.6575    1.0000 </r>
       <r>    4.8593    1.0000 </r>
       <r>    4.9282    1.0000 </r>
       <r>    4.9282    1.0000 </r>
       <r>    4.9386    1.0000 </r>
       <r>    4.9386    1.0000 </r>
       <r>    5.1373    1.0000 </r>
       <r>    5.3135    1.0000 </r>
       <r>    5.4718    1.0000 </r>
       <r>    5.4718    1.0000 </r>
       <r>   12.1613   -0.0000 </r>
       <r>   12.1613   -0.0000 </r>
       <r>   14.9479    0.0000 </r>
       <r>   14.9479    0.0000 </r>
       <r>   15.0702    0.0000 </r>
       <r>   15.0702    0.0000 </r>
       <r>   16.5903    0.0000 </r>
       <r>   16.5903    0.0000 </r>
      </set>
      <set comment="kpoint 4">
       <r>   -0.8251    1.0000 </r>
       <r>    2.7360    1.0000 </r>
       <r>    2.7360    1.0000 </r>
       <r>    3.2515    1.0000 </r>
       <r>    3.3433    1.0000 </r>
       <r>    3.3433    1.0000 </r>
       <r>    3.5122    1.0000 </r>
       <r>    4.1500    1.0000 </r>
       <r>    4.6184    1.0000 </r>
       <r>    4.6184    1.0000 </r>
       <r>    4.6857    1.0000 </r>
       <r>    4.7167    1.0000 </r>
       <r>    4.9125    1.0000 </r>
       <r>    5.2106    1.0000 </r>
       <r>    5.2169    1.0000 </r>
       <r>    5.2169    1.0000 </r>
       <r>    5.2238    1.0000 </r>
       <r>    5.2495    1.0000 </r>
       <r>    5.2495    1.0000 </r>
       <r>    5.2693    1.0000 </r>
       <r>    5.3348    1.0000 </r>
       <r>    7.7215   -0.0000 </r>
       <r>    7.7215   -0.0000 </r>
       <r>   10.8170   -0.0000 </r>
       <r>   14.4381    0.0000 </r>
       <r>   14.9424    0.0000 </r>
       <r>   17.6624    0.0000 </r>
       <r>   17.6624    0.0000 </r>
       <r>   18.6664    0.0000 </r>
       <r>   18.6664    0.0000 </r>
      </set>
      <set comment="kpoint 5">
       <r>    0.4827    1.0000 </r>
       <r>    2.1363    1.0000 </r>
       <r>    3.2853    1.0000 </r>
       <r>    3.4922    1.0000 </r>
       <r>    3.6192    1.0000 </r>
       <r>    3.6308    1.0000 </r>
       <r>    3.7948    1.0000 </r>
       <r>    3.9143    1.0000 </r>
       <r>    3.9325    1.0000 </r>
       <r>    4.0859    1.0000 </r>
       <r>    4.2288    1.0000 </r>
       <r>    4.5581    1.0000 </r>
       <r>    4.6840    1.0000 </r>
       <r>    4.8988    1.0000 </r>
       <r>    4.9534    1.0000 </r>
       <r>    4.9726    1.0000 </r>
       <r>    5.0418    1.0000 </r>
       <r>    5.1526    1.0000 </r>
       <r>    5.2272    1.0000 </r>
       <r>    5.3741    1.0000 </r>
       <r>    5.4171    1.0000 </r>
       <r>    5.7646    1.0000 </r>
       <r>    9.4429   -0.0000 </r>
       <r>   11.6953   -0.0000 </r>
       <r>   12.8241    0.0000 </r>
       <r>   15.4657    0.0000 </r>
       <r>   15.5353    0.0000 </r>
       <r>   16.9710    0.0000 </r>
       <r>   18.7914    0.0000 </r>
       <r>   20.2578    0.0000 </r>
      </set>
      <set comment="kpoint 6">
       <r>    1.6145    1.0000 </r>
       <r>    2.8601    1.0000 </r>
       <r>    2.8601    1.0000 </r>
       <r>    3.2485    1.0000 </r>
       <r>    3.7088    1.0000 </r>
       <r>    3.7088    1.0000 </r>
       <r>    3.7618    1.0000 </r>
       <r>    3.7649    1.0000 </r>
       <r>    3.9064    1.0000 </r>
       <r>    3.9952    1.0000 </r>
       <r>    3.9952    1.0000 </r>
       <r>    4.4736    1.0000 </r>
       <r>    4.6243    1.0000 </r>
       <r>    4.6418    1.0000 </r>
       <r>    4.8268    1.0000 </r>
       <r>    4.8268    1.0000 </r>
       <r>    5.0181    1.0000 </r>
       <r>    5.0544    1.0000 </r>
       <r>    5.0586    1.0000 </r>
       <r>    5.0586    1.0000 </r>
       <r>    5.7853    1.0000 </r>
       <r>    6.9164    0.9224 </r>
       <r>    6.9164    0.9224 </r>
       <r>    8.7174   -0.0000 </r>
       <r>   14.5750    0.0000 </r>
       <r>   16.4524    0.0000 </r>
       <r>   17.1308    0.0000 </r>
       <r>   17.1308    0.0000 </r>
       <r>   18.2434    0.0000 </r>
       <r>   18.2434    0.0000 </r>
      </set>
      <set comment="kpoint 7">
       <r>   -0.3770    1.0000 </r>
       <r>    3.0019    1.0000 </r>
       <r>    3.0019    1.0000 </r>
       <r>    3.0019    1.0000 </r>
       <r>    3.5557    1.0000 </r>
       <r>    3.5557    1.0000 </r>
       <r>    3.5557    1.0000 </r>
       <r>    4.2613    1.0000 </r>
       <r>    4.4825    1.0000 </r>
       <r>    4.4825    1.0000 </r>
       <r>    4.4825    1.0000 </r>
       <r>    4.7732    1.0000 </r>
       <r>    4.7732    1.0000 </r>
       <r>    5.0222    1.0000 </r>
       <r>    5.0222    1.0000 </r>
       <r>    5.0222    1.0000 </r>
       <r>    5.3463    1.0000 </r>
       <r>    5.3463    1.0000 </r>
       <r>    5.4407    1.0000 </r>
       <r>    5.4407    1.0000 </r>
       <r>    5.4407    1.0000 </r>
       <r>    8.3554   -0.0000 </r>
       <r>    8.3554   -0.0000 </r>
       <r>    8.3554   -0.0000 </r>
       <r>   15.2618    0.0000 </r>
       <r>   15.2618    0.0000 </r>
       <r>   15.2618    0.0000 </r>
       <r>   18.0517    0.0000 </r>
       <r>   18.0517    0.0000 </r>
       <r>   18.0517    0.0000 </r>
      </set>
      <set comment="kpoint 8">
       <r>    0.8642    1.0000 </r>
       <r>    2.3791    1.0000 </r>
       <r>    3.3961    1.0000 </r>
       <r>    3.3961    1.0000 </r>
       <r>    3.6690    1.0000 </r>
       <r>    3.6690    1.0000 </r>
       <r>    3.7748    1.0000 </r>
       <r>    4.1429    1.0000 </r>
       <r>    4.1773    1.0000 </r>
       <r>    4.1773    1.0000 </r>
       <r>    4.3193    1.0000 </r>
       <r>    4.6837    1.0000 </r>
       <r>    4.7463    1.0000 </r>
       <r>    4.8470    1.0000 </r>
       <r>    4.8488    1.0000 </r>
       <r>    4.8488    1.0000 </r>
       <r>    5.2176    1.0000 </r>
       <r>    5.2576    1.0000 </r>
       <r>    5.3510    1.0000 </r>
       <r>    5.3510    1.0000 </r>
       <r>    5.3740    1.0000 </r>
       <r>    6.0307    1.0000 </r>
       <r>    9.7668   -0.0000 </r>
       <r>    9.7668   -0.0000 </r>
       <r>   12.4289   -0.0000 </r>
       <r>   12.4289   -0.0000 </r>
       <r>   16.7804    0.0000 </r>
       <r>   19.1010    0.0000 </r>
       <r>   19.1706    0.0000 </r>
       <r>   19.1706    0.0000 </r>
      </set>
      <set comment="kpoint 9">
       <r>    1.8160    1.0000 </r>
       <r>    2.6979    1.0000 </r>
       <r>    2.6979    1.0000 </r>
       <r>    3.0472    1.0000 </r>
       <r>    3.9207    1.0000 </r>
       <r>    3.9207    1.0000 </r>
       <r>    3.9520    1.0000 </r>
       <r>    4.0837    1.0000 </r>
       <r>    4.1575    1.0000 </r>
       <r>    4.1575    1.0000 </r>
       <r>    4.2715    1.0000 </r>
       <r>    4.4945    1.0000 </r>
       <r>    4.5446    1.0000 </r>
       <r>    4.6479    1.0000 </r>
       <r>    4.6846    1.0000 </r>
       <r>    4.6846    1.0000 </r>
       <r>    4.9651    1.0000 </r>
       <r>    5.2026    1.0000 </r>
       <r>    5.2138    1.0000 </r>
       <r>    5.2138    1.0000 </r>
       <r>    5.6005    1.0000 </r>
       <r>    6.9394    0.8646 </r>
       <r>    6.9394    0.8646 </r>
       <r>    8.7002   -0.0000 </r>
       <r>   11.8263   -0.0000 </r>
       <r>   13.8147    0.0000 </r>
       <r>   13.8147    0.0000 </r>
       <r>   16.0611    0.0000 </r>
       <r>   20.3906    0.0000 </r>
       <r>   22.3916    0.0000 </r>
      </set>
      <set comment="kpoint 10">
       <r>    2.2796    1.0000 </r>
       <r>    2.5977    1.0000 </r>
       <r>    2.5977    1.0000 </r>
       <r>    2.5977    1.0000 </r>
       <r>    4.1961    1.0000 </r>
       <r>    4.1961    1.0000 </r>
       <r>    4.1961    1.0000 </r>
       <r>    4.5448    1.0000 </r>
       <r>    4.5448    1.0000 </r>
       <r>    4.5448    1.0000 </r>
       <r>    4.5855    1.0000 </r>
       <r>    4.5855    1.0000 </r>
       <r>    4.7251    1.0000 </r>
       <r>    4.7251    1.0000 </r>
       <r>    4.7251    1.0000 </r>
       <r>    5.2366    1.0000 </r>
       <r>    5.2494    1.0000 </r>
       <r>    5.2494    1.0000 </r>
       <r>    5.3058    1.0000 </r>
       <r>    5.3058    1.0000 </r>
       <r>    5.3058    1.0000 </r>
       <r>    7.1715    0.0510 </r>
       <r>    7.1715    0.0510 </r>
       <r>    7.1715    0.0510 </r>
       <r>   11.3441   -0.0000 </r>
       <r>   11.3441   -0.0000 </r>
       <r>   11.3441   -0.0000 </r>
       <r>   13.1573    0.0000 </r>
       <r>   25.7004    0.0000 </r>
       <r>   25.7004    0.0000 </r>
      </set>
     </set>
    </set>
   </array>
  </eigenvalues>
  <separator name="orbital magnetization" >
   <v name="MAGDIPOLOUT">      0.00000000      0.00000000      0.00000000</v>
  </separator>
  <dos>
   <i name="efermi">      7.03745133 </i>
   <total>
    <array>
     <dimension dim="1">gridpoints</dimension>
     <dimension dim="2">spin</dimension>
     <field>energy</field>
     <field>total</field>
     <field>integrated</field>
     <set>
      <set comment="spin 1">
       <r>    -3.7666     0.0000     0.0000 </r>
       <r>    -3.6617     0.0000     0.0000 </r>
       <r>    -3.5568     0.0000     0.0000 </r>
       <r>    -3.4520    -0.0000    -0.0000 </r>
       <r>    -3.3471    -0.0000    -0.0000 </r>
       <r>    -3.2422    -0.0000    -0.0000 </r>
       <r>    -3.1373    -0.0000    -0.0000 </r>
       <r>    -3.0324    -0.0000    -0.0000 </r>
       <r>    -2.9275    -0.0000    -0.0000 </r>
       <r>    -2.8226    -0.0000    -0.0000 </r>
       <r>    -2.7177    -0.0000    -0.0000 </r>
       <r>    -2.6128    -0.0000    -0.0000 </r>
       <r>    -2.5079    -0.0000    -0.0000 </r>
       <r>    -2.4031    -0.0000    -0.0000 </r>
       <r>    -2.2982    -0.0001    -0.0000 </r>
       <r>    -2.1933    -0.0007    -0.0001 </r>
       <r>    -2.0884    -0.0027    -0.0004 </r>
       <r>    -1.9835    -0.0014    -0.0005 </r>
       <r>    -1.8786     0.0198     0.0016 </r>
       <r>    -1.7737     0.0552     0.0074 </r>
       <r>    -1.6688     0.0515     0.0128 </r>
       <r>    -1.5639     0.0049     0.0133 </r>
       <r>    -1.4590     0.0290     0.0163 </r>
       <r>    -1.3542     0.2190     0.0393 </r>
       <r>    -1.2493     0.3794     0.0791 </r>
       <r>    -1.1444     0.2428     0.1046 </r>
       <r>    -1.0395     0.0464     0.1094 </r>
       <r>    -0.9346     0.2305     0.1336 </r>
       <r>    -0.8297     0.6726     0.2042 </r>
       <r>    -0.7248     0.6954     0.2771 </r>
       <r>    -0.6199     0.2638     0.3048 </r>
       <r>    -0.5150     0.0921     0.3144 </r>
       <r>    -0.4101     0.3516     0.3513 </r>
       <r>    -0.3053     0.4941     0.4031 </r>
       <r>    -0.2004     0.2542     0.4298 </r>
       <r>    -0.0955     0.0685     0.4370 </r>
       <r>     0.0094     0.2116     0.4592 </r>
       <r>     0.1143     0.3411     0.4950 </r>
       <r>     0.2192     0.1745     0.5133 </r>
       <r>     0.3241     0.2135     0.5357 </r>
       <r>     0.4290     0.9537     0.6357 </r>
       <r>     0.5339     1.4942     0.7924 </r>
       <r>     0.6388     0.9609     0.8932 </r>
       <r>     0.7436     0.5943     0.9555 </r>
       <r>     0.8485     1.2228     1.0838 </r>
       <r>     0.9534     1.4422     1.2351 </r>
       <r>     1.0583     0.6609     1.3044 </r>
       <r>     1.1632     0.0161     1.3061 </r>
       <r>     1.2681    -0.1017     1.2954 </r>
       <r>     1.3730    -0.0722     1.2878 </r>
       <r>     1.4779     0.0781     1.2960 </r>
       <r>     1.5828     0.5110     1.3496 </r>
       <r>     1.6877     1.1808     1.4735 </r>
       <r>     1.7925     1.8792     1.6706 </r>
       <r>     1.8974     1.8590     1.8656 </r>
       <r>     2.0023     1.1650     1.9878 </r>
       <r>     2.1072     1.2014     2.1138 </r>
       <r>     2.2121     1.7905     2.3016 </r>
       <r>     2.3170     1.9973     2.5111 </r>
       <r>     2.4219     1.9068     2.7111 </r>
       <r>     2.5268     2.3328     2.9558 </r>
       <r>     2.6317     4.2840     3.4051 </r>
       <r>     2.7366     6.0110     4.0356 </r>
       <r>     2.8414     5.2335     4.5846 </r>
       <r>     2.9463     3.8441     4.9878 </r>
       <r>     3.0512     3.6972     5.3756 </r>
       <r>     3.1561     4.1182     5.8075 </r>
       <r>     3.2610     5.9001     6.4264 </r>
       <r>     3.3659     8.4894     7.3169 </r>
       <r>     3.4708     9.2182     8.2837 </r>
       <r>     3.5757     9.7072     9.3019 </r>
       <r>     3.6806    11.7253    10.5318 </r>
       <r>     3.7855    12.8775    11.8825 </r>
       <r>     3.8903    12.8584    13.2312 </r>
       <r>     3.9952    13.3025    14.6265 </r>
       <r>     4.1001    15.2050    16.2214 </r>
       <r>     4.2050    16.7848    17.9820 </r>
       <r>     4.3099    12.9766    19.3431 </r>
       <r>     4.4148     7.9946    20.1816 </r>
       <r>     4.5197    10.6678    21.3006 </r>
       <r>     4.6246    18.0704    23.1960 </r>
       <r>     4.7295    21.5779    25.4593 </r>
       <r>     4.8344    20.1770    27.5756 </r>
       <r>     4.9392    18.3544    29.5008 </r>
       <r>     5.0441    17.7985    31.3677 </r>
       <r>     5.1490    20.6322    33.5318 </r>
       <r>     5.2539    26.5999    36.3219 </r>
       <r>     5.3588    26.4077    39.0918 </r>
       <r>     5.4637    17.0779    40.8831 </r>
       <r>     5.5686     7.3613    41.6552 </r>
       <r>     5.6735     3.1157    41.9820 </r>
       <r>     5.7784     2.4436    42.2383 </r>
       <r>     5.8833     2.0645    42.4549 </r>
       <r>     5.9881     1.6494    42.6279 </r>
       <r>     6.0930     1.4680    42.7819 </r>
       <r>     6.1979     0.8073    42.8665 </r>
       <r>     6.3028     0.0992    42.8769 </r>
       <r>     6.4077    -0.0933    42.8672 </r>
       <r>     6.5126    -0.1079    42.8559 </r>
       <r>     6.6175    -0.2212    42.8326 </r>
       <r>     6.7224     0.0501    42.8379 </r>
       <r>     6.8273     1.8993    43.0371 </r>
       <r>     6.9322     4.5030    43.5094 </r>
       <r>     7.0370     4.6623    43.9985 </r>
       <r>     7.1419     2.8021    44.2924 </r>
       <r>     7.2468     1.4564    44.4451 </r>
       <r>     7.3517     0.5455    44.5024 </r>
       <r>     7.4566    -0.0655    44.4955 </r>
       <r>     7.5615     0.0760    44.5035 </r>
       <r>     7.6664     0.9453    44.6026 </r>
       <r>     7.7713     1.5592    44.7662 </r>
       <r>     7.8762     1.0161    44.8727 </r>
       <r>     7.9811     0.1529    44.8888 </r>
       <r>     8.0859    -0.1570    44.8723 </r>
       <r>     8.1908     0.0926    44.8820 </r>
       <r>     8.2957     0.8937    44.9758 </r>
       <r>     8.4006     1.4528    45.1281 </r>
       <r>     8.5055     1.0710    45.2405 </r>
       <r>     8.6104     1.1342    45.3595 </r>
       <r>     8.7153     2.0905    45.5787 </r>
       <r>     8.8202     1.9828    45.7867 </r>
       <r>     8.9251     0.7941    45.8700 </r>
       <r>     9.0300     0.1189    45.8825 </r>
       <r>     9.1348    -0.0287    45.8795 </r>
       <r>     9.2397    -0.0017    45.8793 </r>
       <r>     9.3446     0.5429    45.9362 </r>
       <r>     9.4495     1.2999    46.0726 </r>
       <r>     9.5544     1.3053    46.2095 </r>
       <r>     9.6593     1.4812    46.3648 </r>
       <r>     9.7642     2.7142    46.6495 </r>
       <r>     9.8691     2.9587    46.9599 </r>
       <r>     9.9740     1.7290    47.1412 </r>
       <r>    10.0789     0.7242    47.2172 </r>
       <r>    10.1837     0.2188    47.2402 </r>
       <r>    10.2886    -0.0206    47.2380 </r>
       <r>    10.3935    -0.0517    47.2326 </r>
       <r>    10.4984    -0.0463    47.2277 </r>
       <r>    10.6033    -0.0155    47.2261 </r>
       <r>    10.7082     0.2515    47.2525 </r>
       <r>    10.8131     0.6877    47.3246 </r>
       <r>    10.9180     0.6960    47.3976 </r>
       <r>    11.0229     0.2193    47.4206 </r>
       <r>    11.1278    -0.0383    47.4166 </r>
       <r>    11.2326     0.4382    47.4626 </r>
       <r>    11.3375     1.3022    47.5991 </r>
       <r>    11.4424     1.3317    47.7388 </r>
       <r>    11.5473     0.7387    47.8163 </r>
       <r>    11.6522     1.1715    47.9392 </r>
       <r>    11.7571     2.3245    48.1830 </r>
       <r>    11.8620     2.4030    48.4351 </r>
       <r>    11.9669     1.2631    48.5675 </r>
       <r>    12.0718     0.4356    48.6132 </r>
       <r>    12.1767     0.4869    48.6643 </r>
       <r>    12.2815     1.0580    48.7753 </r>
       <r>    12.3864     2.3567    49.0225 </r>
       <r>    12.4913     3.0335    49.3407 </r>
       <r>    12.5962     1.7364    49.5228 </r>
       <r>    12.7011     0.6342    49.5893 </r>
       <r>    12.8060     1.1067    49.7054 </r>
       <r>    12.9109     1.3992    49.8522 </r>
       <r>    13.0158     0.7676    49.9327 </r>
       <r>    13.1207     0.4074    49.9754 </r>
       <r>    13.2256     0.4401    50.0216 </r>
       <r>    13.3304     0.2497    50.0478 </r>
       <r>    13.4353    -0.0388    50.0437 </r>
       <r>    13.5402    -0.1859    50.0242 </r>
       <r>    13.6451     0.2191    50.0472 </r>
       <r>    13.7500     1.7757    50.2334 </r>
       <r>    13.8549     3.1085    50.5595 </r>
       <r>    13.9598     2.2003    50.7903 </r>
       <r>    14.0647     0.4539    50.8379 </r>
       <r>    14.1696    -0.1821    50.8188 </r>
       <r>    14.2745     0.0958    50.8288 </r>
       <r>    14.3793     0.9266    50.9260 </r>
       <r>    14.4842     1.8931    51.1246 </r>
       <r>    14.5891     1.9134    51.3253 </r>
       <r>    14.6940     0.9156    51.4213 </r>
       <r>    14.7989     0.3481    51.4578 </r>
       <r>    14.9038     1.0364    51.5665 </r>
       <r>    15.0087     1.8855    51.7643 </r>
       <r>    15.1136     1.8306    51.9563 </r>
       <r>    15.2185     1.6003    52.1242 </r>
       <r>    15.3234     1.8313    52.3163 </r>
       <r>    15.4282     2.4918    52.5776 </r>
       <r>    15.5331     3.0398    52.8965 </r>
       <r>    15.6380     2.1778    53.1249 </r>
       <r>    15.7429     0.5542    53.1830 </r>
       <r>    15.8478    -0.1260    53.1698 </r>
       <r>    15.9527     0.4020    53.2120 </r>
       <r>    16.0576     1.3423    53.3528 </r>
       <r>    16.1625     1.3735    53.4968 </r>
       <r>    16.2674     0.5562    53.5552 </r>
       <r>    16.3723     0.3235    53.5891 </r>
       <r>    16.4771     0.8465    53.6779 </r>
       <r>    16.5820     1.2504    53.8091 </r>
       <r>    16.6869     1.4353    53.9596 </r>
       <r>    16.7918     1.7548    54.1437 </r>
       <r>    16.8967     2.0422    54.3579 </r>
       <r>    17.0016     2.2714    54.5961 </r>
       <r>    17.1065     2.3574    54.8434 </r>
       <r>    17.2114     1.8588    55.0384 </r>
       <r>    17.3163     0.9451    55.1375 </r>
       <r>    17.4212     0.2974    55.1687 </r>
       <r>    17.5260     0.3685    55.2073 </r>
       <r>    17.6309     1.1305    55.3259 </r>
       <r>    17.7358     1.4230    55.4752 </r>
       <r>    17.8407     0.7202    55.5507 </r>
       <r>    17.9456     0.6340    55.6172 </r>
       <r>    18.0505     1.8719    55.8136 </r>
       <r>    18.1554     2.8366    56.1111 </r>
       <r>    18.2603     2.4726    56.3705 </r>
       <r>    18.3652     1.2495    56.5015 </r>
       <r>    18.4701     0.2275    56.5254 </r>
       <r>    18.5749     0.5295    56.5809 </r>
       <r>    18.6798     2.0211    56.7929 </r>
       <r>    18.7847     2.9000    57.0971 </r>
       <r>    18.8896     2.0186    57.3088 </r>
       <r>    18.9945     1.3533    57.4508 </r>
       <r>    19.0994     2.9791    57.7632 </r>
       <r>    19.2043     4.3971    58.2245 </r>
       <r>    19.3092     2.8435    58.5227 </r>
       <r>    19.4141     0.5531    58.5807 </r>
       <r>    19.5190    -0.2057    58.5591 </r>
       <r>    19.6238    -0.1194    58.5466 </r>
       <r>    19.7287    -0.0249    58.5440 </r>
       <r>    19.8336    -0.0205    58.5419 </r>
       <r>    19.9385    -0.0772    58.5338 </r>
       <r>    20.0434    -0.0847    58.5249 </r>
       <r>    20.1483     0.4207    58.5690 </r>
       <r>    20.2532     1.6930    58.7466 </r>
       <r>    20.3581     2.7289    59.0328 </r>
       <r>    20.4630     2.3097    59.2751 </r>
       <r>    20.5679     0.9315    59.3728 </r>
       <r>    20.6727     0.0313    59.3761 </r>
       <r>    20.7776    -0.1090    59.3646 </r>
       <r>    20.8825    -0.0381    59.3606 </r>
       <r>    20.9874    -0.0057    59.3600 </r>
       <r>    21.0923    -0.0004    59.3600 </r>
       <r>    21.1972    -0.0000    59.3600 </r>
       <r>    21.3021    -0.0000    59.3600 </r>
       <r>    21.4070    -0.0000    59.3600 </r>
       <r>    21.5119    -0.0000    59.3600 </r>
       <r>    21.6168    -0.0000    59.3600 </r>
       <r>    21.7216    -0.0000    59.3600 </r>
       <r>    21.8265    -0.0008    59.3599 </r>
       <r>    21.9314    -0.0090    59.3590 </r>
       <r>    22.0363    -0.0464    59.3541 </r>
       <r>    22.1412    -0.0732    59.3464 </r>
       <r>    22.2461     0.2426    59.3719 </r>
       <r>    22.3510     1.1026    59.4875 </r>
       <r>    22.4559     1.5559    59.6507 </r>
       <r>    22.5608     0.8924    59.7443 </r>
       <r>    22.6657     0.1168    59.7566 </r>
       <r>    22.7705    -0.0796    59.7482 </r>
       <r>    22.8754    -0.0345    59.7446 </r>
       <r>    22.9803    -0.0056    59.7440 </r>
       <r>    23.0852    -0.0004    59.7440 </r>
       <r>    23.1901    -0.0000    59.7440 </r>
       <r>    23.2950    -0.0000    59.7440 </r>
       <r>    23.3999    -0.0000    59.7440 </r>
       <r>    23.5048    -0.0000    59.7440 </r>
       <r>    23.6097    -0.0000    59.7440 </r>
       <r>    23.7146    -0.0000    59.7440 </r>
       <r>    23.8194     0.0000    59.7440 </r>
       <r>    23.9243     0.0000    59.7440 </r>
       <r>    24.0292    -0.0000    59.7440 </r>
       <r>    24.1341    -0.0000    59.7440 </r>
       <r>    24.2390    -0.0000    59.7440 </r>
       <r>    24.3439    -0.0000    59.7440 </r>
       <r>    24.4488    -0.0000    59.7440 </r>
       <r>    24.5537    -0.0000    59.7440 </r>
       <r>    24.6586    -0.0000    59.7440 </r>
       <r>    24.7635    -0.0000    59.7440 </r>
       <r>    24.8683    -0.0000    59.7440 </r>
       <r>    24.9732    -0.0000    59.7440 </r>
       <r>    25.0781    -0.0001    59.7440 </r>
       <r>    25.1830    -0.0018    59.7438 </r>
       <r>    25.2879    -0.0140    59.7423 </r>
       <r>    25.3928    -0.0474    59.7374 </r>
       <r>    25.4977    -0.0013    59.7372 </r>
       <r>    25.6026     0.3965    59.7788 </r>
       <r>    25.7075     0.9616    59.8797 </r>
       <r>    25.8124     0.9060    59.9747 </r>
       <r>    25.9172     0.3188    60.0081 </r>
       <r>    26.0221    -0.0223    60.0058 </r>
       <r>    26.1270    -0.0429    60.0013 </r>
       <r>    26.2319    -0.0110    60.0001 </r>
       <r>    26.3368    -0.0013    60.0000 </r>
       <r>    26.4417    -0.0001    60.0000 </r>
       <r>    26.5466    -0.0000    60.0000 </r>
       <r>    26.6515    -0.0000    60.0000 </r>
       <r>    26.7564    -0.0000    60.0000 </r>
       <r>    26.8613    -0.0000    60.0000 </r>
       <r>    26.9661    -0.0000    60.0000 </r>
       <r>    27.0710     0.0000    60.0000 </r>
       <r>    27.1759     0.0000    60.0000 </r>
       <r>    27.2808     0.0000    60.0000 </r>
       <r>    27.3857     0.0000    60.0000 </r>
       <r>    27.4906     0.0000    60.0000 </r>
       <r>    27.5955     0.0000    60.0000 </r>
       <r>    27.7004     0.0000    60.0000 </r>
      </set>
     </set>
    </array>
   </total>
  </dos>
 </calculation>
 <structure name="finalpos" >
  <crystal>
   <varray name="basis" >
    <v>       3.63500000       0.00000000       0.00000000 </v>
    <v>       0.00000000       3.63500000       0.00000000 </v>
    <v>       0.00000000       0.00000000       3.63500000 </v>
   </varray>
   <i name="volume">     48.03007287 </i>
   <varray name="rec_basis" >
    <v>       0.27510316       0.00000000       0.00000000 </v>
    <v>       0.00000000       0.27510316       0.00000000 </v>
    <v>       0.00000000       0.00000000       0.27510316 </v>
   </varray>
  </crystal>
  <varray name="positions" >
   <v>       0.00000000       0.00000000       0.00000000 </v>
   <v>       0.50000000       0.50000000       0.00000000 </v>
   <v>       0.50000000       0.00000000       0.50000000 </v>
   <v>       0.00000000       0.50000000       0.50000000 </v>
  </varray>
 </structure>
</modeling>
