 vasp.6.2.0 18Jan21 (build Mar 17 2021 09:06:54) complex                        
  
 POSCAR found type information on POSCAR Cu
 POSCAR found :  1 types and       4 ions
 LDA part: xc-table for Pade appr. of Perdew
 POSCAR, INCAR and KPOINTS ok, starting setup
 FFT: planning ...
 WAVECAR not read
 WARNING: chargedensity file is incomplete
 entering main loop
       N       E                     dE             d eps       ncg     rms          rms(c)
DAV:   1     0.216898386568E+03    0.21690E+03   -0.11622E+04   608   0.977E+02
DAV:   2    -0.411690358217E+01   -0.22102E+03   -0.21021E+03   606   0.251E+02
DAV:   3    -0.125843604581E+02   -0.84675E+01   -0.83354E+01   654   0.650E+01
DAV:   4    -0.126394601735E+02   -0.55100E-01   -0.55082E-01   654   0.586E+00
DAV:   5    -0.126397763534E+02   -0.31618E-03   -0.31618E-03   654   0.396E-01    0.198E+01
DAV:   6    -0.872134068205E+01    0.39184E+01   -0.49113E+01   630   0.931E+01    0.960E+00
DAV:   7    -0.654870510794E+01    0.21726E+01   -0.67970E+00   660   0.333E+01    0.733E-01
DAV:   8    -0.654308847980E+01    0.56166E-02   -0.89506E-02   690   0.299E+00    0.547E-01
DAV:   9    -0.654657281328E+01   -0.34843E-02   -0.47526E-03   762   0.767E-01    0.192E-01
DAV:  10    -0.654596050699E+01    0.61231E-03   -0.18181E-03   638   0.544E-01    0.230E-02
DAV:  11    -0.654594873482E+01    0.11772E-04   -0.31918E-05   686   0.423E-02    0.765E-03
DAV:  12    -0.654594130868E+01    0.74261E-05   -0.13158E-06   452   0.144E-02    0.298E-03
DAV:  13    -0.654594110530E+01    0.20338E-06   -0.85887E-07   340   0.108E-02
   1 F= -.65459411E+01 E0= -.65424064E+01  d E =-.106040E-01
 writing wavefunctions
