unknown system                          
   1.00000000000000     
     2.283400    0.000000    0.000000
    -1.141700    1.977482    0.000000
     0.000000    0.000000    4.098360
   Fe
     2
Direct
  0.000000  0.000000  0.000000
  0.333333  0.666667  0.500000
 
   20   20   36
  155.33      147.49      126.35      97.738      68.295      43.167      25.141      14.695      10.318      9.1440    
  8.8254      9.1441      10.318      14.695      25.141      43.167      68.295      97.738      126.35      147.49    
  147.50      147.49      133.03      108.32      79.657      52.912      31.975      18.413      11.659      9.4343    
  8.8209      8.8207      9.4341      11.659      18.413      31.974      52.911      79.660      108.33      133.04    
  126.35      133.01      126.35      108.32      83.846      58.594      37.087      21.839      13.240      9.8056    
  8.8391      8.5356      8.8386      9.8056      13.240      21.838      37.085      58.592      83.849      108.33    
  97.736      108.26      108.26      97.738      79.657      58.594      38.983      23.893      14.529      10.226    
  8.8690      8.3254      8.3252      8.8688      10.226      14.530      23.893      38.981      58.590      79.653    
  68.286      79.569      83.727      79.576      68.295      52.912      37.087      23.893      15.026      10.513    
  8.8972      8.1986      7.9502      8.1985      8.8973      10.514      15.028      23.896      37.087      52.907    
  43.166      52.839      58.465      58.467      52.843      43.167      31.975      21.839      14.529      10.513    
  8.9106      8.1424      7.7336      7.7338      8.1422      8.9096      10.513      14.532      21.844      31.979    
  25.147      31.948      37.012      38.885      37.010      31.943      25.141      18.413      13.240      10.226    
  8.8973      8.1424      7.6643      7.5052      7.6647      8.1416      8.8947      10.223      13.240      18.417    
  14.695      18.424      21.837      23.873      23.870      21.831      18.420      14.695      11.659      9.8055    
  8.8690      8.1986      7.7336      7.5052      7.5058      7.7346      8.1984      8.8662      9.8007      11.655    
  10.312      11.683      13.284      14.579      15.076      14.578      13.284      11.687      10.318      9.4343    
  8.8391      8.3254      7.9502      7.7337      7.6647      7.7346      7.9524      8.3279      8.8390      9.4300    
  9.1438      9.4641      9.8654      10.310      10.611      10.612      10.313      9.8702      9.4682      9.1440    
  8.8209      8.5356      8.3252      8.1985      8.1422      8.1416      8.1983      8.3279      8.5408      8.8250    
  8.8314      8.8604      8.9093      8.9676      9.0182      9.0412      9.0208      8.9702      8.9089      8.8562    
  8.8254      8.8207      8.8386      8.8688      8.8973      8.9096      8.8946      8.8662      8.8391      8.8250    
  9.1438      8.8604      8.6129      8.4361      8.3368      8.2976      8.2981      8.3369      8.4334      8.6077    
  8.8564      9.1440      9.4341      9.8056      10.226      10.514      10.513      10.223      9.8008      9.4300    
  10.311      9.4641      8.9093      8.4361      8.0966      7.9055      7.8457      7.9047      8.0944      8.4336    
  8.9093      9.4684      10.318      11.659      13.240      14.530      15.028      14.532      13.240      11.655    
  14.695      11.683      9.8654      8.9676      8.3368      7.9055      7.6961      7.6956      7.9046      8.3370    
  8.9703      9.8702      11.687      14.695      18.413      21.838      23.893      23.896      21.844      18.417    
  25.147      18.424      13.284      10.310      9.0182      8.2976      7.8457      7.6956      7.8453      8.2983    
  9.0208      10.313      13.283      18.420      25.141      31.974      37.085      38.981      37.087      31.979    
  43.166      31.948      21.837      14.579      10.611      9.0413      8.2981      7.9047      7.9046      8.2983    
  9.0422      10.611      14.577      21.832      31.944      43.167      52.911      58.592      58.590      52.907    
  68.286      52.839      37.012      23.873      15.076      10.612      9.0208      8.3369      8.0944      8.3370    
  9.0208      10.611      15.074      23.870      37.012      52.844      68.295      79.660      83.849      79.653    
  97.736      79.569      58.465      38.885      23.870      14.578      10.313      8.9702      8.4334      8.4336    
  8.9703      10.313      14.577      23.870      38.887      58.469      79.573      97.738      108.33      108.33    
  126.35      108.26      83.727      58.468      37.010      21.831      13.284      9.8703      8.9089      8.6077    
  8.9093      9.8701      13.283      21.832      37.012      58.469      83.724      108.25      126.35      133.04    
  147.50      133.01      108.26      79.576      52.843      31.943      18.420      11.687      9.4682      8.8562    
  8.8564      9.4684      11.687      18.420      31.944      52.844      79.573      108.25      133.00      147.49    
  147.50      140.06      119.99      92.802      64.811      40.951      23.909      14.124      10.090      8.9992    
  8.6870      8.9993      10.090      14.124      23.909      40.951      64.811      92.802      119.99      140.06    
  140.07      140.06      126.34      102.86      75.604      50.186      30.344      17.580      11.306      9.2710    
  8.6761      8.6759      9.2708      11.306      17.580      30.343      50.185      75.606      102.86      126.35    
  119.99      126.32      119.99      102.86      79.583      55.575      35.171      20.781      12.752      9.6000    
  8.6899      8.3939      8.6894      9.6000      12.753      20.780      35.168      55.574      79.586      102.86    
  92.799      102.81      102.81      92.802      75.604      55.575      36.962      22.706      13.939      9.9723    
  8.7172      8.1880      8.1878      8.7170      9.9728      13.940      22.706      36.960      55.572      75.600    
  64.803      75.536      79.493      75.543      64.811      50.186      35.171      22.706      14.398      10.228    
  8.7431      8.0646      7.8246      8.0646      8.7432      10.229      14.400      22.708      35.171      50.181    
  40.950      50.138      55.487      55.489      50.141      40.951      30.344      20.781      13.939      10.228    
  8.7546      8.0102      7.6159      7.6160      8.0101      8.7537      10.228      13.942      20.786      30.348    
  23.914      30.341      35.140      36.916      35.137      30.337      23.909      17.580      12.752      9.9722    
  8.7432      8.0102      7.5493      7.3965      7.5497      8.0095      8.7407      9.9699      12.753      17.584    
  14.123      17.612      20.820      22.739      22.736      20.814      17.608      14.124      11.306      9.6000    
  8.7172      8.0647      7.6159      7.3965      7.3970      7.6168      8.0644      8.7146      9.5955      11.302    
  10.084      11.348      12.832      14.038      14.501      14.036      12.832      11.352      10.090      9.2710    
  8.6898      8.1880      7.8246      7.6160      7.5497      7.6168      7.8266      8.1904      8.6898      9.2669    
  8.9990      9.3167      9.6906      10.099      10.376      10.377      10.102      9.6951      9.3205      8.9992    
  8.6761      8.3939      8.1878      8.0646      8.0101      8.0095      8.0644      8.1904      8.3988      8.6799    
  8.6926      8.7299      8.7877      8.8540      8.9088      8.9321      8.9112      8.8564      8.7873      8.7259    
  8.6869      8.6759      8.6894      8.7170      8.7432      8.7537      8.7407      8.7146      8.6899      8.6799    
  8.9990      8.7299      8.4976      8.3341      8.2441      8.2095      8.2100      8.2442      8.3316      8.4927    
  8.7261      8.9993      9.2708      9.6000      9.9728      10.229      10.228      9.9699      9.5955      9.2669    
  10.084      9.3167      8.7877      8.3341      8.0107      7.8296      7.7730      7.8289      8.0087      8.3317    
  8.7877      9.3207      10.090      11.306      12.753      13.940      14.400      13.942      12.753      11.302    
  14.123      11.348      9.6906      8.8540      8.2441      7.8296      7.6290      7.6285      7.8287      8.2443    
  8.8565      9.6951      11.352      14.124      17.580      20.780      22.706      22.708      20.785      17.584    
  23.914      17.612      12.832      10.099      8.9088      8.2095      7.7731      7.6285      7.7726      8.2102    
  8.9112      10.102      12.831      17.608      23.909      30.343      35.168      36.960      35.171      30.348    
  40.950      30.341      20.820      14.038      10.376      8.9322      8.2100      7.8289      7.8287      8.2102    
  8.9331      10.376      14.035      20.815      30.338      40.951      50.185      55.574      55.572      50.181    
  64.803      50.138      35.140      22.739      14.501      10.377      8.9112      8.2442      8.0087      8.2443    
  8.9112      10.376      14.499      22.736      35.140      50.142      64.811      75.606      79.586      75.600    
  92.799      75.536      55.487      36.916      22.736      14.036      10.102      8.8564      8.3316      8.3318    
  8.8565      10.102      14.035      22.736      36.918      55.491      75.540      92.802      102.86      102.86    
  119.99      102.81      79.493      55.489      35.137      20.814      12.832      9.6952      8.7873      8.4927    
  8.7877      9.6951      12.831      20.815      35.140      55.491      79.490      102.80      119.99      126.35    
  140.07      126.32      102.81      75.543      50.141      30.337      17.608      11.352      9.3205      8.7259    
  8.7261      9.3207      11.352      17.608      30.338      50.142      75.540      102.80      126.31      140.06    
  126.36      120.00      102.79      79.433      55.384      34.989      20.635      12.640      9.5042      8.6024    
  8.3102      8.6025      9.5042      12.640      20.635      34.989      55.384      79.433      102.79      120.00    
  120.00      120.00      108.23      88.058      64.627      42.829      25.984      15.391      10.398      8.8316    
  8.2799      8.2797      8.8314      10.398      15.391      25.983      42.828      64.629      88.064      108.24    
  102.79      108.23      102.79      88.058      68.037      47.419      30.028      17.982      11.489      9.0627    
  8.2792      8.0062      8.2787      9.0627      11.490      17.981      30.026      47.417      68.039      88.063    
  79.431      88.047      88.048      79.433      64.627      47.419      31.534      19.554      12.403      9.3160    
  8.2968      7.8105      7.8103      8.2966      9.3164      12.404      19.554      31.532      47.415      64.624    
  55.378      64.618      68.027      64.623      55.384      42.829      30.028      19.554      12.760      9.4932    
  8.3169      7.6948      7.4785      7.6948      8.3169      9.4937      12.761      19.556      30.028      42.825    
  34.988      42.849      47.443      47.444      42.852      34.989      25.984      17.982      12.403      9.4932    
  8.3254      7.6442      7.2905      7.2907      7.6442      8.3248      9.4930      12.405      17.986      25.986    
  20.640      26.047      30.118      31.630      30.116      26.044      20.635      15.391      11.489      9.3160    
  8.3169      7.6442      7.2310      7.0954      7.2313      7.6437      8.3149      9.3141      11.490      15.394    
  12.640      15.481      18.134      19.734      19.732      18.130      15.478      12.640      10.398      9.0627    
  8.2968      7.6949      7.2905      7.0954      7.0958      7.2912      7.6947      8.2947      9.0590      10.395    
  9.4992      10.491      11.669      12.638      13.013      12.637      11.669      10.495      9.5042      8.8316    
  8.2792      7.8105      7.4785      7.2907      7.2314      7.2912      7.4800      7.8124      8.2791      8.8283    
  8.6023      8.9233      9.2422      9.5659      9.7822      9.7829      9.5681      9.2458      8.9264      8.6025    
  8.2799      8.0062      7.8103      7.6948      7.6442      7.6437      7.6946      7.8123      8.0102      8.2830    
  8.3149      8.3757      8.4584      8.5463      8.6153      8.6424      8.6172      8.5482      8.4580      8.3724    
  8.3102      8.2797      8.2788      8.2966      8.3169      8.3248      8.3149      8.2947      8.2792      8.2830    
  8.6023      8.3757      8.1879      8.0629      7.9997      7.9784      7.9788      7.9999      8.0608      8.1839    
  8.3726      8.6025      8.8315      9.0627      9.3163      9.4937      9.4930      9.3141      9.0590      8.8283    
  9.4992      8.9233      8.4584      8.0629      7.7867      7.6348      7.5880      7.6343      7.7852      8.0610    
  8.4584      8.9266      9.5042      10.398      11.490      12.404      12.761      12.405      11.490      10.395    
  12.640      10.491      9.2422      8.5463      7.9997      7.6348      7.4602      7.4598      7.6342      7.9999    
  8.5483      9.2458      10.494      12.640      15.391      17.981      19.554      19.556      17.986      15.394    
  20.640      15.481      11.669      9.5659      8.6153      7.9784      7.5880      7.4598      7.5876      7.9789    
  8.6172      9.5677      11.668      15.478      20.635      25.983      30.026      31.532      30.028      25.986    
  34.988      26.047      18.134      12.638      9.7822      8.6424      7.9788      7.6343      7.6341      7.9789    
  8.6431      9.7825      12.636      18.130      26.044      34.989      42.828      47.417      47.415      42.825    
  55.378      42.849      30.118      19.734      13.013      9.7829      8.6172      7.9999      7.7852      7.9999    
  8.6172      9.7824      13.011      19.733      30.118      42.853      55.384      64.629      68.039      64.624    
  79.431      64.618      47.443      31.630      19.732      12.637      9.5681      8.5482      8.0609      8.0610    
  8.5483      9.5677      12.636      19.733      31.632      47.446      64.621      79.433      88.064      88.063    
  102.79      88.047      68.027      47.444      30.116      18.130      11.669      9.2458      8.4580      8.1839    
  8.4584      9.2458      11.668      18.130      30.118      47.446      68.025      88.042      102.79      108.24    
  120.00      108.23      88.048      64.623      42.852      26.044      15.478      10.495      8.9264      8.3724    
  8.3726      8.9266      10.494      15.478      26.044      42.853      64.621      88.042      108.22      120.00    
  97.733      92.795      79.423      61.265      42.632      27.039      16.398      10.806      8.7738      8.0480    
  7.7905      8.0481      8.7738      10.806      16.398      27.039      42.632      61.265      79.423      92.795    
  92.797      92.795      83.644      67.946      49.736      32.942      20.251      12.622      9.2880      8.2189    
  7.7296      7.7294      8.2188      9.2883      12.622      20.251      32.942      49.738      67.950      83.649    
  79.426      83.660      79.423      67.946      52.364      36.423      23.213      14.390      9.9333      8.3659    
  7.7026      7.4668      7.7022      8.3658      9.9337      14.390      23.212      36.422      52.365      67.949    
  61.263      67.986      67.986      61.265      49.736      36.423      24.325      15.482      10.493      8.4924    
  7.6998      7.2817      7.2815      7.6996      8.4926      10.494      15.482      24.323      36.421      49.734    
  42.627      49.809      52.465      49.813      42.632      32.942      23.213      15.482      10.716      8.5791    
  7.7066      7.1726      6.9915      7.1727      7.7066      8.5793      10.717      15.483      23.213      32.940    
  27.039      33.058      36.602      36.604      33.060      27.039      20.252      14.390      10.493      8.5791    
  7.7106      7.1246      6.8299      6.8301      7.1247      7.7102      8.5789      10.495      14.393      20.254    
  16.402      20.407      23.471      24.618      23.470      20.405      16.398      12.622      9.9333      8.4924    
  7.7066      7.1246      6.7790      6.6674      6.7794      7.1244      7.7053      8.4911      9.9337      12.624    
  10.806      12.794      14.700      15.866      15.865      14.697      12.792      10.806      9.2881      8.3659    
  7.6998      7.1726      6.8298      6.6674      6.6677      6.8303      7.1725      7.6983      8.3634      9.2858    
  8.7701      9.4552      10.255      10.921      11.181      10.920      10.255      9.4576      8.7738      8.2189    
  7.7026      7.2817      6.9915      6.8301      6.7794      6.8303      6.9924      7.2830      7.7026      8.2165    
  8.0479      8.3779      8.6752      8.9213      9.0745      9.0749      8.9227      8.6777      8.3801      8.0480    
  7.7296      7.4668      7.2815      7.1727      7.1248      7.1244      7.1724      7.2830      7.4696      7.7318    
  7.7938      7.8880      8.0036      8.1189      8.2057      8.2387      8.2070      8.1201      8.0032      7.8857    
  7.7905      7.7294      7.7023      7.6996      7.7066      7.7102      7.7053      7.6983      7.7026      7.7318    
  8.0479      7.8880      7.7665      7.6970      7.6719      7.6693      7.6696      7.6721      7.6956      7.7637    
  7.8859      8.0481      8.2188      8.3659      8.4926      8.5793      8.5789      8.4911      8.3634      8.2165    
  8.7701      8.3779      8.0036      7.6970      7.4912      7.3822      7.3496      7.3820      7.4902      7.6958    
  8.0036      8.3803      8.7738      9.2883      9.9337      10.494      10.717      10.495      9.9337      9.2858    
  10.806      9.4552      8.6752      8.1189      7.6719      7.3822      7.2464      7.2462      7.3818      7.6721    
  8.1203      8.6777      9.4574      10.806      12.622      14.390      15.482      15.483      14.393      12.624    
  16.402      12.794      10.255      8.9213      8.2057      7.6693      7.3497      7.2462      7.3493      7.6695    
  8.2070      8.9225      10.254      12.792      16.398      20.251      23.212      24.323      23.213      20.254    
  27.039      20.407      14.700      10.921      9.0745      8.2387      7.6696      7.3820      7.3818      7.6695    
  8.2391      9.0747      10.920      14.697      20.405      27.039      32.942      36.422      36.421      32.940    
  42.627      33.058      23.471      15.866      11.181      9.0749      8.2070      7.6721      7.4902      7.6721    
  8.2070      9.0746      11.180      15.865      23.471      33.061      42.632      49.738      52.365      49.734    
  61.263      49.809      36.602      24.618      15.865      10.920      8.9227      8.1201      7.6956      7.6958    
  8.1203      8.9225      10.920      15.865      24.619      36.605      49.811      61.265      67.950      67.949    
  79.426      67.986      52.465      36.604      23.470      14.697      10.255      8.6777      8.0032      7.7637    
  8.0036      8.6777      10.254      14.697      23.471      36.605      52.464      67.982      79.423      83.649    
  92.797      83.660      67.986      49.813      33.060      20.405      12.792      9.4576      8.3801      7.8857    
  7.8858      8.3803      9.4574      12.792      20.405      33.061      49.811      67.982      83.655      92.795    
  68.176      64.700      55.295      42.575      29.685      19.203      12.441      9.2063      8.0527      7.4473    
  7.2367      7.4474      8.0527      9.2063      12.441      19.203      29.685      42.575      55.295      64.700    
  64.702      64.700      58.250      47.213      34.518      23.052      14.752      10.133      8.3034      7.5431    
  7.1400      7.1399      7.5430      8.3036      10.133      14.752      23.052      34.518      47.215      58.253    
  55.297      58.286      55.295      47.213      36.315      25.354      16.582      11.086      8.5732      7.6284    
  7.0775      6.8887      7.0772      7.6283      8.5736      11.086      16.581      25.354      36.316      47.215    
  42.575      47.305      47.305      42.575      34.518      25.354      17.277      11.694      8.8146      7.6876    
  7.0435      6.7101      6.7100      7.0433      7.6876      8.8147      11.694      17.277      25.353      34.516    
  29.682      34.672      36.528      34.674      29.685      23.052      16.582      11.694      8.9134      7.7168    
  7.0287      6.6020      6.4614      6.6021      7.0287      7.7168      8.9137      11.695      16.582      23.051    
  19.203      23.262      25.687      25.687      23.264      19.203      14.752      11.086      8.8146      7.7168    
  7.0248      6.5527      6.3237      6.3240      6.5530      7.0247      7.7167      8.8154      11.088      14.753    
  12.443      14.998      17.005      17.765      17.005      14.997      12.441      10.133      8.5732      7.6876    
  7.0287      6.5527      6.2804      6.1941      6.2807      6.5527      7.0280      7.6869      8.5736      10.135    
  9.2061      10.388      11.554      12.282      12.281      11.552      10.387      9.2063      8.3034      7.6284    
  7.0435      6.6020      6.3237      6.1941      6.1942      6.3239      6.6019      7.0427      7.6270      8.3021    
  8.0504      8.5466      9.0401      9.4386      9.5937      9.4380      9.0401      8.5481      8.0527      7.5431    
  7.0775      6.7101      6.4614      6.3239      6.2808      6.3239      6.4618      6.7108      7.0775      7.5417    
  7.4472      7.7739      8.0756      8.3060      8.4303      8.4304      8.3067      8.0770      7.7752      7.4473    
  7.1400      6.8887      6.7100      6.6021      6.5530      6.5527      6.6018      6.7108      6.8904      7.1414    
  7.2387      7.3662      7.5104      7.6471      7.7466      7.7834      7.7472      7.6477      7.5101      7.3648    
  7.2367      7.1399      7.0772      7.0433      7.0287      7.0247      7.0280      7.0427      7.0775      7.1414    
  7.4472      7.3662      7.3173      7.3051      7.3174      7.3325      7.3327      7.3176      7.3043      7.3156    
  7.3649      7.4474      7.5430      7.6283      7.6876      7.7168      7.7167      7.6869      7.6270      7.5417    
  8.0504      7.7739      7.5104      7.3051      7.1755      7.1119      7.0941      7.1120      7.1752      7.3044    
  7.5104      7.7754      8.0527      8.3036      8.5735      8.8147      8.9137      8.8154      8.5735      8.3021    
  9.2061      8.5466      8.0756      7.6471      7.3174      7.1119      7.0184      7.0183      7.1118      7.3175    
  7.6478      8.0770      8.5479      9.2063      10.133      11.086      11.694      11.695      11.088      10.135    
  12.443      10.388      9.0401      8.3060      7.7466      7.3325      7.0941      7.0183      7.0938      7.3325    
  7.7472      8.3066      9.0397      10.386      12.441      14.752      16.581      17.277      16.582      14.753    
  19.203      14.998      11.554      9.4386      8.4303      7.7835      7.3327      7.1119      7.1117      7.3325    
  7.7836      8.4304      9.4378      11.552      14.997      19.203      23.052      25.354      25.353      23.051    
  29.682      23.262      17.005      12.282      9.5937      8.4305      7.7472      7.3176      7.1752      7.3176    
  7.7472      8.4304      9.5934      12.281      17.005      23.264      29.685      34.518      36.316      34.516    
  42.575      34.672      25.687      17.765      12.281      9.4380      8.3067      7.6477      7.3043      7.3044    
  7.6478      8.3066      9.4378      12.281      17.766      25.688      34.673      42.575      47.215      47.215    
  55.297      47.305      36.528      25.687      17.005      11.552      9.0401      8.0770      7.5101      7.3156    
  7.5104      8.0770      9.0398      11.552      17.005      25.688      36.528      47.303      55.295      58.253    
  64.702      58.286      47.305      34.674      23.264      14.997      10.387      8.5481      7.7752      7.3648    
  7.3649      7.7754      8.5479      10.386      14.997      23.264      34.673      47.303      58.283      64.700    
  42.804      40.614      34.720      26.856      19.111      13.145      9.6361      8.1188      7.3690      6.8950    
  6.7365      6.8951      7.3690      8.1188      9.6361      13.145      19.111      26.856      34.720      40.614    
  40.615      40.614      36.552      29.668      21.917      15.203      10.691      8.4470      7.5111      6.9111    
  6.6055      6.6054      6.9110      7.5113      8.4473      10.691      15.203      21.917      29.669      36.554    
  34.721      36.602      34.720      29.668      22.973      16.467      11.571      8.7954      7.6071      6.9269    
  6.5044      6.3649      6.5042      6.9268      7.6074      8.7956      11.571      16.466      22.974      29.669    
  26.855      29.797      29.797      26.856      21.917      16.467      11.913      9.0287      7.6644      6.9360    
  6.4341      6.1875      6.1874      6.4339      6.9359      7.6644      9.0286      11.913      16.466      21.917    
  19.110      22.130      23.267      22.131      19.111      15.203      11.571      9.0288      7.6861      6.9390    
  6.3929      6.0743      5.9723      6.0744      6.3929      6.9389      7.6860      9.0289      11.571      15.203    
  13.145      15.482      16.910      16.910      15.482      13.145      10.691      8.7954      7.6644      6.9390    
  6.3794      6.0200      5.8515      5.8516      6.0203      6.3794      6.9389      7.6647      8.7962      10.692    
  9.6370      11.005      12.115      12.543      12.115      11.004      9.6361      8.4470      7.6071      6.9360    
  6.3929      6.0200      5.8130      5.7482      5.8132      6.0201      6.3927      6.9358      7.6074      8.4477    
  8.1186      8.7653      9.3822      9.7698      9.7694      9.3815      8.7649      8.1188      7.5111      6.9269    
  6.4341      6.0743      5.8514      5.7482      5.7482      5.8514      6.0742      6.4338      6.9263      7.5105    
  7.3679      7.8171      8.1916      8.4455      8.5381      8.4452      8.1916      7.8179      7.3690      6.9111    
  6.5044      6.1875      5.9722      5.8516      5.8132      5.8514      5.9722      6.1877      6.5044      6.9104    
  6.8950      7.2039      7.4923      7.7158      7.8376      7.8376      7.7159      7.4928      7.2045      6.8950    
  6.6055      6.3649      6.1874      6.0744      6.0203      6.0201      6.0742      6.1877      6.3657      6.6061    
  6.7374      6.8916      7.0539      7.2007      7.3044      7.3421      7.3046      7.2008      7.0537      6.8910    
  6.7365      6.6054      6.5042      6.4339      6.3929      6.3794      6.3927      6.4338      6.5044      6.6061    
  6.8949      6.8916      6.9089      6.9449      6.9865      7.0145      7.0147      6.9867      6.9446      6.9081    
  6.8911      6.8951      6.9110      6.9268      6.9359      6.9389      6.9389      6.9358      6.9263      6.9104    
  7.3679      7.2039      7.0539      6.9449      6.8838      6.8590      6.8535      6.8592      6.8838      6.9447    
  7.0539      7.2046      7.3690      7.5113      7.6074      7.6644      7.6861      7.6647      7.6074      7.5105    
  8.1186      7.8171      7.4923      7.2007      6.9865      6.8590      6.8033      6.8033      6.8590      6.9866    
  7.2010      7.4929      7.8177      8.1188      8.4473      8.7956      9.0286      9.0289      8.7962      8.4477    
  9.6370      8.7653      8.1916      7.7158      7.3044      7.0145      6.8535      6.8033      6.8533      7.0144    
  7.3046      7.7160      8.1913      8.7645      9.6361      10.691      11.571      11.913      11.571      10.692    
  13.145      11.005      9.3821      8.4455      7.8376      7.3421      7.0147      6.8592      6.8590      7.0144    
  7.3421      7.8377      8.4452      9.3813      11.004      13.145      15.203      16.466      16.466      15.203    
  19.110      15.482      12.115      9.7698      8.5381      7.8376      7.3046      6.9867      6.8838      6.9866    
  7.3046      7.8377      8.5382      9.7696      12.115      15.482      19.111      21.917      22.974      21.917    
  26.855      22.130      16.910      12.543      9.7694      8.4452      7.7159      7.2008      6.9446      6.9447    
  7.2010      7.7160      8.4452      9.7696      12.544      16.911      22.130      26.856      29.669      29.669    
  34.721      29.797      23.267      16.910      12.115      9.3815      8.1916      7.4928      7.0537      6.9081    
  7.0539      7.4929      8.1913      9.3813      12.115      16.911      23.267      29.796      34.720      36.554    
  40.615      36.602      29.797      22.131      15.482      11.004      8.7649      7.8179      7.2045      6.8910    
  6.8911      7.2046      7.8177      8.7645      11.004      15.482      22.130      29.796      36.601      40.614    
  24.444      23.261      20.114      16.038      12.234      9.5534      8.1311      7.3642      6.7946      6.4553    
  6.3454      6.4553      6.7946      7.3642      8.1311      9.5534      12.234      16.038      20.114      23.261    
  23.261      23.261      21.071      17.437      13.513      10.350      8.4363      7.4900      6.8382      6.3965    
  6.1826      6.1826      6.3964      6.8384      7.4903      8.4366      10.350      13.513      17.437      21.072    
  20.115      21.126      20.114      17.437      14.006      10.862      8.7047      7.5647      6.8631      6.3460    