unknown system                          
   1.00000000000000     
     2.283400    0.000000    0.000000
    -1.141700    1.977482    0.000000
     0.000000    0.000000    4.098360
   Fe
     2
Direct
  0.000000  0.000000  0.000000
  0.333333  0.666667  0.500000
 
   20   20   36
 0.15532636607E+03 0.14749148028E+03 0.12634687252E+03 0.97738364873E+02 0.68294973484E+02
 0.43166817897E+02 0.25141419206E+02 0.14694684510E+02 0.10317889822E+02 0.91439906356E+01
 0.88253960204E+01 0.91440526372E+01 0.10317947681E+02 0.14694687916E+02 0.25141391233E+02
 0.43166816875E+02 0.68295015014E+02 0.97738407521E+02 0.12634687912E+03 0.14749146536E+03
 0.14749553262E+03 0.14749146520E+03 0.13303493127E+03 0.10832051578E+03 0.79657270218E+02
 0.52912069881E+02 0.31974929228E+02 0.18413274947E+02 0.11659175350E+02 0.94342614809E+01
 0.88209267483E+01 0.88207185018E+01 0.94340585936E+01 0.11659325548E+02 0.18413011847E+02
 0.31973543108E+02 0.52911089370E+02 0.79660004043E+02 0.10832824045E+03 0.13304398720E+03
 0.12635289322E+03 0.13301386724E+03 0.12634687801E+03 0.10832053189E+03 0.83846400800E+02
 0.58593782630E+02 0.37087328237E+02 0.21838626357E+02 0.13239888318E+02 0.98055525906E+01
 0.88390610512E+01 0.85355541570E+01 0.88386001819E+01 0.98055759240E+01 0.13240292194E+02
 0.21837808664E+02 0.37084736983E+02 0.58591996536E+02 0.83848960008E+02 0.10832731149E+03
 0.97735661674E+02 0.10825980690E+03 0.10826072564E+03 0.97738395784E+02 0.79657261498E+02
 0.58593767169E+02 0.38982987937E+02 0.23893185264E+02 0.14528999226E+02 0.10225622358E+02
 0.88689868936E+01 0.83253782543E+01 0.83251560437E+01 0.88688249622E+01 0.10226228433E+02
 0.14529973007E+02 0.23893044797E+02 0.38980653678E+02 0.58589746163E+02 0.79653190931E+02
 0.68286391698E+02 0.79568893342E+02 0.83726961444E+02 0.79575669263E+02 0.68294973204E+02
 0.52912039515E+02 0.37087340519E+02 0.23893199003E+02 0.15025928932E+02 0.10512771096E+02
 0.88972399911E+01 0.81985682745E+01 0.79502168507E+01 0.81985156297E+01 0.88972648605E+01
 0.10513551581E+02 0.15028113669E+02 0.23895790644E+02 0.37087346202E+02 0.52907022105E+02
 0.43165834913E+02 0.52838587356E+02 0.58465249958E+02 0.58467492848E+02 0.52842638553E+02
 0.43166802693E+02 0.31974934310E+02 0.21838654075E+02 0.14528983412E+02 0.10512759566E+02
 0.89105843475E+01 0.81423598192E+01 0.77336126480E+01 0.77337526386E+01 0.81421659978E+01
 0.89096223812E+01 0.10512569619E+02 0.14531736892E+02 0.21843786846E+02 0.31978592334E+02
 0.25147405330E+02 0.31947880865E+02 0.37012313280E+02 0.38884901904E+02 0.37009736672E+02
 0.31942867104E+02 0.25141406646E+02 0.18413290534E+02 0.13239878410E+02 0.10225598537E+02
 0.88972593475E+01 0.81423692528E+01 0.76643059541E+01 0.75051953198E+01 0.76647105355E+01
 0.81415931945E+01 0.88946556416E+01 0.10223073427E+02 0.13240292194E+02 0.18417488271E+02
 0.14694540949E+02 0.18424010370E+02 0.21836733320E+02 0.23872944408E+02 0.23870222610E+02
 0.21830796567E+02 0.18419545440E+02 0.14694675962E+02 0.11659185301E+02 0.98055378697E+01
 0.88690014163E+01 0.81985878908E+01 0.77335896846E+01 0.75051874016E+01 0.75057514457E+01
 0.77345876333E+01 0.81983686624E+01 0.88662260824E+01 0.98007266714E+01 0.11655111316E+02
 0.10311502705E+02 0.11682970074E+02 0.13283676913E+02 0.14579282395E+02 0.15075659882E+02
 0.14577530865E+02 0.13283671724E+02 0.11687147509E+02 0.10317906978E+02 0.94342670875E+01
 0.88390532600E+01 0.83253907236E+01 0.79501980071E+01 0.77337366519E+01 0.76647368345E+01
 0.77345946100E+01 0.79523951891E+01 0.83279018907E+01 0.88390310624E+01 0.94299913287E+01
 0.91438242441E+01 0.94641049451E+01 0.98654110965E+01 0.10310105509E+02 0.10610961193E+02
 0.10611931539E+02 0.10313239837E+02 0.98702493433E+01 0.94681597361E+01 0.91440087261E+01
 0.88209072264E+01 0.85355501557E+01 0.83251623304E+01 0.81985064650E+01 0.81421884873E+01
 0.81416062504E+01 0.81983398813E+01 0.83278957082E+01 0.85407787701E+01 0.88250141598E+01
 0.88314101167E+01 0.88604144594E+01 0.89092700712E+01 0.89676194830E+01 0.90182161187E+01
 0.90412443002E+01 0.90207857886E+01 0.89702042399E+01 0.89088851570E+01 0.88561737047E+01
 0.88253882866E+01 0.88207040404E+01 0.88386223795E+01 0.88688292418E+01 0.88972593475E+01
 0.89096275927E+01 0.88946307721E+01 0.88662158393E+01 0.88390610512E+01 0.88250192204E+01
 0.91437946729E+01 0.88604111041E+01 0.86128742525E+01 0.84360862659E+01 0.83367814045E+01
 0.82975759372E+01 0.82981332843E+01 0.83369062987E+01 0.84333552047E+01 0.86077120238E+01
 0.88563948747E+01 0.91440411564E+01 0.94340711247E+01 0.98055868652E+01 0.10226203658E+02
 0.10513545565E+02 0.10512575134E+02 0.10223072474E+02 0.98007523334E+01 0.94299982532E+01
 0.10311478025E+02 0.94641020807E+01 0.89092972825E+01 0.84360873084E+01 0.80965914423E+01
 0.79055283123E+01 0.78456550834E+01 0.79047100081E+01 0.80944181294E+01 0.84335511675E+01
 0.89092828580E+01 0.94683881292E+01 0.10317940158E+02 0.11659332268E+02 0.13240276111E+02
 0.14529965374E+02 0.15028140450E+02 0.14531745073E+02 0.13240286019E+02 0.11655108085E+02
 0.14694548191E+02 0.11682976940E+02 0.98654328622E+01 0.89676176277E+01 0.83367584110E+01
 0.79055298826E+01 0.76961484286E+01 0.76956113699E+01 0.79045736886E+01 0.83369659419E+01
 0.89703153522E+01 0.98701572697E+01 0.11687011189E+02 0.14694686610E+02 0.18413017695E+02
 0.21837808432E+02 0.23893062684E+02 0.23895794792E+02 0.21843758896E+02 0.18417478532E+02
 0.25147433302E+02 0.18424020329E+02 0.13283668496E+02 0.10310095895E+02 0.90181990204E+01
 0.82975826065E+01 0.78456726770E+01 0.76956076139E+01 0.78452573824E+01 0.82983418167E+01
 0.90207857886E+01 0.10312606949E+02 0.13283240844E+02 0.18419802968E+02 0.25141406646E+02
 0.31973547853E+02 0.37084731300E+02 0.38980646585E+02 0.37087328237E+02 0.31978591998E+02
 0.43165851379E+02 0.31947877268E+02 0.21836706919E+02 0.14579273874E+02 0.10610970689E+02
 0.90412555629E+01 0.82981446292E+01 0.79046996842E+01 0.79045617945E+01 0.82983464923E+01
 0.90422360252E+01 0.10611193415E+02 0.14576564347E+02 0.21831616117E+02 0.31944242780E+02
 0.43166818137E+02 0.52911072997E+02 0.58591987840E+02 0.58589752928E+02 0.52907036099E+02
 0.68286383092E+02 0.52838568177E+02 0.37012299955E+02 0.23872951890E+02 0.15075683035E+02
 0.10611937207E+02 0.90207753163E+01 0.83368947306E+01 0.80944128474E+01 0.83369773673E+01
 0.90207924146E+01 0.10611189586E+02 0.15073514467E+02 0.23870369578E+02 0.37012312968E+02
 0.52843620515E+02 0.68295006127E+02 0.79660007345E+02 0.83848977096E+02 0.79653202953E+02
 0.97735644283E+02 0.79568879514E+02 0.58465260748E+02 0.38884923903E+02 0.23870231299E+02
 0.14577519802E+02 0.10313220980E+02 0.89702018984E+01 0.84333667181E+01 0.84335616384E+01
 0.89703148660E+01 0.10312597707E+02 0.14576561805E+02 0.23870370785E+02 0.38887213335E+02
 0.58469231476E+02 0.79572948673E+02 0.97738421041E+02 0.10832824870E+03 0.10832730364E+03
 0.12635288661E+03 0.10825981839E+03 0.83726978255E+02 0.58467506507E+02 0.37009723659E+02
 0.21830774052E+02 0.13283668496E+02 0.98702628920E+01 0.89088995815E+01 0.86077119404E+01
 0.89092700712E+01 0.98701490527E+01 0.13283246033E+02 0.21831620003E+02 0.37012313280E+02
 0.58469234345E+02 0.83724352225E+02 0.10825301345E+03 0.12634687801E+03 0.13304396489E+03
 0.14749553558E+03 0.13301389564E+03 0.10826072944E+03 0.79575655399E+02 0.52842623472E+02
 0.31942855455E+02 0.18419560539E+02 0.11687168554E+02 0.94681573757E+01 0.88561598463E+01
 0.88563843716E+01 0.94683886333E+01 0.11687025369E+02 0.18419808107E+02 0.31944234728E+02
 0.52843624613E+02 0.79572948637E+02 0.10825300576E+03 0.13300481572E+03 0.14749145323E+03
 0.14749765469E+03 0.14006342521E+03 0.11998787993E+03 0.92801862348E+02 0.64810813506E+02
 0.40950841099E+02 0.23908739779E+02 0.14123510148E+02 0.10090246038E+02 0.89992115988E+01
 0.86869571735E+01 0.89992713489E+01 0.10090301878E+02 0.14123513436E+02 0.23908712330E+02
 0.40950838945E+02 0.64810852167E+02 0.92801902692E+02 0.11998788641E+03 0.14006341125E+03
 0.14006722647E+03 0.14006341038E+03 0.12633776658E+03 0.10285540093E+03 0.75603612436E+02
 0.50186111243E+02 0.30344202113E+02 0.17579967075E+02 0.11306203877E+02 0.92709516827E+01
 0.86760693401E+01 0.86758651017E+01 0.92707524883E+01 0.11306365581E+02 0.17579771975E+02
 0.30342952166E+02 0.50185210287E+02 0.75606166672E+02 0.10286263235E+03 0.12634625708E+03
 0.11999352997E+03 0.12632150490E+03 0.11998788533E+03 0.10285541675E+03 0.79583206162E+02
 0.55575382409E+02 0.35170687507E+02 0.20780656763E+02 0.12752456816E+02 0.95999756724E+01
 0.86898511815E+01 0.83939453914E+01 0.86893948343E+01 0.95999843814E+01 0.12752858204E+02
 0.20779931088E+02 0.35168279387E+02 0.55573696929E+02 0.79585584951E+02 0.10286176667E+03
 0.92799336635E+02 0.10280780377E+03 0.10280866048E+03 0.92801892710E+02 0.75603603861E+02
 0.55575367241E+02 0.36962218858E+02 0.22705733063E+02 0.13939242810E+02 0.99722597377E+01
 0.87172126019E+01 0.81880262433E+01 0.81878091972E+01 0.87170402684E+01 0.99728058525E+01
 0.13940135958E+02 0.22705580866E+02 0.36960008872E+02 0.55571582092E+02 0.75599785397E+02
 0.64802782878E+02 0.75536363245E+02 0.79492652177E+02 0.75542710195E+02 0.64810813234E+02
 0.50186081455E+02 0.35170699579E+02 0.22705746530E+02 0.14398053439E+02 0.10228450849E+02
 0.87431334879E+01 0.80646331478E+01 0.78245853904E+01 0.80645967335E+01 0.87431578348E+01
 0.10229154263E+02 0.14400057605E+02 0.22708146922E+02 0.35170705118E+02 0.50181395068E+02
 0.40949937753E+02 0.50137607701E+02 0.55487345602E+02 0.55489453328E+02 0.50141407853E+02
 0.40950826195E+02 0.30344207109E+02 0.20780683938E+02 0.13939227299E+02 0.10228439560E+02
 0.87546003452E+01 0.80101932067E+01 0.76158827263E+01 0.76160344236E+01 0.80100507320E+01
 0.87537179109E+01 0.10228253070E+02 0.13941800822E+02 0.20785513174E+02 0.30347668578E+02
 0.23914355887E+02 0.30341282855E+02 0.35139639488E+02 0.36915789989E+02 0.35137243697E+02
 0.30336599427E+02 0.23908727432E+02 0.17579982370E+02 0.12752447103E+02 0.99722364000E+01
 0.87431524295E+01 0.80102024266E+01 0.75492842138E+01 0.73964687554E+01 0.75496854500E+01
 0.80095023514E+01 0.87407321035E+01 0.99698869841E+01 0.12752858204E+02 0.17583940005E+02
 0.14123354909E+02 0.17611842262E+02 0.20819654747E+02 0.22738556040E+02 0.22736012049E+02
 0.20814110388E+02 0.17607683970E+02 0.14123501780E+02 0.11306213646E+02 0.95999612154E+01
 0.87172268011E+01 0.80646523385E+01 0.76158602701E+01 0.73964610207E+01 0.73969800945E+01
 0.76167770887E+01 0.80644382062E+01 0.87146327392E+01 0.95954620146E+01 0.11302391835E+02
 0.10084231354E+02 0.11348223563E+02 0.12831776892E+02 0.14037976819E+02 0.14501112068E+02
 0.14036323694E+02 0.12831771777E+02 0.11352161938E+02 0.10090262865E+02 0.92709571271E+01
 0.86898435317E+01 0.81880384857E+01 0.78245669713E+01 0.76160187974E+01 0.75497111803E+01
 0.76167839187E+01 0.78265841552E+01 0.81903752537E+01 0.86898218009E+01 0.92669372693E+01
 0.89990482306E+01 0.93166592472E+01 0.96906241981E+01 0.10099344795E+02 0.10375806045E+02
 0.10376697028E+02 0.10102245788E+02 0.96951374438E+01 0.93204628542E+01 0.89992293176E+01
 0.86760502248E+01 0.83939415417E+01 0.81878153675E+01 0.80645877475E+01 0.80100727330E+01
 0.80095151326E+01 0.80644100295E+01 0.81903691816E+01 0.83988494037E+01 0.86799034390E+01
 0.86926007312E+01 0.87298548376E+01 0.87876824228E+01 0.88539573448E+01 0.89088194552E+01
 0.89321481651E+01 0.89112084893E+01 0.88563524883E+01 0.87872996380E+01 0.87258686271E+01
 0.86869496296E+01 0.86758509701E+01 0.86894165652E+01 0.87170444102E+01 0.87431524295E+01
 0.87537230164E+01 0.87407077566E+01 0.87146226818E+01 0.86898511815E+01 0.86799084227E+01
 0.89990192253E+01 0.87298515227E+01 0.84975743683E+01 0.83341073553E+01 0.82441004243E+01
 0.82094716583E+01 0.82100051434E+01 0.82442372929E+01 0.83315543055E+01 0.84927288201E+01
 0.87260848641E+01 0.89992600625E+01 0.92707647536E+01 0.95999950615E+01 0.99727815853E+01
 0.10229148379E+02 0.10228258475E+02 0.99698860547E+01 0.95954871517E+01 0.92669440902E+01
 0.10084207154E+02 0.93166564024E+01 0.87877091457E+01 0.83341083990E+01 0.80107115354E+01
 0.78296051593E+01 0.77730390208E+01 0.78288777647E+01 0.80087165246E+01 0.83317466790E+01
 0.87876949646E+01 0.93206859725E+01 0.10090294505E+02 0.11306372174E+02 0.12752842430E+02
 0.13940128492E+02 0.14400083844E+02 0.13941808867E+02 0.12752852143E+02 0.11302388658E+02
 0.14123362029E+02 0.11348230306E+02 0.96906455646E+01 0.88539555581E+01 0.82440778290E+01
 0.78296066934E+01 0.76290335294E+01 0.76285400083E+01 0.78287296451E+01 0.82442815468E+01
 0.88564767443E+01 0.96950624451E+01 0.11352013819E+02 0.14123512188E+02 0.17579777678E+02
 0.20779930866E+02 0.22705598411E+02 0.22708151000E+02 0.20785485777E+02 0.17583930413E+02
 0.23914383337E+02 0.17611852075E+02 0.12831768608E+02 0.10099335362E+02 0.89088026598E+01
 0.82094781908E+01 0.77730563114E+01 0.76285363079E+01 0.77726436942E+01 0.82101618717E+01
 0.89112084893E+01 0.10101673568E+02 0.12831344811E+02 0.17607874545E+02 0.23908727432E+02
 0.30342956814E+02 0.35168273848E+02 0.36960001903E+02 0.35170687507E+02 0.30347668231E+02
 0.40949953897E+02 0.30341279344E+02 0.20819628810E+02 0.14037968427E+02 0.10375815390E+02
 0.89321592097E+01 0.82100162910E+01 0.78288676110E+01 0.78287179573E+01 0.82101664869E+01
 0.89330592306E+01 0.10376032944E+02 0.14035436492E+02 0.20814839062E+02 0.30337839441E+02
 0.40950840186E+02 0.50185194253E+02 0.55573688386E+02 0.55571588717E+02 0.50181408822E+02
 0.64802774415E+02 0.50137588852E+02 0.35139626415E+02 0.22738563362E+02 0.14501134826E+02
 0.10376702592E+02 0.89111981931E+01 0.82442259486E+01 0.80087113287E+01 0.82442927978E+01
 0.89112149885E+01 0.10376029163E+02 0.14499143501E+02 0.22736170576E+02 0.35139639230E+02
 0.50142309045E+02 0.64810843432E+02 0.75606169918E+02 0.79585601695E+02 0.75599797217E+02
 0.92799319559E+02 0.75536349644E+02 0.55487356231E+02 0.36915811595E+02 0.22736020574E+02
 0.14036312840E+02 0.10102227253E+02 0.88563502273E+01 0.83315656103E+01 0.83317569400E+01
 0.88564762700E+01 0.10101664465E+02 0.14035434030E+02 0.22736171779E+02 0.36917979966E+02
 0.55491094924E+02 0.75540167406E+02 0.92801915977E+02 0.10286264043E+03 0.10286175894E+03
 0.11999352349E+03 0.10280781506E+03 0.79492668716E+02 0.55489466762E+02 0.35137230882E+02
 0.20814088288E+02 0.12831768608E+02 0.96951507655E+01 0.87873138191E+01 0.84927286743E+01
 0.87876824228E+01 0.96950544004E+01 0.12831349925E+02 0.20814842899E+02 0.35139639488E+02
 0.55491097730E+02 0.79490226446E+02 0.10280144111E+03 0.11998788533E+03 0.12634623512E+03
 0.14006722937E+03 0.12632153284E+03 0.10280866422E+03 0.75542696592E+02 0.50141393011E+02
 0.30336587983E+02 0.17607698814E+02 0.11352182585E+02 0.93204605616E+01 0.87258549899E+01
 0.87260745419E+01 0.93206865247E+01 0.11352027723E+02 0.17607879576E+02 0.30337831507E+02
 0.50142313052E+02 0.75540167404E+02 0.10280143355E+03 0.12631301985E+03 0.14006339932E+03
 0.12636283419E+03 0.11999845503E+03 0.10278627638E+03 0.79432646698E+02 0.55384172630E+02
 0.34989062104E+02 0.20635413017E+02 0.12639885941E+02 0.95041917259E+01 0.86024336408E+01
 0.83102110021E+01 0.86024877903E+01 0.95042427237E+01 0.12639889299E+02 0.20635387075E+02
 0.34989056859E+02 0.55384203536E+02 0.79432680834E+02 0.10278628250E+03 0.11999844362E+03
 0.12000157845E+03 0.11999844091E+03 0.10822864582E+03 0.88058176905E+02 0.64626707061E+02
 0.42828760852E+02 0.25983557973E+02 0.15390536887E+02 0.10397636277E+02 0.88316292129E+01
 0.82798892063E+01 0.82796978195E+01 0.88314421723E+01 0.10397824818E+02 0.15390514307E+02
 0.25982664688E+02 0.42828070419E+02 0.64628778589E+02 0.88064079988E+02 0.10823561100E+03
 0.10279092533E+03 0.10822588759E+03 0.10278628150E+03 0.88058191906E+02 0.68036996911E+02
 0.47418573201E+02 0.30027550738E+02 0.17981701010E+02 0.11489155712E+02 0.90626863390E+01
 0.82791771401E+01 0.80061598028E+01 0.82787376056E+01 0.90626577125E+01 0.11489545163E+02
 0.17981214866E+02 0.30025632305E+02 0.47417161571E+02 0.68038893319E+02 0.88063383906E+02
 0.79430598060E+02 0.88047191296E+02 0.88047881715E+02 0.79432675475E+02 0.64626698897E+02
 0.47418558874E+02 0.31533957114E+02 0.19554253937E+02 0.12402906949E+02 0.93159823146E+01
 0.82967822203E+01 0.78104713344E+01 0.78102697925E+01 0.82965855545E+01 0.93163708312E+01
 0.12403586641E+02 0.19554074674E+02 0.31532087274E+02 0.47415413433E+02 0.64623560984E+02
 0.55377625677E+02 0.64618095599E+02 0.68026712379E+02 0.64623286480E+02 0.55384172375E+02
 0.42828732723E+02 0.30027562209E+02 0.19554266619E+02 0.12759527720E+02 0.94932050514E+01
 0.83168555392E+01 0.76948392705E+01 0.74784807560E+01 0.76948439267E+01 0.83168783807E+01
 0.94937067891E+01 0.12761054356E+02 0.19556157449E+02 0.30027567335E+02 0.42824935589E+02
 0.34988369519E+02 0.42849315029E+02 0.47442610483E+02 0.47444352475E+02 0.42852437454E+02
 0.34989048055E+02 0.25983562717E+02 0.17981726620E+02 0.12402892311E+02 0.94931944617E+01
 0.83254218650E+01 0.76442228900E+01 0.72905242968E+01 0.72907034066E+01 0.76442110545E+01
 0.83247503958E+01 0.94930194487E+01 0.12404982076E+02 0.17985733119E+02 0.25986486860E+02
 0.20640029904E+02 0.26047360961E+02 0.30118050829E+02 0.31630344976E+02 0.30116138557E+02
 0.26043565011E+02 0.20635401279E+02 0.15390551340E+02 0.11489146566E+02 0.93159603768E+01
 0.83168732927E+01 0.76442314951E+01 0.72309593480E+01 0.70954250595E+01 0.72313471612E+01
 0.76437308530E+01 0.83149433503E+01 0.93140809177E+01 0.11489545163E+02 0.15393856277E+02
 0.12639703782E+02 0.15481305700E+02 0.18134333157E+02 0.19734421164E+02 0.19732355170E+02
 0.18129842671E+02 0.15477968485E+02 0.12639878093E+02 0.10397645531E+02 0.90626726491E+01
 0.82967954948E+01 0.76948572347E+01 0.72905032961E+01 0.70954178497E+01 0.70958177158E+01
 0.72912052296E+01 0.76946584093E+01 0.82946882973E+01 0.90590123176E+01 0.10394504470E+02
 0.94991879901E+01 0.10491269811E+02 0.11668686262E+02 0.12638022899E+02 0.13012611795E+02
 0.12636637689E+02 0.11668681366E+02 0.10494558274E+02 0.95042076114E+01 0.88316341958E+01
 0.82791698990E+01 0.78104829159E+01 0.74784635513E+01 0.72906888135E+01 0.72313712528E+01
 0.72912116373E+01 0.74800038815E+01 0.78123525671E+01 0.82791495104E+01 0.88283073415E+01
 0.86022804959E+01 0.89232538853E+01 0.92421901502E+01 0.95658655120E+01 0.97822398734E+01
 0.97829208843E+01 0.95681453375E+01 0.92458317360E+01 0.89263793735E+01 0.86024502891E+01
 0.82798712541E+01 0.80061563747E+01 0.78102756215E+01 0.76948354578E+01 0.76442316507E+01
 0.76437428440E+01 0.76946319761E+01 0.78123468146E+01 0.80101980096E+01 0.82830399447E+01
 0.83148538309E+01 0.83756788686E+01 0.84583710723E+01 0.85462989575E+01 0.86153374286E+01
 0.86424366929E+01 0.86172434647E+01 0.85481888111E+01 0.84579991846E+01 0.83723819664E+01
 0.83102039923E+01 0.82796846282E+01 0.82787579942E+01 0.82965893088E+01 0.83168732927E+01
 0.83247551931E+01 0.83149205089E+01 0.82946787773E+01 0.82791771401E+01 0.82830447056E+01
 0.86022531211E+01 0.83756756707E+01 0.81879255303E+01 0.80629233126E+01 0.79997434107E+01
 0.79783695852E+01 0.79788361911E+01 0.79999080562E+01 0.80608488470E+01 0.81839358999E+01
 0.83725831546E+01 0.86024770638E+01 0.88314536762E+01 0.90626676513E+01 0.93163480353E+01
 0.94937012825E+01 0.94930245318E+01 0.93140800596E+01 0.90590359463E+01 0.88283138624E+01
 0.94991651738E+01 0.89232510972E+01 0.84583963865E+01 0.80629243556E+01 0.77867358028E+01
 0.76348196388E+01 0.75879677587E+01 0.76343287629E+01 0.77852123064E+01 0.80610293667E+01
 0.84583829080E+01 0.89265866679E+01 0.95042357929E+01 0.10397831049E+02 0.11489530289E+02
 0.12403579651E+02 0.12761079027E+02 0.12404989724E+02 0.11489539436E+02 0.10394501446E+02
 0.12639710550E+02 0.10491276198E+02 0.92422103649E+01 0.85462973609E+01 0.79997219611E+01
 0.76348210728E+01 0.74601715709E+01 0.74597934002E+01 0.76341533717E+01 0.79999131847E+01
 0.85483435338E+01 0.92457998328E+01 0.10494382883E+02 0.12639888219E+02 0.15390519592E+02
 0.17981214671E+02 0.19554091228E+02 0.19556161321E+02 0.17985707314E+02 0.15393847109E+02
 0.20640055845E+02 0.15481315092E+02 0.11668678363E+02 0.95658566011E+01 0.86153215050E+01
 0.79783757305E+01 0.75879841823E+01 0.74597898604E+01 0.75875840353E+01 0.79788619908E+01
 0.86172434647E+01 0.95677317237E+01 0.11668269461E+02 0.15477989287E+02 0.20635401279E+02
 0.25982669057E+02 0.30025627179E+02 0.31532080659E+02 0.30027550738E+02 0.25986486484E+02
 0.34988384740E+02 0.26047357699E+02 0.18134308557E+02 0.12638014879E+02 0.97822487856E+01
 0.86424471160E+01 0.79788467754E+01 0.76343190997E+01 0.76341422745E+01 0.79788664298E+01
 0.86431347256E+01 0.97824508145E+01 0.12635960325E+02 0.18130334518E+02 0.26044449514E+02
 0.34989058031E+02 0.42828055358E+02 0.47417153464E+02 0.47415419653E+02 0.42824948657E+02
 0.55377617631E+02 0.42849297131E+02 0.30118038484E+02 0.19734428028E+02 0.13012633418E+02
 0.97829261499E+01 0.86172336753E+01 0.79998973523E+01 0.77852073558E+01 0.79999239304E+01
 0.86172495990E+01 0.97824471678E+01 0.13011111530E+02 0.19732540688E+02 0.30118050727E+02
 0.42853124795E+02 0.55384195235E+02 0.64628781671E+02 0.68038909081E+02 0.64623572230E+02
 0.79430581893E+02 0.64618082648E+02 0.47442620641E+02 0.31630365448E+02 0.19732363223E+02
 0.12636627439E+02 0.95681277254E+01 0.85481867746E+01 0.80608595508E+01 0.80610390274E+01
 0.85483430939E+01 0.95677230224E+01 0.12635958094E+02 0.19732541877E+02 0.31632202642E+02
 0.47445729939E+02 0.64621221675E+02 0.79432693445E+02 0.88064087623E+02 0.88063376541E+02
 0.10279091921E+03 0.88047202027E+02 0.68026728122E+02 0.47444365261E+02 0.30116126314E+02
 0.18129821768E+02 0.11668678363E+02 0.92458443982E+01 0.84580126631E+01 0.81839355862E+01
 0.84583710723E+01 0.92457922803E+01 0.11668274357E+02 0.18130338215E+02 0.30118050829E+02
 0.47445732567E+02 0.68024777349E+02 0.88041989516E+02 0.10278628150E+03 0.10823559008E+03
 0.12000158120E+03 0.10822591417E+03 0.88047885275E+02 0.64623273629E+02 0.42852423307E+02
 0.26043554159E+02 0.15477982596E+02 0.10494577765E+02 0.89263772733E+01 0.83723689751E+01
 0.83725733611E+01 0.89265873557E+01 0.10494395987E+02 0.15477994006E+02 0.26044441924E+02
 0.42853128545E+02 0.64621221775E+02 0.88041982346E+02 0.10821893050E+03 0.11999843225E+03
 0.97732614030E+02 0.92794638531E+02 0.79422565954E+02 0.61264787512E+02 0.42631671925E+02
 0.27039292313E+02 0.16398495316E+02 0.10806157110E+02 0.87737540038E+01 0.80480263033E+01
 0.77905461397E+01 0.80480733842E+01 0.87737990333E+01 0.10806160909E+02 0.16398471688E+02
 0.27039283406E+02 0.42631693029E+02 0.61264813677E+02 0.79422571532E+02 0.92794630320E+02
 0.92796851229E+02 0.92794625520E+02 0.83643669413E+02 0.67945566446E+02 0.49736290379E+02
 0.32942399913E+02 0.20251496778E+02 0.12621706135E+02 0.92880470068E+01 0.82189266255E+01
 0.77295997835E+01 0.77294312921E+01 0.82187617344E+01 0.92882590929E+01 0.12621883538E+02
 0.20251051453E+02 0.32941980440E+02 0.49737719635E+02 0.67949694256E+02 0.83648588446E+02
 0.79425868701E+02 0.83660037643E+02 0.79422570698E+02 0.67945580191E+02 0.52363820091E+02
 0.36423487985E+02 0.23213236278E+02 0.14389821559E+02 0.99333068549E+01 0.83659133737E+01
 0.77026426940E+01 0.74667641210E+01 0.77022395729E+01 0.83658415945E+01 0.99336659052E+01
 0.14389631838E+02 0.23211961894E+02 0.36422450201E+02 0.52365081544E+02 0.67949222365E+02
 0.61263374036E+02 0.67985903543E+02 0.67986373737E+02 0.61264813852E+02 0.49736282820E+02
 0.36423474942E+02 0.24324510992E+02 0.15482156730E+02 0.10493467205E+02 0.84924245294E+01
 0.76997816235E+01 0.72816947191E+01 0.72815189328E+01 0.76995640447E+01 0.84926144939E+01
 0.10493872517E+02 0.15481953912E+02 0.24323110832E+02 0.36421197042E+02 0.49734059085E+02
 0.42627106429E+02 0.49809082185E+02 0.52465182279E+02 0.49812725370E+02 0.42631671666E+02
 0.32942374314E+02 0.23213246831E+02 0.15482168207E+02 0.10716201005E+02 0.85790871015E+01
 0.77066069388E+01 0.71726293476E+01 0.69915199458E+01 0.71726813495E+01 0.77066274731E+01
 0.85793360440E+01 0.10717114348E+02 0.15483393553E+02 0.23213251325E+02 0.32939759531E+02
 0.27038871053E+02 0.33058139684E+02 0.36602288870E+02 0.36603537101E+02 0.33060351532E+02
 0.27039279557E+02 0.20251501135E+02 0.14389844763E+02 0.10493453898E+02 0.85790775906E+01
 0.77105502849E+01 0.71246004837E+01 0.68298632232E+01 0.68300667548E+01 0.71247403582E+01
 0.77101505816E+01 0.85789236914E+01 0.10494899806E+02 0.14392736990E+02 0.20253684714E+02
 0.16401768857E+02 0.20407151748E+02 0.23471079555E+02 0.24617573797E+02 0.23469803970E+02
 0.20404536131E+02 0.16398484504E+02 0.12621719293E+02 0.99332985800E+01 0.84924047576E+01
 0.77066228912E+01 0.71246081497E+01 0.67789951658E+01 0.66674490823E+01 0.67793517668E+01
 0.71243583934E+01 0.77053380423E+01 0.84911444650E+01 0.99336659052E+01 0.12624134834E+02
 0.10805951615E+02 0.12794376977E+02 0.14699930520E+02 0.15866311623E+02 0.15864882221E+02
 0.14696840759E+02 0.12792124119E+02 0.10806150059E+02 0.92880554918E+01 0.83659008876E+01
 0.76997934984E+01 0.71726454322E+01 0.68298444361E+01 0.66674426708E+01 0.66676887646E+01
 0.68302698129E+01 0.71724720550E+01 0.76983336980E+01 0.83633580892E+01 0.92858288900E+01
 0.87701236887E+01 0.94551819183E+01 0.10254647661E+02 0.10921015056E+02 0.11180794378E+02
 0.10919996145E+02 0.10254643109E+02 0.94575845566E+01 0.87737684727E+01 0.82189309191E+01
 0.77026360812E+01 0.72817052658E+01 0.69915045786E+01 0.68300537306E+01 0.67793733413E+01
 0.68302755758E+01 0.69924312011E+01 0.72829585740E+01 0.77026177484E+01 0.82165408259E+01
 0.80478923395E+01 0.83779038884E+01 0.86751904996E+01 0.89212713527E+01 0.90744661100E+01
 0.90748769976E+01 0.89227410700E+01 0.86776768713E+01 0.83801182304E+01 0.80480413103E+01
 0.77295835908E+01 0.74667612975E+01 0.72815242211E+01 0.71726736820E+01 0.71247588066E+01
 0.71243691757E+01 0.71724483029E+01 0.72829533156E+01 0.74696379656E+01 0.77318332453E+01
 0.77938433087E+01 0.78880393419E+01 0.80035708241E+01 0.81189161727E+01 0.82057424650E+01
 0.82386982406E+01 0.82070126098E+01 0.81201455217E+01 0.80032277283E+01 0.78856742462E+01
 0.77905399139E+01 0.77294195154E+01 0.77022579057E+01 0.76995672346E+01 0.77066228912E+01
 0.77101549015E+01 0.77053175081E+01 0.76983250130E+01 0.77026426940E+01 0.77318376612E+01
 0.80478674659E+01 0.78880363278E+01 0.77665382025E+01 0.76970456528E+01 0.76719488431E+01
 0.76692516489E+01 0.76696215442E+01 0.76721381525E+01 0.76956086636E+01 0.77637010708E+01
 0.78858500529E+01 0.80480635176E+01 0.82187720818E+01 0.83658504304E+01 0.84925939827E+01
 0.85793311059E+01 0.85789282642E+01 0.84911437256E+01 0.83633794111E+01 0.82165468797E+01
 0.87701029906E+01 0.83779011967E+01 0.80035939723E+01 0.76970466850E+01 0.74911553279E+01
 0.73822431810E+01 0.73496489460E+01 0.73820452087E+01 0.74902380355E+01 0.76957675009E+01
 0.80035815725E+01 0.83802992751E+01 0.87737928040E+01 0.92882647864E+01 0.99336524241E+01
 0.10493866251E+02 0.10717136591E+02 0.10494906846E+02 0.99336606991E+01 0.92858260984E+01
 0.10805957837E+02 0.94551877652E+01 0.86752089418E+01 0.81189148465E+01 0.76719291434E+01
 0.73822444710E+01 0.72463934308E+01 0.72461640638E+01 0.73818459349E+01 0.76720977161E+01
 0.81203278261E+01 0.86776951004E+01 0.94573852828E+01 0.10806160080E+02 0.12621888179E+02
 0.14389631684E+02 0.15481968933E+02 0.15483397098E+02 0.14392713633E+02 0.12624126317E+02
 0.16401792485E+02 0.12794385723E+02 0.10254640351E+02 0.89212632275E+01 0.82057278752E+01
 0.76692572207E+01 0.73496640606E+01 0.72461607681E+01 0.73492951019E+01 0.76694960957E+01
 0.82070126098E+01 0.89225266364E+01 0.10254264934E+02 0.12791948213E+02 0.16398484504E+02
 0.20251055393E+02 0.23211957401E+02 0.24323104739E+02 0.23213236278E+02 0.20253684298E+02
 0.27038884865E+02 0.20407148870E+02 0.14699907975E+02 0.10921007609E+02 0.90744743622E+01
 0.82387077274E+01 0.76696312798E+01 0.73820362968E+01 0.73818357331E+01 0.76695002595E+01
 0.82391226578E+01 0.90746505943E+01 0.10919588697E+02 0.14697038912E+02 0.20404973967E+02
 0.27039284462E+02 0.32941966866E+02 0.36422442748E+02 0.36421202633E+02 0.32939771556E+02
 0.42627099037E+02 0.33058123247E+02 0.23471068328E+02 0.15866317790E+02 0.11180814268E+02
 0.90748818101E+01 0.82070035939E+01 0.76721284172E+01 0.74902334533E+01 0.76721076805E+01
 0.82070181837E+01 0.90746471547E+01 0.11179896835E+02 0.15865091516E+02 0.23471079688E+02
 0.33060763885E+02 0.42631685378E+02 0.49737722461E+02 0.52365095810E+02 0.49734069470E+02
 0.61263359275E+02 0.49809070217E+02 0.36602298296E+02 0.24617592533E+02 0.15864889553E+02
 0.10919986819E+02 0.89227248537E+01 0.81201438101E+01 0.76956184477E+01 0.76957762528E+01
 0.81203274408E+01 0.89225185453E+01 0.10919586819E+02 0.15865092680E+02 0.24618971646E+02
 0.36604552986E+02 0.49811297133E+02 0.61264825256E+02 0.67949701228E+02 0.67949215592E+02
 0.79425863123E+02 0.67985913372E+02 0.52465196771E+02 0.36603548891E+02 0.23469792609E+02
 0.14696821696E+02 0.10254640351E+02 0.86776884996E+01 0.80032401281E+01 0.77637005335E+01
 0.80035708241E+01 0.86776882865E+01 0.10254269485E+02 0.14697042394E+02 0.23471079555E+02
 0.36604555349E+02 0.52463892848E+02 0.67982255264E+02 0.79422570698E+02 0.83648569153E+02
 0.92796853752E+02 0.83660062111E+02 0.67986376982E+02 0.49812713675E+02 0.33060338468E+02
 0.20404526201E+02 0.12792137113E+02 0.94576022600E+01 0.83801164177E+01 0.78856622695E+01
 0.78858410902E+01 0.83803001541E+01 0.94573971393E+01 0.12791952462E+02 0.20404966914E+02
 0.33060767258E+02 0.49811297406E+02 0.67982248680E+02 0.83655129622E+02 0.92794619832E+02
 0.68175895404E+02 0.64700374494E+02 0.55295350029E+02 0.42575451696E+02 0.29684515367E+02
 0.19203487761E+02 0.12441062443E+02 0.92063218906E+01 0.80526659233E+01 0.74473232506E+01
 0.72367435676E+01 0.74473617256E+01 0.80527028344E+01 0.92063247933E+01 0.12441041669E+02
 0.19203477456E+02 0.29684529271E+02 0.42575471302E+02 0.55295354934E+02 0.64700368832E+02
 0.64701675880E+02 0.64700362883E+02 0.58250201276E+02 0.47212619367E+02 0.34517577943E+02
 0.23052405055E+02 0.14751929074E+02 0.10133050192E+02 0.83034101919E+01 0.75431334675E+01