   2   2   0   0
  0.9252833E+01  0.2283400E-09  0.2283400E-09  0.4098360E-09  0.5000000E-15
  1.000000000000000E-004
  CAR 
 unknown system                          
     76.47145907     -5.11274390  301      8.05778489      1.00000000
     -5.113  0.0000E+00  0.0000E+00
     -4.841  0.0000E+00  0.0000E+00
     -4.569  0.0000E+00  0.0000E+00
     -4.297  0.0000E+00  0.0000E+00
     -4.025  0.0000E+00  0.0000E+00
     -3.753  0.0000E+00  0.0000E+00
     -3.481  0.0000E+00  0.0000E+00
     -3.209 -0.6091E-37 -0.1657E-37
     -2.937 -0.3711E-27 -0.1009E-27
     -2.665 -0.5444E-19 -0.1481E-19
     -2.393 -0.1835E-12 -0.4991E-13
     -2.121 -0.1483E-07 -0.4034E-08
     -1.849 -0.2650E-04 -0.7211E-05
     -1.577 -0.4188E-03 -0.1211E-03
     -1.305  0.8758E-02  0.2261E-02
     -1.034  0.4613E-01  0.1481E-01
     -0.762  0.9811E-01  0.4149E-01
     -0.490  0.5373E-01  0.5610E-01
     -0.218  0.1361E+00  0.9310E-01
      0.054  0.1615E+00  0.1370E+00
      0.326  0.1940E+00  0.1898E+00
      0.598  0.8501E-01  0.2129E+00
      0.870  0.1907E+00  0.2648E+00
      1.142  0.3076E+00  0.3484E+00
      1.414  0.2787E+00  0.4242E+00
      1.686  0.3232E+00  0.5121E+00
      1.958  0.2321E+00  0.5752E+00
      2.230  0.3602E+00  0.6732E+00
      2.502  0.1079E+01  0.9665E+00
      2.774  0.1730E+01  0.1437E+01
      3.046  0.1693E+01  0.1897E+01
      3.318  0.2730E+01  0.2640E+01
      3.590  0.2167E+01  0.3229E+01
      3.862  0.2743E+01  0.3975E+01
      4.133  0.2057E+01  0.4534E+01
      4.405  0.2824E+01  0.5302E+01
      4.677  0.2703E+01  0.6037E+01
      4.949  0.3056E+01  0.6868E+01
      5.221  0.2228E+01  0.7474E+01
      5.493  0.2044E+01  0.8030E+01
      5.765  0.2871E+01  0.8811E+01
      6.037  0.3498E+01  0.9762E+01
      6.309  0.3276E+01  0.1065E+02
      6.581  0.3382E+01  0.1157E+02
      6.853  0.2903E+01  0.1236E+02
      7.125  0.3315E+01  0.1326E+02
      7.397  0.3002E+01  0.1408E+02
      7.669  0.2877E+01  0.1486E+02
      7.941  0.3055E+01  0.1569E+02
      8.213  0.2517E+01  0.1638E+02
      8.485  0.2911E+01  0.1717E+02
      8.757  0.4046E+01  0.1827E+02
      9.029  0.4303E+01  0.1944E+02
      9.300  0.3713E+01  0.2045E+02
      9.572  0.2637E+01  0.2117E+02
      9.844  0.3303E+00  0.2126E+02
     10.116  0.3990E+00  0.2137E+02
     10.388  0.4873E+00  0.2150E+02
     10.660  0.6654E+00  0.2168E+02
     10.932  0.7690E+00  0.2189E+02
     11.204  0.5891E+00  0.2205E+02
     11.476  0.4336E+00  0.2217E+02
     11.748  0.2967E+00  0.2225E+02
     12.020  0.4317E+00  0.2236E+02
     12.292  0.3749E+00  0.2247E+02
     12.564  0.4563E+00  0.2259E+02
     12.836  0.6105E+00  0.2276E+02
     13.108  0.3935E+00  0.2286E+02
     13.380  0.4562E+00  0.2299E+02
     13.652  0.4874E+00  0.2312E+02
     13.924  0.2357E+00  0.2318E+02
     14.196  0.2391E+00  0.2325E+02
     14.467  0.3519E+00  0.2334E+02
     14.739  0.3614E+00  0.2344E+02
     15.011  0.3853E+00  0.2355E+02
     15.283  0.1604E+00  0.2359E+02
     15.555  0.3279E+00  0.2368E+02
     15.827  0.4336E+00  0.2380E+02
     16.099  0.4129E+00  0.2391E+02
     16.371  0.2804E+00  0.2399E+02
     16.643  0.2541E+00  0.2406E+02
     16.915  0.1974E+00  0.2411E+02
     17.187  0.1392E+00  0.2415E+02
     17.459  0.1014E+00  0.2417E+02
     17.731  0.2318E+00  0.2424E+02
     18.003  0.3940E+00  0.2435E+02
     18.275  0.2659E+00  0.2442E+02
     18.547  0.4387E+00  0.2454E+02
     18.819  0.6794E+00  0.2472E+02
     19.091  0.9574E+00  0.2498E+02
     19.363  0.7296E+00  0.2518E+02
     19.634  0.7598E+00  0.2539E+02
     19.906  0.3018E+00  0.2547E+02
     20.178  0.6730E+00  0.2565E+02
     20.450  0.5529E+00  0.2580E+02
     20.722  0.7746E+00  0.2601E+02
     20.994  0.7442E+00  0.2622E+02
     21.266  0.7724E+00  0.2643E+02
     21.538  0.7612E+00  0.2663E+02
     21.810  0.2409E+00  0.2670E+02
     22.082  0.7997E+00  0.2692E+02
     22.354  0.6818E+00  0.2710E+02
     22.626  0.6441E+00  0.2728E+02
     22.898  0.5584E+00  0.2743E+02
     23.170  0.4753E+00  0.2756E+02
     23.442  0.7927E+00  0.2777E+02
     23.714  0.2659E+00  0.2784E+02
     23.986  0.7374E+00  0.2805E+02
     24.258  0.7554E+00  0.2825E+02
     24.530  0.5074E+00  0.2839E+02
     24.801  0.6519E+00  0.2857E+02
     25.073  0.6459E+00  0.2874E+02
     25.345  0.5208E+00  0.2888E+02
     25.617  0.7792E+00  0.2910E+02
     25.889  0.1301E+01  0.2945E+02
     26.161  0.8607E+00  0.2968E+02
     26.433  0.5930E+00  0.2984E+02
     26.705  0.8709E+00  0.3008E+02
     26.977  0.6675E+00  0.3026E+02
     27.249  0.7533E+00  0.3047E+02
     27.521  0.1217E+01  0.3080E+02
     27.793  0.7168E+00  0.3099E+02
     28.065  0.1060E+01  0.3128E+02
     28.337  0.7258E+00  0.3148E+02
     28.609  0.7474E+00  0.3168E+02
     28.881  0.1196E+01  0.3201E+02
     29.153  0.1306E+01  0.3236E+02
     29.425  0.8703E+00  0.3260E+02
     29.697  0.3768E+00  0.3270E+02
     29.968  0.6995E+00  0.3289E+02
     30.240  0.1014E+01  0.3317E+02
     30.512  0.8977E+00  0.3341E+02
     30.784  0.6491E+00  0.3359E+02
     31.056  0.9714E+00  0.3385E+02
     31.328  0.9237E+00  0.3410E+02
     31.600  0.7348E+00  0.3430E+02
     31.872  0.5440E+00  0.3445E+02
     32.144  0.6594E+00  0.3463E+02
     32.416  0.7371E+00  0.3483E+02
     32.688  0.5242E+00  0.3497E+02
     32.960  0.5023E+00  0.3511E+02
     33.232  0.9569E+00  0.3537E+02
     33.504  0.6659E+00  0.3555E+02
     33.776  0.6238E+00  0.3572E+02
     34.048  0.6521E+00  0.3590E+02
     34.320  0.6043E+00  0.3606E+02
     34.592  0.7454E+00  0.3627E+02
     34.864  0.8477E+00  0.3650E+02
     35.135  0.7589E+00  0.3670E+02
     35.407  0.5931E+00  0.3686E+02
     35.679  0.8502E+00  0.3710E+02
     35.951  0.4847E+00  0.3723E+02
     36.223  0.7475E+00  0.3743E+02
     36.495  0.8308E+00  0.3766E+02
     36.767  0.1043E+01  0.3794E+02
     37.039  0.9822E+00  0.3821E+02
     37.311  0.7421E+00  0.3841E+02
     37.583  0.7341E+00  0.3861E+02
     37.855  0.1016E+01  0.3888E+02
     38.127  0.1122E+01  0.3919E+02
     38.399  0.6103E+00  0.3936E+02
     38.671  0.8408E+00  0.3958E+02
     38.943  0.1582E+01  0.4001E+02
     39.215  0.8250E+00  0.4024E+02
     39.487  0.1122E+01  0.4054E+02
     39.759  0.9217E+00  0.4079E+02
     40.031  0.8055E+00  0.4101E+02
     40.302  0.8824E+00  0.4125E+02
     40.574  0.5826E+00  0.4141E+02
     40.846  0.4758E+00  0.4154E+02
     41.118  0.7126E+00  0.4174E+02
     41.390  0.9340E+00  0.4199E+02
     41.662  0.5509E+00  0.4214E+02
     41.934  0.4633E+00  0.4227E+02
     42.206  0.9164E+00  0.4251E+02
     42.478  0.1053E+01  0.4280E+02
     42.750  0.1011E+01  0.4308E+02
     43.022  0.5846E+00  0.4323E+02
     43.294  0.8436E+00  0.4346E+02
     43.566  0.6163E+00  0.4363E+02
     43.838  0.7534E+00  0.4384E+02
     44.110  0.7982E+00  0.4405E+02
     44.382  0.6889E+00  0.4424E+02
     44.654  0.7967E+00  0.4446E+02
     44.926  0.1216E+01  0.4479E+02
     45.198  0.1049E+01  0.4507E+02
     45.469  0.9546E+00  0.4533E+02
     45.741  0.1346E+01  0.4570E+02
     46.013  0.8096E+00  0.4592E+02
     46.285  0.9590E+00  0.4618E+02
     46.557  0.9105E+00  0.4643E+02
     46.829  0.1203E+01  0.4675E+02
     47.101  0.1249E+01  0.4709E+02
     47.373  0.1124E+01  0.4740E+02
     47.645  0.9777E+00  0.4767E+02
     47.917  0.8859E+00  0.4791E+02
     48.189  0.9375E+00  0.4816E+02
     48.461  0.8023E+00  0.4838E+02
     48.733  0.9534E+00  0.4864E+02
     49.005  0.9099E+00  0.4889E+02
     49.277  0.1082E+01  0.4918E+02
     49.549  0.7851E+00  0.4939E+02
     49.821  0.5524E+00  0.4955E+02
     50.093  0.6226E+00  0.4971E+02
     50.365  0.1286E+01  0.5006E+02
     50.636  0.1196E+01  0.5039E+02
     50.908  0.8642E+00  0.5062E+02
     51.180  0.6699E+00  0.5081E+02
     51.452  0.8169E+00  0.5103E+02
     51.724  0.1350E+01  0.5140E+02
     51.996  0.1049E+01  0.5168E+02
     52.268  0.6170E+00  0.5185E+02
     52.540  0.9762E+00  0.5211E+02
     52.812  0.1054E+01  0.5240E+02
     53.084  0.1057E+01  0.5269E+02
     53.356  0.6159E+00  0.5286E+02
     53.628  0.9701E+00  0.5312E+02
     53.900  0.1734E+01  0.5359E+02
     54.172  0.1276E+01  0.5394E+02
     54.444  0.1048E+01  0.5422E+02
     54.716  0.1186E+01  0.5455E+02
     54.988  0.1220E+01  0.5488E+02
     55.260  0.8031E+00  0.5510E+02
     55.532  0.1240E+01  0.5543E+02
     55.803  0.1362E+01  0.5580E+02
     56.075  0.6314E+00  0.5597E+02
     56.347  0.7631E+00  0.5618E+02
     56.619  0.1073E+01  0.5647E+02
     56.891  0.1246E+01  0.5681E+02
     57.163  0.1462E+01  0.5721E+02
     57.435  0.1178E+01  0.5753E+02
     57.707  0.1318E+01  0.5789E+02
     57.979  0.1040E+01  0.5817E+02
     58.251  0.1409E+01  0.5856E+02
     58.523  0.1466E+01  0.5895E+02
     58.795  0.1644E+01  0.5940E+02
     59.067  0.1292E+01  0.5975E+02
     59.339  0.9491E+00  0.6001E+02
     59.611  0.1099E+01  0.6031E+02
     59.883  0.1377E+01  0.6068E+02
     60.155  0.2295E+01  0.6131E+02
     60.427  0.2136E+01  0.6189E+02
     60.699  0.1761E+01  0.6237E+02
     60.970  0.1247E+01  0.6271E+02
     61.242  0.1494E+01  0.6311E+02
     61.514  0.1642E+01  0.6356E+02
     61.786  0.1919E+01  0.6408E+02
     62.058  0.2215E+01  0.6468E+02
     62.330  0.2734E+01  0.6543E+02
     62.602  0.2486E+01  0.6610E+02
     62.874  0.1792E+01  0.6659E+02
     63.146  0.2323E+01  0.6722E+02
     63.418  0.1797E+01  0.6771E+02
     63.690  0.1077E+01  0.6800E+02
     63.962  0.1719E+01  0.6847E+02
     64.234  0.1570E+01  0.6890E+02
     64.506  0.1600E+01  0.6933E+02
     64.778  0.1551E+01  0.6976E+02
     65.050  0.1409E+01  0.7014E+02
     65.322  0.1846E+01  0.7064E+02
     65.594  0.1250E+01  0.7098E+02
     65.866  0.1272E+01  0.7133E+02
     66.137  0.1673E+01  0.7178E+02
     66.409  0.1666E+01  0.7223E+02
     66.681  0.1538E+01  0.7265E+02
     66.953  0.1127E+01  0.7296E+02
     67.225  0.1141E+01  0.7327E+02
     67.497  0.1165E+01  0.7359E+02
     67.769  0.1897E+01  0.7410E+02
     68.041  0.1782E+01  0.7459E+02
     68.313  0.1607E+01  0.7502E+02
     68.585  0.1870E+01  0.7553E+02
     68.857  0.1505E+01  0.7594E+02
     69.129  0.1541E+01  0.7636E+02
     69.401  0.1458E+01  0.7676E+02
     69.673  0.1656E+01  0.7721E+02
     69.945  0.1553E+01  0.7763E+02
     70.217  0.8756E+00  0.7787E+02
     70.489  0.1533E+01  0.7828E+02
     70.761  0.1092E+01  0.7858E+02
     71.033  0.1380E+01  0.7896E+02
     71.304  0.1043E+01  0.7924E+02
     71.576  0.1071E+01  0.7953E+02
     71.848  0.6359E+00  0.7971E+02
     72.120  0.6712E+00  0.7989E+02
     72.392  0.2365E+00  0.7995E+02
     72.664  0.1019E+00  0.7998E+02
     72.936  0.7636E-01  0.8000E+02
     73.208 -0.1238E-02  0.8000E+02
     73.480 -0.2813E-03  0.8000E+02
     73.752 -0.1759E-06  0.8000E+02
     74.024 -0.2225E-11  0.8000E+02
     74.296  0.0000E+00  0.8000E+02
     74.568  0.0000E+00  0.8000E+02
     74.840  0.0000E+00  0.8000E+02
     75.112  0.0000E+00  0.8000E+02
     75.384  0.0000E+00  0.8000E+02
     75.656  0.0000E+00  0.8000E+02
     75.928  0.0000E+00  0.8000E+02
     76.200  0.0000E+00  0.8000E+02
     76.471  0.0000E+00  0.8000E+02
