       N       E                     dE             d eps       ncg     rms          rms(c)
DAV:   1     0.595862448391E+02    0.59586E+02   -0.25011E+03  9464   0.331E+02
DAV:   2    -0.144850316855E+02   -0.74071E+02   -0.63198E+02  7928   0.967E+01
DAV:   3    -0.185982484380E+02   -0.41132E+01   -0.39395E+01  9600   0.237E+01
DAV:   4    -0.186135806684E+02   -0.15332E-01   -0.15326E-01  8968   0.152E+00
DAV:   5    -0.186135918873E+02   -0.11219E-04   -0.11218E-04  9392   0.391E-02    0.189E+01
DAV:   6    -0.159540948552E+02    0.26595E+01   -0.14784E+00 11272   0.225E+01    0.162E+00
DAV:   7    -0.158246191895E+02    0.12948E+00   -0.71275E-02  9840   0.386E+00    0.143E+00
DAV:   8    -0.157908043280E+02    0.33815E-01   -0.24951E-03 10344   0.323E-01    0.557E-01
DAV:   9    -0.157832579076E+02    0.75464E-02   -0.77282E-04 10712   0.151E-01    0.560E-02
DAV:  10    -0.157832828854E+02   -0.24978E-04   -0.24050E-05  8584   0.231E-02    0.257E-02
DAV:  11    -0.157832670158E+02    0.15870E-04   -0.35085E-07  8720   0.512E-03    0.221E-03
DAV:  12    -0.157832654026E+02    0.16132E-05   -0.79914E-08  6336   0.133E-03    0.117E-03
DAV:  13    -0.157832657957E+02   -0.39303E-06   -0.80419E-09  5184   0.432E-04
   1 F= -.15783266E+02 E0= -.15783871E+02  d E =0.181699E-02
