 vasp.6.2.0 18Jan21 (build Mar 17 2021 09:06:54) complex                        
  
 executed on             LinuxIFC date 2021.09.09  12:01:40
 serial version


--------------------------------------------------------------------------------------------------------


 INCAR:
   ENCUT = 280.000000
   SIGMA = 0.200000
   EDIFF = 1.00e-06
   GGA = PE
   PREC = normal
   IBRION = 1
   ICHARG = 1
   ISIF = 2
   ISMEAR = 1
   KPAR = 1
   NBANDS = 40
   NSW = 0
   NCORE = 1
   LCHARG = .TRUE.

 POTCAR:    PAW_PBE Fe 06Sep2000                  
 POTCAR:    PAW_PBE Fe 06Sep2000                  
   SHA256 =  cd5a22d9368cc8b5cc476bea79732366149640da08ac9009b0e1b7fc627eea28 Fe/POTCAR             
   COPYR  = (c) Copyright 06Sep2000 Georg Kresse                                                    
   COPYR  = This file is part of the software VASP. Any use, copying, and all other rights are regul
   COPYR  = If you do not have a valid VASP license, you may not use, copy or distribute this file. 
   VRHFIN =Fe:  d7 s1                                                                               
   LEXCH  = PE                                                                                      
   EATOM  =   594.3153 eV,   43.6809 Ry                                                             
                                                                                                    
   TITEL  = PAW_PBE Fe 06Sep2000                                                                    
   LULTRA =        F    use ultrasoft PP ?                                                          
   IUNSCR =        1    unscreen: 0-lin 1-nonlin 2-no                                               
   RPACOR =    2.000    partial core radius                                                         
   POMASS =   55.847; ZVAL   =    8.000    mass and valenz                                          
   RCORE  =    2.300    outmost cutoff radius                                                       
   RWIGS  =    2.460; RWIGS  =    1.302    wigner-seitz radius (au A)                               
   ENMAX  =  267.882; ENMIN  =  200.911 eV                                                          
   RCLOC  =    1.701    cutoff for local pot                                                        
   LCOR   =        T    correct aug charges                                                         
   LPAW   =        T    paw PP                                                                      
   EAUG   =  511.368                                                                                
   DEXC   =    0.000                                                                                
   RMAX   =    2.356    core radius for proj-oper                                                   
   RAUG   =    1.300    factor for augmentation sphere                                              
   RDEP   =    2.442    radius for radial grids                                                     
   RDEPT  =    1.890    core radius for aug-charge                                                  
                                                                                                    
   Atomic configuration                                                                             
    9 entries                                                                                       
     n  l   j            E        occ.                                                              
     1  0  0.50     -6993.8440   2.0000                                                             
     2  0  0.50      -814.6047   2.0000                                                             
     2  1  1.50      -693.3689   6.0000                                                             
     3  0  0.50       -89.4732   2.0000                                                             
     3  1  1.50       -55.6373   6.0000                                                             
     3  2  2.50        -3.8151   7.0000                                                             
     4  0  0.50        -4.2551   1.0000                                                             
     4  1  1.50        -3.4015   0.0000                                                             
     4  3  2.50        -1.3606   0.0000                                                             
   Description                                                                                      
     l       E           TYP  RCUT    TYP  RCUT                                                     
     2     -3.8151135     23  2.300                                                                 
     2     -5.1756961     23  2.300                                                                 
     0     -4.2550963     23  2.300                                                                 
     0      7.2035603     23  2.300                                                                 
     1     -2.7211652     23  2.300                                                                 
     1     18.4316424     23  2.300                                                                 
  local pseudopotential read in
  partial core-charges read in
  partial kinetic energy density read in
  atomic valenz-charges read in
  non local Contribution for L=           2  read in
    real space projection operators read in
  non local Contribution for L=           2  read in
    real space projection operators read in
  non local Contribution for L=           0  read in
    real space projection operators read in
  non local Contribution for L=           0  read in
    real space projection operators read in
  non local Contribution for L=           1  read in
    real space projection operators read in
  non local Contribution for L=           1  read in
    real space projection operators read in
    PAW grid and wavefunctions read in
 
   number of l-projection  operators is LMAX  =           6
   number of lm-projection operators is LMMAX =          18
 
  PAW_PBE Fe 06Sep2000                  :
 energy of atom  1       EATOM= -594.3153
 kinetic energy error for atom=    0.0278 (will be added to EATOM!!)
 
 
 POSCAR: Fe
  positions in cartesian coordinates
  No initial velocities read in
 exchange correlation table for  LEXCH =        8
   RHO(1)=    0.500       N(1)  =     2000
   RHO(2)=  100.500       N(2)  =     4000
 


--------------------------------------------------------------------------------------------------------


 ion  position               nearest neighbor table
   1  0.000  0.000  0.000-   2 2.44   2 2.44   2 2.44   2 2.44   2 2.44   2 2.44
   2  0.333  0.667  0.500-   1 2.44   1 2.44   1 2.44   1 2.44   1 2.44   1 2.44
 
  LATTYP: Found a hexagonal cell.
 ALAT       =     2.2834000000
 C/A-ratio  =     1.7948497854
  
  Lattice vectors:
  
 A1 = (   2.2834000000,   0.0000000000,   0.0000000000)
 A2 = (  -1.1417000000,   1.9774824070,   0.0000000000)
 A3 = (   0.0000000000,   0.0000000000,   4.0983600000)


Analysis of symmetry for initial positions (statically):
=====================================================================
 Subroutine PRICEL returns:
 Original cell was already a primitive cell.
 

 Routine SETGRP: Setting up the symmetry group for a 
 hexagonal supercell.


 Subroutine GETGRP returns: Found 24 space group operations
 (whereof 12 operations were pure point group operations)
 out of a pool of 24 trial point group operations.


The static configuration has the point symmetry D_3h.
 The point group associated with its full space group is D_6h.


Analysis of symmetry for dynamics (positions and initial velocities):
=====================================================================
 Subroutine PRICEL returns:
 Original cell was already a primitive cell.
 

 Routine SETGRP: Setting up the symmetry group for a 
 hexagonal supercell.


 Subroutine GETGRP returns: Found 24 space group operations
 (whereof 12 operations were pure point group operations)
 out of a pool of 24 trial point group operations.


The dynamic configuration has the point symmetry D_3h.
 The point group associated with its full space group is D_6h.


 Subroutine INISYM returns: Found 24 space group operations
 (whereof 12 operations are pure point group operations),
 and found     1 'primitive' translations


----------------------------------------------------------------------------------------

                                     Primitive cell                                     

  volume of cell :      18.5057

  direct lattice vectors                    reciprocal lattice vectors
     2.283400000  0.000000000  0.000000000     0.437943418  0.252846750  0.000000000
    -1.141700000  1.977482407  0.000000000     0.000000000  0.505693500  0.000000000
     0.000000000  0.000000000  4.098360000     0.000000000  0.000000000  0.244000039

  length of vectors
     2.283400000  2.283400000  4.098360000     0.505693500  0.505693500  0.244000039

  position of ions in fractional coordinates (direct lattice)
     0.000000000  0.000000000  0.000000000
     0.333333333  0.666666667  0.500000000

  ion indices of the primitive-cell ions
   primitive index   ion index
                 1           1
                 2           2

----------------------------------------------------------------------------------------

 
 
 KPOINTS: KPOINTS created by Atomic Simulation Env

Automatic generation of k-mesh.
 Grid dimensions read from file:
 generate k-points for:   11   11   11

 Generating k-lattice:

  Cartesian coordinates                     Fractional coordinates (reciprocal lattice)
     0.039813038  0.022986068  0.000000000     0.090909091 -0.000000000  0.000000000
     0.000000000  0.045972136  0.000000000     0.000000000  0.090909091  0.000000000
     0.000000000  0.000000000  0.022181822     0.000000000  0.000000000  0.090909091

  Length of vectors
     0.045972136  0.045972136  0.022181822

  Shift w.r.t. Gamma in fractional coordinates (k-lattice)
     0.000000000  0.000000000  0.000000000

 
 Subroutine IBZKPT returns following result:
 ===========================================
 
 Found     96 irreducible k-points:
 
 Following reciprocal coordinates:
            Coordinates               Weight
  0.000000  0.000000  0.000000      1.000000
  0.090909  0.000000  0.000000      6.000000
  0.181818  0.000000  0.000000      6.000000
  0.272727  0.000000  0.000000      6.000000
  0.363636 -0.000000  0.000000      6.000000
  0.454545  0.000000  0.000000      6.000000
  0.090909  0.090909  0.000000      6.000000
  0.181818  0.090909  0.000000     12.000000
  0.272727  0.090909  0.000000     12.000000
  0.363636  0.090909  0.000000     12.000000
  0.454545  0.090909  0.000000      6.000000
  0.181818  0.181818  0.000000      6.000000
  0.272727  0.181818  0.000000     12.000000
  0.363636  0.181818  0.000000     12.000000
  0.272727  0.272727  0.000000      6.000000
  0.363636  0.272727  0.000000      6.000000
  0.000000  0.000000  0.090909      2.000000
  0.090909  0.000000  0.090909     12.000000
  0.181818  0.000000  0.090909     12.000000
  0.272727  0.000000  0.090909     12.000000
  0.363636 -0.000000  0.090909     12.000000
  0.454545  0.000000  0.090909     12.000000
  0.090909  0.090909  0.090909     12.000000
  0.181818  0.090909  0.090909     24.000000
  0.272727  0.090909  0.090909     24.000000
  0.363636  0.090909  0.090909     24.000000
  0.454545  0.090909  0.090909     12.000000
  0.181818  0.181818  0.090909     12.000000
  0.272727  0.181818  0.090909     24.000000
  0.363636  0.181818  0.090909     24.000000
  0.272727  0.272727  0.090909     12.000000
  0.363636  0.272727  0.090909     12.000000
  0.000000  0.000000  0.181818      2.000000
  0.090909  0.000000  0.181818     12.000000
  0.181818  0.000000  0.181818     12.000000
  0.272727  0.000000  0.181818     12.000000
  0.363636 -0.000000  0.181818     12.000000
  0.454545  0.000000  0.181818     12.000000
  0.090909  0.090909  0.181818     12.000000
  0.181818  0.090909  0.181818     24.000000
  0.272727  0.090909  0.181818     24.000000
  0.363636  0.090909  0.181818     24.000000
  0.454545  0.090909  0.181818     12.000000
  0.181818  0.181818  0.181818     12.000000
  0.272727  0.181818  0.181818     24.000000
  0.363636  0.181818  0.181818     24.000000
  0.272727  0.272727  0.181818     12.000000
  0.363636  0.272727  0.181818     12.000000
  0.000000  0.000000  0.272727      2.000000
  0.090909  0.000000  0.272727     12.000000
  0.181818  0.000000  0.272727     12.000000
  0.272727  0.000000  0.272727     12.000000
  0.363636 -0.000000  0.272727     12.000000
  0.454545  0.000000  0.272727     12.000000
  0.090909  0.090909  0.272727     12.000000
  0.181818  0.090909  0.272727     24.000000
  0.272727  0.090909  0.272727     24.000000
  0.363636  0.090909  0.272727     24.000000
  0.454545  0.090909  0.272727     12.000000
  0.181818  0.181818  0.272727     12.000000
  0.272727  0.181818  0.272727     24.000000
  0.363636  0.181818  0.272727     24.000000
  0.272727  0.272727  0.272727     12.000000
  0.363636  0.272727  0.272727     12.000000
  0.000000  0.000000  0.363636      2.000000
  0.090909  0.000000  0.363636     12.000000
  0.181818  0.000000  0.363636     12.000000
  0.272727  0.000000  0.363636     12.000000
  0.363636 -0.000000  0.363636     12.000000
  0.454545  0.000000  0.363636     12.000000
  0.090909  0.090909  0.363636     12.000000
  0.181818  0.090909  0.363636     24.000000
  0.272727  0.090909  0.363636     24.000000
  0.363636  0.090909  0.363636     24.000000
  0.454545  0.090909  0.363636     12.000000
  0.181818  0.181818  0.363636     12.000000
  0.272727  0.181818  0.363636     24.000000
  0.363636  0.181818  0.363636     24.000000
  0.272727  0.272727  0.363636     12.000000
  0.363636  0.272727  0.363636     12.000000
  0.000000  0.000000  0.454545      2.000000
  0.090909  0.000000  0.454545     12.000000
  0.181818  0.000000  0.454545     12.000000
  0.272727  0.000000  0.454545     12.000000
  0.363636 -0.000000  0.454545     12.000000
  0.454545  0.000000  0.454545     12.000000
  0.090909  0.090909  0.454545     12.000000
  0.181818  0.090909  0.454545     24.000000
  0.272727  0.090909  0.454545     24.000000
  0.363636  0.090909  0.454545     24.000000
  0.454545  0.090909  0.454545     12.000000
  0.181818  0.181818  0.454545     12.000000
  0.272727  0.181818  0.454545     24.000000
  0.363636  0.181818  0.454545     24.000000
  0.272727  0.272727  0.454545     12.000000
  0.363636  0.272727  0.454545     12.000000
 
 Following cartesian coordinates:
            Coordinates               Weight
  0.000000  0.000000  0.000000      1.000000
  0.039813  0.022986  0.000000      6.000000
  0.079626  0.045972  0.000000      6.000000
  0.119439  0.068958  0.000000      6.000000
  0.159252  0.091944  0.000000      6.000000
  0.199065  0.114930  0.000000      6.000000
  0.039813  0.068958  0.000000      6.000000
  0.079626  0.091944  0.000000     12.000000
  0.119439  0.114930  0.000000     12.000000
  0.159252  0.137916  0.000000     12.000000
  0.199065  0.160902  0.000000      6.000000
  0.079626  0.137916  0.000000      6.000000
  0.119439  0.160902  0.000000     12.000000
  0.159252  0.183889  0.000000     12.000000
  0.119439  0.206875  0.000000      6.000000
  0.159252  0.229861  0.000000      6.000000
  0.000000  0.000000  0.022182      2.000000
  0.039813  0.022986  0.022182     12.000000
  0.079626  0.045972  0.022182     12.000000
  0.119439  0.068958  0.022182     12.000000
  0.159252  0.091944  0.022182     12.000000
  0.199065  0.114930  0.022182     12.000000
  0.039813  0.068958  0.022182     12.000000
  0.079626  0.091944  0.022182     24.000000
  0.119439  0.114930  0.022182     24.000000
  0.159252  0.137916  0.022182     24.000000
  0.199065  0.160902  0.022182     12.000000
  0.079626  0.137916  0.022182     12.000000
  0.119439  0.160902  0.022182     24.000000
  0.159252  0.183889  0.022182     24.000000
  0.119439  0.206875  0.022182     12.000000
  0.159252  0.229861  0.022182     12.000000
  0.000000  0.000000  0.044364      2.000000
  0.039813  0.022986  0.044364     12.000000
  0.079626  0.045972  0.044364     12.000000
  0.119439  0.068958  0.044364     12.000000
  0.159252  0.091944  0.044364     12.000000
  0.199065  0.114930  0.044364     12.000000
  0.039813  0.068958  0.044364     12.000000
  0.079626  0.091944  0.044364     24.000000
  0.119439  0.114930  0.044364     24.000000
  0.159252  0.137916  0.044364     24.000000
  0.199065  0.160902  0.044364     12.000000
  0.079626  0.137916  0.044364     12.000000
  0.119439  0.160902  0.044364     24.000000
  0.159252  0.183889  0.044364     24.000000
  0.119439  0.206875  0.044364     12.000000
  0.159252  0.229861  0.044364     12.000000
  0.000000  0.000000  0.066545      2.000000
  0.039813  0.022986  0.066545     12.000000
  0.079626  0.045972  0.066545     12.000000
  0.119439  0.068958  0.066545     12.000000
  0.159252  0.091944  0.066545     12.000000
  0.199065  0.114930  0.066545     12.000000
  0.039813  0.068958  0.066545     12.000000
  0.079626  0.091944  0.066545     24.000000
  0.119439  0.114930  0.066545     24.000000
  0.159252  0.137916  0.066545     24.000000
  0.199065  0.160902  0.066545     12.000000
  0.079626  0.137916  0.066545     12.000000
  0.119439  0.160902  0.066545     24.000000
  0.159252  0.183889  0.066545     24.000000
  0.119439  0.206875  0.066545     12.000000
  0.159252  0.229861  0.066545     12.000000
  0.000000  0.000000  0.088727      2.000000
  0.039813  0.022986  0.088727     12.000000
  0.079626  0.045972  0.088727     12.000000
  0.119439  0.068958  0.088727     12.000000
  0.159252  0.091944  0.088727     12.000000
  0.199065  0.114930  0.088727     12.000000
  0.039813  0.068958  0.088727     12.000000
  0.079626  0.091944  0.088727     24.000000
  0.119439  0.114930  0.088727     24.000000
  0.159252  0.137916  0.088727     24.000000
  0.199065  0.160902  0.088727     12.000000
  0.079626  0.137916  0.088727     12.000000
  0.119439  0.160902  0.088727     24.000000
  0.159252  0.183889  0.088727     24.000000
  0.119439  0.206875  0.088727     12.000000
  0.159252  0.229861  0.088727     12.000000
  0.000000  0.000000  0.110909      2.000000
  0.039813  0.022986  0.110909     12.000000
  0.079626  0.045972  0.110909     12.000000
  0.119439  0.068958  0.110909     12.000000
  0.159252  0.091944  0.110909     12.000000
  0.199065  0.114930  0.110909     12.000000
  0.039813  0.068958  0.110909     12.000000
  0.079626  0.091944  0.110909     24.000000
  0.119439  0.114930  0.110909     24.000000
  0.159252  0.137916  0.110909     24.000000
  0.199065  0.160902  0.110909     12.000000
  0.079626  0.137916  0.110909     12.000000
  0.119439  0.160902  0.110909     24.000000
  0.159252  0.183889  0.110909     24.000000
  0.119439  0.206875  0.110909     12.000000
  0.159252  0.229861  0.110909     12.000000
 


--------------------------------------------------------------------------------------------------------




 Dimension of arrays:
   k-points           NKPTS =     96   k-points in BZ     NKDIM =     96   number of bands    NBANDS=     40
   number of dos      NEDOS =    301   number of ions     NIONS =      2
   non local maximal  LDIM  =      6   non local SUM 2l+1 LMDIM =     18
   total plane-waves  NPLWV =   1800
   max r-space proj   IRMAX =      1   max aug-charges    IRDMAX=   3664
   dimension x,y,z NGX =    10 NGY =   10 NGZ =   18
   dimension x,y,z NGXF=    20 NGYF=   20 NGZF=   36
   support grid    NGXF=    20 NGYF=   20 NGZF=   36
   ions per type =               2
   NGX,Y,Z   is equivalent  to a cutoff of   7.28,  7.28,  7.30 a.u.
   NGXF,Y,Z  is equivalent  to a cutoff of  14.56, 14.56, 14.60 a.u.

 SYSTEM =  unknown system                          
 POSCAR =  Fe                                      

 Startparameter for this run:
   NWRITE =      2    write-flag & timer
   PREC   = normal    normal or accurate (medium, high low for compatibility)
   ISTART =      0    job   : 0-new  1-cont  2-samecut
   ICHARG =      1    charge: 1-file 2-atom 10-const
   ISPIN  =      1    spin polarized calculation?
   LNONCOLLINEAR =      F non collinear calculations
   LSORBIT =      F    spin-orbit coupling
   INIWAV =      1    electr: 0-lowe 1-rand  2-diag
   LASPH  =      F    aspherical Exc in radial PAW
   METAGGA=      F    non-selfconsistent MetaGGA calc.

 Electronic Relaxation 1
   ENCUT  =  280.0 eV  20.58 Ry    4.54 a.u.   3.12  3.12  5.59*2*pi/ulx,y,z
   ENINI  =  280.0     initial cutoff
   ENAUG  =  511.4 eV  augmentation charge cutoff
   NELM   =     60;   NELMIN=  2; NELMDL= -5     # of ELM steps 
   EDIFF  = 0.1E-05   stopping-criterion for ELM
   LREAL  =      F    real-space projection
   NLSPLINE    = F    spline interpolate recip. space projectors
   LCOMPAT=      F    compatible to vasp.4.4
   GGA_COMPAT  = T    GGA compatible to vasp.4.4-vasp.4.6
   LMAXPAW     = -100 max onsite density
   LMAXMIX     =    2 max onsite mixed and CHGCAR
   VOSKOWN=      0    Vosko Wilk Nusair interpolation
   ROPT   =    0.00000
 Ionic relaxation
   EDIFFG = 0.1E-04   stopping-criterion for IOM
   NSW    =      0    number of steps for IOM
   NBLOCK =      1;   KBLOCK =      1    inner block; outer block 
   IBRION =     -1    ionic relax: 0-MD 1-quasi-New 2-CG
   NFREE  =      0    steps in history (QN), initial steepest desc. (CG)
   ISIF   =      2    stress and relaxation
   IWAVPR =      0    prediction:  0-non 1-charg 2-wave 3-comb
   ISYM   =      2    0-nonsym 1-usesym 2-fastsym
   LCORR  =      T    Harris-Foulkes like correction to forces

   POTIM  = 0.5000    time-step for ionic-motion
   TEIN   =    0.0    initial temperature
   TEBEG  =    0.0;   TEEND  =   0.0 temperature during run
   SMASS  =  -3.00    Nose mass-parameter (am)
   estimated Nose-frequenzy (Omega)   =  0.10E-29 period in steps = 0.13E+47 mass=  -0.119E-27a.u.
   SCALEE = 1.0000    scale energy and forces
   NPACO  =    256;   APACO  = 16.0  distance and # of slots for P.C.
   PSTRESS=    0.0 pullay stress

  Mass of Ions in am
   POMASS =  55.85
  Ionic Valenz
   ZVAL   =   8.00
  Atomic Wigner-Seitz radii
   RWIGS  =  -1.00
  virtual crystal weights 
   VCA    =   1.00
   NELECT =      16.0000    total number of electrons
   NUPDOWN=      -1.0000    fix difference up-down

 DOS related values:
   EMIN   =  10.00;   EMAX   =-10.00  energy-range for DOS
   EFERMI =   0.00
   ISMEAR =     1;   SIGMA  =   0.20  broadening in eV -4-tet -1-fermi 0-gaus

 Electronic relaxation 2 (details)
   IALGO  =     38    algorithm
   LDIAG  =      T    sub-space diagonalisation (order eigenvalues)
   LSUBROT=      F    optimize rotation matrix (better conditioning)
   TURBO    =      0    0=normal 1=particle mesh
   IRESTART =      0    0=no restart 2=restart with 2 vectors
   NREBOOT  =      0    no. of reboots
   NMIN     =      0    reboot dimension
   EREF     =   0.00    reference energy to select bands
   IMIX   =      4    mixing-type and parameters
     AMIX     =   0.40;   BMIX     =  1.00
     AMIX_MAG =   1.60;   BMIX_MAG =  1.00
     AMIN     =   0.10
     WC   =   100.;   INIMIX=   1;  MIXPRE=   1;  MAXMIX= -45

 Intra band minimization:
   WEIMIN = 0.0000     energy-eigenvalue tresh-hold
   EBREAK =  0.62E-08  absolut break condition
   DEPER  =   0.30     relativ break condition  

   TIME   =   0.40     timestep for ELM

  volume/ion in A,a.u.               =       9.25        62.44
  Fermi-wavevector in a.u.,A,eV,Ry     =   1.559600  2.947217 33.094164  2.432352
  Thomas-Fermi vector in A             =   2.662935
 
 Write flags
   LWAVE        =      T    write WAVECAR
   LDOWNSAMPLE  =      F    k-point downsampling of WAVECAR
   LCHARG       =      T    write CHGCAR
   LVTOT        =      F    write LOCPOT, total local potential
   LVHAR        =      F    write LOCPOT, Hartree potential only
   LELF         =      F    write electronic localiz. function (ELF)
   LORBIT       =      0    0 simple, 1 ext, 2 COOP (PROOUT), +10 PAW based schemes


 Dipole corrections
   LMONO  =      F    monopole corrections only (constant potential shift)
   LDIPOL =      F    correct potential (dipole corrections)
   IDIPOL =      0    1-x, 2-y, 3-z, 4-all directions 
   EPSILON=  1.0000000 bulk dielectric constant

 Exchange correlation treatment:
   GGA     =    PE    GGA type
   LEXCH   =     8    internal setting for exchange type
   VOSKOWN=      0    Vosko Wilk Nusair interpolation
   LHFCALC =     F    Hartree Fock is set to
   LHFONE  =     F    Hartree Fock one center treatment
   AEXX    =    0.0000 exact exchange contribution

 Linear response parameters
   LEPSILON=     F    determine dielectric tensor
   LRPA    =     F    only Hartree local field effects (RPA)
   LNABLA  =     F    use nabla operator in PAW spheres
   LVEL    =     F    velocity operator in full k-point grid
   LINTERFAST=   F  fast interpolation
   KINTER  =     0    interpolate to denser k-point grid
   CSHIFT  =0.1000    complex shift for real part using Kramers Kronig
   OMEGAMAX=  -1.0    maximum frequency
   DEG_THRESHOLD= 0.2000000E-02 threshold for treating states as degnerate
   RTIME   =   -0.100 relaxation time in fs
  (WPLASMAI=    0.000 imaginary part of plasma frequency in eV, 0.658/RTIME)
   DFIELD  = 0.0000000 0.0000000 0.0000000 field for delta impulse in time
 
 Orbital magnetization related:
   ORBITALMAG=     F  switch on orbital magnetization
   LCHIMAG   =     F  perturbation theory with respect to B field
   DQ        =  0.001000  dq finite difference perturbation B field
   LLRAUG    =     F  two centre corrections for induced B field



--------------------------------------------------------------------------------------------------------


 Static calculation
 charge density and potential will be updated during run
 non-spin polarized calculation
 Variant of blocked Davidson
 Davidson routine will perform the subspace rotation
 perform sub-space diagonalisation
    after iterative eigenvector-optimisation
 modified Broyden-mixing scheme, WC =      100.0
 initial mixing is a Kerker type mixing with AMIX =  0.4000 and BMIX =      1.0000
 Hartree-type preconditioning will be used
 using additional bands           32
 reciprocal scheme for non local part
 use partial core corrections
 calculate Harris-corrections to forces 
   (improved forces if not selfconsistent)
 use gradient corrections 
 use of overlap-Matrix (Vanderbilt PP)
 Methfessel and Paxton  Order N= 1 SIGMA  =   0.20


--------------------------------------------------------------------------------------------------------


  energy-cutoff  :      280.00
  volume of cell :       18.51
      direct lattice vectors                 reciprocal lattice vectors
     2.283400000  0.000000000  0.000000000     0.437943418  0.252846750  0.000000000
    -1.141700000  1.977482407  0.000000000     0.000000000  0.505693500  0.000000000
     0.000000000  0.000000000  4.098360000     0.000000000  0.000000000  0.244000039

  length of vectors
     2.283400000  2.283400000  4.098360000     0.505693500  0.505693500  0.244000039


 
 k-points in units of 2pi/SCALE and weight: KPOINTS created by Atomic Simulation Env
   0.00000000  0.00000000  0.00000000       0.001
   0.03981304  0.02298607  0.00000000       0.005
   0.07962608  0.04597214  0.00000000       0.005
   0.11943911  0.06895820  0.00000000       0.005
   0.15925215  0.09194427  0.00000000       0.005
   0.19906519  0.11493034  0.00000000       0.005
   0.03981304  0.06895820  0.00000000       0.005
   0.07962608  0.09194427  0.00000000       0.009
   0.11943911  0.11493034  0.00000000       0.009
   0.15925215  0.13791641  0.00000000       0.009
   0.19906519  0.16090248  0.00000000       0.005
   0.07962608  0.13791641  0.00000000       0.005
   0.11943911  0.16090248  0.00000000       0.009
   0.15925215  0.18388855  0.00000000       0.009
   0.11943911  0.20687461  0.00000000       0.005
   0.15925215  0.22986068  0.00000000       0.005
   0.00000000  0.00000000  0.02218182       0.002
   0.03981304  0.02298607  0.02218182       0.009
   0.07962608  0.04597214  0.02218182       0.009
   0.11943911  0.06895820  0.02218182       0.009
   0.15925215  0.09194427  0.02218182       0.009
   0.19906519  0.11493034  0.02218182       0.009
   0.03981304  0.06895820  0.02218182       0.009
   0.07962608  0.09194427  0.02218182       0.018
   0.11943911  0.11493034  0.02218182       0.018
   0.15925215  0.13791641  0.02218182       0.018
   0.19906519  0.16090248  0.02218182       0.009
   0.07962608  0.13791641  0.02218182       0.009
   0.11943911  0.16090248  0.02218182       0.018
   0.15925215  0.18388855  0.02218182       0.018
   0.11943911  0.20687461  0.02218182       0.009
   0.15925215  0.22986068  0.02218182       0.009
   0.00000000  0.00000000  0.04436364       0.002
   0.03981304  0.02298607  0.04436364       0.009
   0.07962608  0.04597214  0.04436364       0.009
   0.11943911  0.06895820  0.04436364       0.009
   0.15925215  0.09194427  0.04436364       0.009
   0.19906519  0.11493034  0.04436364       0.009
   0.03981304  0.06895820  0.04436364       0.009
   0.07962608  0.09194427  0.04436364       0.018
   0.11943911  0.11493034  0.04436364       0.018
   0.15925215  0.13791641  0.04436364       0.018
   0.19906519  0.16090248  0.04436364       0.009
   0.07962608  0.13791641  0.04436364       0.009
   0.11943911  0.16090248  0.04436364       0.018
   0.15925215  0.18388855  0.04436364       0.018
   0.11943911  0.20687461  0.04436364       0.009
   0.15925215  0.22986068  0.04436364       0.009
   0.00000000  0.00000000  0.06654547       0.002
   0.03981304  0.02298607  0.06654547       0.009
   0.07962608  0.04597214  0.06654547       0.009
   0.11943911  0.06895820  0.06654547       0.009
   0.15925215  0.09194427  0.06654547       0.009
   0.19906519  0.11493034  0.06654547       0.009
   0.03981304  0.06895820  0.06654547       0.009
   0.07962608  0.09194427  0.06654547       0.018
   0.11943911  0.11493034  0.06654547       0.018
   0.15925215  0.13791641  0.06654547       0.018
   0.19906519  0.16090248  0.06654547       0.009
   0.07962608  0.13791641  0.06654547       0.009
   0.11943911  0.16090248  0.06654547       0.018
   0.15925215  0.18388855  0.06654547       0.018
   0.11943911  0.20687461  0.06654547       0.009
   0.15925215  0.22986068  0.06654547       0.009
   0.00000000  0.00000000  0.08872729       0.002
   0.03981304  0.02298607  0.08872729       0.009
   0.07962608  0.04597214  0.08872729       0.009
   0.11943911  0.06895820  0.08872729       0.009
   0.15925215  0.09194427  0.08872729       0.009
   0.19906519  0.11493034  0.08872729       0.009
   0.03981304  0.06895820  0.08872729       0.009
   0.07962608  0.09194427  0.08872729       0.018
   0.11943911  0.11493034  0.08872729       0.018
   0.15925215  0.13791641  0.08872729       0.018
   0.19906519  0.16090248  0.08872729       0.009
   0.07962608  0.13791641  0.08872729       0.009
   0.11943911  0.16090248  0.08872729       0.018
   0.15925215  0.18388855  0.08872729       0.018
   0.11943911  0.20687461  0.08872729       0.009
   0.15925215  0.22986068  0.08872729       0.009
   0.00000000  0.00000000  0.11090911       0.002
   0.03981304  0.02298607  0.11090911       0.009
   0.07962608  0.04597214  0.11090911       0.009
   0.11943911  0.06895820  0.11090911       0.009
   0.15925215  0.09194427  0.11090911       0.009
   0.19906519  0.11493034  0.11090911       0.009
   0.03981304  0.06895820  0.11090911       0.009
   0.07962608  0.09194427  0.11090911       0.018
   0.11943911  0.11493034  0.11090911       0.018
   0.15925215  0.13791641  0.11090911       0.018
   0.19906519  0.16090248  0.11090911       0.009
   0.07962608  0.13791641  0.11090911       0.009
   0.11943911  0.16090248  0.11090911       0.018
   0.15925215  0.18388855  0.11090911       0.018
   0.11943911  0.20687461  0.11090911       0.009
   0.15925215  0.22986068  0.11090911       0.009
 
 k-points in reciprocal lattice and weights: KPOINTS created by Atomic Simulation Env
   0.00000000  0.00000000  0.00000000       0.001
   0.09090909  0.00000000  0.00000000       0.005
   0.18181818  0.00000000  0.00000000       0.005
   0.27272727  0.00000000  0.00000000       0.005
   0.36363636 -0.00000000  0.00000000       0.005
   0.45454545  0.00000000  0.00000000       0.005
   0.09090909  0.09090909  0.00000000       0.005
   0.18181818  0.09090909  0.00000000       0.009
   0.27272727  0.09090909  0.00000000       0.009
   0.36363636  0.09090909  0.00000000       0.009
   0.45454545  0.09090909  0.00000000       0.005
   0.18181818  0.18181818  0.00000000       0.005
   0.27272727  0.18181818  0.00000000       0.009
   0.36363636  0.18181818  0.00000000       0.009
   0.27272727  0.27272727  0.00000000       0.005
   0.36363636  0.27272727  0.00000000       0.005
   0.00000000  0.00000000  0.09090909       0.002
   0.09090909  0.00000000  0.09090909       0.009
   0.18181818  0.00000000  0.09090909       0.009
   0.27272727  0.00000000  0.09090909       0.009
   0.36363636 -0.00000000  0.09090909       0.009
   0.45454545  0.00000000  0.09090909       0.009
   0.09090909  0.09090909  0.09090909       0.009
   0.18181818  0.09090909  0.09090909       0.018
   0.27272727  0.09090909  0.09090909       0.018
   0.36363636  0.09090909  0.09090909       0.018
   0.45454545  0.09090909  0.09090909       0.009
   0.18181818  0.18181818  0.09090909       0.009
   0.27272727  0.18181818  0.09090909       0.018
   0.36363636  0.18181818  0.09090909       0.018
   0.27272727  0.27272727  0.09090909       0.009
   0.36363636  0.27272727  0.09090909       0.009
   0.00000000  0.00000000  0.18181818       0.002
   0.09090909  0.00000000  0.18181818       0.009
   0.18181818  0.00000000  0.18181818       0.009
   0.27272727  0.00000000  0.18181818       0.009
   0.36363636 -0.00000000  0.18181818       0.009
   0.45454545  0.00000000  0.18181818       0.009
   0.09090909  0.09090909  0.18181818       0.009
   0.18181818  0.09090909  0.18181818       0.018
   0.27272727  0.09090909  0.18181818       0.018
   0.36363636  0.09090909  0.18181818       0.018
   0.45454545  0.09090909  0.18181818       0.009
   0.18181818  0.18181818  0.18181818       0.009
   0.27272727  0.18181818  0.18181818       0.018
   0.36363636  0.18181818  0.18181818       0.018
   0.27272727  0.27272727  0.18181818       0.009
   0.36363636  0.27272727  0.18181818       0.009
   0.00000000  0.00000000  0.27272727       0.002
   0.09090909  0.00000000  0.27272727       0.009
   0.18181818  0.00000000  0.27272727       0.009
   0.27272727  0.00000000  0.27272727       0.009
   0.36363636 -0.00000000  0.27272727       0.009
   0.45454545  0.00000000  0.27272727       0.009
   0.09090909  0.09090909  0.27272727       0.009
   0.18181818  0.09090909  0.27272727       0.018
   0.27272727  0.09090909  0.27272727       0.018
   0.36363636  0.09090909  0.27272727       0.018
   0.45454545  0.09090909  0.27272727       0.009
   0.18181818  0.18181818  0.27272727       0.009
   0.27272727  0.18181818  0.27272727       0.018
   0.36363636  0.18181818  0.27272727       0.018
   0.27272727  0.27272727  0.27272727       0.009
   0.36363636  0.27272727  0.27272727       0.009
   0.00000000  0.00000000  0.36363636       0.002
   0.09090909  0.00000000  0.36363636       0.009
   0.18181818  0.00000000  0.36363636       0.009
   0.27272727  0.00000000  0.36363636       0.009
   0.36363636 -0.00000000  0.36363636       0.009
   0.45454545  0.00000000  0.36363636       0.009
   0.09090909  0.09090909  0.36363636       0.009
   0.18181818  0.09090909  0.36363636       0.018
   0.27272727  0.09090909  0.36363636       0.018
   0.36363636  0.09090909  0.36363636       0.018
   0.45454545  0.09090909  0.36363636       0.009
   0.18181818  0.18181818  0.36363636       0.009
   0.27272727  0.18181818  0.36363636       0.018
   0.36363636  0.18181818  0.36363636       0.018
   0.27272727  0.27272727  0.36363636       0.009
   0.36363636  0.27272727  0.36363636       0.009
   0.00000000  0.00000000  0.45454545       0.002
   0.09090909  0.00000000  0.45454545       0.009
   0.18181818  0.00000000  0.45454545       0.009
   0.27272727  0.00000000  0.45454545       0.009
   0.36363636 -0.00000000  0.45454545       0.009
   0.45454545  0.00000000  0.45454545       0.009
   0.09090909  0.09090909  0.45454545       0.009
   0.18181818  0.09090909  0.45454545       0.018
   0.27272727  0.09090909  0.45454545       0.018
   0.36363636  0.09090909  0.45454545       0.018
   0.45454545  0.09090909  0.45454545       0.009
   0.18181818  0.18181818  0.45454545       0.009
   0.27272727  0.18181818  0.45454545       0.018
   0.36363636  0.18181818  0.45454545       0.018
   0.27272727  0.27272727  0.45454545       0.009
   0.36363636  0.27272727  0.45454545       0.009
 
 position of ions in fractional coordinates (direct lattice) 
   0.00000000  0.00000000  0.00000000
   0.33333333  0.66666667  0.50000000
 
 position of ions in cartesian coordinates  (Angst):
   0.00000000  0.00000000  0.00000000
   0.00000000  1.31832160  2.04918000
 


--------------------------------------------------------------------------------------------------------


 k-point   1 :   0.0000 0.0000 0.0000  plane waves:     209
 k-point   2 :   0.0909 0.0000 0.0000  plane waves:     193
 k-point   3 :   0.1818 0.0000 0.0000  plane waves:     199
 k-point   4 :   0.2727 0.0000 0.0000  plane waves:     199
 k-point   5 :   0.3636-0.0000 0.0000  plane waves:     196
 k-point   6 :   0.4545 0.0000 0.0000  plane waves:     200
 k-point   7 :   0.0909 0.0909 0.0000  plane waves:     197
 k-point   8 :   0.1818 0.0909 0.0000  plane waves:     196
 k-point   9 :   0.2727 0.0909 0.0000  plane waves:     195
 k-point  10 :   0.3636 0.0909 0.0000  plane waves:     195
 k-point  11 :   0.4545 0.0909 0.0000  plane waves:     202
 k-point  12 :   0.1818 0.1818 0.0000  plane waves:     189
 k-point  13 :   0.2727 0.1818 0.0000  plane waves:     199
 k-point  14 :   0.3636 0.1818 0.0000  plane waves:     199
 k-point  15 :   0.2727 0.2727 0.0000  plane waves:     199
 k-point  16 :   0.3636 0.2727 0.0000  plane waves:     203
 k-point  17 :   0.0000 0.0000 0.0909  plane waves:     209
 k-point  18 :   0.0909 0.0000 0.0909  plane waves:     194
 k-point  19 :   0.1818 0.0000 0.0909  plane waves:     200
 k-point  20 :   0.2727 0.0000 0.0909  plane waves:     195
 k-point  21 :   0.3636-0.0000 0.0909  plane waves:     196
 k-point  22 :   0.4545 0.0000 0.0909  plane waves:     200
 k-point  23 :   0.0909 0.0909 0.0909  plane waves:     194
 k-point  24 :   0.1818 0.0909 0.0909  plane waves:     199
 k-point  25 :   0.2727 0.0909 0.0909  plane waves:     195
 k-point  26 :   0.3636 0.0909 0.0909  plane waves:     198
 k-point  27 :   0.4545 0.0909 0.0909  plane waves:     201
 k-point  28 :   0.1818 0.1818 0.0909  plane waves:     195
 k-point  29 :   0.2727 0.1818 0.0909  plane waves:     197
 k-point  30 :   0.3636 0.1818 0.0909  plane waves:     201
 k-point  31 :   0.2727 0.2727 0.0909  plane waves:     202
 k-point  32 :   0.3636 0.2727 0.0909  plane waves:     201
 k-point  33 :   0.0000 0.0000 0.1818  plane waves:     197
 k-point  34 :   0.0909 0.0000 0.1818  plane waves:     193
 k-point  35 :   0.1818 0.0000 0.1818  plane waves:     197
 k-point  36 :   0.2727 0.0000 0.1818  plane waves:     195
 k-point  37 :   0.3636-0.0000 0.1818  plane waves:     199
 k-point  38 :   0.4545 0.0000 0.1818  plane waves:     201
 k-point  39 :   0.0909 0.0909 0.1818  plane waves:     192
 k-point  40 :   0.1818 0.0909 0.1818  plane waves:     197
 k-point  41 :   0.2727 0.0909 0.1818  plane waves:     197
 k-point  42 :   0.3636 0.0909 0.1818  plane waves:     199
 k-point  43 :   0.4545 0.0909 0.1818  plane waves:     197
 k-point  44 :   0.1818 0.1818 0.1818  plane waves:     193
 k-point  45 :   0.2727 0.1818 0.1818  plane waves:     197
 k-point  46 :   0.3636 0.1818 0.1818  plane waves:     203
 k-point  47 :   0.2727 0.2727 0.1818  plane waves:     200
 k-point  48 :   0.3636 0.2727 0.1818  plane waves:     200
 k-point  49 :   0.0000 0.0000 0.2727  plane waves:     197
 k-point  50 :   0.0909 0.0000 0.2727  plane waves:     190
 k-point  51 :   0.1818 0.0000 0.2727  plane waves:     191
 k-point  52 :   0.2727 0.0000 0.2727  plane waves:     195
 k-point  53 :   0.3636-0.0000 0.2727  plane waves:     196
 k-point  54 :   0.4545 0.0000 0.2727  plane waves:     199
 k-point  55 :   0.0909 0.0909 0.2727  plane waves:     192
 k-point  56 :   0.1818 0.0909 0.2727  plane waves:     195
 k-point  57 :   0.2727 0.0909 0.2727  plane waves:     196
 k-point  58 :   0.3636 0.0909 0.2727  plane waves:     198
 k-point  59 :   0.4545 0.0909 0.2727  plane waves:     198
 k-point  60 :   0.1818 0.1818 0.2727  plane waves:     198
 k-point  61 :   0.2727 0.1818 0.2727  plane waves:     200
 k-point  62 :   0.3636 0.1818 0.2727  plane waves:     202
 k-point  63 :   0.2727 0.2727 0.2727  plane waves:     203
 k-point  64 :   0.3636 0.2727 0.2727  plane waves:     200
 k-point  65 :   0.0000 0.0000 0.3636  plane waves:     191
 k-point  66 :   0.0909 0.0000 0.3636  plane waves:     192
 k-point  67 :   0.1818 0.0000 0.3636  plane waves:     187
 k-point  68 :   0.2727 0.0000 0.3636  plane waves:     192
 k-point  69 :   0.3636-0.0000 0.3636  plane waves:     195
 k-point  70 :   0.4545 0.0000 0.3636  plane waves:     197
 k-point  71 :   0.0909 0.0909 0.3636  plane waves:     190
 k-point  72 :   0.1818 0.0909 0.3636  plane waves:     191
 k-point  73 :   0.2727 0.0909 0.3636  plane waves:     198
 k-point  74 :   0.3636 0.0909 0.3636  plane waves:     198
 k-point  75 :   0.4545 0.0909 0.3636  plane waves:     198
 k-point  76 :   0.1818 0.1818 0.3636  plane waves:     197
 k-point  77 :   0.2727 0.1818 0.3636  plane waves:     201
 k-point  78 :   0.3636 0.1818 0.3636  plane waves:     201
 k-point  79 :   0.2727 0.2727 0.3636  plane waves:     203
 k-point  80 :   0.3636 0.2727 0.3636  plane waves:     205
 k-point  81 :   0.0000 0.0000 0.4545  plane waves:     192
 k-point  82 :   0.0909 0.0000 0.4545  plane waves:     191
 k-point  83 :   0.1818 0.0000 0.4545  plane waves:     188
 k-point  84 :   0.2727 0.0000 0.4545  plane waves:     190
 k-point  85 :   0.3636-0.0000 0.4545  plane waves:     197
 k-point  86 :   0.4545 0.0000 0.4545  plane waves:     196
 k-point  87 :   0.0909 0.0909 0.4545  plane waves:     187
 k-point  88 :   0.1818 0.0909 0.4545  plane waves:     191
 k-point  89 :   0.2727 0.0909 0.4545  plane waves:     199
 k-point  90 :   0.3636 0.0909 0.4545  plane waves:     198
 k-point  91 :   0.4545 0.0909 0.4545  plane waves:     196
 k-point  92 :   0.1818 0.1818 0.4545  plane waves:     196
 k-point  93 :   0.2727 0.1818 0.4545  plane waves:     198
 k-point  94 :   0.3636 0.1818 0.4545  plane waves:     198
 k-point  95 :   0.2727 0.2727 0.4545  plane waves:     205
 k-point  96 :   0.3636 0.2727 0.4545  plane waves:     206

 maximum number of plane-waves:       209
 maximum index in each direction: 
   IXMAX=    3   IYMAX=    3   IZMAX=    5
   IXMIN=   -3   IYMIN=   -3   IZMIN=   -6


 total amount of memory used by VASP MPI-rank0    48790. kBytes
=======================================================================

   base      :      30000. kBytes
   nonl-proj :       2895. kBytes
   grid      :        812. kBytes
   one-center:         31. kBytes
   wavefun   :      15052. kBytes
 
     INWAV:  cpu time    0.0000: real time    0.0000
 Broyden mixing: mesh for mixing (old mesh)
   NGX =  7   NGY =  7   NGZ = 11
  (NGX  = 20   NGY  = 20   NGZ  = 36)
  gives a total of    539 points

 initial charge density was supplied:
 charge density of overlapping atoms calculated
 number of electron      16.0000000 magnetization 
 keeping initial charge density in first step


--------------------------------------------------------------------------------------------------------


 Maximum index for augmentation-charges         3360 (set IRDMAX)


--------------------------------------------------------------------------------------------------------


 First call to EWALD:  gamma=   0.670
 Maximum number of real-space cells 4x 4x 2
 Maximum number of reciprocal cells 2x 2x 4

    FEWALD:  cpu time    0.0009: real time    0.0009


--------------------------------------- Iteration      1(   1)  ---------------------------------------


    POTLOK:  cpu time    0.0036: real time    0.0036
    SETDIJ:  cpu time    0.0022: real time    0.0022
     EDDAV:  cpu time    0.7906: real time    0.8117
       DOS:  cpu time    0.0056: real time    0.0056
    --------------------------------------------
      LOOP:  cpu time    0.8020: real time    0.8230

 eigenvalue-minimisations  :  9464
 total energy-change (2. order) : 0.5958624E+02  (-0.2501080E+03)
 number of electron      16.0000000 magnetization 
 augmentation part       16.0000000 magnetization 

 Free energy of the ion-electron system (eV)
  ---------------------------------------------------
  alpha Z        PSCENC =       149.38943444
  Ewald energy   TEWEN  =     -1266.13051876
  -Hartree energ DENC   =      -193.75277648
  -exchange      EXHF   =         0.00000000
  -V(xc)+E(xc)   XCENC  =         9.13178358
  PAW double counting   =      1109.69170683    -1125.09647265
  entropy T*S    EENTRO =         0.00105251
  eigenvalues    EBANDS =       187.77712726
  atomic energy  EATOM  =      1188.57490811
  Solvation  Ediel_sol  =         0.00000000
  ---------------------------------------------------
  free energy    TOTEN  =        59.58624484 eV

  energy without entropy =       59.58519233  energy(sigma->0) =       59.58589400


--------------------------------------------------------------------------------------------------------




--------------------------------------- Iteration      1(   2)  ---------------------------------------


     EDDAV:  cpu time    0.6797: real time    0.6797
       DOS:  cpu time    0.0055: real time    0.0055
    --------------------------------------------
      LOOP:  cpu time    0.6852: real time    0.6852

 eigenvalue-minimisations  :  7928
 total energy-change (2. order) :-0.7407128E+02  (-0.6319820E+02)
 number of electron      16.0000000 magnetization 
 augmentation part       16.0000000 magnetization 

 Free energy of the ion-electron system (eV)
  ---------------------------------------------------
  alpha Z        PSCENC =       149.38943444
  Ewald energy   TEWEN  =     -1266.13051876
  -Hartree energ DENC   =      -193.75277648
  -exchange      EXHF   =         0.00000000
  -V(xc)+E(xc)   XCENC  =         9.13178358
  PAW double counting   =      1109.69170683    -1125.09647265
  entropy T*S    EENTRO =        -0.00056626
  eigenvalues    EBANDS =       113.70746951
  atomic energy  EATOM  =      1188.57490811
  Solvation  Ediel_sol  =         0.00000000
  ---------------------------------------------------
  free energy    TOTEN  =       -14.48503169 eV

  energy without entropy =      -14.48446542  energy(sigma->0) =      -14.48484293


--------------------------------------------------------------------------------------------------------




--------------------------------------- Iteration      1(   3)  ---------------------------------------


     EDDAV:  cpu time    0.7848: real time    0.7848
       DOS:  cpu time    0.0066: real time    0.0066
    --------------------------------------------
      LOOP:  cpu time    0.7913: real time    0.7914

 eigenvalue-minimisations  :  9600
 total energy-change (2. order) :-0.4113217E+01  (-0.3939508E+01)
 number of electron      16.0000000 magnetization 
 augmentation part       16.0000000 magnetization 

 Free energy of the ion-electron system (eV)
  ---------------------------------------------------
  alpha Z        PSCENC =       149.38943444
  Ewald energy   TEWEN  =     -1266.13051876
  -Hartree energ DENC   =      -193.75277648
  -exchange      EXHF   =         0.00000000
  -V(xc)+E(xc)   XCENC  =         9.13178358
  PAW double counting   =      1109.69170683    -1125.09647265
  entropy T*S    EENTRO =         0.00027857
  eigenvalues    EBANDS =       109.59340792
  atomic energy  EATOM  =      1188.57490811
  Solvation  Ediel_sol  =         0.00000000
  ---------------------------------------------------
  free energy    TOTEN  =       -18.59824844 eV

  energy without entropy =      -18.59852701  energy(sigma->0) =      -18.59834130


--------------------------------------------------------------------------------------------------------




--------------------------------------- Iteration      1(   4)  ---------------------------------------


     EDDAV:  cpu time    0.7341: real time    0.7341
       DOS:  cpu time    0.0065: real time    0.0065
    --------------------------------------------
      LOOP:  cpu time    0.7405: real time    0.7406

 eigenvalue-minimisations  :  8968
 total energy-change (2. order) :-0.1533223E-01  (-0.1532562E-01)
 number of electron      16.0000000 magnetization 
 augmentation part       16.0000000 magnetization 

 Free energy of the ion-electron system (eV)
  ---------------------------------------------------
  alpha Z        PSCENC =       149.38943444
  Ewald energy   TEWEN  =     -1266.13051876
  -Hartree energ DENC   =      -193.75277648
  -exchange      EXHF   =         0.00000000
  -V(xc)+E(xc)   XCENC  =         9.13178358
  PAW double counting   =      1109.69170683    -1125.09647265
  entropy T*S    EENTRO =         0.00029375
  eigenvalues    EBANDS =       109.57806051
  atomic energy  EATOM  =      1188.57490811
  Solvation  Ediel_sol  =         0.00000000
  ---------------------------------------------------
  free energy    TOTEN  =       -18.61358067 eV

  energy without entropy =      -18.61387442  energy(sigma->0) =      -18.61367859


--------------------------------------------------------------------------------------------------------




--------------------------------------- Iteration      1(   5)  ---------------------------------------


     EDDAV:  cpu time    0.7671: real time    0.7671
       DOS:  cpu time    0.0065: real time    0.0065
    CHARGE:  cpu time    0.0196: real time    0.0196
    MIXING:  cpu time    0.0001: real time    0.0001
    --------------------------------------------
      LOOP:  cpu time    0.7932: real time    0.7932

 eigenvalue-minimisations  :  9392
 total energy-change (2. order) :-0.1121884E-04  (-0.1121761E-04)
 number of electron      15.9999939 magnetization 
 augmentation part        7.1686436 magnetization 

 Broyden mixing:
  rms(total) = 0.18868E+01    rms(broyden)= 0.18868E+01
  rms(prec ) = 0.29362E+01
  weight for this iteration     100.00

 Free energy of the ion-electron system (eV)
  ---------------------------------------------------
  alpha Z        PSCENC =       149.38943444
  Ewald energy   TEWEN  =     -1266.13051876
  -Hartree energ DENC   =      -193.75277648
  -exchange      EXHF   =         0.00000000
  -V(xc)+E(xc)   XCENC  =         9.13178358
  PAW double counting   =      1109.69170683    -1125.09647265
  entropy T*S    EENTRO =         0.00029377
  eigenvalues    EBANDS =       109.57804927
  atomic energy  EATOM  =      1188.57490811
  Solvation  Ediel_sol  =         0.00000000
  ---------------------------------------------------
  free energy    TOTEN  =       -18.61359189 eV

  energy without entropy =      -18.61388566  energy(sigma->0) =      -18.61368981


--------------------------------------------------------------------------------------------------------




--------------------------------------- Iteration      1(   6)  ---------------------------------------


    POTLOK:  cpu time    0.0033: real time    0.0033
    SETDIJ:  cpu time    0.0021: real time    0.0021
     EDDAV:  cpu time    0.8966: real time    0.8967
       DOS:  cpu time    0.0065: real time    0.0065
    CHARGE:  cpu time    0.0193: real time    0.0193
    MIXING:  cpu time    0.0002: real time    0.0002
    --------------------------------------------
      LOOP:  cpu time    0.9280: real time    0.9281

 eigenvalue-minimisations  : 11272
 total energy-change (2. order) : 0.2659497E+01  (-0.1478448E+00)
 number of electron      15.9999927 magnetization 
 augmentation part        8.3681759 magnetization 

 Broyden mixing:
  rms(total) = 0.16192E+00    rms(broyden)= 0.16181E+00
  rms(prec ) = 0.23039E+00
  weight for this iteration     100.00

 eigenvalues of (default mixing * dielectric matrix)
  average eigenvalue GAMMA=   1.0039
  1.0039

 Free energy of the ion-electron system (eV)
  ---------------------------------------------------
  alpha Z        PSCENC =       149.38943444
  Ewald energy   TEWEN  =     -1266.13051876
  -Hartree energ DENC   =      -162.40975229
  -exchange      EXHF   =         0.00000000
  -V(xc)+E(xc)   XCENC  =         7.59365257
  PAW double counting   =      1316.18160126    -1328.17734486
  entropy T*S    EENTRO =         0.00194524
  eigenvalues    EBANDS =        79.02197943
  atomic energy  EATOM  =      1188.57490811
  Solvation  Ediel_sol  =         0.00000000
  ---------------------------------------------------
  free energy    TOTEN  =       -15.95409486 eV

  energy without entropy =      -15.95604010  energy(sigma->0) =      -15.95474327


--------------------------------------------------------------------------------------------------------




--------------------------------------- Iteration      1(   7)  ---------------------------------------


    POTLOK:  cpu time    0.0033: real time    0.0033
    SETDIJ:  cpu time    0.0021: real time    0.0021
     EDDAV:  cpu time    0.7926: real time    0.7927
       DOS:  cpu time    0.0067: real time    0.0067
    CHARGE:  cpu time    0.0211: real time    0.0211
    MIXING:  cpu time    0.0002: real time    0.0002
    --------------------------------------------
      LOOP:  cpu time    0.8260: real time    0.8260

 eigenvalue-minimisations  :  9840
 total energy-change (2. order) : 0.1294757E+00  (-0.7127531E-02)
 number of electron      15.9999928 magnetization 
 augmentation part        8.1786941 magnetization 

 Broyden mixing:
  rms(total) = 0.14293E+00    rms(broyden)= 0.14293E+00
  rms(prec ) = 0.21519E+00
  weight for this iteration     100.00

 eigenvalues of (default mixing * dielectric matrix)
  average eigenvalue GAMMA=   1.1331
  0.8090  1.4572

 Free energy of the ion-electron system (eV)
  ---------------------------------------------------
  alpha Z        PSCENC =       149.38943444
  Ewald energy   TEWEN  =     -1266.13051876
  -Hartree energ DENC   =      -164.29104234
  -exchange      EXHF   =         0.00000000
  -V(xc)+E(xc)   XCENC  =         7.71412854
  PAW double counting   =      1419.05414636    -1434.45972932
  entropy T*S    EENTRO =         0.00174030
  eigenvalues    EBANDS =        84.32231346
  atomic energy  EATOM  =      1188.57490811
  Solvation  Ediel_sol  =         0.00000000
  ---------------------------------------------------
  free energy    TOTEN  =       -15.82461919 eV

  energy without entropy =      -15.82635949  energy(sigma->0) =      -15.82519929


--------------------------------------------------------------------------------------------------------




--------------------------------------- Iteration      1(   8)  ---------------------------------------


    POTLOK:  cpu time    0.0034: real time    0.0034
    SETDIJ:  cpu time    0.0021: real time    0.0021
     EDDAV:  cpu time    0.8382: real time    0.8382
       DOS:  cpu time    0.0065: real time    0.0065
    CHARGE:  cpu time    0.0190: real time    0.0190
    MIXING:  cpu time    0.0002: real time    0.0002
    --------------------------------------------
      LOOP:  cpu time    0.8694: real time    0.8695

 eigenvalue-minimisations  : 10344
 total energy-change (2. order) : 0.3381486E-01  (-0.2495064E-03)
 number of electron      15.9999928 magnetization 
 augmentation part        8.2045171 magnetization 

 Broyden mixing:
  rms(total) = 0.55671E-01    rms(broyden)= 0.55670E-01
  rms(prec ) = 0.80545E-01
  weight for this iteration     100.00

 eigenvalues of (default mixing * dielectric matrix)
  average eigenvalue GAMMA=   1.5142
  2.6439  1.0592  0.8394

 Free energy of the ion-electron system (eV)
  ---------------------------------------------------
  alpha Z        PSCENC =       149.38943444
  Ewald energy   TEWEN  =     -1266.13051876
  -Hartree energ DENC   =      -161.90747675
  -exchange      EXHF   =         0.00000000
  -V(xc)+E(xc)   XCENC  =         7.61860550
  PAW double counting   =      1517.82033173    -1535.03995397
  entropy T*S    EENTRO =         0.00180539
  eigenvalues    EBANDS =        83.88206000
  atomic energy  EATOM  =      1188.57490811
  Solvation  Ediel_sol  =         0.00000000
  ---------------------------------------------------
  free energy    TOTEN  =       -15.79080433 eV

  energy without entropy =      -15.79260971  energy(sigma->0) =      -15.79140612


--------------------------------------------------------------------------------------------------------




--------------------------------------- Iteration      1(   9)  ---------------------------------------


    POTLOK:  cpu time    0.0034: real time    0.0034
    SETDIJ:  cpu time    0.0022: real time    0.0022
     EDDAV:  cpu time    0.8570: real time    0.8571
       DOS:  cpu time    0.0064: real time    0.0064
    CHARGE:  cpu time    0.0206: real time    0.0206
    MIXING:  cpu time    0.0003: real time    0.0003
    --------------------------------------------
      LOOP:  cpu time    0.8898: real time    0.8899

 eigenvalue-minimisations  : 10712
 total energy-change (2. order) : 0.7546420E-02  (-0.7728247E-04)
 number of electron      15.9999928 magnetization 
 augmentation part        8.2143730 magnetization 

 Broyden mixing:
  rms(total) = 0.55974E-02    rms(broyden)= 0.55961E-02
  rms(prec ) = 0.70611E-02
  weight for this iteration     100.00

 eigenvalues of (default mixing * dielectric matrix)
  average eigenvalue GAMMA=   1.5667
  2.6805  0.8438  0.9849  1.7574

 Free energy of the ion-electron system (eV)
  ---------------------------------------------------
  alpha Z        PSCENC =       149.38943444
  Ewald energy   TEWEN  =     -1266.13051876
  -Hartree energ DENC   =      -160.28414536
  -exchange      EXHF   =         0.00000000
  -V(xc)+E(xc)   XCENC  =         7.55755925
  PAW double counting   =      1602.65783964    -1621.36265611
  entropy T*S    EENTRO =         0.00181870
  eigenvalues    EBANDS =        83.81250218
  atomic energy  EATOM  =      1188.57490811
  Solvation  Ediel_sol  =         0.00000000
  ---------------------------------------------------
  free energy    TOTEN  =       -15.78325791 eV

  energy without entropy =      -15.78507661  energy(sigma->0) =      -15.78386414


--------------------------------------------------------------------------------------------------------




--------------------------------------- Iteration      1(  10)  ---------------------------------------


    POTLOK:  cpu time    0.0034: real time    0.0034
    SETDIJ:  cpu time    0.0021: real time    0.0021
     EDDAV:  cpu time    0.7457: real time    0.7457
       DOS:  cpu time    0.0068: real time    0.0068
    CHARGE:  cpu time    0.0196: real time    0.0196
    MIXING:  cpu time    0.0003: real time    0.0003
    --------------------------------------------
      LOOP:  cpu time    0.7778: real time    0.7778

 eigenvalue-minimisations  :  8584
 total energy-change (2. order) :-0.2497774E-04  (-0.2405039E-05)
 number of electron      15.9999928 magnetization 
 augmentation part        8.2143289 magnetization 

 Broyden mixing:
  rms(total) = 0.25707E-02    rms(broyden)= 0.25691E-02
  rms(prec ) = 0.36384E-02
  weight for this iteration     100.00

 eigenvalues of (default mixing * dielectric matrix)
  average eigenvalue GAMMA=   1.6481
  2.5877  2.4833  0.8423  1.0038  1.3235

 Free energy of the ion-electron system (eV)
  ---------------------------------------------------
  alpha Z        PSCENC =       149.38943444
  Ewald energy   TEWEN  =     -1266.13051876
  -Hartree energ DENC   =      -160.33024263
  -exchange      EXHF   =         0.00000000
  -V(xc)+E(xc)   XCENC  =         7.56060112
  PAW double counting   =      1605.36053445    -1624.01492112
  entropy T*S    EENTRO =         0.00181735
  eigenvalues    EBANDS =        83.80510416
  atomic energy  EATOM  =      1188.57490811
  Solvation  Ediel_sol  =         0.00000000
  ---------------------------------------------------
  free energy    TOTEN  =       -15.78328289 eV

  energy without entropy =      -15.78510024  energy(sigma->0) =      -15.78388867


--------------------------------------------------------------------------------------------------------




--------------------------------------- Iteration      1(  11)  ---------------------------------------


    POTLOK:  cpu time    0.0034: real time    0.0034
    SETDIJ:  cpu time    0.0022: real time    0.0022
     EDDAV:  cpu time    0.7340: real time    0.7341
       DOS:  cpu time    0.0066: real time    0.0065
    CHARGE:  cpu time    0.0201: real time    0.0201
    MIXING:  cpu time    0.0002: real time    0.0002
    --------------------------------------------
      LOOP:  cpu time    0.7664: real time    0.7665

 eigenvalue-minimisations  :  8720
 total energy-change (2. order) : 0.1586952E-04  (-0.3508473E-07)
 number of electron      15.9999928 magnetization 
 augmentation part        8.2140408 magnetization 

 Broyden mixing:
  rms(total) = 0.22096E-03    rms(broyden)= 0.22089E-03
  rms(prec ) = 0.37331E-03
  weight for this iteration     100.00

 eigenvalues of (default mixing * dielectric matrix)
  average eigenvalue GAMMA=   1.5681
  2.5813  2.5813  0.8422  1.0046  1.0046  1.3944

 Free energy of the ion-electron system (eV)
  ---------------------------------------------------
  alpha Z        PSCENC =       149.38943444
  Ewald energy   TEWEN  =     -1266.13051876
  -Hartree energ DENC   =      -160.39738632
  -exchange      EXHF   =         0.00000000
  -V(xc)+E(xc)   XCENC  =         7.56371383
  PAW double counting   =      1604.39134186    -1622.98029621
  entropy T*S    EENTRO =         0.00181701
  eigenvalues    EBANDS =        83.80371902
  atomic energy  EATOM  =      1188.57490811
  Solvation  Ediel_sol  =         0.00000000
  ---------------------------------------------------
  free energy    TOTEN  =       -15.78326702 eV

  energy without entropy =      -15.78508402  energy(sigma->0) =      -15.78387269


--------------------------------------------------------------------------------------------------------




--------------------------------------- Iteration      1(  12)  ---------------------------------------


    POTLOK:  cpu time    0.0034: real time    0.0034
    SETDIJ:  cpu time    0.0021: real time    0.0021
     EDDAV:  cpu time    0.5829: real time    0.5829
       DOS:  cpu time    0.0065: real time    0.0065
    CHARGE:  cpu time    0.0196: real time    0.0196
    MIXING:  cpu time    0.0002: real time    0.0002
    --------------------------------------------
      LOOP:  cpu time    0.6146: real time    0.6146

 eigenvalue-minimisations  :  6336
 total energy-change (2. order) : 0.1613194E-05  (-0.7991439E-08)
 number of electron      15.9999928 magnetization 
 augmentation part        8.2140002 magnetization 

 Broyden mixing:
  rms(total) = 0.11678E-03    rms(broyden)= 0.11671E-03
  rms(prec ) = 0.12776E-03
  weight for this iteration     100.00

 eigenvalues of (default mixing * dielectric matrix)
  average eigenvalue GAMMA=   1.6062
  2.5615  2.5127  1.9658  0.8423  0.9955  1.0116  1.3543

 Free energy of the ion-electron system (eV)
  ---------------------------------------------------
  alpha Z        PSCENC =       149.38943444
  Ewald energy   TEWEN  =     -1266.13051876
  -Hartree energ DENC   =      -160.40737313
  -exchange      EXHF   =         0.00000000
  -V(xc)+E(xc)   XCENC  =         7.56416251
  PAW double counting   =      1604.26887742    -1622.84827813
  entropy T*S    EENTRO =         0.00181700
  eigenvalues    EBANDS =        83.80370513
  atomic energy  EATOM  =      1188.57490811
  Solvation  Ediel_sol  =         0.00000000
  ---------------------------------------------------
  free energy    TOTEN  =       -15.78326540 eV

  energy without entropy =      -15.78508241  energy(sigma->0) =      -15.78387107


--------------------------------------------------------------------------------------------------------




--------------------------------------- Iteration      1(  13)  ---------------------------------------


    POTLOK:  cpu time    0.0033: real time    0.0033
    SETDIJ:  cpu time    0.0021: real time    0.0021
     EDDAV:  cpu time    0.5173: real time    0.5174
       DOS:  cpu time    0.0066: real time    0.0066
    --------------------------------------------
      LOOP:  cpu time    0.5294: real time    0.5294

 eigenvalue-minimisations  :  5184
 total energy-change (2. order) :-0.3930288E-06  (-0.8041940E-09)
 number of electron      15.9999928 magnetization 
 augmentation part        8.2140002 magnetization 

 Free energy of the ion-electron system (eV)
  ---------------------------------------------------
  alpha Z        PSCENC =       149.38943444
  Ewald energy   TEWEN  =     -1266.13051876
  -Hartree energ DENC   =      -160.40580677
  -exchange      EXHF   =         0.00000000
  -V(xc)+E(xc)   XCENC  =         7.56408612
  PAW double counting   =      1604.34443749    -1622.92569435
  entropy T*S    EENTRO =         0.00181699
  eigenvalues    EBANDS =        83.80407092
  atomic energy  EATOM  =      1188.57490811
  Solvation  Ediel_sol  =         0.00000000
  ---------------------------------------------------
  free energy    TOTEN  =       -15.78326580 eV

  energy without entropy =      -15.78508279  energy(sigma->0) =      -15.78387146


--------------------------------------------------------------------------------------------------------




 average (electrostatic) potential at core
  the test charge radii are     1.0103
  (the norm of the test charge is              1.0000)
       1 -41.5806       2 -41.5807
 
 
 
 E-fermi :   8.0578     XC(G=0): -14.3596     alpha+bet :-16.7521

 Fermi energy:         8.0577848946

 k-point     1 :       0.0000    0.0000    0.0000
  band No.  band energies     occupation 
      1      -1.4044      2.00000
      2       2.4705      2.00000
      3       5.3942      2.00000
      4       6.2461      2.00000
      5       6.2462      2.00000
      6       6.5759      2.00000
      7       6.5760      2.00000
      8       7.0517      2.00000
      9       7.7875      2.06678
     10       7.7875      2.06678
     11       8.9215     -0.00000
     12       8.9215     -0.00000
     13      16.0192      0.00000
     14      31.9744      0.00000
     15      32.6005      0.00000
     16      35.7024      0.00000
     17      39.0617      0.00000
     18      39.0618      0.00000
     19      39.5446      0.00000
     20      39.7514      0.00000
     21      39.7516      0.00000
     22      42.0997      0.00000
     23      42.0997      0.00000
     24      43.1281      0.00000
     25      46.1144      0.00000
     26      46.1144      0.00000
     27      46.9605      0.00000
     28      50.5852      0.00000
     29      50.5856      0.00000
     30      52.4834      0.00000
     31      52.4836      0.00000
     32      54.9863      0.00000
     33      62.5220      0.00000
     34      63.6713      0.00000
     35      63.8698      0.00000
     36      63.8706      0.00000
     37      64.9842      0.00000
     38      66.8744      0.00000
     39      66.8753      0.00000
     40      68.4579      0.00000

 k-point     2 :       0.0909    0.0000    0.0000
  band No.  band energies     occupation 
      1      -1.0425      2.00000
      2       2.7508      2.00000
      3       5.4458      2.00000
      4       6.1423      2.00000
      5       6.1929      2.00000
      6       6.4404      2.00000
      7       6.4719      2.00000
      8       6.7875      2.00000
      9       7.5943      2.00503
     10       7.6595      2.01644
     11       8.9560     -0.00000
     12      10.0656     -0.00000
     13      16.0433      0.00000
     14      31.5361      0.00000
     15      32.3879      0.00000
     16      34.3220      0.00000
     17      36.0773      0.00000
     18      37.7813      0.00000
     19      38.0829      0.00000
     20      39.4560      0.00000
     21      41.5202      0.00000
     22      42.5439      0.00000
     23      42.9375      0.00000
     24      43.5621      0.00000
     25      47.3449      0.00000
     26      47.6678      0.00000
     27      47.9847      0.00000
     28      48.3010      0.00000
     29      51.4954      0.00000
     30      53.9280      0.00000
     31      54.9692      0.00000
     32      56.8742      0.00000
     33      61.2349      0.00000
     34      62.9644      0.00000
     35      63.1135      0.00000
     36      63.4174      0.00000
     37      64.0040      0.00000
     38      67.6114      0.00000
     39      68.5413      0.00000
     40      68.7181      0.00000

 k-point     3 :       0.1818    0.0000    0.0000
  band No.  band energies     occupation 
      1      -0.0280      2.00000
      2       3.3985      2.00000
      3       5.0377      2.00000
      4       5.3219      2.00000
      5       5.8969      2.00000
      6       6.5444      2.00000
      7       7.0973      2.00000
      8       7.1421      2.00000
      9       7.3574      2.00001
     10       7.3703      2.00001
     11       9.0075     -0.00000
     12      12.0039     -0.00000
     13      16.1351      0.00000
     14      27.8766      0.00000
     15      32.9979      0.00000
     16      33.0104      0.00000
     17      33.0339      0.00000
     18      33.7105      0.00000
     19      38.5499      0.00000
     20      39.2740      0.00000
     21      39.9078      0.00000
     22      40.6473      0.00000
     23      43.9273      0.00000
     24      44.8223      0.00000
     25      47.9324      0.00000
     26      48.7788      0.00000
     27      50.1219      0.00000
     28      52.4439      0.00000
     29      54.6570      0.00000
     30      56.7536      0.00000
     31      57.6322      0.00000
     32      59.6491      0.00000
     33      60.0543      0.00000
     34      60.8230      0.00000
     35      61.2427      0.00000
     36      62.4218      0.00000
     37      65.1254      0.00000
     38      68.5140      0.00000
     39      68.6910      0.00000
     40      68.7138      0.00000

 k-point     4 :       0.2727    0.0000    0.0000
  band No.  band energies     occupation 
      1       1.3749      2.00000
      2       3.6512      2.00000
      3       4.1240      2.00000
      4       5.3306      2.00000
      5       5.7051      2.00000
      6       6.5790      2.00000
      7       7.0114      2.00000
      8       7.4211      2.00006
      9       7.9883      1.55050
     10       8.1872      0.12007
     11       9.0274     -0.00000
     12      14.1993      0.00000
     13      16.3579      0.00000
     14      23.7511      0.00000
     15      29.3370      0.00000
     16      30.4381      0.00000
     17      31.3468      0.00000
     18      33.7906      0.00000
     19      36.8965      0.00000
     20      39.4012      0.00000
     21      39.9450      0.00000
     22      40.2636      0.00000
     23      41.3980      0.00000
     24      44.7787      0.00000
     25      51.5633      0.00000
     26      52.8511      0.00000
     27      53.8067      0.00000
     28      54.8787      0.00000
     29      55.4890      0.00000
     30      57.3211      0.00000
     31      58.6307      0.00000
     32      60.6048      0.00000
     33      60.9687      0.00000
     34      61.0557      0.00000
     35      62.4602      0.00000
     36      65.2753      0.00000
     37      65.5228      0.00000
     38      68.6088      0.00000
     39      68.8735      0.00000
     40      69.2654      0.00000

 k-point     5 :       0.3636   -0.0000    0.0000
  band No.  band energies     occupation 
      1       2.5249      2.00000
      2       3.3216      2.00000
      3       3.5124      2.00000
      4       5.5161      2.00000
      5       6.0847      2.00000
      6       6.2527      2.00000
      7       6.7265      2.00000
      8       8.8658     -0.00000
      9       8.8898     -0.00000
     10       9.0128     -0.00000
     11       9.0230     -0.00000
     12      16.2961      0.00000
     13      16.5379      0.00000
     14      20.6810      0.00000
     15      25.9296      0.00000
     16      28.4462      0.00000
     17      28.4543      0.00000
     18      33.0423      0.00000
     19      35.8761      0.00000
     20      39.2006      0.00000
     21      39.5357      0.00000
     22      41.1296      0.00000
     23      41.3772      0.00000
     24      44.7820      0.00000
     25      52.0770      0.00000
     26      53.8889      0.00000
     27      54.8947      0.00000
     28      58.1438      0.00000
     29      58.2268      0.00000
     30      58.2933      0.00000
     31      59.9375      0.00000
     32      61.9004      0.00000
     33      62.2956      0.00000
     34      62.5696      0.00000
     35      64.2149      0.00000
     36      65.6831      0.00000
     37      68.5057      0.00000
     38      68.8107      0.00000
     39      68.9894      0.00000
     40      69.8747      0.00000

 k-point     6 :       0.4545    0.0000    0.0000
  band No.  band energies     occupation 
      1       2.8412      2.00000
      2       3.1064      2.00000
      3       3.2084      2.00000
      4       5.7981      2.00000
      5       6.1714      2.00000
      6       6.5275      2.00000
      7       6.5673      2.00000
      8       9.0115     -0.00000
      9       9.4530     -0.00000
     10       9.5668     -0.00000
     11      10.7635     -0.00000
     12      14.4837      0.00000
     13      18.7419      0.00000
     14      20.5230      0.00000
     15      23.1931      0.00000
     16      25.6503      0.00000
     17      27.3254      0.00000
     18      32.4087      0.00000
     19      35.5329      0.00000
     20      37.9651      0.00000
     21      39.3440      0.00000
     22      42.1449      0.00000
     23      43.8058      0.00000
     24      44.2424      0.00000
     25      48.6935      0.00000
     26      54.5791      0.00000
     27      55.6761      0.00000
     28      59.2471      0.00000
     29      60.1546      0.00000
     30      61.1456      0.00000
     31      62.4692      0.00000
     32      62.6565      0.00000
     33      62.8313      0.00000
     34      64.7462      0.00000
     35      65.7406      0.00000
     36      67.6746      0.00000
     37      68.0658      0.00000
     38      68.3803      0.00000
     39      70.6147      0.00000
     40      71.2501      0.00000

 k-point     7 :       0.0909    0.0909    0.0000
  band No.  band energies     occupation 
      1      -0.3507      2.00000
      2       3.2398      2.00000
      3       5.3434      2.00000
      4       5.3442      2.00000
      5       6.1604      2.00000
      6       6.1792      2.00000
      7       6.9307      2.00000
      8       7.1388      2.00000
      9       7.2397      2.00000
     10       7.5999      2.00563
     11       8.9570     -0.00000
     12      11.4637     -0.00000
     13      16.1050      0.00000
     14      29.5967      0.00000
     15      31.1457      0.00000
     16      33.0438      0.00000
     17      34.8186      0.00000
     18      36.8426      0.00000
     19      36.9613      0.00000
     20      38.3770      0.00000
     21      39.1842      0.00000
     22      44.3322      0.00000
     23      44.8063      0.00000
     24      45.7027      0.00000
     25      46.2164      0.00000
     26      46.8573      0.00000
     27      47.1094      0.00000
     28      52.9928      0.00000
     29      55.1498      0.00000
     30      55.7962      0.00000
     31      55.8379      0.00000
     32      59.2122      0.00000
     33      59.9666      0.00000
     34      61.2625      0.00000
     35      62.3608      0.00000
     36      62.5045      0.00000
     37      64.0461      0.00000
     38      68.2936      0.00000
     39      68.7629      0.00000
     40      69.3271      0.00000

 k-point     8 :       0.1818    0.0909    0.0000
  band No.  band energies     occupation 
      1       0.8924      2.00000
      2       3.8409      2.00000
      3       4.4571      2.00000
      4       5.0421      2.00000
      5       5.8118      2.00000
      6       6.6101      2.00000
      7       6.6660      2.00000
      8       7.2998      2.00000
      9       7.7515      2.05246
     10       8.0848      0.77340
     11       8.9401     -0.00000
     12      13.4353     -0.00000
     13      16.3116      0.00000
     14      25.8648      0.00000
     15      28.6456      0.00000
     16      31.2139      0.00000
     17      33.3080      0.00000
     18      34.3550      0.00000
     19      37.2126      0.00000
     20      37.5615      0.00000
     21      38.7960      0.00000
     22      43.5733      0.00000
     23      43.6919      0.00000
     24      45.3992      0.00000
     25      48.3965      0.00000
     26      49.1276      0.00000
     27      51.3955      0.00000
     28      55.4067      0.00000
     29      57.1009      0.00000
     30      57.6255      0.00000
     31      58.3067      0.00000
     32      60.1639      0.00000
     33      60.5146      0.00000
     34      61.2048      0.00000
     35      62.4469      0.00000
     36      62.6445      0.00000
     37      64.8704      0.00000
     38      68.2715      0.00000
     39      69.4135      0.00000
     40      69.9056      0.00000

 k-point     9 :       0.2727    0.0909    0.0000
  band No.  band energies     occupation 
      1       2.2835      2.00000
      2       3.7084      2.00000
      3       3.7875      2.00000
      4       5.1728      2.00000
      5       5.9200      2.00000
      6       6.1603      2.00000
      7       6.8779      2.00000
      8       7.5849      2.00416
      9       8.6476     -0.00025
     10       8.9145     -0.00000
     11       9.1834     -0.00000
     12      15.6785      0.00000
     13      16.6726      0.00000
     14      22.0263      0.00000
     15      26.8376      0.00000
     16      27.7166      0.00000
     17      30.9452      0.00000
     18      32.2723      0.00000
     19      36.8697      0.00000
     20      38.1917      0.00000
     21      38.6898      0.00000
     22      42.7409      0.00000
     23      43.0821      0.00000
     24      46.2568      0.00000
     25      50.4427      0.00000
     26      52.9407      0.00000
     27      54.1929      0.00000
     28      54.3393      0.00000
     29      56.7336      0.00000
     30      58.8080      0.00000
     31      59.3052      0.00000
     32      61.7825      0.00000
     33      62.5675      0.00000
     34      62.9306      0.00000
     35      63.5745      0.00000
     36      65.2000      0.00000
     37      67.8759      0.00000
     38      68.6175      0.00000
     39      68.8540      0.00000
     40      70.1423      0.00000

 k-point    10 :       0.3636    0.0909    0.0000
  band No.  band energies     occupation 
      1       3.0206      2.00000
      2       3.3701      2.00000
      3       3.3856      2.00000
      4       5.6773      2.00000
      5       5.8664      2.00000
      6       6.3784      2.00000
[...]
     18      29.2601      0.00000
     19      34.8551      0.00000
     20      35.6595      0.00000
     21      39.3805      0.00000
     22      39.8201      0.00000
     23      45.0602      0.00000
     24      46.1130      0.00000
     25      51.9554      0.00000
     26      53.7338      0.00000
     27      56.1269      0.00000
     28      57.2063      0.00000
     29      58.9063      0.00000
     30      60.2940      0.00000
     31      62.2432      0.00000
     32      62.3061      0.00000
     33      64.1110      0.00000
     34      64.3596      0.00000
     35      66.3300      0.00000
     36      66.5284      0.00000
     37      67.1895      0.00000
     38      67.7457      0.00000
     39      70.8465      0.00000
     40      71.3924      0.00000

 k-point    91 :       0.4545    0.0909    0.4545
  band No.  band energies     occupation 
      1       2.7322      2.00000
      2       2.8844      2.00000
      3       4.1849      2.00000
      4       4.2667      2.00000
      5       6.8953      2.00000
      6       7.3315      2.00000
      7       8.0838      0.78158
      8       8.4339     -0.02307
      9       9.0958     -0.00000
     10       9.1482     -0.00000
     11      11.7283     -0.00000
     12      12.2572     -0.00000
     13      18.7188      0.00000
     14      18.7788      0.00000
     15      27.2478      0.00000
     16      27.7889      0.00000
     17      28.7641      0.00000
     18      29.1053      0.00000
     19      34.4587      0.00000
     20      34.7866      0.00000
     21      38.7534      0.00000
     22      38.7578      0.00000
     23      45.1627      0.00000
     24      46.2376      0.00000
     25      52.1511      0.00000
     26      53.8998      0.00000
     27      58.1593      0.00000
     28      59.6403      0.00000
     29      60.5992      0.00000
     30      60.8473      0.00000
     31      61.0944      0.00000
     32      61.2573      0.00000
     33      64.3251      0.00000
     34      64.9943      0.00000
     35      66.8841      0.00000
     36      67.2744      0.00000
     37      68.4570      0.00000
     38      68.6152      0.00000
     39      72.0151      0.00000
     40      72.2067      0.00000

 k-point    92 :       0.1818    0.1818    0.4545
  band No.  band energies     occupation 
      1       2.9222      2.00000
      2       3.1624      2.00000
      3       4.9063      2.00000
      4       4.9387      2.00000
      5       5.4424      2.00000
      6       5.4743      2.00000
      7       7.2979      2.00000
      8       7.5579      2.00232
      9       8.8378     -0.00000
     10       9.0312     -0.00000
     11       9.5870     -0.00000
     12      10.1302     -0.00000
     13      24.8150      0.00000
     14      25.2206      0.00000
     15      25.7964      0.00000
     16      26.6155      0.00000
     17      27.2291      0.00000
     18      28.1884      0.00000
     19      38.9556      0.00000
     20      40.1179      0.00000
     21      40.9637      0.00000
     22      42.1969      0.00000
     23      43.9794      0.00000
     24      44.1657      0.00000
     25      50.6989      0.00000
     26      51.1570      0.00000
     27      54.1164      0.00000
     28      55.4810      0.00000
     29      57.4668      0.00000
     30      58.0943      0.00000
     31      60.0566      0.00000
     32      60.4562      0.00000
     33      61.9491      0.00000
     34      62.0108      0.00000
     35      63.7542      0.00000
     36      63.8413      0.00000
     37      66.6968      0.00000
     38      68.5266      0.00000
     39      69.5426      0.00000
     40      69.9635      0.00000

 k-point    93 :       0.2727    0.1818    0.4545
  band No.  band energies     occupation 
      1       3.2417      2.00000
      2       3.3470      2.00000
      3       4.6392      2.00000
      4       4.8434      2.00000
      5       5.8535      2.00000
      6       6.0165      2.00000
      7       7.1658      2.00000
      8       7.4191      2.00006
      9       8.9557     -0.00000
     10       9.2655     -0.00000
     11      11.2808     -0.00000
     12      11.8108     -0.00000
     13      21.8962      0.00000
     14      22.4584      0.00000
     15      24.7658      0.00000
     16      25.5277      0.00000
     17      27.2579      0.00000
     18      28.9723      0.00000
     19      36.6395      0.00000
     20      38.2378      0.00000
     21      39.4970      0.00000
     22      41.0711      0.00000
     23      44.9126      0.00000
     24      45.4173      0.00000
     25      52.2838      0.00000
     26      52.8047      0.00000
     27      55.3977      0.00000
     28      57.2921      0.00000
     29      59.1645      0.00000
     30      60.5151      0.00000
     31      61.7298      0.00000
     32      62.1698      0.00000
     33      63.1007      0.00000
     34      63.1686      0.00000
     35      64.5427      0.00000
     36      65.2297      0.00000
     37      66.7174      0.00000
     38      68.0275      0.00000
     39      70.4898      0.00000
     40      70.8759      0.00000

 k-point    94 :       0.3636    0.1818    0.4545
  band No.  band energies     occupation 
      1       3.2498      2.00000
      2       3.4146      2.00000
      3       4.5103      2.00000
      4       4.7005      2.00000
      5       5.9914      2.00000
      6       6.3440      2.00000
      7       7.5347      2.00136
      8       7.6539      2.01502
      9       8.9329     -0.00000
     10       9.1310     -0.00000
     11      13.1322     -0.00000
     12      13.5850      0.00000
     13      19.1807      0.00000
     14      19.5518      0.00000
     15      24.1355      0.00000
     16      24.8870      0.00000
     17      28.8667      0.00000
     18      29.9991      0.00000
     19      34.9475      0.00000
     20      36.0319      0.00000
     21      38.4905      0.00000
     22      40.0866      0.00000
     23      45.6296      0.00000
     24      46.0566      0.00000
     25      55.5187      0.00000
     26      56.0883      0.00000
     27      56.4360      0.00000
     28      57.6726      0.00000
     29      59.7713      0.00000
     30      60.3833      0.00000
     31      60.7290      0.00000
     32      61.2836      0.00000
     33      63.3503      0.00000
     34      63.7623      0.00000
     35      66.1355      0.00000
     36      66.3248      0.00000
     37      68.4158      0.00000
     38      68.5763      0.00000
     39      69.6370      0.00000
     40      70.4296      0.00000

 k-point    95 :       0.2727    0.2727    0.4545
  band No.  band energies     occupation 
      1       3.6899      2.00000
      2       3.7683      2.00000
      3       4.7807      2.00000
      4       5.0145      2.00000
      5       5.4896      2.00000
      6       5.7195      2.00000
      7       7.0165      2.00000
      8       7.2327      2.00000
      9       8.9502     -0.00000
     10       9.1647     -0.00000
     11      13.6182      0.00000
     12      14.1483      0.00000
     13      20.2405      0.00000
     14      20.6956      0.00000
     15      22.2392      0.00000
     16      22.6648      0.00000
     17      29.0768      0.00000
     18      30.7059      0.00000
     19      34.9773      0.00000
     20      36.3938      0.00000
     21      38.1876      0.00000
     22      39.3341      0.00000
     23      48.0074      0.00000
     24      48.4630      0.00000
     25      52.6655      0.00000
     26      52.7211      0.00000
     27      58.0185      0.00000
     28      59.6487      0.00000
     29      59.9422      0.00000
     30      60.3879      0.00000
     31      61.8836      0.00000
     32      61.9201      0.00000
     33      62.1430      0.00000
     34      62.2918      0.00000
     35      65.1198      0.00000
     36      65.5572      0.00000
     37      68.2743      0.00000
     38      68.3787      0.00000
     39      69.0616      0.00000
     40      69.1307      0.00000

 k-point    96 :       0.3636    0.2727    0.4545
  band No.  band energies     occupation 
      1       3.9235      2.00000
      2       4.0702      2.00000
      3       4.7094      2.00000
      4       4.8082      2.00000
      5       5.4842      2.00000
      6       5.6339      2.00000
      7       7.0676      2.00000
      8       7.2281      2.00000
      9       8.9302     -0.00000
     10       9.0069     -0.00000
     11      15.5566      0.00000
     12      15.7137      0.00000
     13      18.4698      0.00000
     14      18.8268      0.00000
     15      21.5782      0.00000
     16      22.0174      0.00000
     17      30.8239      0.00000
     18      31.6635      0.00000
     19      34.0211      0.00000
     20      34.2431      0.00000
     21      37.9100      0.00000
     22      38.7419      0.00000
     23      49.2969      0.00000
     24      49.9392      0.00000
     25      54.1242      0.00000
     26      54.5722      0.00000
     27      57.1682      0.00000
     28      57.5375      0.00000
     29      59.6275      0.00000
     30      60.1690      0.00000
     31      61.6809      0.00000
     32      62.0767      0.00000
     33      62.8667      0.00000
     34      63.1052      0.00000
     35      64.0442      0.00000
     36      65.4441      0.00000
     37      67.0138      0.00000
     38      67.9651      0.00000
     39      70.7871      0.00000
     40      71.0060      0.00000


--------------------------------------------------------------------------------------------------------


 soft charge-density along one line, spin component           1
         0         1         2         3         4         5         6         7         8         9
x     7.7860    0.0000    0.0675   -0.1169   -0.0513   -0.0889    0.0217    0.0000    0.0011   -0.0019
x     0.0000    0.0000
y     7.7860    0.0000    0.0675    0.1169   -0.0513    0.0889    0.0217   -0.0000    0.0011    0.0019
y     0.0000    0.0000
z     7.7860    0.0000    0.0000   -0.0000    0.4561    0.0000    0.0000    0.0000   -0.1533   -0.0000
z     0.0000    0.0000    0.0205    0.0000    0.0000    0.0000    0.0063   -0.0000    0.0000    0.0000
 total charge-density along one line
x    16.0000    0.0000    1.4113   -2.4445    0.2624    0.4546    0.0086   -0.0000    0.0020   -0.0035
x    -0.0003   -0.0006    0.0006   -0.0000   -0.0001    0.0001    0.0001    0.0001   -0.0001    0.0000
x     0.0000    0.0000
y    16.0000    0.0000    1.4113    2.4445    0.2624   -0.4546    0.0086    0.0000    0.0020    0.0035
y    -0.0003    0.0006    0.0006    0.0000   -0.0001   -0.0001    0.0001   -0.0001   -0.0001   -0.0000
y     0.0000   -0.0000
z    16.0000    0.0000    0.0000    0.0000    5.9950   -0.0000    0.0000    0.0000    1.2986   -0.0000
z     0.0000   -0.0000    0.0380   -0.0000    0.0000   -0.0000    0.0056   -0.0000    0.0000   -0.0000
z     0.0009   -0.0000   -0.0000   -0.0000   -0.0005    0.0000   -0.0000   -0.0000    0.0003    0.0000
z    -0.0000   -0.0000   -0.0002    0.0000    0.0000    0.0000    0.0002   -0.0000
 
 pseudopotential strength for first ion, spin component:           1
 -3.769  -0.000  -0.000  -0.000  -0.000  -4.352  -0.000  -0.000
 -0.000  -3.749  -0.000  -0.000   0.000  -0.000  -4.332  -0.000
 -0.000  -0.000  -3.758  -0.000  -0.000  -0.000  -0.000  -4.341
 -0.000  -0.000  -0.000  -3.749  -0.000  -0.000  -0.000  -0.000
 -0.000   0.000  -0.000  -0.000  -3.769  -0.000   0.000  -0.000
 -4.352  -0.000  -0.000  -0.000  -0.000  -4.892  -0.000  -0.000
 -0.000  -4.332  -0.000  -0.000   0.000  -0.000  -4.872  -0.000
 -0.000  -0.000  -4.341  -0.000  -0.000  -0.000  -0.000  -4.881
 -0.000  -0.000  -0.000  -4.332  -0.000  -0.000  -0.000  -0.000
 -0.000   0.000  -0.000  -0.000  -4.352  -0.000   0.000  -0.000
  0.000   0.000  -0.000   0.000  -0.000   0.000   0.000  -0.000
  0.000   0.000   0.000   0.000  -0.000   0.000   0.000  -0.000
 -0.000   0.000  -0.000   0.000  -0.001  -0.000   0.000  -0.000
  0.000  -0.000   0.000  -0.000   0.000   0.000  -0.000   0.000
 -0.001   0.000   0.000   0.000  -0.000  -0.001   0.000   0.000
 -0.000   0.000  -0.000   0.000  -0.001  -0.000   0.000  -0.000
  0.000  -0.000   0.000  -0.000   0.000   0.000  -0.000   0.000
 -0.001   0.000   0.000   0.000  -0.000  -0.001   0.000   0.000
 total augmentation occupancy for first ion, spin component:           1
  1.785   0.000   0.000   0.000   0.000  -1.352   0.000  -0.000  -0.000  -0.000  -0.000  -0.000   0.000   0.000   0.038  -0.000
 -0.000   2.331   0.000  -0.000   0.000   0.000  -1.608   0.000   0.000   0.000   0.000  -0.000   0.000  -0.000   0.000   0.000
  0.000   0.000   1.415  -0.000  -0.000  -0.000   0.000  -1.010  -0.000   0.000   0.063  -0.014  -0.000   0.000   0.000   0.000
  0.000  -0.000   0.000   2.331   0.000   0.000   0.000   0.000  -1.608   0.000   0.000   0.000  -0.000  -0.000   0.000   0.000
 -0.000   0.000  -0.000   0.000   1.785  -0.000   0.000   0.000   0.000  -1.352  -0.000   0.000   0.038   0.000  -0.000  -0.002
 -1.352   0.000  -0.000   0.000  -0.000   2.301  -0.000   0.000  -0.000   0.000   0.000  -0.000  -0.000   0.000  -0.052   0.000
  0.000  -1.608  -0.000   0.000   0.000  -0.000   2.230  -0.000  -0.000   0.000  -0.000   0.000  -0.000   0.000   0.000   0.000
 -0.000   0.000  -1.010   0.000   0.000   0.000   0.000   1.969  -0.000  -0.000  -0.151   0.009   0.000   0.000  -0.000   0.000
 -0.000   0.000   0.000  -1.608   0.000  -0.000  -0.000   0.000   2.230   0.000  -0.000   0.000   0.000   0.000  -0.000   0.000
 -0.000   0.000   0.000   0.000  -1.352   0.000   0.000  -0.000   0.000   2.301   0.000  -0.000  -0.052  -0.000   0.000   0.002
 -0.000  -0.000   0.063  -0.000  -0.000   0.000  -0.000  -0.151   0.000   0.000   2.973  -0.352  -0.000   0.000  -0.000  -0.000
  0.000  -0.000  -0.014   0.000   0.000  -0.000  -0.000   0.009  -0.000  -0.000  -0.352   0.047   0.000   0.000  -0.000  -0.000
  0.000   0.000  -0.000  -0.000   0.038  -0.000   0.000   0.000  -0.000  -0.052  -0.000  -0.000   0.408   0.000  -0.000  -0.031
 -0.000   0.000   0.000  -0.000   0.000   0.000   0.000   0.000   0.000  -0.000   0.000   0.000   0.000   0.378   0.000   0.000
  0.038   0.000   0.000   0.000  -0.000  -0.052  -0.000  -0.000   0.000   0.000  -0.000  -0.000  -0.000   0.000   0.408   0.000
 -0.000   0.000   0.000   0.000  -0.002   0.000   0.000  -0.000   0.000   0.002   0.000   0.000  -0.031   0.000   0.000   0.003
  0.000  -0.000   0.000  -0.000  -0.000  -0.000   0.000   0.000   0.000   0.000   0.000   0.000   0.000  -0.034   0.000   0.000
 -0.002   0.000  -0.000  -0.000   0.000   0.002  -0.000   0.000  -0.000  -0.000   0.000   0.000   0.000   0.000  -0.031  -0.000


------------------------ aborting loop because EDIFF is reached ----------------------------------------


    CHARGE:  cpu time    0.0193: real time    0.0193
    FORLOC:  cpu time    0.0002: real time    0.0002
    FORNL :  cpu time    0.0959: real time    0.0959
    STRESS:  cpu time    0.1421: real time    0.1421
    FORCOR:  cpu time    0.0035: real time    0.0035
    FORHAR:  cpu time    0.0007: real time    0.0007
    MIXING:  cpu time    0.0002: real time    0.0002

  FORCE on cell =-STRESS in cart. coord.  units (eV):
  Direction    XX          YY          ZZ          XY          YZ          ZX
  --------------------------------------------------------------------------------------
  Alpha Z   149.38943   149.38943   149.38943
  Ewald    -402.60616  -402.60616  -460.91902     0.00000     0.00000    -0.00000
  Hartree    60.41900    60.41900    39.56746    -0.00000    -0.00000    -0.00000
  E(xc)     -79.72092   -79.72092   -79.37943     0.00011    -0.00000     0.00000
  Local     100.95406   100.95422   176.00269    -0.00064     0.00000     0.00000
  n-local   -50.18334   -49.55789   -52.79972    -4.94959     1.40317     0.92372
  augment    75.05208    75.05185    75.72109     0.00074    -0.00000     0.00000
  Kinetic   156.84248   150.29249   150.98007     1.68954    -0.87123     0.23632
  Fock        0.00000     0.00000     0.00000     0.00000     0.00000     0.00000
  -------------------------------------------------------------------------------------
  Total       7.18432     7.18432    -1.43743    -0.00000     0.00000     0.00000
  in kB     622.00166   622.00166  -124.44937    -0.00000     0.00000     0.00000
  external pressure =      373.18 kB  Pullay stress =        0.00 kB


 VOLUME and BASIS-vectors are now :
 -----------------------------------------------------------------------------
  energy-cutoff  :      280.00
  volume of cell :       18.51
      direct lattice vectors                 reciprocal lattice vectors
     2.283400000  0.000000000  0.000000000     0.437943418  0.252846750  0.000000000
    -1.141700000  1.977482407  0.000000000     0.000000000  0.505693500  0.000000000
     0.000000000  0.000000000  4.098360000     0.000000000  0.000000000  0.244000039

  length of vectors
     2.283400000  2.283400000  4.098360000     0.505693500  0.505693500  0.244000039


 FORCES acting on ions
    electron-ion (+dipol)            ewald-force                    non-local-force                 convergence-correction
 -----------------------------------------------------------------------------------------------
   0.868E-06 -.345E-06 0.304E-14   0.558E-12 -.325E-12 -.259E-13   -.565E-16 0.220E-17 -.454E-19   -.994E-09 0.576E-09 0.740E-14
   -.183E-05 0.205E-05 0.256E-12   -.552E-12 0.321E-12 0.259E-13   0.512E-16 -.469E-17 -.299E-19   0.992E-09 -.574E-09 0.316E-13
 -----------------------------------------------------------------------------------------------
   -.966E-06 0.170E-05 0.259E-12   0.657E-14 -.446E-14 -.697E-17   -.531E-17 -.248E-17 -.754E-19   -.241E-11 0.159E-11 0.390E-13
 
 
 POSITION                                       TOTAL-FORCE (eV/Angst)
 -----------------------------------------------------------------------------------
      0.00000      0.00000      0.00000         0.000000     -0.000000      0.000000
      0.00000      1.31832      2.04918        -0.000000      0.000000     -0.000000
 -----------------------------------------------------------------------------------
    total drift:                               -0.000001      0.000002      0.000000


--------------------------------------------------------------------------------------------------------



  FREE ENERGIE OF THE ION-ELECTRON SYSTEM (eV)
  ---------------------------------------------------
  free  energy   TOTEN  =       -15.78326580 eV

  energy  without entropy=      -15.78508279  energy(sigma->0) =      -15.78387146
 


--------------------------------------------------------------------------------------------------------


    POTLOK:  cpu time    0.0056: real time    0.0056


--------------------------------------------------------------------------------------------------------


 writing wavefunctions
     LOOP+:  cpu time   10.3200: real time   10.3415
    4ORBIT:  cpu time    0.0000: real time    0.0000

 total amount of memory used by VASP MPI-rank0    48790. kBytes
=======================================================================

   base      :      30000. kBytes
   nonl-proj :       2895. kBytes
   grid      :        812. kBytes
   one-center:         31. kBytes
   wavefun   :      15052. kBytes
 
  
  
 General timing and accounting informations for this job:
 ========================================================
  
                  Total CPU time used (sec):       10.489
                            User time (sec):       10.453
                          System time (sec):        0.036
                         Elapsed time (sec):       10.499
  
                   Maximum memory used (kb):       53528.
                   Average memory used (kb):          N/A
  
                          Minor page faults:         7000
                          Major page faults:            0
                 Voluntary context switches:           26
