unknown system                          
   1.00000000000000     
     2.353300    0.000000    0.000000
    -1.176650    2.038018    0.000000
     0.000000    0.000000    4.223820
   Fe
     2
Direct
  0.000000  0.000000  0.000000
  0.333333  0.666667  0.500000
 
   20   20   36
  170.18      161.09      136.66      103.98      70.914      43.385      24.361      13.976      10.023      8.9149    
  8.5603      8.9152      10.023      13.976      24.361      43.385      70.914      103.98      136.67      161.09    
  161.09      161.09      144.36      116.01      83.584      53.951      31.457      17.569      11.177      9.2382    
  8.5591      8.5585      9.2376      11.178      17.569      31.455      53.949      83.588      116.02      144.38    
  136.68      144.35      136.66      116.01      88.280      60.167      36.851      20.978      12.598      9.5587    
  8.5912      8.2597      8.5898      9.5585      12.599      20.978      36.847      60.164      88.284      116.02    
  103.98      115.95      115.95      103.98      83.584      60.167      38.865      23.056      13.794      9.9009    
  8.6419      8.0499      8.0494      8.6413      9.9015      13.795      23.055      38.861      60.160      83.577    
  70.899      83.489      88.157      83.501      70.914      53.950      36.851      23.056      14.262      10.139    
  8.6881      7.9294      7.6733      7.9297      8.6882      10.140      14.265      23.060      36.851      53.942    
  43.384      53.876      60.037      60.041      53.883      43.385      31.457      20.979      13.794      10.139    
  8.7068      7.8784      7.4631      7.4636      7.8787      8.7054      10.138      13.799      20.988      31.463    
  24.371      31.440      36.787      38.777      36.783      31.431      24.361      17.569      12.598      9.9007    
  8.6882      7.8785      7.3969      7.2432      7.3978      7.8775      8.6841      9.8968      12.599      17.576    
  13.975      17.590      20.995      23.055      23.050      20.985      17.583      13.976      11.177      9.5586    
  8.6419      7.9295      7.4630      7.2432      7.2440      7.4644      7.9291      8.6373      9.5505      11.170    
  10.012      11.203      12.653      13.861      14.330      13.858      12.653      11.210      10.023      9.2382    
  8.5911      8.0500      7.6732      7.4636      7.3980      7.4645      7.6764      8.0540      8.5909      9.2306    
  8.9147      9.2686      9.6223      9.9938      10.249      10.250      9.9986      9.6303      9.2756      8.9151    
  8.5590      8.2598      8.0495      7.9296      7.8788      7.8776      7.9289      8.0540      8.2689      8.5661    
  8.5708      8.6061      8.6696      8.7492      8.8192      8.8490      8.8233      8.7532      8.6686      8.5986    
  8.5602      8.5585      8.5900      8.6413      8.6882      8.7055      8.6839      8.6372      8.5912      8.5662    
  8.9145      8.6060      8.3503      8.1752      8.0822      8.0489      8.0500      8.0827      8.1705      8.3413    
  8.5992      8.9151      9.2377      9.5585      9.9014      10.140      10.138      9.8967      9.5507      9.2307    
  10.011      9.2686      8.6698      8.1752      7.8365      7.6529      7.5969      7.6522      7.8335      8.1710    
  8.6697      9.2761      10.023      11.178      12.599      13.795      14.265      13.799      12.599      11.170    
  13.976      11.203      9.6225      8.7493      8.0820      7.6529      7.4535      7.4528      7.6516      8.0826    
  8.7538      9.6303      11.210      13.976      17.569      20.978      23.055      23.060      20.988      17.576    
  24.372      17.590      12.652      9.9937      8.8190      8.0490      7.5971      7.4527      7.5959      8.0497    
  8.8233      9.9979      12.651      17.582      24.361      31.455      36.847      38.861      36.851      31.463    
  43.384      31.440      20.994      13.861      10.249      8.8491      8.0501      7.6521      7.6515      8.0498    
  8.8504      10.249      13.857      20.985      31.433      43.385      53.949      60.164      60.160      53.942    
  70.899      53.876      36.787      23.055      14.330      10.250      8.8232      8.0826      7.8335      8.0827    
  8.8233      10.249      14.327      23.051      36.787      53.884      70.914      83.589      88.284      83.577    
  103.98      83.489      60.037      38.778      23.050      13.858      9.9985      8.7533      8.1706      8.1711    
  8.7538      9.9978      13.857      23.051      38.782      60.044      83.496      103.98      116.02      116.02    
  136.68      115.95      88.157      60.041      36.783      20.984      12.652      9.6305      8.6687      8.3412    
  8.6696      9.6303      12.651      20.985      36.787      60.044      88.152      115.94      136.66      144.38    
  161.09      144.35      115.95      83.501      53.883      31.431      17.583      11.210      9.2756      8.5985    
  8.5991      9.2762      11.210      17.582      31.433      53.884      83.496      115.94      144.33      161.09    
  161.09      152.49      129.38      98.412      67.068      41.013      23.101      13.432      9.8146      8.7650    
  8.4200      8.7653      9.8149      13.432      23.101      41.013      67.068      98.412      129.38      152.49    
  152.49      152.49      136.66      109.81      79.068      50.992      29.752      16.748      10.854      9.0744    
  8.4128      8.4123      9.0738      10.854      16.748      29.751      50.990      79.072      109.82      136.68    
  129.38      136.65      129.38      109.81      83.516      56.870      34.825      19.915      12.142      9.3677    
  8.4397      8.1187      8.4384      9.3674      12.143      19.914      34.821      56.867      83.520      109.82    
  98.408      109.76      109.76      98.413      79.068      56.870      36.721      21.850      13.233      9.6704    
  8.4863      7.9137      7.9132      8.4858      9.6710      13.234      21.850      36.717      56.863      79.061    
  67.054      78.996      83.424      79.007      67.068      50.991      34.825      21.850      13.662      9.8806    
  8.5297      7.7963      7.5500      7.7966      8.5299      9.8813      13.665      21.854      34.825      50.984    
  41.012      50.944      56.783      56.787      50.950      41.013      29.753      19.915      13.233      9.8806    
  8.5475      7.7467      7.3479      7.3485      7.7470      8.5462      9.8801      13.237      19.923      29.759    
  23.111      29.759      34.805      36.686      34.802      29.752      23.101      16.748      12.142      9.6702    
  8.5298      7.7467      7.2844      7.1373      7.2853      7.7459      8.5261      9.6666      12.143      16.755    
  13.431      16.789      19.970      21.901      21.897      19.961      16.782      13.432      10.854      9.3676    
  8.4863      7.7964      7.3478      7.1373      7.1380      7.3491      7.7960      8.4821      9.3601      10.847    
  9.8041      10.896      12.229      13.345      13.779      13.342      12.229      10.903      9.8148      9.0744    
  8.4396      7.9138      7.5499      7.3484      7.2855      7.3491      7.5528      7.9175      8.4395      9.0673    
  8.7648      9.1189      9.4586      9.8009      10.034      10.035      9.8053      9.4659      9.1254      8.7651    
  8.4127      8.1188      7.9133      7.7965      7.7472      7.7460      7.7958      7.9174      8.1272      8.4193    
  8.4297      8.4715      8.5412      8.6257      8.6983      8.7287      8.7020      8.6293      8.5403      8.4646    
  8.4199      8.4122      8.4385      8.4857      8.5298      8.5463      8.5259      8.4820      8.4397      8.4194    
  8.7646      8.4714      8.2304      8.0670      7.9814      7.9513      7.9524      7.9818      8.0627      8.2221    
  8.4651      8.7652      9.0739      9.3674      9.6708      9.8813      9.8802      9.6666      9.3603      9.0674    
  9.8039      9.1188      8.5414      8.0670      7.7433      7.5683      7.5150      7.5677      7.7406      8.0632    
  8.5413      9.1259      9.8148      10.854      12.143      13.234      13.665      13.238      12.143      10.847    
  13.431      10.896      9.4587      8.6257      7.9812      7.5683      7.3767      7.3761      7.5671      7.9817    
  8.6298      9.4660      10.903      13.432      16.748      19.914      21.850      21.854      19.923      16.755    
  23.111      16.789      12.229      9.8008      8.6981      7.9514      7.5151      7.3760      7.5140      7.9520    
  8.7020      9.8047      12.228      16.782      23.101      29.751      34.821      36.717      34.825      29.759    
  41.012      29.759      19.970      13.345      10.034      8.7288      7.9524      7.5676      7.5670      7.9521    
  8.7300      10.034      13.341      19.961      29.753      41.013      50.990      56.867      56.863      50.984    
  67.054      50.943      34.805      21.901      13.779      10.035      8.7019      7.9818      7.7406      7.9818    
  8.7020      10.034      13.776      21.897      34.805      50.951      67.068      79.072      83.520      79.061    
  98.408      78.996      56.783      36.686      21.897      13.342      9.8052      8.6293      8.0628      8.0632    
  8.6298      9.8046      13.341      21.897      36.690      56.790      79.003      98.413      109.82      109.82    
  129.38      109.76      83.424      56.787      34.801      19.961      12.229      9.4661      8.5404      8.2220    
  8.5412      9.4659      12.228      19.961      34.805      56.790      83.420      109.75      129.38      136.68    
  152.49      136.65      109.76      79.007      50.950      29.752      16.782      10.903      9.1254      8.4644    
  8.4650      9.1260      10.903      16.782      29.753      50.951      79.003      109.75      136.63      152.49    
  136.67      129.38      109.75      83.398      56.714      34.670      19.785      12.035      9.2743      8.3557    
  8.0393      8.3559      9.2745      12.035      19.785      34.670      56.714      83.398      109.75      129.38    
  129.39      129.38      115.94      93.087      66.897      43.050      25.231      14.614      10.028      8.6221    
  8.0133      8.0129      8.6216      10.029      14.615      25.230      43.049      66.900      93.097      115.95    
  109.76      115.94      109.75      93.087      70.675      48.007      29.426      17.127      10.972      8.8594    
  8.0233      7.7327      8.0221      8.8591      10.973      17.127      29.423      48.005      70.678      93.096    
  83.395      93.079      93.080      83.399      66.896      48.007      31.001      18.681      11.789      9.0702    
  8.0559      7.5391      7.5387      8.0554      9.0705      11.790      18.680      30.998      48.002      66.891    
  56.704      66.888      70.668      66.897      56.714      43.050      29.426      18.681      12.113      9.2131    
  8.0899      7.4287      7.2100      7.4290      8.0900      9.2134      12.115      18.683      29.426      43.044    
  34.670      43.075      48.038      48.041      43.080      34.670      25.231      17.128      11.789      9.2130    
  8.1042      7.3820      7.0291      7.0296      7.3825      8.1033      9.2126      11.792      17.134      25.236    
  19.792      25.303      29.528      31.110      29.525      25.297      19.785      14.614      10.972      9.0700    
  8.0900      7.3820      6.9725      6.8434      6.9733      7.3815      8.0871      9.0673      10.973      14.620    
  12.034      14.711      17.292      18.874      18.871      17.285      14.706      12.035      10.028      8.8593    
  8.0560      7.4288      7.0289      6.8434      6.8439      7.0299      7.4284      8.0527      8.8535      10.023    
  9.2659      10.119      11.153      12.029      12.371      12.026      11.153      10.125      9.2744      8.6221    
  8.0232      7.5392      7.2099      7.0295      6.9735      7.0299      7.2119      7.5420      8.0231      8.6165    
  8.3555      8.7093      9.0326      9.3140      9.4967      9.4976      9.3173      9.0382      8.7144      8.3558    
  8.0132      7.7327      7.5387      7.4289      7.3826      7.3816      7.4283      7.5419      7.7394      8.0185    
  8.0470      8.1089      8.1979      8.2973      8.3786      8.4114      8.3814      8.3000      8.1971      8.1034    
  8.0393      8.0128      8.0223      8.0554      8.0900      8.1034      8.0870      8.0526      8.0233      8.0186    
  8.3553      8.1089      7.9128      7.7859      7.7241      7.7051      7.7060      7.7246      7.7825      7.9063    
  8.1039      8.3558      8.6217      8.8591      9.0704      9.2134      9.2126      9.0673      8.8536      8.6166    
  9.2657      8.7093      8.1981      7.7859      7.5093      7.3618      7.3175      7.3616      7.5074      7.7830    
  8.1980      8.7149      9.2745      10.029      10.973      11.790      12.115      11.792      10.973      10.023    
  12.035      10.119      9.0327      8.2973      7.7240      7.3618      7.1954      7.1949      7.3611      7.7244    
  8.3006      9.0384      10.124      12.035      14.615      17.127      18.680      18.683      17.134      14.620    
  19.793      14.711      11.153      9.3139      8.3784      7.7051      7.3176      7.1949      7.3166      7.7055    
  8.3814      9.3169      11.152      14.705      19.785      25.230      29.423      30.998      29.426      25.236    
  34.670      25.303      17.292      12.029      9.4968      8.4115      7.7061      7.3615      7.3610      7.7055    
  8.4123      9.4972      12.025      17.285      25.298      34.670      43.049      48.004      48.002      43.044    
  56.703      43.074      29.528      18.874      12.371      9.4977      8.3813      7.7245      7.5074      7.7245    
  8.3814      9.4972      12.369      18.872      29.528      43.080      56.714      66.900      70.678      66.891    
  83.395      66.888      48.038      31.111      18.871      12.026      9.3171      8.3001      7.7826      7.7830    
  8.3006      9.3168      12.025      18.872      31.114      48.043      66.893      83.399      93.097      93.096    
  109.76      93.079      70.668      48.041      29.525      17.284      11.153      9.0384      8.1972      7.9062    
  8.1979      9.0383      11.152      17.285      29.528      48.043      70.665      93.071      109.75      115.95    
  129.39      115.94      93.080      66.897      43.079      25.297      14.706      10.125      8.7144      8.1033    
  8.1038      8.7150      10.124      14.705      25.298      43.081      66.894      93.071      115.93      129.38    
  103.97      98.397      83.383      63.205      42.865      26.334      15.579      10.350      8.5756      7.7881    
  7.5178      7.7883      8.5758      10.349      15.579      26.334      42.865      63.205      83.383      98.397    
  98.400      98.397      88.110      70.595      50.563      32.516      19.389      11.978      9.0255      7.9836    
  7.4606      7.4602      7.9832      9.0260      11.979      19.389      32.515      50.565      70.602      88.117    
  83.388      88.129      83.383      70.595      53.428      36.205      22.385      13.628      9.5594      8.1618    
  7.4406      7.1964      7.4396      8.1614      9.5603      13.628      22.383      36.204      53.430      70.601    
  63.203      70.641      70.641      63.205      50.563      36.205      23.520      14.669      10.034      8.2938    
  7.4470      7.0146      7.0142      7.4465      8.2939      10.034      14.669      23.518      36.202      50.560    
  42.858      50.640      53.538      50.646      42.865      32.516      22.385      14.669      10.225      8.3690    
  7.4624      6.9095      6.7306      6.9098      7.4625      8.3690      10.226      14.671      22.385      32.512    
  26.334      32.637      36.394      36.396      32.641      26.334      19.389      13.628      10.033      8.3690    
  7.4700      6.8640      6.5760      6.5765      6.8646      7.4695      8.3686      10.036      13.632      19.393    
  15.584      19.552      22.653      23.825      22.651      19.548      15.579      11.979      9.5594      8.2937    
  7.4625      6.8641      6.5278      6.4233      6.5285      6.8639      7.4608      8.2921      9.5603      11.982    
  10.349      12.153      13.944      15.061      15.058      13.939      12.150      10.350      9.0256      8.1616    
  7.4470      6.9096      6.5759      6.4233      6.4235      6.5764      6.9093      7.4449      8.1579      9.0221    
  8.5699      9.1883      9.8771      10.458      10.687      10.457      9.8770      9.1921      8.5757      7.9836    
  7.4405      7.0146      6.7305      6.5764      6.5286      6.5764      6.7315      7.0163      7.4404      7.9798    
  7.7880      8.1369      8.4616      8.7115      8.8526      8.8531      8.7134      8.4652      8.1402      7.7882    
  7.4605      7.1965      7.0143      6.9097      6.8647      6.8640      6.9091      7.0163      7.2009      7.4640    
  7.5229      7.6158      7.7331      7.8538      7.9473      7.9835      7.9490      7.8554      7.7323      7.6122    
  7.5178      7.4602      7.4397      7.4465      7.4625      7.4696      7.4607      7.4449      7.4406      7.4641    
  7.7878      7.6158      7.4896      7.4191      7.3947      7.3934      7.3940      7.3952      7.4170      7.4853    
  7.6125      7.7882      7.9832      8.1614      8.2938      8.3690      8.3687      8.2921      8.1580      7.9799    
  8.5697      8.1368      7.7332      7.4191      7.2164      7.1129      7.0829      7.1131      7.2155      7.4173    
  7.7331      8.1406      8.5757      9.0261      9.5602      10.034      10.226      10.036      9.5602      9.0221    
  10.349      9.1883      8.4618      7.8538      7.3946      7.1129      6.9862      6.9860      7.1125      7.3950    
  7.8559      8.4653      9.1916      10.350      11.979      13.628      14.669      14.671      13.632      11.982    
  15.584      12.153      9.8770      8.7115      7.9472      7.3934      7.0830      6.9860      7.0821      7.3934    
  7.9490      8.7133      9.8762      12.149      15.579      19.389      22.383      23.517      22.385      19.393    
  26.334      19.552      13.943      10.458      8.8527      7.9835      7.3941      7.1130      7.1125      7.3935    
  7.9839      8.8530      10.456      13.939      19.548      26.334      32.515      36.204      36.202      32.512    
  42.858      32.637      22.653      15.061      10.687      8.8531      7.9489      7.3951      7.2155      7.3951    
  7.9490      8.8530      10.686      15.059      22.653      32.641      42.865      50.565      53.430      50.560    
  63.203      50.640      36.395      23.825      15.058      10.457      8.7133      7.8554      7.4170      7.4173    
  7.8559      8.7133      10.456      15.059      23.827      36.398      50.644      63.205      70.602      70.601    
  83.388      70.641      53.538      36.397      22.651      13.939      9.8770      8.4653      7.7324      7.4853    
  7.7331      8.4653      9.8763      13.939      22.653      36.398      53.536      70.635      83.383      88.117    
  98.400      88.130      70.641      50.646      32.641      19.548      12.150      9.1922      8.1402      7.6120    
  7.6125      8.1407      9.1917      12.149      19.548      32.641      50.644      70.635      88.122      98.397    
  70.775      66.938      56.609      42.799      29.092      18.335      11.792      8.9204      7.8240      7.1808    
  6.9677      7.1809      7.8241      8.9204      11.792      18.335      29.092      42.799      56.609      66.938    
  66.940      66.938      59.845      47.809      34.187      22.224      13.961      9.6987      8.1041      7.2874    
  6.8729      6.8726      7.2871      8.1045      9.6996      13.961      22.224      34.187      47.812      59.849    
  56.612      59.884      56.609      47.809      36.096      24.586      15.729      10.527      8.3374      7.3892    
  6.8126      6.6238      6.8119      7.3889      8.3380      10.528      15.728      24.585      36.097      47.812    
  42.798      47.907      47.907      42.799      34.187      24.586      16.410      11.070      8.5286      7.4658    
  6.7816      6.4481      6.4479      6.7812      7.4657      8.5286      11.070      16.409      24.584      34.185    
  29.089      34.347      36.320      34.350      29.092      22.224      15.729      11.070      8.6065      7.5060    
  6.7698      6.3419      6.2069      6.3422      6.7698      7.5058      8.6065      11.071      15.729      22.222    
  18.335      22.440      24.930      24.931      22.442      18.335      13.961      10.528      8.5285      7.5060    
  6.7672      6.2935      6.0752      6.0756      6.2941      6.7671      7.5057      8.5296      10.530      13.963    
  11.794      14.212      16.161      16.908      16.160      14.210      11.792      9.6988      8.3374      7.4657    
  6.7698      6.2935      6.0340      5.9543      6.0345      6.2936      6.7691      7.4651      8.3380      9.7009    
  8.9199      9.9533      10.996      11.660      11.659      10.994      9.9520      8.9204      8.1041      7.3891    
  6.7816      6.3419      6.0751      5.9543      5.9544      6.0752      6.3417      6.7807      7.3873      8.1023    
  7.8209      8.3433      8.7988      9.1467      9.2805      9.1458      8.7988      8.3454      7.8241      7.2874    
  6.8126      6.4482      6.2068      6.0756      6.0346      6.0752      6.2070      6.4489      6.8125      7.2854    
  7.1807      7.5138      7.8286      8.0742      8.2083      8.2084      8.0749      7.8302      7.5155      7.1808    
  6.8729      6.6239      6.4479      6.3421      6.2942      6.2937      6.3416      6.4488      6.6262      6.8747    
  6.9703      7.0957      7.2383      7.3752      7.4762      7.5140      7.4769      7.3757      7.2377      7.0938    
  6.9677      6.8726      6.8120      6.7812      6.7698      6.7672      6.7690      6.7806      6.8126      6.8747    
  7.1805      7.0957      7.0463      7.0342      7.0468      7.0622      7.0626      7.0472      7.0332      7.0441    
  7.0940      7.1808      7.2872      7.3889      7.4656      7.5058      7.5058      7.4651      7.3874      7.2854    
  7.8208      7.5137      7.2384      7.0343      6.9108      6.8529      6.8375      6.8534      6.9107      7.0335    
  7.2383      7.5157      7.8241      8.1046      8.3379      8.5286      8.6066      8.5296      8.3380      8.1023    
  8.9200      8.3434      7.8287      7.3752      7.0467      6.8529      6.7687      6.7687      6.8529      7.0470    
  7.3762      7.8304      8.3450      8.9204      9.6996      10.528      11.070      11.071      10.530      9.7009    
  11.794      9.9534      8.7988      8.0742      7.4761      7.0622      6.8376      6.7687      6.8369      7.0619    
  7.4769      8.0750      8.7982      9.9511      11.792      13.961      15.728      16.409      15.729      13.963    
  18.335      14.212      10.996      9.1466      8.2084      7.5140      7.0626      6.8533      6.8529      7.0620    
  7.5140      8.2086      9.1457      10.994      14.210      18.335      22.224      24.585      24.584      22.222    
  29.089      22.440      16.160      11.660      9.2806      8.2085      7.4768      7.0471      6.9107      7.0471    
  7.4769      8.2086      9.2804      11.660      16.161      22.442      29.092      34.188      36.097      34.185    
  42.798      34.347      24.930      16.908      11.659      9.1457      8.0747      7.3757      7.0333      7.0335    
  7.3761      8.0749      9.1457      11.660      16.909      24.932      34.349      42.799      47.812      47.812    
  56.612      47.907      36.320      24.931      16.160      10.994      8.7988      7.8303      7.2378      7.0440    
  7.2383      7.8304      8.7982      10.994      16.161      24.932      36.319      47.904      56.609      59.849    
  66.940      59.884      47.907      34.350      22.442      14.210      9.9521      8.3455      7.5155      7.0937    
  7.0940      7.5158      8.3451      9.9511      14.209      22.442      34.349      47.904      59.880      66.938    
  42.978      40.634      34.366      26.127      18.233      12.429      9.2533      7.9173      7.1128      6.6314    
  6.4771      6.6315      7.1129      7.9173      9.2531      12.429      18.233      26.127      34.366      40.634    
  40.634      40.634      36.307      29.053      21.057      14.381      10.159      8.2073      7.2742      6.6476    
  6.3459      6.3457      6.6474      7.2746      8.2080      10.159      14.381      21.057      29.054      36.309    
  34.367      36.360      34.366      29.053      22.131      15.606      10.940      8.4829      7.3935      6.6662    
  6.2424      6.1080      6.2419      6.6660      7.3939      8.4835      10.940      15.605      22.131      29.054    
  26.127      29.189      29.189      26.127      21.057      15.605      11.250      8.6678      7.4611      6.6798    
  6.1691      5.9310      5.9309      6.1688      6.6795      7.4609      8.6675      11.249      15.605      21.056    
  18.232      21.278      22.436      21.278      18.233      14.381      10.940      8.6679      7.4821      6.6861    
  6.1257      5.8165      5.7213      5.8168      6.1258      6.6857      7.4817      8.6677      10.940      14.381    
  12.429      14.666      16.061      16.062      14.667      12.429      10.159      8.4830      7.4610      6.6861    
  6.1114      5.7610      5.6037      5.6040      5.7615      6.1115      6.6859      7.4613      8.4840      10.160    
  9.2540      10.476      11.493      11.890      11.493      10.475      9.2532      8.2073      7.3935      6.6797    
  6.1257      5.7610      5.5662      5.5068      5.5665      5.7612      6.1257      6.6797      7.3939      8.2082    
  7.9169      8.5253      9.0708      9.4112      9.4109      9.0704      8.5251      7.9173      7.2743      6.6662    
  6.1691      5.8166      5.6037      5.5068      5.5067      5.6035      5.8165      6.1689      6.6657      7.2737    
  7.1116      7.5781      7.9745      8.2378      8.3295      8.2374      7.9744      7.5789      7.1129      6.6475    
  6.2424      5.9311      5.7213      5.6040      5.5666      5.6036      5.7210      5.9311      6.2423      6.6468    
  6.6314      6.9377      7.2265      7.4525      7.5765      7.5764      7.4524      7.2268      6.9382      6.6315    
  6.3458      6.1080      5.9309      5.8167      5.7615      5.7613      5.8164      5.9311      6.1088      6.3464    
  6.4780      6.6293      6.7865      6.9279      7.0278      7.0640      7.0278      6.9279      6.7862      6.6286    
  6.4771      6.3457      6.2420      6.1688      6.1257      6.1116      6.1256      6.1688      6.2424      6.3465    
  6.6313      6.6293      6.6467      6.6807      6.7190      6.7447      6.7449      6.7193      6.6805      6.6460    
  6.6288      6.6315      6.6474      6.6660      6.6794      6.6857      6.6859      6.6797      6.6658      6.6468    
  7.1116      6.9376      6.7866      6.6808      6.6228      6.6000      6.5952      6.6005      6.6232      6.6806    
  6.7865      6.9384      7.1129      7.2746      7.3939      7.4609      7.4818      7.4613      7.3939      7.2737    
  7.9170      7.5781      7.2266      6.9280      6.7190      6.6000      6.5501      6.5501      6.6002      6.7191    
  6.9282      7.2269      7.5786      7.9173      8.2081      8.4835      8.6675      8.6677      8.4839      8.2082    
  9.2541      8.5253      7.9744      7.4525      7.0277      6.7447      6.5953      6.5501      6.5948      6.7443    
  7.0278      7.4526      7.9740      8.5244      9.2532      10.159      10.940      11.249      10.940      10.160    
  12.429      10.476      9.0707      8.2378      7.5766      7.0640      6.7449      6.6005      6.6001      6.7444    
  7.0638      7.5767      8.2376      9.0699      10.475      12.429      14.381      15.605      15.605      14.381    
  18.232      14.666      11.493      9.4112      8.3296      7.5764      7.0277      6.7193      6.6232      6.7192    
  7.0278      7.5767      8.3299      9.4113      11.493      14.667      18.233      21.057      22.131      21.056    
  26.127      21.278      16.061      11.890      9.4110      8.2374      7.4523      6.9279      6.6805      6.6807    
  6.9282      7.4526      8.2376      9.4113      11.890      16.062      21.278      26.127      29.054      29.054    
  34.367      29.189      22.436      16.062      11.493      9.0703      7.9744      7.2268      6.7862      6.6460    
  6.7865      7.2269      7.9741      9.0699      11.493      16.062      22.436      29.188      34.366      36.309    
  40.635      36.360      29.189      21.278      14.667      10.475      8.5252      7.5790      6.9382      6.6286    
  6.6288      6.9384      7.5787      8.5244      10.475      14.667      21.278      29.188      36.359      40.634    
  23.592      22.386      19.211      15.185      11.571      9.1692      7.9284      7.1187      6.5320      6.2011    
  6.0978      6.2012      6.5320      7.1186      7.9284      9.1692      11.571      15.185      19.211      22.386    
  22.386      22.386      20.170      16.549      12.754      9.8436      8.1803      7.2667      6.5774      6.1369    
  5.9335      5.9334      6.1368      6.5776      7.2672      8.1808      9.8437      12.754      16.549      20.170    
  19.211      20.228      19.211      16.549      13.217      10.289      8.3882      7.3584      6.6066      6.0807    