unknown system                          
   1.00000000000000     
     2.353300    0.000000    0.000000
    -1.176650    2.038018    0.000000
     0.000000    0.000000    4.223820
   Fe
     2
Direct
  0.000000  0.000000  0.000000
  0.333333  0.666667  0.500000
 
   20   20   36
 0.17018378867E+03 0.16108598013E+03 0.13666494667E+03 0.10398237623E+03 0.70913732632E+02
 0.43385317266E+02 0.24361182012E+02 0.13976093291E+02 0.10023017656E+02 0.89149455726E+01
 0.85602816004E+01 0.89152379977E+01 0.10023261174E+02 0.13976027185E+02 0.24360929305E+02
 0.43385199206E+02 0.70913865111E+02 0.10398257241E+03 0.13666500633E+03 0.16108593584E+03
 0.16109299921E+03 0.16108579255E+03 0.14436417167E+03 0.11601152348E+03 0.83584022112E+02
 0.53950545974E+02 0.31456510477E+02 0.17568692501E+02 0.11176911778E+02 0.92382240059E+01
 0.85591073057E+01 0.85585344953E+01 0.92376277622E+01 0.11177530161E+02 0.17569187217E+02
 0.31454946348E+02 0.53949020731E+02 0.83588488894E+02 0.11602479222E+03 0.14438007208E+03
 0.13667548994E+03 0.14434637550E+03 0.13666499486E+03 0.11601170858E+03 0.88280366797E+02
 0.60167086474E+02 0.36850873651E+02 0.20978430132E+02 0.12597682936E+02 0.95587430373E+01
 0.85911676392E+01 0.82597335067E+01 0.85898160040E+01 0.95584506757E+01 0.12598826665E+02
 0.20977873733E+02 0.36846846343E+02 0.60163762111E+02 0.88284339223E+02 0.11602327727E+03
 0.10397796803E+03 0.11595003098E+03 0.11595162536E+03 0.10398272991E+03 0.83583958535E+02
 0.60166930868E+02 0.38865334273E+02 0.23055613449E+02 0.13794063814E+02 0.99008517506E+01
 0.86418745183E+01 0.80499187029E+01 0.80494406221E+01 0.86413395334E+01 0.99015477675E+01
 0.13795368952E+02 0.23055021153E+02 0.38861016960E+02 0.60159788172E+02 0.83576821143E+02
 0.70899219170E+02 0.83489277574E+02 0.88156638675E+02 0.83500898391E+02 0.70913752024E+02
 0.53950237673E+02 0.36850949762E+02 0.23055725879E+02 0.14262283277E+02 0.10138719644E+02
 0.86880755610E+01 0.79294342363E+01 0.76733148229E+01 0.79296925636E+01 0.86882363639E+01
 0.10139537106E+02 0.14265166939E+02 0.23059625534E+02 0.36851008668E+02 0.53941957361E+02
 0.43383829126E+02 0.53876012857E+02 0.60037195595E+02 0.60041131646E+02 0.53883001214E+02
 0.43385153589E+02 0.31456517683E+02 0.20978667929E+02 0.13793976957E+02 0.10138649665E+02
 0.87067951046E+01 0.78784237431E+01 0.74630937224E+01 0.74636486659E+01 0.78786834991E+01
 0.87054109130E+01 0.10138167026E+02 0.13798603254E+02 0.20987822132E+02 0.31463379797E+02
 0.24371412922E+02 0.31439530535E+02 0.36786842502E+02 0.38777280171E+02 0.36782725618E+02
 0.31431199687E+02 0.24361054610E+02 0.17568854483E+02 0.12597649728E+02 0.99006873313E+01
 0.86881777178E+01 0.78784648365E+01 0.73968867333E+01 0.72431914333E+01 0.73978475547E+01
 0.78775052551E+01 0.86840740392E+01 0.98967515507E+01 0.12598826665E+02 0.17576442423E+02
 0.13975428226E+02 0.17590065305E+02 0.20994543458E+02 0.23054536048E+02 0.23049933331E+02
 0.20984596263E+02 0.17582815448E+02 0.13976064964E+02 0.11177010596E+02 0.95585938106E+01
 0.86419351868E+01 0.79295428590E+01 0.74629657158E+01 0.72431581314E+01 0.72439822281E+01
 0.74644197865E+01 0.79290936045E+01 0.86373341114E+01 0.95504713148E+01 0.11169867832E+02
 0.10011653814E+02 0.11202639420E+02 0.12652590651E+02 0.13861226524E+02 0.14329734074E+02
 0.13858009715E+02 0.12652536177E+02 0.11210154178E+02 0.10023143140E+02 0.92381929546E+01
 0.85910914574E+01 0.80500428089E+01 0.76732214122E+01 0.74635646750E+01 0.73980104765E+01
 0.74644638021E+01 0.76763534044E+01 0.80540450032E+01 0.85909397471E+01 0.92305643924E+01
 0.89146982983E+01 0.92686422176E+01 0.96223099225E+01 0.99937566018E+01 0.10248623706E+02
 0.10250040866E+02 0.99986413945E+01 0.96303114798E+01 0.92756008486E+01 0.89150518426E+01
 0.85589747672E+01 0.82597913709E+01 0.80495031095E+01 0.79296021188E+01 0.78788127001E+01
 0.78775933628E+01 0.79288945369E+01 0.80539833845E+01 0.82688515261E+01 0.85661375645E+01
 0.85707652172E+01 0.86060847037E+01 0.86695687262E+01 0.87492327432E+01 0.88191837912E+01
 0.88489878010E+01 0.88232737583E+01 0.87532472106E+01 0.86686023968E+01 0.85986360748E+01
 0.85602446261E+01 0.85584742247E+01 0.85899677142E+01 0.86412970708E+01 0.86881777178E+01
 0.87054641818E+01 0.86839132363E+01 0.86372309803E+01 0.85911676392E+01 0.85662098324E+01
 0.89144570744E+01 0.86060184619E+01 0.83502646491E+01 0.81751727786E+01 0.80822062609E+01
 0.80489241284E+01 0.80500211630E+01 0.80826575620E+01 0.81705379015E+01 0.83413086849E+01
 0.85991637299E+01 0.89151030437E+01 0.92377044563E+01 0.95584833497E+01 0.99013676653E+01
 0.10139531247E+02 0.10138231145E+02 0.98967358678E+01 0.95506532156E+01 0.92306721378E+01
 0.10011466214E+02 0.92685545142E+01 0.86698005468E+01 0.81752133684E+01 0.78365429039E+01
 0.76528967532E+01 0.75969206037E+01 0.76522061208E+01 0.78335191713E+01 0.81710263998E+01
 0.86696702217E+01 0.92761405480E+01 0.10023199058E+02 0.11177609555E+02 0.12598717553E+02
 0.13795347037E+02 0.14265377776E+02 0.13798668195E+02 0.12598750761E+02 0.11169848408E+02
 0.13975517131E+02 0.11202687598E+02 0.96224834274E+01 0.87492719754E+01 0.80820080503E+01
 0.76528959639E+01 0.74535015437E+01 0.74527666323E+01 0.76516299607E+01 0.80825699001E+01
 0.87537842139E+01 0.96303479405E+01 0.11209578018E+02 0.13976087763E+02 0.17569238807E+02
 0.20977874010E+02 0.23055149719E+02 0.23059641670E+02 0.20987584613E+02 0.17576332031E+02
 0.24371665629E+02 0.17590189460E+02 0.12652492494E+02 0.99936888292E+01 0.88190444329E+01
 0.80489524963E+01 0.75970682061E+01 0.74527273203E+01 0.75958527788E+01 0.80497307279E+01
 0.88232737583E+01 0.99979036319E+01 0.12651412434E+02 0.17582414552E+02 0.24361054610E+02
 0.31454949540E+02 0.36846787437E+02 0.38860927955E+02 0.36850873651E+02 0.31463375783E+02
 0.43383959128E+02 0.31439510759E+02 0.20994295489E+02 0.13861127367E+02 0.10248724937E+02
 0.88490645288E+01 0.80501125713E+01 0.76521139859E+01 0.76515386150E+01 0.80497937683E+01
 0.88503850961E+01 0.10249222428E+02 0.13856651577E+02 0.20985355442E+02 0.31432749661E+02
 0.43385165531E+02 0.53948879535E+02 0.60163684626E+02 0.60159866292E+02 0.53942124466E+02
 0.70899119291E+02 0.53875797097E+02 0.36786730259E+02 0.23054592501E+02 0.14329954451E+02
 0.10250083075E+02 0.88231741570E+01 0.80825842105E+01 0.78334810048E+01 0.80826947592E+01
 0.88233135152E+01 0.10249163405E+02 0.14326728093E+02 0.23050532290E+02 0.36786855342E+02
 0.53884371293E+02 0.70913784624E+02 0.83588562916E+02 0.88284496521E+02 0.83576958742E+02
 0.10397779879E+03 0.83489113503E+02 0.60037312288E+02 0.38777506865E+02 0.23050015070E+02
 0.13857908074E+02 0.99984643230E+01 0.87532732458E+01 0.81706359378E+01 0.81710838463E+01
 0.87537710169E+01 0.99977943330E+01 0.13856649094E+02 0.23050557576E+02 0.38781665766E+02
 0.60044338997E+02 0.83496320961E+02 0.10398275686E+03 0.11602486433E+03 0.11602316428E+03
 0.13667543029E+03 0.11595017273E+03 0.88156808233E+02 0.60041280248E+02 0.36782600535E+02
 0.20984391961E+02 0.12652492494E+02 0.96304526578E+01 0.86687327218E+01 0.83412307602E+01
 0.86695687262E+01 0.96303156137E+01 0.12651466908E+02 0.20985399109E+02 0.36786842502E+02
 0.60044370906E+02 0.88152476350E+02 0.11593847559E+03 0.13666499486E+03 0.14437978043E+03
 0.16109303010E+03 0.14434672742E+03 0.11595166814E+03 0.83500740910E+02 0.53882847074E+02
 0.31431102645E+02 0.17582941420E+02 0.11210313735E+02 0.92756044909E+01 0.85984799869E+01
 0.85990738838E+01 0.92762318938E+01 0.11209689397E+02 0.17582416369E+02 0.31432672394E+02
 0.53884432913E+02 0.83496327550E+02 0.11593837662E+03 0.14433074720E+03 0.16108577916E+03
 0.16108981421E+03 0.15248633890E+03 0.12937507130E+03 0.98412158140E+02 0.67067745209E+02
 0.41012992054E+02 0.23101119073E+02 0.13431955708E+02 0.98146402660E+01 0.87650376842E+01
 0.84199647690E+01 0.87653201942E+01 0.98148750991E+01 0.13431890608E+02 0.23100873044E+02
 0.41012876116E+02 0.67067872030E+02 0.98412347483E+02 0.12937512938E+03 0.15248629657E+03
 0.15249284182E+03 0.15248615608E+03 0.13666193425E+03 0.10980652554E+03 0.79067561912E+02
 0.50991632658E+02 0.29752499377E+02 0.16747763722E+02 0.10853766571E+02 0.90744193703E+01
 0.84128291483E+01 0.84122767550E+01 0.90738435667E+01 0.10854383106E+02 0.16748333857E+02
 0.29751155014E+02 0.50990252390E+02 0.79071675029E+02 0.10981879549E+03 0.13667667111E+03
 0.12938484837E+03 0.13664911508E+03 0.12937511780E+03 0.10980670578E+03 0.83516099064E+02
 0.56869788529E+02 0.34824740305E+02 0.19914592596E+02 0.12141568761E+02 0.93677170022E+01
 0.84397061550E+01 0.81187139781E+01 0.84383958860E+01 0.93674129426E+01 0.12142679088E+02
 0.19914171904E+02 0.34821059679E+02 0.56866683303E+02 0.83519728426E+02 0.10981740348E+03
 0.98408100806E+02 0.10975934092E+03 0.10976081145E+03 0.98412502533E+02 0.79067500586E+02
 0.56869637134E+02 0.36721417238E+02 0.21850285425E+02 0.13233282250E+02 0.96703645636E+01
 0.84862883297E+01 0.79136635507E+01 0.79132050337E+01 0.84857542708E+01 0.96709641149E+01
 0.13234447581E+02 0.21849693522E+02 0.36717376969E+02 0.56862992725E+02 0.79060883107E+02
 0.67054341251E+02 0.78996083880E+02 0.83423847155E+02 0.79006833073E+02 0.67067764641E+02
 0.50991332715E+02 0.34824813845E+02 0.21850394775E+02 0.13661981533E+02 0.98806259355E+01
 0.85297464357E+01 0.77963104647E+01 0.75500303943E+01 0.77965835009E+01 0.85299026024E+01
 0.98813207537E+01 0.13664551817E+02 0.21853940199E+02 0.34824871472E+02 0.50983707145E+02
 0.41011647885E+02 0.50943629894E+02 0.56783044287E+02 0.56786698493E+02 0.50950103263E+02
 0.41012832841E+02 0.29752505996E+02 0.19914823958E+02 0.13233198357E+02 0.98805579710E+01
 0.85474886503E+01 0.77467101177E+01 0.73479093367E+01 0.73484646074E+01 0.77470296680E+01
 0.85462449573E+01 0.98800925229E+01 0.13237466027E+02 0.19923337390E+02 0.29758928490E+02
 0.23110592031E+02 0.29759471980E+02 0.34805377163E+02 0.36686229982E+02 0.34801607197E+02
 0.29751796420E+02 0.23100995262E+02 0.16747921501E+02 0.12141536915E+02 0.96702046625E+01
 0.85298451007E+01 0.77467498346E+01 0.72843864671E+01 0.71373146860E+01 0.72853168313E+01
 0.77459148297E+01 0.85260908102E+01 0.96666040451E+01 0.12142679088E+02 0.16754992495E+02
 0.13431292644E+02 0.16788980515E+02 0.19969916378E+02 0.21900787430E+02 0.21896540419E+02
 0.19960748614E+02 0.16782325962E+02 0.13431928410E+02 0.10853862494E+02 0.93675714206E+01
 0.84863466614E+01 0.77964158289E+01 0.73477853377E+01 0.71372825799E+01 0.71380260422E+01
 0.73490948745E+01 0.77959855372E+01 0.84821055573E+01 0.93600736514E+01 0.10847239897E+02
 0.98040674590E+01 0.10896275745E+02 0.12229065723E+02 0.13345140544E+02 0.13778840260E+02
 0.13342138355E+02 0.12229012466E+02 0.10903276404E+02 0.98147617880E+01 0.90743884464E+01
 0.84396320135E+01 0.79137846602E+01 0.75499401512E+01 0.73483833014E+01 0.72854751200E+01
 0.73491375675E+01 0.75527535336E+01 0.79174517109E+01 0.84394845389E+01 0.90672983215E+01
 0.87648016654E+01 0.91189203774E+01 0.94585509097E+01 0.98008770589E+01 0.10033842904E+02
 0.10035118264E+02 0.98053257175E+01 0.94659128937E+01 0.91253637524E+01 0.87651407111E+01
 0.84127007265E+01 0.81187712628E+01 0.79132661314E+01 0.77964952638E+01 0.77471549709E+01
 0.77460004157E+01 0.77957919358E+01 0.79173916991E+01 0.81271697618E+01 0.84193405289E+01
 0.84296837562E+01 0.84714971095E+01 0.85412240219E+01 0.86256511985E+01 0.86982566434E+01
 0.87287267983E+01 0.87020006841E+01 0.86293102362E+01 0.85402867129E+01 0.84645810182E+01
 0.84199292758E+01 0.84122188301E+01 0.84385433606E+01 0.84857120653E+01 0.85298451007E+01
 0.85462970519E+01 0.85259346434E+01 0.84820050201E+01 0.84397061550E+01 0.84194110259E+01
 0.87645671085E+01 0.84714323784E+01 0.82303915181E+01 0.80669760495E+01 0.79813680808E+01
 0.79513246021E+01 0.79523609416E+01 0.79818228771E+01 0.80626984195E+01 0.82220902376E+01
 0.84650882265E+01 0.87651886641E+01 0.90739178706E+01 0.93674440327E+01 0.96707886308E+01
 0.98813156261E+01 0.98801553597E+01 0.96665884622E+01 0.93602503230E+01 0.90674035494E+01
 0.98038852200E+01 0.91188344867E+01 0.85414493359E+01 0.80670158727E+01 0.77433460103E+01
 0.75682611821E+01 0.75149931810E+01 0.75677080411E+01 0.77406364409E+01 0.80631689953E+01
 0.85413227716E+01 0.91258822812E+01 0.98148143822E+01 0.10854460458E+02 0.12142572974E+02
 0.13234426588E+02 0.13664757266E+02 0.13237528927E+02 0.12142604819E+02 0.10847221326E+02
 0.13431379475E+02 0.10896322270E+02 0.94587194296E+01 0.86256900311E+01 0.79811756772E+01
 0.75682601813E+01 0.73767361408E+01 0.73760780377E+01 0.75671318083E+01 0.79817172200E+01
 0.86298498366E+01 0.94659705977E+01 0.10902700172E+02 0.13431950141E+02 0.16748384341E+02
 0.19914171960E+02 0.21849818543E+02 0.21853955869E+02 0.19923106084E+02 0.16754885200E+02
 0.23110838060E+02 0.16789101334E+02 0.12228970042E+02 0.98008115192E+01 0.86981214596E+01
 0.79513517006E+01 0.75151362408E+01 0.73760398248E+01 0.75139571223E+01 0.79520104491E+01
 0.87020006841E+01 0.98046871055E+01 0.12227923813E+02 0.16781848081E+02 0.23100995262E+02
 0.29751157682E+02 0.34821002053E+02 0.36717290644E+02 0.34824740305E+02 0.29758924539E+02
 0.41011774221E+02 0.29759452884E+02 0.19969675072E+02 0.13345043987E+02 0.10033941397E+02
 0.87288010464E+01 0.79524494500E+01 0.75676185815E+01 0.75670433495E+01 0.79520718589E+01
 0.87299812634E+01 0.10034418960E+02 0.13340920522E+02 0.19961368483E+02 0.29753127646E+02
 0.41012843240E+02 0.50990114882E+02 0.56866608289E+02 0.56863069107E+02 0.50983869580E+02
 0.67054243738E+02 0.50943420045E+02 0.34805268013E+02 0.21900842093E+02 0.13779054442E+02
 0.10035159229E+02 0.87019039431E+01 0.79817519100E+01 0.77405995855E+01 0.79818386566E+01
 0.87020391269E+01 0.10034361432E+02 0.13776146430E+02 0.21897138383E+02 0.34805389680E+02
 0.50951331494E+02 0.67067793949E+02 0.79071747264E+02 0.83519881547E+02 0.79061016666E+02
 0.98407935888E+02 0.78995924418E+02 0.56783158010E+02 0.36686450433E+02 0.21896619840E+02
 0.13342039567E+02 0.98051538551E+01 0.86293360510E+01 0.80627936200E+01 0.80632243726E+01
 0.86298368187E+01 0.98045807827E+01 0.13340918291E+02 0.21897163141E+02 0.36690338842E+02
 0.56789692515E+02 0.79002610820E+02 0.98412526958E+02 0.10981886529E+03 0.10981729303E+03
 0.12938479029E+03 0.10975947932E+03 0.83424012520E+02 0.56786843071E+02 0.34801485530E+02
 0.19960549926E+02 0.12228970042E+02 0.94660505099E+01 0.85404132772E+01 0.82220136292E+01
 0.85412240219E+01 0.94659396940E+01 0.12227977070E+02 0.19961411101E+02 0.34805377163E+02
 0.56789723369E+02 0.83420035363E+02 0.10974865746E+03 0.12937511780E+03 0.13667638681E+03
 0.15249287195E+03 0.13664945814E+03 0.10976085359E+03 0.79006679720E+02 0.50949953094E+02
 0.29751702002E+02 0.16782448201E+02 0.10903431552E+02 0.91253675360E+01 0.84644287534E+01
 0.84650006927E+01 0.91259719555E+01 0.10902808794E+02 0.16781849502E+02 0.29753052323E+02
 0.50951391174E+02 0.79002616929E+02 0.10974856119E+03 0.13663464478E+03 0.15248614389E+03
 0.13667481239E+03 0.12938157305E+03 0.10975454461E+03 0.83398323542E+02 0.56714026449E+02
 0.34670477440E+02 0.19784898957E+02 0.12035092241E+02 0.92743237708E+01 0.83556731135E+01
 0.80393357341E+01 0.83559276962E+01 0.92745340113E+01 0.12035029880E+02 0.19784672166E+02
 0.34670368696E+02 0.56714138847E+02 0.83398494479E+02 0.10975459815E+03 0.12938153578E+03
 0.12938670914E+03 0.12938140400E+03 0.11594210618E+03 0.93087221775E+02 0.66896507806E+02
 0.43050357134E+02 0.25230572880E+02 0.14613942067E+02 0.10027966700E+02 0.86221477447E+01
 0.80133467741E+01 0.80128531739E+01 0.86216309017E+01 0.10028567840E+02 0.14614685741E+02
 0.25229785646E+02 0.43049352460E+02 0.66899690279E+02 0.93096853633E+02 0.11595376256E+03
 0.10976229132E+03 0.11594300921E+03 0.10975458635E+03 0.93087388044E+02 0.70674817165E+02
 0.48007063480E+02 0.29425507891E+02 0.17127433291E+02 0.10972077956E+02 0.88594465774E+01
 0.80233039190E+01 0.77326586961E+01 0.80221159179E+01 0.88591187866E+01 0.10973088482E+02
 0.17127350541E+02 0.29422733255E+02 0.48004543243E+02 0.70677549007E+02 0.93095784169E+02
 0.83395189984E+02 0.93079164537E+02 0.93080308998E+02 0.83398641212E+02 0.66896452904E+02
 0.48006924163E+02 0.31001108729E+02 0.18680756722E+02 0.11788845064E+02 0.90701825296E+01
 0.80559426415E+01 0.75390799117E+01 0.75386771676E+01 0.80554207593E+01 0.90705379034E+01
 0.11789650755E+02 0.18680175915E+02 0.30997811206E+02 0.48001604914E+02 0.66891212424E+02
 0.56703550936E+02 0.66888339819E+02 0.70668330181E+02 0.66896785088E+02 0.56714045903E+02
 0.43050081157E+02 0.29425574016E+02 0.18680857201E+02 0.12113054081E+02 0.92130530180E+01
 0.80898897572E+01 0.74287158078E+01 0.72100226802E+01 0.74290205528E+01 0.80900325691E+01
 0.92134377434E+01 0.12114817964E+02 0.18683480410E+02 0.29425627988E+02 0.43044179100E+02
 0.34669506001E+02 0.43074521361E+02 0.48037725694E+02 0.48040631789E+02 0.43079631185E+02
 0.34670330992E+02 0.25230577769E+02 0.17127646094E+02 0.11788769715E+02 0.92129908769E+01
 0.81042032809E+01 0.73819920899E+01 0.70290595934E+01 0.70296057310E+01 0.73824506385E+01
 0.81033217956E+01 0.92125750481E+01 0.11792092555E+02 0.17134456060E+02 0.25235821701E+02
 0.19792365344E+02 0.25303213796E+02 0.29528270005E+02 0.31110367499E+02 0.29525408554E+02
 0.25297263804E+02 0.19784785422E+02 0.14614087734E+02 0.10972050094E+02 0.90700357102E+01
 0.80899784416E+01 0.73820278524E+01 0.69724720601E+01 0.68434130011E+01 0.69733115736E+01
 0.73815091798E+01 0.80871378357E+01 0.90673121717E+01 0.10973088482E+02 0.14619780338E+02
 0.12034444862E+02 0.14710732059E+02 0.17291774813E+02 0.18874248550E+02 0.18870939308E+02
 0.17284659593E+02 0.14705639464E+02 0.12035067963E+02 0.10028054376E+02 0.88593115820E+01
 0.80559943100E+01 0.74288117784E+01 0.70289470849E+01 0.68433843089E+01 0.68439192554E+01
 0.70298834086E+01 0.74284355352E+01 0.80527012819E+01 0.88534609805E+01 0.10022809462E+02
 0.92658563958E+01 0.10119143666E+02 0.11153318705E+02 0.12028662957E+02 0.12371134614E+02
 0.12026234101E+02 0.11153269011E+02 0.10124773635E+02 0.92744339655E+01 0.86221172504E+01
 0.80232356471E+01 0.75391923128E+01 0.72099414921E+01 0.70295321025E+01 0.69734564979E+01
 0.70299222888E+01 0.72119329758E+01 0.75419816626E+01 0.80231003557E+01 0.86164575415E+01
 0.83554695908E+01 0.87093490279E+01 0.90325674309E+01 0.93139820025E+01 0.94967052236E+01
 0.94976140833E+01 0.93172940922E+01 0.90382477297E+01 0.87144282399E+01 0.83557667949E+01
 0.80132300968E+01 0.77327141607E+01 0.75387342074E+01 0.74289386907E+01 0.73825647211E+01
 0.73815874999E+01 0.74282577025E+01 0.75419263014E+01 0.77393596253E+01 0.80184846395E+01
 0.80470289118E+01 0.81089411781E+01 0.81979186845E+01 0.82973048327E+01 0.83785708767E+01
 0.84113972451E+01 0.83814092491E+01 0.83000368222E+01 0.81970685088E+01 0.81034390530E+01
 0.80393043479E+01 0.80128018831E+01 0.80222512092E+01 0.80553794008E+01 0.80899784416E+01
 0.81033704771E+01 0.80869950238E+01 0.80526082548E+01 0.80233039190E+01 0.80185500258E+01
 0.83552542341E+01 0.81088808046E+01 0.79128444251E+01 0.77858771039E+01 0.77241276189E+01
 0.77051049221E+01 0.77059755727E+01 0.77245825936E+01 0.77825416202E+01 0.79062782629E+01
 0.81038878239E+01 0.83558060209E+01 0.86216983711E+01 0.88591454437E+01 0.90703758262E+01
 0.92134346929E+01 0.92126341386E+01 0.90672969139E+01 0.88536226330E+01 0.86165555051E+01
 0.92656895865E+01 0.87092683559E+01 0.81981252375E+01 0.77859146872E+01 0.75092932143E+01
 0.73618379481E+01 0.73175025480E+01 0.73616290211E+01 0.75073943023E+01 0.77829604996E+01
 0.81980095154E+01 0.87148863452E+01 0.92744773967E+01 0.10028639393E+02 0.10972991101E+02
 0.11789632411E+02 0.12115007808E+02 0.11792149559E+02 0.10973018962E+02 0.10022793340E+02
 0.12034525692E+02 0.10119185436E+02 0.90327215682E+01 0.82973424615E+01 0.77239519246E+01
 0.73618363656E+01 0.71953813630E+01 0.71949215639E+01 0.73610624721E+01 0.77244349240E+01
 0.83005734797E+01 0.90383561733E+01 0.10124207086E+02 0.12035086432E+02 0.14614733046E+02
 0.17127349948E+02 0.18680290652E+02 0.18683494668E+02 0.17134242664E+02 0.14619681976E+02
 0.19792592135E+02 0.14710843272E+02 0.11153230141E+02 0.93139228644E+01 0.83784477049E+01
 0.77051284168E+01 0.73176325689E+01 0.71948865325E+01 0.73165615414E+01 0.77054849747E+01
 0.83814092491E+01 0.93169077054E+01 0.11152284574E+02 0.14704982727E+02 0.19784785422E+02
 0.25229786792E+02 0.29422679282E+02 0.30997732516E+02 0.29425507891E+02 0.25235817959E+02
 0.34669621811E+02 0.25303196648E+02 0.17291552709E+02 0.12028573909E+02 0.94967958548E+01
 0.84114643991E+01 0.77060557638E+01 0.73615472861E+01 0.73609823197E+01 0.77055416712E+01
 0.84122827652E+01 0.94972165602E+01 0.12025378473E+02 0.17284930204E+02 0.25298040670E+02
 0.34670338058E+02 0.43049225529E+02 0.48004475297E+02 0.48001676285E+02 0.43044328146E+02
 0.56703460271E+02 0.43074328508E+02 0.29528169759E+02 0.18874298102E+02 0.12371330991E+02
 0.94976514833E+01 0.83813207048E+01 0.77245184736E+01 0.75073612210E+01 0.77245464982E+01
 0.83814438766E+01 0.94971633289E+01 0.12369246052E+02 0.18871524325E+02 0.29528281554E+02
 0.43080493880E+02 0.56714067636E+02 0.66899757399E+02 0.70677690165E+02 0.66891334446E+02
 0.83395037532E+02 0.66888193562E+02 0.48037830812E+02 0.31110569999E+02 0.18871012092E+02
 0.12026143527E+02 0.93171371563E+01 0.83000619230E+01 0.77826286767E+01 0.77830099728E+01
 0.83005609516E+01 0.93168099077E+01 0.12025376947E+02 0.18871547557E+02 0.31113732273E+02
 0.48043055104E+02 0.66893499078E+02 0.83398659697E+02 0.93096916878E+02 0.93095681146E+02
 0.10976223779E+03 0.93079293199E+02 0.70668483340E+02 0.48040764778E+02 0.29525296759E+02
 0.17284477103E+02 0.11153230141E+02 0.90383749962E+01 0.81971842309E+01 0.79062055687E+01
 0.81979186845E+01 0.90383293026E+01 0.11152334267E+02 0.17284969818E+02 0.29528270005E+02
 0.48043082975E+02 0.70665435448E+02 0.93070784525E+02 0.10975458635E+03 0.11595349952E+03
 0.12938673707E+03 0.11594332662E+03 0.93080349156E+02 0.66896643593E+02 0.43079492529E+02
 0.25297176999E+02 0.14705750970E+02 0.10124916006E+02 0.87144323764E+01 0.81032979047E+01
 0.81038070491E+01 0.87149711539E+01 0.10124307686E+02 0.14704983021E+02 0.25297971012E+02
 0.43080548077E+02 0.66893503839E+02 0.93070696021E+02 0.11593160237E+03 0.12938139466E+03
 0.10396729871E+03 0.98396811290E+02 0.83383097052E+02 0.63205150525E+02 0.42865223752E+02
 0.26334475094E+02 0.15579010786E+02 0.10349533562E+02 0.85755877288E+01 0.77881072571E+01
 0.75178245426E+01 0.77883212355E+01 0.85757621350E+01 0.10349475461E+02 0.15578813521E+02
 0.26334379881E+02 0.42865318496E+02 0.63205296435E+02 0.83383143620E+02 0.98396780336E+02
 0.98400184784E+02 0.98396663492E+02 0.88109503726E+02 0.70595351958E+02 0.50563080754E+02
 0.32515854530E+02 0.19389367191E+02 0.11978406942E+02 0.90254880353E+01 0.79836087521E+01
 0.74606371215E+01 0.74602328477E+01 0.79831819426E+01 0.90260399275E+01 0.11979300595E+02
 0.19389228376E+02 0.32515310838E+02 0.50565079636E+02 0.70601600408E+02 0.88117188935E+02
 0.83388221314E+02 0.88129347466E+02 0.83383131784E+02 0.70595496826E+02 0.53428060490E+02
 0.36205429408E+02 0.22384608158E+02 0.13627641172E+02 0.95594421983E+01 0.81617676082E+01
 0.74405541421E+01 0.71964359195E+01 0.74395597221E+01 0.81614294628E+01 0.95602916034E+01
 0.13627933525E+02 0.22382968030E+02 0.36203677285E+02 0.53429666098E+02 0.70600938526E+02
 0.63203192959E+02 0.70640575517E+02 0.70641304804E+02 0.63205427270E+02 0.50563035483E+02
 0.36205308503E+02 0.23519819435E+02 0.14669069938E+02 0.10033548822E+02 0.82938453996E+01
 0.74469752514E+01 0.70145510408E+01 0.70142311116E+01 0.74464958061E+01 0.82939171079E+01
 0.10033920410E+02 0.14668532008E+02 0.23517505816E+02 0.36201714430E+02 0.50559571712E+02
 0.42858497499E+02 0.50640378463E+02 0.53537620879E+02 0.50645864446E+02 0.42865242964E+02
 0.32515615056E+02 0.22384662892E+02 0.14669156802E+02 0.10225342155E+02 0.83690036404E+01
 0.74624163118E+01 0.69094937302E+01 0.67305882745E+01 0.69098186805E+01 0.74625386531E+01
 0.83690299466E+01 0.10226132507E+02 0.14670635484E+02 0.22384711334E+02 0.32511906389E+02
 0.26333960348E+02 0.32637306112E+02 0.36394485992E+02 0.36396422345E+02 0.32640658051E+02
 0.26334347947E+02 0.19389369328E+02 0.13627825494E+02 0.10033486550E+02 0.83689504906E+01
 0.74699644909E+01 0.68640225039E+01 0.65759858724E+01 0.65764923047E+01 0.68646064169E+01
 0.74695229438E+01 0.83686104141E+01 0.10035604353E+02 0.13632419388E+02 0.19393052356E+02
 0.15583891214E+02 0.19551533240E+02 0.22653185652E+02 0.23825007467E+02 0.22651467021E+02
 0.19547781007E+02 0.15578912877E+02 0.11978534007E+02 0.95594205358E+01 0.82937188420E+01
 0.74624899116E+01 0.68640522478E+01 0.65278195982E+01 0.64232802481E+01 0.65285137242E+01
 0.68639039006E+01 0.74607953496E+01 0.82920966161E+01 0.95602916034E+01 0.11982422060E+02
 0.10348935992E+02 0.12153293095E+02 0.13943566185E+02 0.15060515321E+02 0.15058403628E+02
 0.13939065562E+02 0.12150173816E+02 0.10349513977E+02 0.90255633450E+01 0.81616491151E+01
 0.74470169084E+01 0.69095752965E+01 0.65758908227E+01 0.64232566985E+01 0.64235367329E+01
 0.65763723684E+01 0.69092792118E+01 0.74449317992E+01 0.81579026009E+01 0.90220960104E+01
 0.85698659389E+01 0.91882895258E+01 0.98770844907E+01 0.10458267844E+02 0.10687001283E+02
 0.10456592556E+02 0.98770404293E+01 0.91921255000E+01 0.85756808348E+01 0.79835791259E+01
 0.74404948447E+01 0.70146498535E+01 0.67305207563E+01 0.65764302914E+01 0.65286381004E+01
 0.65764054048E+01 0.67315130757E+01 0.70163345873E+01 0.74403782244E+01 0.79797774942E+01
 0.77879531377E+01 0.81369110253E+01 0.84616418156E+01 0.87115357340E+01 0.88526177373E+01
 0.88530794201E+01 0.87134340346E+01 0.84651873224E+01 0.81402318861E+01 0.77881866057E+01
 0.74605381308E+01 0.71964881512E+01 0.70142817558E+01 0.69097466674E+01 0.68647033294E+01
 0.68639710692E+01 0.69091256325E+01 0.70162864188E+01 0.72008703478E+01 0.74640053938E+01
 0.75229022364E+01 0.76158319623E+01 0.77330549808E+01 0.78537903615E+01 0.79472732934E+01
 0.79834619498E+01 0.79489731643E+01 0.78553669919E+01 0.77323463250E+01 0.76121640516E+01
 0.75177990353E+01 0.74601913790E+01 0.74396763424E+01 0.74464560938E+01 0.74624899116E+01
 0.74695663044E+01 0.74606730084E+01 0.74448504299E+01 0.74405541421E+01 0.74640629157E+01
 0.77877672069E+01 0.76157783020E+01 0.74896448826E+01 0.74190907017E+01 0.73947439334E+01
 0.73933802785E+01 0.73940232274E+01 0.73951735014E+01 0.74169592881E+01 0.74853205542E+01
 0.76125254476E+01 0.77882146532E+01 0.79832390758E+01 0.81614496966E+01 0.82937759083E+01
 0.83690299728E+01 0.83686635902E+01 0.82920819741E+01 0.81580413279E+01 0.79798642536E+01
 0.85697227382E+01 0.81368384242E+01 0.77332327287E+01 0.74191247552E+01 0.72164248854E+01
 0.71128720807E+01 0.70828656103E+01 0.71130505344E+01 0.72155108908E+01 0.74172993383E+01
 0.77331336219E+01 0.81405999839E+01 0.85757120402E+01 0.90261028138E+01 0.95602078327E+01
 0.10033906083E+02 0.10226298162E+02 0.10035652298E+02 0.95602294952E+01 0.90220835869E+01
 0.10349007555E+02 0.91883240417E+01 0.84617738547E+01 0.78538259519E+01 0.73945937757E+01
 0.71128696856E+01 0.69862162325E+01 0.69859977250E+01 0.71125245270E+01 0.73949875442E+01
 0.78558716534E+01 0.84653452321E+01 0.91915994926E+01 0.10349527438E+02 0.11979342998E+02
 0.13627931969E+02 0.14668630794E+02 0.14670647407E+02 0.13632233510E+02 0.11982337398E+02
 0.15584088480E+02 0.12153389563E+02 0.98770068452E+01 0.87114862920E+01 0.79471684970E+01
 0.73933984023E+01 0.70829758116E+01 0.69859675914E+01 0.70820783135E+01 0.73934058110E+01
 0.79489731643E+01 0.87133433031E+01 0.98762219270E+01 0.12149356981E+02 0.15578912877E+02
 0.19389227162E+02 0.22382919588E+02 0.23517438593E+02 0.22384608158E+02 0.19393049006E+02
 0.26334060083E+02 0.19551519055E+02 0.13943373561E+02 0.10458190358E+02 0.88526963704E+01
 0.79835183597E+01 0.73940907794E+01 0.71129806821E+01 0.71124570698E+01 0.73934552392E+01
 0.79838983066E+01 0.88530325069E+01 0.10456177545E+02 0.13938941104E+02 0.19547913034E+02
 0.26334352469E+02 0.32515200045E+02 0.36203620039E+02 0.36201778089E+02 0.32512035070E+02
 0.42858417467E+02 0.32637139237E+02 0.22653099062E+02 0.15060557162E+02 0.10687170494E+02
 0.88531113813E+01 0.79488970882E+01 0.73951197831E+01 0.72154835911E+01 0.73950839835E+01
 0.79490018846E+01 0.88529858351E+01 0.10686091194E+02 0.15058943097E+02 0.22653195612E+02
 0.32641077583E+02 0.42865257676E+02 0.50565138959E+02 0.53429789081E+02 0.50559676305E+02
 0.63203059714E+02 0.50640252251E+02 0.36394577769E+02 0.23825182533E+02 0.15058466351E+02
 0.10456514558E+02 0.87132997366E+01 0.78553907552E+01 0.74170339444E+01 0.74173399410E+01
 0.78558598264E+01 0.87132584470E+01 0.10456177033E+02 0.15058963978E+02 0.23827381261E+02
 0.36398093623E+02 0.50643773635E+02 0.63205439935E+02 0.70601653967E+02 0.70600847217E+02
 0.83388174746E+02 0.70640688908E+02 0.53537754985E+02 0.36396537561E+02 0.22651370471E+02
 0.13938907947E+02 0.98770068452E+01 0.84652984496E+01 0.77324454319E+01 0.74852542301E+01
 0.77330549808E+01 0.84653243203E+01 0.98762659885E+01 0.13938976113E+02 0.22653185652E+02
 0.36398117062E+02 0.53535877575E+02 0.70635150726E+02 0.83383131784E+02 0.88116958777E+02
 0.98400209296E+02 0.88129625190E+02 0.70641341505E+02 0.50645741067E+02 0.32640537243E+02
 0.19547706039E+02 0.12150268924E+02 0.91922480546E+01 0.81402364297E+01 0.76120402463E+01
 0.76124553027E+01 0.81406771284E+01 0.91916875312E+01 0.12149355621E+02 0.19547852251E+02
 0.32641123650E+02 0.50643776468E+02 0.70635074035E+02 0.88121883130E+02 0.98396657049E+02
 0.70774774105E+02 0.66938256693E+02 0.56609077437E+02 0.42799134462E+02 0.29092047169E+02
 0.18335221057E+02 0.11791699703E+02 0.89204407590E+01 0.78239842365E+01 0.71807661095E+01
 0.69677183147E+01 0.71809338616E+01 0.78241180345E+01 0.89203885781E+01 0.11791538838E+02
 0.18335145580E+02 0.29092125966E+02 0.42799253785E+02 0.56609115412E+02 0.66938231559E+02
 0.66939983786E+02 0.66938135317E+02 0.59845364508E+02 0.47808832446E+02 0.34186553522E+02
 0.22223893831E+02 0.13960913236E+02 0.96986587715E+01 0.81040618154E+01 0.72874332071E+01