    2    2    1    1
  0.1012886E+02  0.2353300E-09  0.2353300E-09  0.4223820E-09  0.5000000E-15
  1.000000000000000E-004
  CAR 
 unknown system                          
     16     96     40
 
  0.0000000E+00  0.0000000E+00  0.0000000E+00  0.7513148E-03
    1       -1.962434   1.000000
    2        1.896627   1.000000
    3        4.633383   1.000000
    4        5.390223   1.000000
    5        5.390318   1.000000
    6        5.673931   1.000000
    7        5.674046   1.000000
    8        6.060673   1.000000
    9        6.734403   1.035282
   10        6.734429   1.035280
   11        7.724393  -0.000001
   12        7.724419  -0.000001
   13       14.038244   0.000000
   14       29.905166   0.000000
   15       30.711141   0.000000
   16       33.581494   0.000000
   17       36.108108   0.000000
   18       36.108167   0.000000
   19       36.608429   0.000000
   20       36.907314   0.000000
   21       36.907475   0.000000
   22       39.570709   0.000000
   23       39.570732   0.000000
   24       40.561053   0.000000
   25       43.081718   0.000000
   26       43.081726   0.000000
   27       43.535214   0.000000
   28       46.940443   0.000000
   29       46.940821   0.000000
   30       48.795664   0.000000
   31       48.795783   0.000000
   32       50.971766   0.000000
   33       58.533620   0.000000
   34       61.566426   0.000000
   35       61.567265   0.000000
   36       61.886372   0.000000
   37       62.596259   0.000000
   38       63.667127   0.000000
   39       63.742455   0.000000
   40       64.225702   0.000000
 
  0.9090909E-01 -0.1332918E-16  0.0000000E+00  0.4507889E-02
    1       -1.626138   1.000000
    2        2.153642   1.000000
    3        4.678765   1.000000
    4        5.292430   1.000000
    5        5.297697   1.000000
    6        5.553837   1.000000
    7        5.585152   1.000000
    8        5.857913   1.000000
    9        6.567602   1.007352
   10        6.623663   1.016616
   11        7.754294  -0.000000
   12        8.767551  -0.000000
   13       14.063006   0.000000
   14       29.423607   0.000000
   15       30.299034   0.000000
   16       31.980683   0.000000
   17       33.278132   0.000000
   18       35.438579   0.000000
   19       35.546436   0.000000
   20       36.479348   0.000000
   21       38.910359   0.000000
   22       39.524534   0.000000
   23       39.861077   0.000000
   24       40.522611   0.000000
   25       44.268507   0.000000
   26       44.339617   0.000000
   27       44.565983   0.000000
   28       44.757175   0.000000
   29       48.142752   0.000000
   30       50.057417   0.000000
   31       51.197738   0.000000
   32       53.030767   0.000000
   33       57.900661   0.000000
   34       59.951378   0.000000
   35       60.280297   0.000000
   36       60.931243   0.000000
   37       61.364575   0.000000
   38       64.236924   0.000000
   39       64.685665   0.000000
   40       64.792703   0.000000
 
  0.1818182E+00 -0.2203636E-16  0.0000000E+00  0.4507889E-02
    1       -0.674800   1.000000
    2        2.761772   1.000000
    3        4.277494   1.000000
    4        4.571621   1.000000
    5        5.079872   1.000000
    6        5.640095   1.000000
    7        6.137115   1.000000
    8        6.174725   1.000000
    9        6.361701   1.000068
   10        6.371999   1.000091
   11        7.797215  -0.000000
   12       10.554307  -0.000000
   13       14.174512   0.000000
   14       25.626912   0.000000
   15       30.439923   0.000000
   16       30.704389   0.000000
   17       30.823000   0.000000
   18       31.565068   0.000000
   19       35.635244   0.000000
   20       36.598952   0.000000
   21       36.985904   0.000000
   22       37.946437   0.000000
   23       40.697714   0.000000
   24       41.359981   0.000000
   25       44.465422   0.000000
   26       45.640695   0.000000
   27       47.064370   0.000000
   28       49.228874   0.000000
   29       50.865027   0.000000
   30       53.464002   0.000000
   31       54.063325   0.000000
   32       56.377082   0.000000
   33       56.770809   0.000000
   34       57.011859   0.000000
   35       58.576513   0.000000
   36       59.988105   0.000000
   37       61.693791   0.000000
   38       64.104212   0.000000
   39       65.285805   0.000000
   40       65.955996   0.000000
 
  0.2727273E+00 -0.4107868E-16  0.0000000E+00  0.4507889E-02
    1        0.674111   1.000000
    2        3.054804   1.000000
    3        3.490003   1.000000
    4        4.558964   1.000000
    5        4.889732   1.000000
    6        5.683831   1.000000
    7        6.063048   1.000000
    8        6.394031   1.000167
    9        6.917107   0.725596
   10        7.087564   0.091929
   11        7.814754  -0.000000
   12       12.600490   0.000000
   13       14.428470   0.000000
   14       21.566492   0.000000
   15       27.214797   0.000000
   16       27.999877   0.000000
   17       28.925147   0.000000
   18       31.732806   0.000000
   19       33.898617   0.000000
   20       36.463862   0.000000
   21       37.224081   0.000000
   22       37.373420   0.000000
   23       38.194398   0.000000
   24       41.595538   0.000000
   25       48.140080   0.000000
   26       49.428797   0.000000
   27       50.608939   0.000000
   28       51.461842   0.000000
   29       51.985936   0.000000
   30       53.930587   0.000000
   31       55.132457   0.000000
   32       56.623657   0.000000
   33       58.203291   0.000000
   34       58.577379   0.000000
   35       59.611329   0.000000
   36       61.557752   0.000000
   37       63.004162   0.000000
   38       63.943621   0.000000
   39       65.921911   0.000000
   40       66.026353   0.000000
 
  0.3636364E+00 -0.4624321E-16  0.0000000E+00  0.4507889E-02
    1        1.874098   1.000000
    2        2.782245   1.000000
    3        2.972958   1.000000
    4        4.694289   1.000000
    5        5.247542   1.000000
    6        5.358494   1.000000
    7        5.815313   1.000000
    8        7.653049  -0.000008
    9        7.704695  -0.000001
   10        7.807001  -0.000000
   11        7.807956  -0.000000
   12       14.471637   0.000000
   13       14.808631   0.000000
   14       18.537174   0.000000
   15       23.866860   0.000000
   16       25.952624   0.000000
   17       26.142005   0.000000
   18       31.017050   0.000000
   19       32.920156   0.000000
   20       36.129325   0.000000
   21       36.784201   0.000000
   22       38.151782   0.000000
   23       38.365222   0.000000
   24       41.686599   0.000000
   25       48.579343   0.000000
   26       50.303951   0.000000
   27       51.498288   0.000000
   28       54.585957   0.000000
   29       54.724217   0.000000
   30       55.056082   0.000000
   31       56.853012   0.000000
   32       58.509055   0.000000
   33       58.688275   0.000000
   34       60.063989   0.000000
   35       62.046498   0.000000
   36       63.560651   0.000000
   37       63.661678   0.000000
   38       64.891814   0.000000
   39       66.238456   0.000000
   40       67.080540   0.000000
 
  0.4545455E+00 -0.5152375E-17  0.0000000E+00  0.4507889E-02
    1        2.334828   1.000000
    2        2.539544   1.000000
    3        2.720829   1.000000
    4        4.991657   1.000000
    5        5.265228   1.000000
    6        5.600200   1.000000
    7        5.674782   1.000000
    8        7.796696  -0.000000
    9        8.191542  -0.000000
   10        8.292266  -0.000000
   11        9.361729  -0.000000
   12       12.794264   0.000000
   13       16.913192   0.000000
   14       18.374296   0.000000
   15       21.203833   0.000000
   16       23.192460   0.000000
   17       25.107657   0.000000
   18       30.422324   0.000000
   19       32.622530   0.000000
   20       34.983648   0.000000
   21       36.542042   0.000000
   22       39.140132   0.000000
   23       40.805503   0.000000
   24       41.162199   0.000000
   25       45.197876   0.000000
   26       50.612480   0.000000
   27       52.371920   0.000000
   28       56.158735   0.000000
   29       57.202440   0.000000
   30       57.897505   0.000000
   31       58.694176   0.000000
   32       60.204223   0.000000
   33       60.537685   0.000000
   34       61.738776   0.000000
   35       62.715987   0.000000
   36       63.365362   0.000000
   37       65.339926   0.000000
   38       65.635995   0.000000
   39       66.597168   0.000000
   40       67.324486   0.000000
 
  0.9090909E-01  0.9090909E-01  0.0000000E+00  0.4507889E-02
    1       -0.979522   1.000000
    2        2.606058   1.000000
    3        4.543519   1.000000
    4        4.595078   1.000000
    5        5.309162   1.000000
    6        5.325919   1.000000
    7        5.989448   1.000000
    8        6.175299   1.000000
    9        6.255185   1.000002
   10        6.571768   1.007870
   11        7.754971  -0.000000
   12       10.054217  -0.000000
   13       14.135639   0.000000
   14       27.386901   0.000000
   15       28.667337   0.000000
   16       30.933101   0.000000
   17       32.638421   0.000000
   18       34.277105   0.000000
   19       34.453152   0.000000
   20       35.536999   0.000000
   21       36.266573   0.000000
   22       41.390709   0.000000
   23       41.502507   0.000000
   24       42.200891   0.000000
   25       43.228778   0.000000
   26       43.555481   0.000000
   27       43.858500   0.000000
   28       49.873686   0.000000
   29       51.750380   0.000000
   30       51.830333   0.000000
   31       52.072197   0.000000
   32       55.974694   0.000000
   33       57.081395   0.000000
   34       57.674979   0.000000
   35       58.787981   0.000000
   36       59.996032   0.000000
   37       61.292025   0.000000
   38       64.496640   0.000000
   39       65.270133   0.000000
   40       65.944331   0.000000
 
  0.1818182E+00  0.9090909E-01  0.0000000E+00  0.9015778E-02
    1        0.196849   1.000000
    2        3.186739   1.000000
    3        3.774677   1.000000
    4        4.321964   1.000000
    5        4.996558   1.000000
    6        5.716213   1.000000
    7        5.746540   1.000000
    8        6.309961   1.000015
    9        6.707946   1.034137
   10        6.992417   0.417171
   11        7.737686  -0.000000
   12       11.882672  -0.000000
   13       14.361161   0.000000
   14       23.646885   0.000000
   15       26.289175   0.000000
   16       29.090528   0.000000
   17       31.156706   0.000000
   18       31.758348   0.000000
   19       34.445921   0.000000
   20       34.771313   0.000000
   21       35.939658   0.000000
   22       40.206145   0.000000
   23       40.819423   0.000000
   24       42.046970   0.000000
   25       45.117287   0.000000
   26       46.053082   0.000000
   27       48.143629   0.000000
   28       51.745064   0.000000
   29       53.706504   0.000000
   30       54.312308   0.000000
   31       54.791325   0.000000
   32       56.719989   0.000000
   33       57.725137   0.000000
   34       57.799320   0.000000
   35       58.932199   0.000000
   36       59.470755   0.000000
   37       62.183021   0.000000
   38       64.744821   0.000000
   39       65.931208   0.000000
   40       66.386151   0.000000
 
  0.2727273E+00  0.9090909E-01  0.0000000E+00  0.9015778E-02
    1        1.565790   1.000000
    2        3.124843   1.000000
    3        3.206204   1.000000
    4        4.409355   1.000000
    5        5.072800   1.000000
    6        5.319442   1.000000
    7        5.944235   1.000000
    8        6.545899   1.005060
    9        7.491763  -0.000749
   10        7.714591  -0.000001
   11        7.949143  -0.000000
   12       13.985924   0.000000
   13       14.767501   0.000000
   14       19.885368   0.000000
   15       24.576533   0.000000
   16       25.628433   0.000000
   17       28.322978   0.000000
   18       30.108341   0.000000
   19       33.965257   0.000000
   20       35.293147   0.000000
   21       35.971212   0.000000
   22       39.586986   0.000000
   23       40.145171   0.000000
   24       43.100832   0.000000
   25       47.045289   0.000000
   26       49.672028   0.000000
   27       50.783572   0.000000
   28       50.857523   0.000000
   29       53.207022   0.000000
   30       55.241082   0.000000
   31       56.157003   0.000000
   32       58.308119   0.000000
   33       59.276424   0.000000
   34       59.727735   0.000000
   35       61.215604   0.000000
   36       63.089952   0.000000
   37       64.539987   0.000000
   38       64.945969   0.000000
   39       65.307500   0.000000
   40       66.395819   0.000000
 
  0.3636364E+00  0.9090909E-01  0.0000000E+00  0.9015778E-02
    1        2.413631   1.000000
    2        2.806869   1.000000
    3        2.873007   1.000000
    4        4.817995   1.000000
    5        5.055190   1.000000
    6        5.477379   1.000000
    7        5.641104   1.000000
    8        7.505728  -0.000537
    9        7.689503  -0.000002
   10        8.025276  -0.000000
   11        9.161027  -0.000000
   12       14.175996   0.000000
   13       16.219436   0.000000
   14       18.206248   0.000000
   15       22.583036   0.000000
   16       23.197149   0.000000
   17       25.067349   0.000000
   18       29.236585   0.000000
   19       33.036461   0.000000
   20       34.813304   0.000000
   21       37.547433   0.000000
   22       39.926345   0.000000
   23       40.710920   0.000000
   24       42.417650   0.000000
   25       47.214639   0.000000
   26       49.699860   0.000000
   27       51.091598   0.000000
   28       53.116900   0.000000
   29       54.692444   0.000000
   30       56.770908   0.000000
   31       58.105686   0.000000
   32       59.749041   0.000000
   33       60.593684   0.000000
   34       62.731779   0.000000
   35       62.819308   0.000000
   36       64.074528   0.000000
   37       64.351166   0.000000
   38       65.636123   0.000000
   39       66.356249   0.000000
   40       67.398949   0.000000
 
  0.4545455E+00  0.9090909E-01  0.0000000E+00  0.4507889E-02
    1        2.554582   1.000000
    2        2.702045   1.000000
    3        2.764850   1.000000
    4        4.962589   1.000000
    5        5.241598   1.000000
    6        5.523302   1.000000
    7        5.567930   1.000000
    8        7.677796  -0.000004
    9        8.060823  -0.000000
   10        8.088866  -0.000000
   11       10.392494  -0.000000
   12       12.537766   0.000000
   13       17.748671   0.000000
   14       18.824175   0.000000
   15       20.778650   0.000000
   16       22.187967   0.000000
   17       23.728294   0.000000
   18       28.923818   0.000000
   19       32.647673   0.000000
   20       34.646949   0.000000
   21       37.891167   0.000000
   22       40.689323   0.000000
   23       41.331237   0.000000
   24       42.232748   0.000000
   25       44.957182   0.000000
   26       50.944699   0.000000
   27       51.017762   0.000000
   28       53.604346   0.000000
   29       57.012663   0.000000
   30       57.310773   0.000000
   31       60.303844   0.000000
   32       60.716145   0.000000
   33       60.875199   0.000000
   34       60.884321   0.000000
   35       62.120077   0.000000
   36       64.644444   0.000000
   37       66.215376   0.000000
   38       66.261015   0.000000
   39       66.489473   0.000000
   40       67.817663   0.000000
 
  0.1818182E+00  0.1818182E+00  0.0000000E+00  0.4507889E-02
    1        1.472126   1.000000
    2        3.345200   1.000000
    3        3.661931   1.000000
    4        3.869348   1.000000
    5        5.054137   1.000000
    6        5.263228   1.000000
    7        5.990414   1.000000
    8        6.066302   1.000000
    9        7.463610  -0.001416
   10        7.609517  -0.000032
   11        8.020801  -0.000000
   12       13.727177   0.000000
   13       14.886753   0.000000
   14       21.657310   0.000000
   15       22.416430   0.000000
   16       27.236040   0.000000
   17       28.544546   0.000000
   18       30.674206   0.000000
   19       31.266139   0.000000
   20       35.430299   0.000000
   21       37.600666   0.000000
   22       41.357895   0.000000
   23       41.996343   0.000000
   24       44.159272   0.000000
   25       45.047732   0.000000
   26       46.978145   0.000000
   27       47.938474   0.000000
   28       52.218082   0.000000
   29       53.977209   0.000000
   30       54.561178   0.000000
   31       54.860656   0.000000
   32       58.708586   0.000000
   33       59.059296   0.000000
   34       61.835331   0.000000
   35       61.945066   0.000000
   36       62.015949   0.000000
   37       62.101750   0.000000
   38       65.317629   0.000000
   39       65.605718   0.000000
   40       67.313754   0.000000
 
  0.2727273E+00  0.1818182E+00  0.0000000E+00  0.9015778E-02
    1        2.688332   1.000000
    2        3.083264   1.000000
    3        3.362137   1.000000
    4        4.097070   1.000000
    5        4.987629   1.000000
    6        5.345261   1.000000
    7        5.654382   1.000000
    8        6.580787   1.009085
    9        7.497487  -0.000654
   10        7.945203  -0.000000
   11        9.324216  -0.000000
   12       15.565409   0.000000
   13       15.885709   0.000000
   14       18.665201   0.000000
   15       20.784321   0.000000
   16       24.508081   0.000000
   17       26.962633   0.000000
   18       27.114897   0.000000
   19       29.975430   0.000000
   20       37.664702   0.000000
   21       38.097616   0.000000
   22       41.281955   0.000000
   23       43.593463   0.000000
   24       45.117290   0.000000
   25       45.819111   0.000000
   26       47.954747   0.000000
   27       49.122050   0.000000
   28       50.160919   0.000000
   29       53.480996   0.000000
   30       54.503412   0.000000
   31       57.119238   0.000000
   32       59.910683   0.000000
   33       61.033515   0.000000
   34       62.262090   0.000000
   35       64.207466   0.000000
   36       64.357969   0.000000
   37       65.425775   0.000000
   38       65.703482   0.000000
   39       66.950845   0.000000
   40       68.277541   0.000000
 
  0.3636364E+00  0.1818182E+00  0.0000000E+00  0.9015778E-02
    1        2.973676   1.000000
    2        3.056834   1.000000
    3        3.178004   1.000000
    4        4.614665   1.000000
    5        4.939825   1.000000
    6        5.277252   1.000000
    7        5.626059   1.000000
    8        7.315470  -0.017956
    9        7.436400  -0.002508
   10        7.928268  -0.000000
   11       10.950581  -0.000000
   12       13.994502   0.000000
   13       18.116821   0.000000
   14       18.859108   0.000000
   15       19.892473   0.000000
   16       21.806737   0.000000
   17       24.124530   0.000000
   18       26.381368   0.000000
   19       29.331537   0.000000
   20       38.146151   0.000000
   21       39.880800   0.000000
   22       41.528025   0.000000
   23       42.906820   0.000000
   24       44.004152   0.000000
   25       47.534432   0.000000
   26       48.338563   0.000000
   27       49.930435   0.000000
   28       50.941394   0.000000
   29       54.501285   0.000000
   30       55.855930   0.000000
   31       56.724278   0.000000
   32       59.842825   0.000000
   33       60.513887   0.000000
   34       61.192407   0.000000
   35       65.265797   0.000000
   36       65.574003   0.000000
   37       66.945981   0.000000
   38       67.051665   0.000000
   39       67.216429   0.000000
   40       67.320104   0.000000
 
  0.2727273E+00  0.2727273E+00  0.0000000E+00  0.4507889E-02
    1        3.118648   1.000000
    2        3.472405   1.000000
    3        3.779497   1.000000
    4        3.824161   1.000000
    5        4.828649   1.000000
    6        5.235591   1.000000
    7        5.653180   1.000000
    8        6.850028   0.926000
    9        7.309573  -0.019242
   10        7.887339  -0.000000
   11       11.089629  -0.000000
   12       16.098120   0.000000
   13       16.753276   0.000000
   14       18.149476   0.000000
   15       19.515127   0.000000
   16       23.875210   0.000000
   17       23.879725   0.000000
   18       25.885157   0.000000
   19       26.724581   0.000000
   20       39.424063   0.000000
   21       40.233742   0.000000
   22       44.258874   0.000000
   23       45.326074   0.000000
   24       45.408128   0.000000
   25       45.567356   0.000000
   26       46.432401   0.000000
   27       48.834011   0.000000
   28       51.299185   0.000000
   29       51.553296   0.000000
   30       55.964872   0.000000
   31       55.980397   0.000000
   32       58.468622   0.000000
   33       60.403966   0.000000
   34       61.353681   0.000000
   35       65.316235   0.000000
   36       66.042692   0.000000
   37       66.242482   0.000000
   38       67.393982   0.000000
   39       67.396669   0.000000
   40       68.637046   0.000000
 
  0.3636364E+00  0.2727273E+00  0.0000000E+00  0.4507889E-02
    1        3.169735   1.000000
    2        3.604420   1.000000
    3        3.669699   1.000000
    4        4.170806   1.000000
    5        4.901105   1.000000
    6        4.910452   1.000000
    7        5.797072   1.000000
    8        7.235098  -0.034423
    9        7.236168  -0.034301
   10        7.551082  -0.000169
   11       12.884416   0.000000
   12       14.168277   0.000000
   13       16.367614   0.000000
   14       20.127336   0.000000
   15       20.485035   0.000000
   16       21.617003   0.000000
   17       23.665676   0.000000
   18       24.152149   0.000000
   19       26.124932   0.000000
   20       39.809143   0.000000
   21       42.757491   0.000000
   22       43.492533   0.000000
   23       44.390221   0.000000
   24       44.836100   0.000000
   25       46.451042   0.000000
   26       47.423950   0.000000
   27       50.630586   0.000000
   28       51.181944   0.000000
   29       51.425679   0.000000
   30       54.842496   0.000000
   31       56.102570   0.000000
   32       56.671389   0.000000
   33       59.863056   0.000000
   34       60.363809   0.000000
   35       65.480883   0.000000
   36       66.419708   0.000000
   37       67.443487   0.000000
   38       67.567096   0.000000
   39       67.953474   0.000000
   40       68.323916   0.000000
 
  0.0000000E+00  0.0000000E+00  0.9090909E-01  0.1502630E-02
    1       -1.884652   1.000000
    2        1.860340   1.000000
    3        4.613953   1.000000
    4        5.384400   1.000000
    5        5.384495   1.000000
    6        5.659387   1.000000
    7        5.659501   1.000000
    8        5.855790   1.000000
    9        6.767878   1.027468
   10        6.767904   1.027456
   11        7.716720  -0.000001
   12        7.716747  -0.000001
   13       14.405177   0.000000
   14       29.185303   0.000000
   15       30.840958   0.000000
   16       33.424485   0.000000
   17       36.156379   0.000000
   18       36.156432   0.000000
   19       36.924096   0.000000
   20       36.924251   0.000000
   21       37.154864   0.000000
   22       39.499752   0.000000
   23       39.499766   0.000000
   24       40.804684   0.000000
   25       42.764130   0.000000
   26       42.764142   0.000000
   27       43.734786   0.000000
   28       47.189461   0.000000
   29       47.189820   0.000000
   30       49.203761   0.000000
   31       49.203871   0.000000
   32       50.839168   0.000000
   33       57.877154   0.000000
   34       61.354580   0.000000
   35       61.355359   0.000000
   36       61.956285   0.000000
   37       61.956687   0.000000
   38       61.979042   0.000000
   39       63.003637   0.000000
   40       63.339924   0.000000
 
  0.9090909E-01 -0.1332918E-16  0.9090909E-01  0.9015778E-02
    1       -1.550087   1.000000
    2        2.121344   1.000000
    3        4.666189   1.000000
    4        5.147110   1.000000
    5        5.275946   1.000000
    6        5.576746   1.000000
    7        5.577648   1.000000
    8        5.842227   1.000000
    9        6.609053   1.013734
   10        6.662429   1.025308
   11        7.741662  -0.000000
   12        8.622850  -0.000000
   13       14.465254   0.000000
   14       29.268212   0.000000
   15       29.826393   0.000000
   16       31.964834   0.000000
   17       33.345832   0.000000
   18       34.806763   0.000000
   19       36.093681   0.000000
   20       36.953120   0.000000
   21       38.629294   0.000000
   22       39.626913   0.000000
   23       39.941696   0.000000
   24       40.714207   0.000000
   25       43.979910   0.000000
   26       44.078677   0.000000
   27       45.090347   0.000000
   28       45.243080   0.000000
   29       47.982908   0.000000
   30       50.315359   0.000000
   31       51.500744   0.000000
   32       52.976041   0.000000
   33       56.697527   0.000000
   34       59.672641   0.000000
   35       60.366231   0.000000
   36       61.067153   0.000000
   37       61.670943   0.000000
   38       63.233437   0.000000
   39       63.279387   0.000000
   40       64.658805   0.000000
 
  0.1818182E+00 -0.2203636E-16  0.9090909E-01  0.9015778E-02
    1       -0.605905   1.000000
    2        2.741915   1.000000
    3        4.204756   1.000000
    4        4.585320   1.000000
    5        5.051212   1.000000
    6        5.577459   1.000000
    7        6.100818   1.000000
    8        6.273194   1.000004
    9        6.325304   1.000023
   10        6.461778   1.000903
   11        7.777643  -0.000000
   12       10.207901  -0.000000
   13       14.705966   0.000000
   14       25.680685   0.000000
   15       29.942548   0.000000
   16       30.527872   0.000000
   17       30.930750   0.000000
   18       31.390996   0.000000
   19       35.338088   0.000000
   20       36.983495   0.000000
   21       37.466394   0.000000
   22       37.492405   0.000000
   23       41.091222   0.000000
   24       41.843237   0.000000
   25       44.685530   0.000000
   26       45.556562   0.000000
   27       46.858166   0.000000
   28       49.246976   0.000000
   29       50.651668   0.000000
   30       53.521596   0.000000
   31       54.363805   0.000000
   32       55.108166   0.000000
   33       56.254947   0.000000
   34       57.985579   0.000000
   35       58.404119   0.000000
   36       60.171224   0.000000
   37       61.794901   0.000000
   38       64.066752   0.000000
   39       64.131244   0.000000
   40       66.277538   0.000000
 
  0.2727273E+00 -0.4107868E-16  0.9090909E-01  0.9015778E-02
    1        0.722094   1.000000
    2        3.042611   1.000000
    3        3.474103   1.000000
    4        4.557692   1.000000
    5        4.859387   1.000000
    6        5.695300   1.000000
    7        6.083068   1.000000
    8        6.436613   1.000498
    9        6.925062   0.695512
   10        7.074952   0.123879
   11        7.792371  -0.000000
   12       11.893616  -0.000000
   13       15.266630   0.000000
   14       21.627550   0.000000
   15       26.801148   0.000000
   16       28.102725   0.000000
   17       29.208655   0.000000
   18       31.439082   0.000000
   19       33.739793   0.000000
   20       35.805231   0.000000
   21       36.248144   0.000000
   22       38.347233   0.000000
   23       39.199170   0.000000
   24       42.171657   0.000000
   25       48.231371   0.000000
   26       48.923363   0.000000
   27       50.010115   0.000000
   28       50.240461   0.000000
   29       53.488425   0.000000
   30       54.064967   0.000000
   31       55.379661   0.000000
   32       56.837360   0.000000
   33       57.389051   0.000000
   34       58.250347   0.000000
   35       60.121834   0.000000
   36       61.254413   0.000000
   37       63.308962   0.000000
   38       64.195613   0.000000
   39       64.690012   0.000000
   40       66.792997   0.000000
 
  0.3636364E+00 -0.4624321E-16  0.9090909E-01  0.9015778E-02
    1        1.865892   1.000000
    2        2.741285   1.000000
    3        3.061877   1.000000
    4        4.483510   1.000000
    5        5.341169   1.000000
    6        5.544019   1.000000
    7        5.846940   1.000000
    8        7.617463  -0.000025
    9        7.684834  -0.000003
   10        7.721087  -0.000001
   11        7.870662  -0.000000
   12       13.272196   0.000000
   13       16.033621   0.000000
   14       18.631633   0.000000
   15       23.490622   0.000000
   16       26.258740   0.000000
   17       26.380314   0.000000
   18       30.968093   0.000000
   19       32.884653   0.000000
   20       34.961277   0.000000
   21       36.555365   0.000000
   22       37.980947   0.000000
   23       39.616379   0.000000
   24       42.288742   0.000000
   25       47.386716   0.000000
   26       51.250877   0.000000
   27       51.572574   0.000000
   28       53.721459   0.000000
   29       54.123473   0.000000
   30       56.148181   0.000000
   31       56.751713   0.000000
   32       58.296863   0.000000
   33       59.290939   0.000000
   34       59.924555   0.000000
   35       62.123396   0.000000
   36       63.506505   0.000000
   37       64.039329   0.000000
   38       64.195660   0.000000
   39       66.854416   0.000000
   40       67.028769   0.000000
 
  0.4545455E+00 -0.5152375E-17  0.9090909E-01  0.9015778E-02
    1        2.264954   1.000000
    2        2.447452   1.000000
    3        2.934185   1.000000
    4        4.546157   1.000000
    5        5.512119   1.000000
    6        5.711166   1.000000
    7        5.894373   1.000000
    8        7.743624  -0.000000
    9        8.195269  -0.000000
   10        8.292719  -0.000000
   11        9.273851  -0.000000
   12       12.602243   0.000000
   13       16.805125   0.000000
   14       18.431044   0.000000
   15       21.279743   0.000000
   16       23.577285   0.000000
   17       25.230790   0.000000
   18       30.419851   0.000000
   19       32.609909   0.000000
   20       34.092516   0.000000
   21       37.481092   0.000000