 vasp.6.2.0 18Jan21 (build Mar 17 2021 09:06:54) complex                        
  
 executed on             LinuxIFC date 2021.09.09  12:06:15
 serial version


--------------------------------------------------------------------------------------------------------


 INCAR:
   ENCUT = 280.000000
   SIGMA = 0.200000
   EDIFF = 1.00e-06
   GGA = PE
   PREC = normal
   IBRION = 1
   ICHARG = 1
   ISIF = 2
   ISMEAR = 1
   KPAR = 1
   NBANDS = 40
   NSW = 0
   NCORE = 1
   LCHARG = .TRUE.

 POTCAR:    PAW_PBE Fe 06Sep2000                  
 POTCAR:    PAW_PBE Fe 06Sep2000                  
   SHA256 =  cd5a22d9368cc8b5cc476bea79732366149640da08ac9009b0e1b7fc627eea28 Fe/POTCAR             
   COPYR  = (c) Copyright 06Sep2000 Georg Kresse                                                    
   COPYR  = This file is part of the software VASP. Any use, copying, and all other rights are regul
   COPYR  = If you do not have a valid VASP license, you may not use, copy or distribute this file. 
   VRHFIN =Fe:  d7 s1                                                                               
   LEXCH  = PE                                                                                      
   EATOM  =   594.3153 eV,   43.6809 Ry                                                             
                                                                                                    
   TITEL  = PAW_PBE Fe 06Sep2000                                                                    
   LULTRA =        F    use ultrasoft PP ?                                                          
   IUNSCR =        1    unscreen: 0-lin 1-nonlin 2-no                                               
   RPACOR =    2.000    partial core radius                                                         
   POMASS =   55.847; ZVAL   =    8.000    mass and valenz                                          
   RCORE  =    2.300    outmost cutoff radius                                                       
   RWIGS  =    2.460; RWIGS  =    1.302    wigner-seitz radius (au A)                               
   ENMAX  =  267.882; ENMIN  =  200.911 eV                                                          
   RCLOC  =    1.701    cutoff for local pot                                                        
   LCOR   =        T    correct aug charges                                                         
   LPAW   =        T    paw PP                                                                      
   EAUG   =  511.368                                                                                
   DEXC   =    0.000                                                                                
   RMAX   =    2.356    core radius for proj-oper                                                   
   RAUG   =    1.300    factor for augmentation sphere                                              
   RDEP   =    2.442    radius for radial grids                                                     
   RDEPT  =    1.890    core radius for aug-charge                                                  
                                                                                                    
   Atomic configuration                                                                             
    9 entries                                                                                       
     n  l   j            E        occ.                                                              
     1  0  0.50     -6993.8440   2.0000                                                             
     2  0  0.50      -814.6047   2.0000                                                             
     2  1  1.50      -693.3689   6.0000                                                             
     3  0  0.50       -89.4732   2.0000                                                             
     3  1  1.50       -55.6373   6.0000                                                             
     3  2  2.50        -3.8151   7.0000                                                             
     4  0  0.50        -4.2551   1.0000                                                             
     4  1  1.50        -3.4015   0.0000                                                             
     4  3  2.50        -1.3606   0.0000                                                             
   Description                                                                                      
     l       E           TYP  RCUT    TYP  RCUT                                                     
     2     -3.8151135     23  2.300                                                                 
     2     -5.1756961     23  2.300                                                                 
     0     -4.2550963     23  2.300                                                                 
     0      7.2035603     23  2.300                                                                 
     1     -2.7211652     23  2.300                                                                 
     1     18.4316424     23  2.300                                                                 
  local pseudopotential read in
  partial core-charges read in
  partial kinetic energy density read in
  atomic valenz-charges read in
  non local Contribution for L=           2  read in
    real space projection operators read in
  non local Contribution for L=           2  read in
    real space projection operators read in
  non local Contribution for L=           0  read in
    real space projection operators read in
  non local Contribution for L=           0  read in
    real space projection operators read in
  non local Contribution for L=           1  read in
    real space projection operators read in
  non local Contribution for L=           1  read in
    real space projection operators read in
    PAW grid and wavefunctions read in
 
   number of l-projection  operators is LMAX  =           6
   number of lm-projection operators is LMMAX =          18
 
  PAW_PBE Fe 06Sep2000                  :
 energy of atom  1       EATOM= -594.3153
 kinetic energy error for atom=    0.0278 (will be added to EATOM!!)
 
 
 POSCAR: Fe
  positions in cartesian coordinates
  No initial velocities read in
 exchange correlation table for  LEXCH =        8
   RHO(1)=    0.500       N(1)  =     2000
   RHO(2)=  100.500       N(2)  =     4000
 


--------------------------------------------------------------------------------------------------------


 ion  position               nearest neighbor table
   1  0.000  0.000  0.000-   2 2.51   2 2.51   2 2.51   2 2.51   2 2.51   2 2.51
   2  0.333  0.667  0.500-   1 2.51   1 2.51   1 2.51   1 2.51   1 2.51   1 2.51
 
  LATTYP: Found a hexagonal cell.
 ALAT       =     2.3533000000
 C/A-ratio  =     1.7948497854
  
  Lattice vectors:
  
 A1 = (   2.3533000000,   0.0000000000,   0.0000000000)
 A2 = (  -1.1766500000,   2.0380175827,   0.0000000000)
 A3 = (   0.0000000000,   0.0000000000,   4.2238200000)


Analysis of symmetry for initial positions (statically):
=====================================================================
 Subroutine PRICEL returns:
 Original cell was already a primitive cell.
 

 Routine SETGRP: Setting up the symmetry group for a 
 hexagonal supercell.


 Subroutine GETGRP returns: Found 24 space group operations
 (whereof 12 operations were pure point group operations)
 out of a pool of 24 trial point group operations.


The static configuration has the point symmetry D_3h.
 The point group associated with its full space group is D_6h.


Analysis of symmetry for dynamics (positions and initial velocities):
=====================================================================
 Subroutine PRICEL returns:
 Original cell was already a primitive cell.
 

 Routine SETGRP: Setting up the symmetry group for a 
 hexagonal supercell.


 Subroutine GETGRP returns: Found 24 space group operations
 (whereof 12 operations were pure point group operations)
 out of a pool of 24 trial point group operations.


The dynamic configuration has the point symmetry D_3h.
 The point group associated with its full space group is D_6h.


 Subroutine INISYM returns: Found 24 space group operations
 (whereof 12 operations are pure point group operations),
 and found     1 'primitive' translations


----------------------------------------------------------------------------------------

                                     Primitive cell                                     

  volume of cell :      20.2577

  direct lattice vectors                    reciprocal lattice vectors
     2.353300000  0.000000000  0.000000000     0.424935197  0.245336451  0.000000000
    -1.176650000  2.038017583  0.000000000     0.000000000  0.490672901  0.000000000
     0.000000000  0.000000000  4.223820000     0.000000000  0.000000000  0.236752513

  length of vectors
     2.353300000  2.353300000  4.223820000     0.490672901  0.490672901  0.236752513

  position of ions in fractional coordinates (direct lattice)
     0.000000000  0.000000000  0.000000000
     0.333333333  0.666666667  0.500000000

  ion indices of the primitive-cell ions
   primitive index   ion index
                 1           1
                 2           2

----------------------------------------------------------------------------------------

 
 
 KPOINTS: KPOINTS created by Atomic Simulation Env

Automatic generation of k-mesh.
 Grid dimensions read from file:
 generate k-points for:   11   11   11

 Generating k-lattice:

  Cartesian coordinates                     Fractional coordinates (reciprocal lattice)
     0.038630472  0.022303314  0.000000000     0.090909091 -0.000000000  0.000000000
     0.000000000  0.044606627  0.000000000     0.000000000  0.090909091  0.000000000
     0.000000000  0.000000000  0.021522956     0.000000000  0.000000000  0.090909091

  Length of vectors
     0.044606627  0.044606627  0.021522956

  Shift w.r.t. Gamma in fractional coordinates (k-lattice)
     0.000000000  0.000000000  0.000000000

 
 Subroutine IBZKPT returns following result:
 ===========================================
 
 Found     96 irreducible k-points:
 
 Following reciprocal coordinates:
            Coordinates               Weight
  0.000000  0.000000  0.000000      1.000000
  0.090909 -0.000000  0.000000      6.000000
  0.181818 -0.000000  0.000000      6.000000
  0.272727 -0.000000  0.000000      6.000000
  0.363636 -0.000000  0.000000      6.000000
  0.454545 -0.000000  0.000000      6.000000
  0.090909  0.090909  0.000000      6.000000
  0.181818  0.090909  0.000000     12.000000
  0.272727  0.090909  0.000000     12.000000
  0.363636  0.090909  0.000000     12.000000
  0.454545  0.090909  0.000000      6.000000
  0.181818  0.181818  0.000000      6.000000
  0.272727  0.181818  0.000000     12.000000
  0.363636  0.181818  0.000000     12.000000
  0.272727  0.272727  0.000000      6.000000
  0.363636  0.272727  0.000000      6.000000
  0.000000  0.000000  0.090909      2.000000
  0.090909 -0.000000  0.090909     12.000000
  0.181818 -0.000000  0.090909     12.000000
  0.272727 -0.000000  0.090909     12.000000
  0.363636 -0.000000  0.090909     12.000000
  0.454545 -0.000000  0.090909     12.000000
  0.090909  0.090909  0.090909     12.000000
  0.181818  0.090909  0.090909     24.000000
  0.272727  0.090909  0.090909     24.000000
  0.363636  0.090909  0.090909     24.000000
  0.454545  0.090909  0.090909     12.000000
  0.181818  0.181818  0.090909     12.000000
  0.272727  0.181818  0.090909     24.000000
  0.363636  0.181818  0.090909     24.000000
  0.272727  0.272727  0.090909     12.000000
  0.363636  0.272727  0.090909     12.000000
  0.000000  0.000000  0.181818      2.000000
  0.090909 -0.000000  0.181818     12.000000
  0.181818 -0.000000  0.181818     12.000000
  0.272727 -0.000000  0.181818     12.000000
  0.363636 -0.000000  0.181818     12.000000
  0.454545 -0.000000  0.181818     12.000000
  0.090909  0.090909  0.181818     12.000000
  0.181818  0.090909  0.181818     24.000000
  0.272727  0.090909  0.181818     24.000000
  0.363636  0.090909  0.181818     24.000000
  0.454545  0.090909  0.181818     12.000000
  0.181818  0.181818  0.181818     12.000000
  0.272727  0.181818  0.181818     24.000000
  0.363636  0.181818  0.181818     24.000000
  0.272727  0.272727  0.181818     12.000000
  0.363636  0.272727  0.181818     12.000000
  0.000000  0.000000  0.272727      2.000000
  0.090909 -0.000000  0.272727     12.000000
  0.181818 -0.000000  0.272727     12.000000
  0.272727 -0.000000  0.272727     12.000000
  0.363636 -0.000000  0.272727     12.000000
  0.454545 -0.000000  0.272727     12.000000
  0.090909  0.090909  0.272727     12.000000
  0.181818  0.090909  0.272727     24.000000
  0.272727  0.090909  0.272727     24.000000
  0.363636  0.090909  0.272727     24.000000
  0.454545  0.090909  0.272727     12.000000
  0.181818  0.181818  0.272727     12.000000
  0.272727  0.181818  0.272727     24.000000
  0.363636  0.181818  0.272727     24.000000
  0.272727  0.272727  0.272727     12.000000
  0.363636  0.272727  0.272727     12.000000
  0.000000  0.000000  0.363636      2.000000
  0.090909 -0.000000  0.363636     12.000000
  0.181818 -0.000000  0.363636     12.000000
  0.272727 -0.000000  0.363636     12.000000
  0.363636 -0.000000  0.363636     12.000000
  0.454545 -0.000000  0.363636     12.000000
  0.090909  0.090909  0.363636     12.000000
  0.181818  0.090909  0.363636     24.000000
  0.272727  0.090909  0.363636     24.000000
  0.363636  0.090909  0.363636     24.000000
  0.454545  0.090909  0.363636     12.000000
  0.181818  0.181818  0.363636     12.000000
  0.272727  0.181818  0.363636     24.000000
  0.363636  0.181818  0.363636     24.000000
  0.272727  0.272727  0.363636     12.000000
  0.363636  0.272727  0.363636     12.000000
  0.000000  0.000000  0.454545      2.000000
  0.090909 -0.000000  0.454545     12.000000
  0.181818 -0.000000  0.454545     12.000000
  0.272727 -0.000000  0.454545     12.000000
  0.363636 -0.000000  0.454545     12.000000
  0.454545 -0.000000  0.454545     12.000000
  0.090909  0.090909  0.454545     12.000000
  0.181818  0.090909  0.454545     24.000000
  0.272727  0.090909  0.454545     24.000000
  0.363636  0.090909  0.454545     24.000000
  0.454545  0.090909  0.454545     12.000000
  0.181818  0.181818  0.454545     12.000000
  0.272727  0.181818  0.454545     24.000000
  0.363636  0.181818  0.454545     24.000000
  0.272727  0.272727  0.454545     12.000000
  0.363636  0.272727  0.454545     12.000000
 
 Following cartesian coordinates:
            Coordinates               Weight
  0.000000  0.000000  0.000000      1.000000
  0.038630  0.022303  0.000000      6.000000
  0.077261  0.044607  0.000000      6.000000
  0.115891  0.066910  0.000000      6.000000
  0.154522  0.089213  0.000000      6.000000
  0.193152  0.111517  0.000000      6.000000
  0.038630  0.066910  0.000000      6.000000
  0.077261  0.089213  0.000000     12.000000
  0.115891  0.111517  0.000000     12.000000
  0.154522  0.133820  0.000000     12.000000
  0.193152  0.156123  0.000000      6.000000
  0.077261  0.133820  0.000000      6.000000
  0.115891  0.156123  0.000000     12.000000
  0.154522  0.178427  0.000000     12.000000
  0.115891  0.200730  0.000000      6.000000
  0.154522  0.223033  0.000000      6.000000
  0.000000  0.000000  0.021523      2.000000
  0.038630  0.022303  0.021523     12.000000
  0.077261  0.044607  0.021523     12.000000
  0.115891  0.066910  0.021523     12.000000
  0.154522  0.089213  0.021523     12.000000
  0.193152  0.111517  0.021523     12.000000
  0.038630  0.066910  0.021523     12.000000
  0.077261  0.089213  0.021523     24.000000
  0.115891  0.111517  0.021523     24.000000
  0.154522  0.133820  0.021523     24.000000
  0.193152  0.156123  0.021523     12.000000
  0.077261  0.133820  0.021523     12.000000
  0.115891  0.156123  0.021523     24.000000
  0.154522  0.178427  0.021523     24.000000
  0.115891  0.200730  0.021523     12.000000
  0.154522  0.223033  0.021523     12.000000
  0.000000  0.000000  0.043046      2.000000
  0.038630  0.022303  0.043046     12.000000
  0.077261  0.044607  0.043046     12.000000
  0.115891  0.066910  0.043046     12.000000
  0.154522  0.089213  0.043046     12.000000
  0.193152  0.111517  0.043046     12.000000
  0.038630  0.066910  0.043046     12.000000
  0.077261  0.089213  0.043046     24.000000
  0.115891  0.111517  0.043046     24.000000
  0.154522  0.133820  0.043046     24.000000
  0.193152  0.156123  0.043046     12.000000
  0.077261  0.133820  0.043046     12.000000
  0.115891  0.156123  0.043046     24.000000
  0.154522  0.178427  0.043046     24.000000
  0.115891  0.200730  0.043046     12.000000
  0.154522  0.223033  0.043046     12.000000
  0.000000  0.000000  0.064569      2.000000
  0.038630  0.022303  0.064569     12.000000
  0.077261  0.044607  0.064569     12.000000
  0.115891  0.066910  0.064569     12.000000
  0.154522  0.089213  0.064569     12.000000
  0.193152  0.111517  0.064569     12.000000
  0.038630  0.066910  0.064569     12.000000
  0.077261  0.089213  0.064569     24.000000
  0.115891  0.111517  0.064569     24.000000
  0.154522  0.133820  0.064569     24.000000
  0.193152  0.156123  0.064569     12.000000
  0.077261  0.133820  0.064569     12.000000
  0.115891  0.156123  0.064569     24.000000
  0.154522  0.178427  0.064569     24.000000
  0.115891  0.200730  0.064569     12.000000
  0.154522  0.223033  0.064569     12.000000
  0.000000  0.000000  0.086092      2.000000
  0.038630  0.022303  0.086092     12.000000
  0.077261  0.044607  0.086092     12.000000
  0.115891  0.066910  0.086092     12.000000
  0.154522  0.089213  0.086092     12.000000
  0.193152  0.111517  0.086092     12.000000
  0.038630  0.066910  0.086092     12.000000
  0.077261  0.089213  0.086092     24.000000
  0.115891  0.111517  0.086092     24.000000
  0.154522  0.133820  0.086092     24.000000
  0.193152  0.156123  0.086092     12.000000
  0.077261  0.133820  0.086092     12.000000
  0.115891  0.156123  0.086092     24.000000
  0.154522  0.178427  0.086092     24.000000
  0.115891  0.200730  0.086092     12.000000
  0.154522  0.223033  0.086092     12.000000
  0.000000  0.000000  0.107615      2.000000
  0.038630  0.022303  0.107615     12.000000
  0.077261  0.044607  0.107615     12.000000
  0.115891  0.066910  0.107615     12.000000
  0.154522  0.089213  0.107615     12.000000
  0.193152  0.111517  0.107615     12.000000
  0.038630  0.066910  0.107615     12.000000
  0.077261  0.089213  0.107615     24.000000
  0.115891  0.111517  0.107615     24.000000
  0.154522  0.133820  0.107615     24.000000
  0.193152  0.156123  0.107615     12.000000
  0.077261  0.133820  0.107615     12.000000
  0.115891  0.156123  0.107615     24.000000
  0.154522  0.178427  0.107615     24.000000
  0.115891  0.200730  0.107615     12.000000
  0.154522  0.223033  0.107615     12.000000
 


--------------------------------------------------------------------------------------------------------




 Dimension of arrays:
   k-points           NKPTS =     96   k-points in BZ     NKDIM =     96   number of bands    NBANDS=     40
   number of dos      NEDOS =    301   number of ions     NIONS =      2
   non local maximal  LDIM  =      6   non local SUM 2l+1 LMDIM =     18
   total plane-waves  NPLWV =   1800
   max r-space proj   IRMAX =      1   max aug-charges    IRDMAX=   3364
   dimension x,y,z NGX =    10 NGY =   10 NGZ =   18
   dimension x,y,z NGXF=    20 NGYF=   20 NGZF=   36
   support grid    NGXF=    20 NGYF=   20 NGZF=   36
   ions per type =               2
   NGX,Y,Z   is equivalent  to a cutoff of   7.06,  7.06,  7.08 a.u.
   NGXF,Y,Z  is equivalent  to a cutoff of  14.13, 14.13, 14.17 a.u.

 SYSTEM =  unknown system                          
 POSCAR =  Fe                                      

 Startparameter for this run:
   NWRITE =      2    write-flag & timer
   PREC   = normal    normal or accurate (medium, high low for compatibility)
   ISTART =      0    job   : 0-new  1-cont  2-samecut
   ICHARG =      1    charge: 1-file 2-atom 10-const
   ISPIN  =      1    spin polarized calculation?
   LNONCOLLINEAR =      F non collinear calculations
   LSORBIT =      F    spin-orbit coupling
   INIWAV =      1    electr: 0-lowe 1-rand  2-diag
   LASPH  =      F    aspherical Exc in radial PAW
   METAGGA=      F    non-selfconsistent MetaGGA calc.

 Electronic Relaxation 1
   ENCUT  =  280.0 eV  20.58 Ry    4.54 a.u.   3.21  3.21  5.76*2*pi/ulx,y,z
   ENINI  =  280.0     initial cutoff
   ENAUG  =  511.4 eV  augmentation charge cutoff
   NELM   =     60;   NELMIN=  2; NELMDL= -5     # of ELM steps 
   EDIFF  = 0.1E-05   stopping-criterion for ELM
   LREAL  =      F    real-space projection
   NLSPLINE    = F    spline interpolate recip. space projectors
   LCOMPAT=      F    compatible to vasp.4.4
   GGA_COMPAT  = T    GGA compatible to vasp.4.4-vasp.4.6
   LMAXPAW     = -100 max onsite density
   LMAXMIX     =    2 max onsite mixed and CHGCAR
   VOSKOWN=      0    Vosko Wilk Nusair interpolation
   ROPT   =    0.00000
 Ionic relaxation
   EDIFFG = 0.1E-04   stopping-criterion for IOM
   NSW    =      0    number of steps for IOM
   NBLOCK =      1;   KBLOCK =      1    inner block; outer block 
   IBRION =     -1    ionic relax: 0-MD 1-quasi-New 2-CG
   NFREE  =      0    steps in history (QN), initial steepest desc. (CG)
   ISIF   =      2    stress and relaxation
   IWAVPR =      0    prediction:  0-non 1-charg 2-wave 3-comb
   ISYM   =      2    0-nonsym 1-usesym 2-fastsym
   LCORR  =      T    Harris-Foulkes like correction to forces

   POTIM  = 0.5000    time-step for ionic-motion
   TEIN   =    0.0    initial temperature
   TEBEG  =    0.0;   TEEND  =   0.0 temperature during run
   SMASS  =  -3.00    Nose mass-parameter (am)
   estimated Nose-frequenzy (Omega)   =  0.10E-29 period in steps = 0.13E+47 mass=  -0.127E-27a.u.
   SCALEE = 1.0000    scale energy and forces
   NPACO  =    256;   APACO  = 16.0  distance and # of slots for P.C.
   PSTRESS=    0.0 pullay stress

  Mass of Ions in am
   POMASS =  55.85
  Ionic Valenz
   ZVAL   =   8.00
  Atomic Wigner-Seitz radii
   RWIGS  =  -1.00
  virtual crystal weights 
   VCA    =   1.00
   NELECT =      16.0000    total number of electrons
   NUPDOWN=      -1.0000    fix difference up-down

 DOS related values:
   EMIN   =  10.00;   EMAX   =-10.00  energy-range for DOS
   EFERMI =   0.00
   ISMEAR =     1;   SIGMA  =   0.20  broadening in eV -4-tet -1-fermi 0-gaus

 Electronic relaxation 2 (details)
   IALGO  =     38    algorithm
   LDIAG  =      T    sub-space diagonalisation (order eigenvalues)
   LSUBROT=      F    optimize rotation matrix (better conditioning)
   TURBO    =      0    0=normal 1=particle mesh
   IRESTART =      0    0=no restart 2=restart with 2 vectors
   NREBOOT  =      0    no. of reboots
   NMIN     =      0    reboot dimension
   EREF     =   0.00    reference energy to select bands
   IMIX   =      4    mixing-type and parameters
     AMIX     =   0.40;   BMIX     =  1.00
     AMIX_MAG =   1.60;   BMIX_MAG =  1.00
     AMIN     =   0.10
     WC   =   100.;   INIMIX=   1;  MIXPRE=   1;  MAXMIX= -45

 Intra band minimization:
   WEIMIN = 0.0000     energy-eigenvalue tresh-hold
   EBREAK =  0.62E-08  absolut break condition
   DEPER  =   0.30     relativ break condition  

   TIME   =   0.40     timestep for ELM

  volume/ion in A,a.u.               =      10.13        68.35
  Fermi-wavevector in a.u.,A,eV,Ry     =   1.513275  2.859676 31.157372  2.290002
  Thomas-Fermi vector in A             =   2.623088
 
 Write flags
   LWAVE        =      T    write WAVECAR
   LDOWNSAMPLE  =      F    k-point downsampling of WAVECAR
   LCHARG       =      T    write CHGCAR
   LVTOT        =      F    write LOCPOT, total local potential
   LVHAR        =      F    write LOCPOT, Hartree potential only
   LELF         =      F    write electronic localiz. function (ELF)
   LORBIT       =      0    0 simple, 1 ext, 2 COOP (PROOUT), +10 PAW based schemes


 Dipole corrections
   LMONO  =      F    monopole corrections only (constant potential shift)
   LDIPOL =      F    correct potential (dipole corrections)
   IDIPOL =      0    1-x, 2-y, 3-z, 4-all directions 
   EPSILON=  1.0000000 bulk dielectric constant

 Exchange correlation treatment:
   GGA     =    PE    GGA type
   LEXCH   =     8    internal setting for exchange type
   VOSKOWN=      0    Vosko Wilk Nusair interpolation
   LHFCALC =     F    Hartree Fock is set to
   LHFONE  =     F    Hartree Fock one center treatment
   AEXX    =    0.0000 exact exchange contribution

 Linear response parameters
   LEPSILON=     F    determine dielectric tensor
   LRPA    =     F    only Hartree local field effects (RPA)
   LNABLA  =     F    use nabla operator in PAW spheres
   LVEL    =     F    velocity operator in full k-point grid
   LINTERFAST=   F  fast interpolation
   KINTER  =     0    interpolate to denser k-point grid
   CSHIFT  =0.1000    complex shift for real part using Kramers Kronig
   OMEGAMAX=  -1.0    maximum frequency
   DEG_THRESHOLD= 0.2000000E-02 threshold for treating states as degnerate
   RTIME   =   -0.100 relaxation time in fs
  (WPLASMAI=    0.000 imaginary part of plasma frequency in eV, 0.658/RTIME)
   DFIELD  = 0.0000000 0.0000000 0.0000000 field for delta impulse in time
 
 Orbital magnetization related:
   ORBITALMAG=     F  switch on orbital magnetization
   LCHIMAG   =     F  perturbation theory with respect to B field
   DQ        =  0.001000  dq finite difference perturbation B field
   LLRAUG    =     F  two centre corrections for induced B field



--------------------------------------------------------------------------------------------------------


 Static calculation
 charge density and potential will be updated during run
 non-spin polarized calculation
 Variant of blocked Davidson
 Davidson routine will perform the subspace rotation
 perform sub-space diagonalisation
    after iterative eigenvector-optimisation
 modified Broyden-mixing scheme, WC =      100.0
 initial mixing is a Kerker type mixing with AMIX =  0.4000 and BMIX =      1.0000
 Hartree-type preconditioning will be used
 using additional bands           32
 reciprocal scheme for non local part
 use partial core corrections
 calculate Harris-corrections to forces 
   (improved forces if not selfconsistent)
 use gradient corrections 
 use of overlap-Matrix (Vanderbilt PP)
 Methfessel and Paxton  Order N= 1 SIGMA  =   0.20


--------------------------------------------------------------------------------------------------------


  energy-cutoff  :      280.00
  volume of cell :       20.26
      direct lattice vectors                 reciprocal lattice vectors
     2.353300000  0.000000000  0.000000000     0.424935197  0.245336451  0.000000000
    -1.176650000  2.038017583  0.000000000     0.000000000  0.490672901  0.000000000
     0.000000000  0.000000000  4.223820000     0.000000000  0.000000000  0.236752513

  length of vectors
     2.353300000  2.353300000  4.223820000     0.490672901  0.490672901  0.236752513


 
 k-points in units of 2pi/SCALE and weight: KPOINTS created by Atomic Simulation Env
   0.00000000  0.00000000  0.00000000       0.001
   0.03863047  0.02230331  0.00000000       0.005
   0.07726094  0.04460663  0.00000000       0.005
   0.11589142  0.06690994  0.00000000       0.005
   0.15452189  0.08921325  0.00000000       0.005
   0.19315236  0.11151657  0.00000000       0.005
   0.03863047  0.06690994  0.00000000       0.005
   0.07726094  0.08921325  0.00000000       0.009
   0.11589142  0.11151657  0.00000000       0.009
   0.15452189  0.13381988  0.00000000       0.009
   0.19315236  0.15612320  0.00000000       0.005
   0.07726094  0.13381988  0.00000000       0.005
   0.11589142  0.15612320  0.00000000       0.009
   0.15452189  0.17842651  0.00000000       0.009
   0.11589142  0.20072982  0.00000000       0.005
   0.15452189  0.22303314  0.00000000       0.005
   0.00000000  0.00000000  0.02152296       0.002
   0.03863047  0.02230331  0.02152296       0.009
   0.07726094  0.04460663  0.02152296       0.009
   0.11589142  0.06690994  0.02152296       0.009
   0.15452189  0.08921325  0.02152296       0.009
   0.19315236  0.11151657  0.02152296       0.009
   0.03863047  0.06690994  0.02152296       0.009
   0.07726094  0.08921325  0.02152296       0.018
   0.11589142  0.11151657  0.02152296       0.018
   0.15452189  0.13381988  0.02152296       0.018
   0.19315236  0.15612320  0.02152296       0.009
   0.07726094  0.13381988  0.02152296       0.009
   0.11589142  0.15612320  0.02152296       0.018
   0.15452189  0.17842651  0.02152296       0.018
   0.11589142  0.20072982  0.02152296       0.009
   0.15452189  0.22303314  0.02152296       0.009
   0.00000000  0.00000000  0.04304591       0.002
   0.03863047  0.02230331  0.04304591       0.009
   0.07726094  0.04460663  0.04304591       0.009
   0.11589142  0.06690994  0.04304591       0.009
   0.15452189  0.08921325  0.04304591       0.009
   0.19315236  0.11151657  0.04304591       0.009
   0.03863047  0.06690994  0.04304591       0.009
   0.07726094  0.08921325  0.04304591       0.018
   0.11589142  0.11151657  0.04304591       0.018
   0.15452189  0.13381988  0.04304591       0.018
   0.19315236  0.15612320  0.04304591       0.009
   0.07726094  0.13381988  0.04304591       0.009
   0.11589142  0.15612320  0.04304591       0.018
   0.15452189  0.17842651  0.04304591       0.018
   0.11589142  0.20072982  0.04304591       0.009
   0.15452189  0.22303314  0.04304591       0.009
   0.00000000  0.00000000  0.06456887       0.002
   0.03863047  0.02230331  0.06456887       0.009
   0.07726094  0.04460663  0.06456887       0.009
   0.11589142  0.06690994  0.06456887       0.009
   0.15452189  0.08921325  0.06456887       0.009
   0.19315236  0.11151657  0.06456887       0.009
   0.03863047  0.06690994  0.06456887       0.009
   0.07726094  0.08921325  0.06456887       0.018
   0.11589142  0.11151657  0.06456887       0.018
   0.15452189  0.13381988  0.06456887       0.018
   0.19315236  0.15612320  0.06456887       0.009
   0.07726094  0.13381988  0.06456887       0.009
   0.11589142  0.15612320  0.06456887       0.018
   0.15452189  0.17842651  0.06456887       0.018
   0.11589142  0.20072982  0.06456887       0.009
   0.15452189  0.22303314  0.06456887       0.009
   0.00000000  0.00000000  0.08609182       0.002
   0.03863047  0.02230331  0.08609182       0.009
   0.07726094  0.04460663  0.08609182       0.009
   0.11589142  0.06690994  0.08609182       0.009
   0.15452189  0.08921325  0.08609182       0.009
   0.19315236  0.11151657  0.08609182       0.009
   0.03863047  0.06690994  0.08609182       0.009
   0.07726094  0.08921325  0.08609182       0.018
   0.11589142  0.11151657  0.08609182       0.018
   0.15452189  0.13381988  0.08609182       0.018
   0.19315236  0.15612320  0.08609182       0.009
   0.07726094  0.13381988  0.08609182       0.009
   0.11589142  0.15612320  0.08609182       0.018
   0.15452189  0.17842651  0.08609182       0.018
   0.11589142  0.20072982  0.08609182       0.009
   0.15452189  0.22303314  0.08609182       0.009
   0.00000000  0.00000000  0.10761478       0.002
   0.03863047  0.02230331  0.10761478       0.009
   0.07726094  0.04460663  0.10761478       0.009
   0.11589142  0.06690994  0.10761478       0.009
   0.15452189  0.08921325  0.10761478       0.009
   0.19315236  0.11151657  0.10761478       0.009
   0.03863047  0.06690994  0.10761478       0.009
   0.07726094  0.08921325  0.10761478       0.018
   0.11589142  0.11151657  0.10761478       0.018
   0.15452189  0.13381988  0.10761478       0.018
   0.19315236  0.15612320  0.10761478       0.009
   0.07726094  0.13381988  0.10761478       0.009
   0.11589142  0.15612320  0.10761478       0.018
   0.15452189  0.17842651  0.10761478       0.018
   0.11589142  0.20072982  0.10761478       0.009
   0.15452189  0.22303314  0.10761478       0.009
 
 k-points in reciprocal lattice and weights: KPOINTS created by Atomic Simulation Env
   0.00000000  0.00000000  0.00000000       0.001
   0.09090909 -0.00000000  0.00000000       0.005
   0.18181818 -0.00000000  0.00000000       0.005
   0.27272727 -0.00000000  0.00000000       0.005
   0.36363636 -0.00000000  0.00000000       0.005
   0.45454545 -0.00000000  0.00000000       0.005
   0.09090909  0.09090909  0.00000000       0.005
   0.18181818  0.09090909  0.00000000       0.009
   0.27272727  0.09090909  0.00000000       0.009
   0.36363636  0.09090909  0.00000000       0.009
   0.45454545  0.09090909  0.00000000       0.005
   0.18181818  0.18181818  0.00000000       0.005
   0.27272727  0.18181818  0.00000000       0.009
   0.36363636  0.18181818  0.00000000       0.009
   0.27272727  0.27272727  0.00000000       0.005
   0.36363636  0.27272727  0.00000000       0.005
   0.00000000  0.00000000  0.09090909       0.002
   0.09090909 -0.00000000  0.09090909       0.009
   0.18181818 -0.00000000  0.09090909       0.009
   0.27272727 -0.00000000  0.09090909       0.009
   0.36363636 -0.00000000  0.09090909       0.009
   0.45454545 -0.00000000  0.09090909       0.009
   0.09090909  0.09090909  0.09090909       0.009
   0.18181818  0.09090909  0.09090909       0.018
   0.27272727  0.09090909  0.09090909       0.018
   0.36363636  0.09090909  0.09090909       0.018
   0.45454545  0.09090909  0.09090909       0.009
   0.18181818  0.18181818  0.09090909       0.009
   0.27272727  0.18181818  0.09090909       0.018
   0.36363636  0.18181818  0.09090909       0.018
   0.27272727  0.27272727  0.09090909       0.009
   0.36363636  0.27272727  0.09090909       0.009
   0.00000000  0.00000000  0.18181818       0.002
   0.09090909 -0.00000000  0.18181818       0.009
   0.18181818 -0.00000000  0.18181818       0.009
   0.27272727 -0.00000000  0.18181818       0.009
   0.36363636 -0.00000000  0.18181818       0.009
   0.45454545 -0.00000000  0.18181818       0.009
   0.09090909  0.09090909  0.18181818       0.009
   0.18181818  0.09090909  0.18181818       0.018
   0.27272727  0.09090909  0.18181818       0.018
   0.36363636  0.09090909  0.18181818       0.018
   0.45454545  0.09090909  0.18181818       0.009
   0.18181818  0.18181818  0.18181818       0.009
   0.27272727  0.18181818  0.18181818       0.018
   0.36363636  0.18181818  0.18181818       0.018
   0.27272727  0.27272727  0.18181818       0.009
   0.36363636  0.27272727  0.18181818       0.009
   0.00000000  0.00000000  0.27272727       0.002
   0.09090909 -0.00000000  0.27272727       0.009
   0.18181818 -0.00000000  0.27272727       0.009
   0.27272727 -0.00000000  0.27272727       0.009
   0.36363636 -0.00000000  0.27272727       0.009
   0.45454545 -0.00000000  0.27272727       0.009
   0.09090909  0.09090909  0.27272727       0.009
   0.18181818  0.09090909  0.27272727       0.018
   0.27272727  0.09090909  0.27272727       0.018
   0.36363636  0.09090909  0.27272727       0.018
   0.45454545  0.09090909  0.27272727       0.009
   0.18181818  0.18181818  0.27272727       0.009
   0.27272727  0.18181818  0.27272727       0.018
   0.36363636  0.18181818  0.27272727       0.018
   0.27272727  0.27272727  0.27272727       0.009
   0.36363636  0.27272727  0.27272727       0.009
   0.00000000  0.00000000  0.36363636       0.002
   0.09090909 -0.00000000  0.36363636       0.009
   0.18181818 -0.00000000  0.36363636       0.009
   0.27272727 -0.00000000  0.36363636       0.009
   0.36363636 -0.00000000  0.36363636       0.009
   0.45454545 -0.00000000  0.36363636       0.009
   0.09090909  0.09090909  0.36363636       0.009
   0.18181818  0.09090909  0.36363636       0.018
   0.27272727  0.09090909  0.36363636       0.018
   0.36363636  0.09090909  0.36363636       0.018
   0.45454545  0.09090909  0.36363636       0.009
   0.18181818  0.18181818  0.36363636       0.009
   0.27272727  0.18181818  0.36363636       0.018
   0.36363636  0.18181818  0.36363636       0.018
   0.27272727  0.27272727  0.36363636       0.009
   0.36363636  0.27272727  0.36363636       0.009
   0.00000000  0.00000000  0.45454545       0.002
   0.09090909 -0.00000000  0.45454545       0.009
   0.18181818 -0.00000000  0.45454545       0.009
   0.27272727 -0.00000000  0.45454545       0.009
   0.36363636 -0.00000000  0.45454545       0.009
   0.45454545 -0.00000000  0.45454545       0.009
   0.09090909  0.09090909  0.45454545       0.009
   0.18181818  0.09090909  0.45454545       0.018
   0.27272727  0.09090909  0.45454545       0.018
   0.36363636  0.09090909  0.45454545       0.018
   0.45454545  0.09090909  0.45454545       0.009
   0.18181818  0.18181818  0.45454545       0.009
   0.27272727  0.18181818  0.45454545       0.018
   0.36363636  0.18181818  0.45454545       0.018
   0.27272727  0.27272727  0.45454545       0.009
   0.36363636  0.27272727  0.45454545       0.009
 
 position of ions in fractional coordinates (direct lattice) 
   0.00000000  0.00000000  0.00000000
   0.33333333  0.66666667  0.50000000
 
 position of ions in cartesian coordinates  (Angst):
   0.00000000  0.00000000  0.00000000
   0.00000000  1.35867839  2.11191000
 


--------------------------------------------------------------------------------------------------------


 k-point   1 :   0.0000 0.0000 0.0000  plane waves:     221
 k-point   2 :   0.0909-0.0000 0.0000  plane waves:     223
 k-point   3 :   0.1818-0.0000 0.0000  plane waves:     211
 k-point   4 :   0.2727-0.0000 0.0000  plane waves:     214
 k-point   5 :   0.3636-0.0000 0.0000  plane waves:     218
 k-point   6 :   0.4545-0.0000 0.0000  plane waves:     220
 k-point   7 :   0.0909 0.0909 0.0000  plane waves:     215
 k-point   8 :   0.1818 0.0909 0.0000  plane waves:     213
 k-point   9 :   0.2727 0.0909 0.0000  plane waves:     215
 k-point  10 :   0.3636 0.0909 0.0000  plane waves:     216
 k-point  11 :   0.4545 0.0909 0.0000  plane waves:     222
 k-point  12 :   0.1818 0.1818 0.0000  plane waves:     217
 k-point  13 :   0.2727 0.1818 0.0000  plane waves:     222
 k-point  14 :   0.3636 0.1818 0.0000  plane waves:     212
 k-point  15 :   0.2727 0.2727 0.0000  plane waves:     213
 k-point  16 :   0.3636 0.2727 0.0000  plane waves:     213
 k-point  17 :   0.0000 0.0000 0.0909  plane waves:     215
 k-point  18 :   0.0909-0.0000 0.0909  plane waves:     221
 k-point  19 :   0.1818-0.0000 0.0909  plane waves:     213
 k-point  20 :   0.2727-0.0000 0.0909  plane waves:     216
 k-point  21 :   0.3636-0.0000 0.0909  plane waves:     216
 k-point  22 :   0.4545-0.0000 0.0909  plane waves:     217
 k-point  23 :   0.0909 0.0909 0.0909  plane waves:     215
 k-point  24 :   0.1818 0.0909 0.0909  plane waves:     212
 k-point  25 :   0.2727 0.0909 0.0909  plane waves:     214
 k-point  26 :   0.3636 0.0909 0.0909  plane waves:     216
 k-point  27 :   0.4545 0.0909 0.0909  plane waves:     218
 k-point  28 :   0.1818 0.1818 0.0909  plane waves:     218
 k-point  29 :   0.2727 0.1818 0.0909  plane waves:     215
 k-point  30 :   0.3636 0.1818 0.0909  plane waves:     214
 k-point  31 :   0.2727 0.2727 0.0909  plane waves:     213
 k-point  32 :   0.3636 0.2727 0.0909  plane waves:     214
 k-point  33 :   0.0000 0.0000 0.1818  plane waves:     215
 k-point  34 :   0.0909-0.0000 0.1818  plane waves:     221
 k-point  35 :   0.1818-0.0000 0.1818  plane waves:     211
 k-point  36 :   0.2727-0.0000 0.1818  plane waves:     216
 k-point  37 :   0.3636-0.0000 0.1818  plane waves:     217
 k-point  38 :   0.4545-0.0000 0.1818  plane waves:     213
 k-point  39 :   0.0909 0.0909 0.1818  plane waves:     217
 k-point  40 :   0.1818 0.0909 0.1818  plane waves:     215
 k-point  41 :   0.2727 0.0909 0.1818  plane waves:     212
 k-point  42 :   0.3636 0.0909 0.1818  plane waves:     219
 k-point  43 :   0.4545 0.0909 0.1818  plane waves:     218
 k-point  44 :   0.1818 0.1818 0.1818  plane waves:     215
 k-point  45 :   0.2727 0.1818 0.1818  plane waves:     212
 k-point  46 :   0.3636 0.1818 0.1818  plane waves:     215
 k-point  47 :   0.2727 0.2727 0.1818  plane waves:     216
 k-point  48 :   0.3636 0.2727 0.1818  plane waves:     218
 k-point  49 :   0.0000 0.0000 0.2727  plane waves:     228
 k-point  50 :   0.0909-0.0000 0.2727  plane waves:     218
 k-point  51 :   0.1818-0.0000 0.2727  plane waves:     213
 k-point  52 :   0.2727-0.0000 0.2727  plane waves:     215
 k-point  53 :   0.3636-0.0000 0.2727  plane waves:     215
 k-point  54 :   0.4545-0.0000 0.2727  plane waves:     214
 k-point  55 :   0.0909 0.0909 0.2727  plane waves:     216
 k-point  56 :   0.1818 0.0909 0.2727  plane waves:     215
 k-point  57 :   0.2727 0.0909 0.2727  plane waves:     213
 k-point  58 :   0.3636 0.0909 0.2727  plane waves:     214
 k-point  59 :   0.4545 0.0909 0.2727  plane waves:     216
 k-point  60 :   0.1818 0.1818 0.2727  plane waves:     211
 k-point  61 :   0.2727 0.1818 0.2727  plane waves:     216
 k-point  62 :   0.3636 0.1818 0.2727  plane waves:     218
 k-point  63 :   0.2727 0.2727 0.2727  plane waves:     218
 k-point  64 :   0.3636 0.2727 0.2727  plane waves:     220
 k-point  65 :   0.0000 0.0000 0.3636  plane waves:     228
 k-point  66 :   0.0909-0.0000 0.3636  plane waves:     217
 k-point  67 :   0.1818-0.0000 0.3636  plane waves:     210
 k-point  68 :   0.2727-0.0000 0.3636  plane waves:     214
 k-point  69 :   0.3636-0.0000 0.3636  plane waves:     215
 k-point  70 :   0.4545-0.0000 0.3636  plane waves:     216
 k-point  71 :   0.0909 0.0909 0.3636  plane waves:     214
 k-point  72 :   0.1818 0.0909 0.3636  plane waves:     213
 k-point  73 :   0.2727 0.0909 0.3636  plane waves:     214
 k-point  74 :   0.3636 0.0909 0.3636  plane waves:     216
 k-point  75 :   0.4545 0.0909 0.3636  plane waves:     218
 k-point  76 :   0.1818 0.1818 0.3636  plane waves:     212
 k-point  77 :   0.2727 0.1818 0.3636  plane waves:     218
 k-point  78 :   0.3636 0.1818 0.3636  plane waves:     221
 k-point  79 :   0.2727 0.2727 0.3636  plane waves:     219
 k-point  80 :   0.3636 0.2727 0.3636  plane waves:     219
 k-point  81 :   0.0000 0.0000 0.4545  plane waves:     222
 k-point  82 :   0.0909-0.0000 0.4545  plane waves:     214
 k-point  83 :   0.1818-0.0000 0.4545  plane waves:     211
 k-point  84 :   0.2727-0.0000 0.4545  plane waves:     215
 k-point  85 :   0.3636-0.0000 0.4545  plane waves:     214
 k-point  86 :   0.4545-0.0000 0.4545  plane waves:     214
 k-point  87 :   0.0909 0.0909 0.4545  plane waves:     212
 k-point  88 :   0.1818 0.0909 0.4545  plane waves:     206
 k-point  89 :   0.2727 0.0909 0.4545  plane waves:     213
 k-point  90 :   0.3636 0.0909 0.4545  plane waves:     218
 k-point  91 :   0.4545 0.0909 0.4545  plane waves:     215
 k-point  92 :   0.1818 0.1818 0.4545  plane waves:     216
 k-point  93 :   0.2727 0.1818 0.4545  plane waves:     219
 k-point  94 :   0.3636 0.1818 0.4545  plane waves:     224
 k-point  95 :   0.2727 0.2727 0.4545  plane waves:     221
 k-point  96 :   0.3636 0.2727 0.4545  plane waves:     222

 maximum number of plane-waves:       228
 maximum index in each direction: 
   IXMAX=    3   IYMAX=    3   IZMAX=    5
   IXMIN=   -3   IYMIN=   -3   IZMIN=   -6


 total amount of memory used by VASP MPI-rank0    50222. kBytes
=======================================================================

   base      :      30000. kBytes
   nonl-proj :       3159. kBytes
   grid      :        812. kBytes
   one-center:         31. kBytes
   wavefun   :      16220. kBytes
 
     INWAV:  cpu time    0.0000: real time    0.0000
 Broyden mixing: mesh for mixing (old mesh)
   NGX =  7   NGY =  7   NGZ = 11
  (NGX  = 20   NGY  = 20   NGZ  = 36)
  gives a total of    539 points

 initial charge density was supplied:
 charge density of overlapping atoms calculated
 number of electron      16.0000000 magnetization 
 keeping initial charge density in first step


--------------------------------------------------------------------------------------------------------


 Maximum index for augmentation-charges         3084 (set IRDMAX)


--------------------------------------------------------------------------------------------------------


 First call to EWALD:  gamma=   0.650
 Maximum number of real-space cells 4x 4x 2
 Maximum number of reciprocal cells 2x 2x 4

    FEWALD:  cpu time    0.0008: real time    0.0008


--------------------------------------- Iteration      1(   1)  ---------------------------------------


    POTLOK:  cpu time    0.0036: real time    0.0036
    SETDIJ:  cpu time    0.0021: real time    0.0021
     EDDAV:  cpu time    0.7921: real time    0.8121
       DOS:  cpu time    0.0056: real time    0.0056
    --------------------------------------------
      LOOP:  cpu time    0.8033: real time    0.8233

 eigenvalue-minimisations  :  9304
 total energy-change (2. order) : 0.6183598E+02  (-0.2657504E+03)
 number of electron      16.0000000 magnetization 
 augmentation part       16.0000000 magnetization 

 Free energy of the ion-electron system (eV)
  ---------------------------------------------------
  alpha Z        PSCENC =       136.46899361
  Ewald energy   TEWEN  =     -1228.52268157
  -Hartree energ DENC   =      -207.09041319
  -exchange      EXHF   =         0.00000000
  -V(xc)+E(xc)   XCENC  =         8.53651633
  PAW double counting   =      1109.69170683    -1125.09647265
  entropy T*S    EENTRO =         0.00298037
  eigenvalues    EBANDS =       179.27043907
  atomic energy  EATOM  =      1188.57490811
  Solvation  Ediel_sol  =         0.00000000
  ---------------------------------------------------
  free energy    TOTEN  =        61.83597691 eV

  energy without entropy =       61.83299654  energy(sigma->0) =       61.83498346


--------------------------------------------------------------------------------------------------------




--------------------------------------- Iteration      1(   2)  ---------------------------------------


     EDDAV:  cpu time    0.6798: real time    0.6798
       DOS:  cpu time    0.0063: real time    0.0063
    --------------------------------------------
      LOOP:  cpu time    0.6861: real time    0.6861

 eigenvalue-minimisations  :  7840
 total energy-change (2. order) :-0.7643354E+02  (-0.6519771E+02)
 number of electron      16.0000000 magnetization 
 augmentation part       16.0000000 magnetization 

 Free energy of the ion-electron system (eV)
  ---------------------------------------------------
  alpha Z        PSCENC =       136.46899361
  Ewald energy   TEWEN  =     -1228.52268157
  -Hartree energ DENC   =      -207.09041319
  -exchange      EXHF   =         0.00000000
  -V(xc)+E(xc)   XCENC  =         8.53651633
  PAW double counting   =      1109.69170683    -1125.09647265
  entropy T*S    EENTRO =         0.00550590
  eigenvalues    EBANDS =       102.83437072
  atomic energy  EATOM  =      1188.57490811
  Solvation  Ediel_sol  =         0.00000000
  ---------------------------------------------------
  free energy    TOTEN  =       -14.59756591 eV

  energy without entropy =      -14.60307181  energy(sigma->0) =      -14.59940121


--------------------------------------------------------------------------------------------------------




--------------------------------------- Iteration      1(   3)  ---------------------------------------


     EDDAV:  cpu time    0.7912: real time    0.7912
       DOS:  cpu time    0.0064: real time    0.0064
    --------------------------------------------
      LOOP:  cpu time    0.7976: real time    0.7977

 eigenvalue-minimisations  :  9504
 total energy-change (2. order) :-0.4445221E+01  (-0.4223149E+01)
 number of electron      16.0000000 magnetization 
 augmentation part       16.0000000 magnetization 

 Free energy of the ion-electron system (eV)
  ---------------------------------------------------
  alpha Z        PSCENC =       136.46899361
  Ewald energy   TEWEN  =     -1228.52268157
  -Hartree energ DENC   =      -207.09041319
  -exchange      EXHF   =         0.00000000
  -V(xc)+E(xc)   XCENC  =         8.53651633
  PAW double counting   =      1109.69170683    -1125.09647265
  entropy T*S    EENTRO =         0.00059825
  eigenvalues    EBANDS =        98.39405743
  atomic energy  EATOM  =      1188.57490811
  Solvation  Ediel_sol  =         0.00000000
  ---------------------------------------------------
  free energy    TOTEN  =       -19.04278685 eV

  energy without entropy =      -19.04338510  energy(sigma->0) =      -19.04298627


--------------------------------------------------------------------------------------------------------




--------------------------------------- Iteration      1(   4)  ---------------------------------------


     EDDAV:  cpu time    0.7718: real time    0.7718
       DOS:  cpu time    0.0065: real time    0.0065
    --------------------------------------------
      LOOP:  cpu time    0.7783: real time    0.7784

 eigenvalue-minimisations  :  9224
 total energy-change (2. order) :-0.1999264E-01  (-0.1998018E-01)
 number of electron      16.0000000 magnetization 
 augmentation part       16.0000000 magnetization 

 Free energy of the ion-electron system (eV)
  ---------------------------------------------------
  alpha Z        PSCENC =       136.46899361
  Ewald energy   TEWEN  =     -1228.52268157
  -Hartree energ DENC   =      -207.09041319
  -exchange      EXHF   =         0.00000000
  -V(xc)+E(xc)   XCENC  =         8.53651633
  PAW double counting   =      1109.69170683    -1125.09647265
  entropy T*S    EENTRO =         0.00056376
  eigenvalues    EBANDS =        98.37409928
  atomic energy  EATOM  =      1188.57490811
  Solvation  Ediel_sol  =         0.00000000
  ---------------------------------------------------
  free energy    TOTEN  =       -19.06277949 eV

  energy without entropy =      -19.06334325  energy(sigma->0) =      -19.06296741


--------------------------------------------------------------------------------------------------------




--------------------------------------- Iteration      1(   5)  ---------------------------------------


     EDDAV:  cpu time    0.7679: real time    0.7680
       DOS:  cpu time    0.0065: real time    0.0065
    CHARGE:  cpu time    0.0198: real time    0.0198
    MIXING:  cpu time    0.0002: real time    0.0002
    --------------------------------------------
      LOOP:  cpu time    0.7944: real time    0.7945

 eigenvalue-minimisations  :  9256
 total energy-change (2. order) :-0.2367032E-04  (-0.2366860E-04)
 number of electron      15.9999945 magnetization 
 augmentation part        7.0900346 magnetization 

 Broyden mixing:
  rms(total) = 0.17076E+01    rms(broyden)= 0.17076E+01
  rms(prec ) = 0.28731E+01
  weight for this iteration     100.00

 Free energy of the ion-electron system (eV)
  ---------------------------------------------------
  alpha Z        PSCENC =       136.46899361
  Ewald energy   TEWEN  =     -1228.52268157
  -Hartree energ DENC   =      -207.09041319
  -exchange      EXHF   =         0.00000000
  -V(xc)+E(xc)   XCENC  =         8.53651633
  PAW double counting   =      1109.69170683    -1125.09647265
  entropy T*S    EENTRO =         0.00056372
  eigenvalues    EBANDS =        98.37407565
  atomic energy  EATOM  =      1188.57490811
  Solvation  Ediel_sol  =         0.00000000
  ---------------------------------------------------
  free energy    TOTEN  =       -19.06280316 eV

  energy without entropy =      -19.06336688  energy(sigma->0) =      -19.06299106


--------------------------------------------------------------------------------------------------------




--------------------------------------- Iteration      1(   6)  ---------------------------------------


    POTLOK:  cpu time    0.0033: real time    0.0033
    SETDIJ:  cpu time    0.0022: real time    0.0022
     EDDAV:  cpu time    0.9144: real time    0.9144
       DOS:  cpu time    0.0067: real time    0.0067
    CHARGE:  cpu time    0.0194: real time    0.0194
    MIXING:  cpu time    0.0002: real time    0.0002
    --------------------------------------------
      LOOP:  cpu time    0.9461: real time    0.9462

 eigenvalue-minimisations  : 11208
 total energy-change (2. order) : 0.2818641E+01  (-0.1818816E+00)
 number of electron      15.9999929 magnetization 
 augmentation part        8.4808099 magnetization 

 Broyden mixing:
  rms(total) = 0.24209E+00    rms(broyden)= 0.24197E+00
  rms(prec ) = 0.41178E+00
  weight for this iteration     100.00

 eigenvalues of (default mixing * dielectric matrix)
  average eigenvalue GAMMA=   0.9298
  0.9298

 Free energy of the ion-electron system (eV)
  ---------------------------------------------------
  alpha Z        PSCENC =       136.46899361
  Ewald energy   TEWEN  =     -1228.52268157
  -Hartree energ DENC   =      -172.94967264
  -exchange      EXHF   =         0.00000000
  -V(xc)+E(xc)   XCENC  =         6.86987108
  PAW double counting   =      1259.96458763    -1271.03499940
  entropy T*S    EENTRO =         0.00273549
  eigenvalues    EBANDS =        64.38209589
  atomic energy  EATOM  =      1188.57490811
  Solvation  Ediel_sol  =         0.00000000
  ---------------------------------------------------
  free energy    TOTEN  =       -16.24416181 eV

  energy without entropy =      -16.24689730  energy(sigma->0) =      -16.24507364


--------------------------------------------------------------------------------------------------------




--------------------------------------- Iteration      1(   7)  ---------------------------------------


    POTLOK:  cpu time    0.0034: real time    0.0034
    SETDIJ:  cpu time    0.0022: real time    0.0022
     EDDAV:  cpu time    0.8545: real time    0.8546
       DOS:  cpu time    0.0068: real time    0.0068
    CHARGE:  cpu time    0.0198: real time    0.0198
    MIXING:  cpu time    0.0002: real time    0.0002
    --------------------------------------------
      LOOP:  cpu time    0.8869: real time    0.8870

 eigenvalue-minimisations  : 10152
 total energy-change (2. order) : 0.1931860E+00  (-0.1197660E-01)
 number of electron      15.9999932 magnetization 
 augmentation part        8.1828147 magnetization 

 Broyden mixing:
  rms(total) = 0.11098E+00    rms(broyden)= 0.11098E+00
  rms(prec ) = 0.20305E+00
  weight for this iteration     100.00

 eigenvalues of (default mixing * dielectric matrix)
  average eigenvalue GAMMA=   0.9945
  1.2403  0.7487

 Free energy of the ion-electron system (eV)
  ---------------------------------------------------
  alpha Z        PSCENC =       136.46899361
  Ewald energy   TEWEN  =     -1228.52268157
  -Hartree energ DENC   =      -177.09874817
  -exchange      EXHF   =         0.00000000
  -V(xc)+E(xc)   XCENC  =         7.10297003
  PAW double counting   =      1339.70159985    -1354.31813763
  entropy T*S    EENTRO =         0.00269395
  eigenvalues    EBANDS =        72.03742598
  atomic energy  EATOM  =      1188.57490811
  Solvation  Ediel_sol  =         0.00000000
  ---------------------------------------------------
  free energy    TOTEN  =       -16.05097584 eV

  energy without entropy =      -16.05366979  energy(sigma->0) =      -16.05187382


--------------------------------------------------------------------------------------------------------




--------------------------------------- Iteration      1(   8)  ---------------------------------------


    POTLOK:  cpu time    0.0034: real time    0.0034
    SETDIJ:  cpu time    0.0021: real time    0.0021
     EDDAV:  cpu time    0.8459: real time    0.8460
       DOS:  cpu time    0.0068: real time    0.0068
    CHARGE:  cpu time    0.0212: real time    0.0212
    MIXING:  cpu time    0.0002: real time    0.0002
    --------------------------------------------
      LOOP:  cpu time    0.8797: real time    0.8797

 eigenvalue-minimisations  : 10104
 total energy-change (2. order) : 0.2749870E-01  (-0.3559625E-03)
 number of electron      15.9999932 magnetization 
 augmentation part        8.2129552 magnetization 

 Broyden mixing:
  rms(total) = 0.49909E-01    rms(broyden)= 0.49909E-01
  rms(prec ) = 0.89315E-01
  weight for this iteration     100.00

 eigenvalues of (default mixing * dielectric matrix)
  average eigenvalue GAMMA=   1.4573
  0.7910  1.0430  2.5380

 Free energy of the ion-electron system (eV)
  ---------------------------------------------------
  alpha Z        PSCENC =       136.46899361
  Ewald energy   TEWEN  =     -1228.52268157
  -Hartree energ DENC   =      -174.97741078
  -exchange      EXHF   =         0.00000000
  -V(xc)+E(xc)   XCENC  =         7.01879466
  PAW double counting   =      1404.44915107    -1420.44136796
  entropy T*S    EENTRO =         0.00276108
  eigenvalues    EBANDS =        71.40337464
  atomic energy  EATOM  =      1188.57490811
  Solvation  Ediel_sol  =         0.00000000
  ---------------------------------------------------
  free energy    TOTEN  =       -16.02347714 eV

  energy without entropy =      -16.02623822  energy(sigma->0) =      -16.02439750


--------------------------------------------------------------------------------------------------------




--------------------------------------- Iteration      1(   9)  ---------------------------------------


    POTLOK:  cpu time    0.0034: real time    0.0034
    SETDIJ:  cpu time    0.0021: real time    0.0021
     EDDAV:  cpu time    0.8888: real time    0.8889
       DOS:  cpu time    0.0066: real time    0.0066
    CHARGE:  cpu time    0.0193: real time    0.0193
    MIXING:  cpu time    0.0002: real time    0.0002
    --------------------------------------------
      LOOP:  cpu time    0.9205: real time    0.9205

 eigenvalue-minimisations  : 11000
 total energy-change (2. order) : 0.1016607E-01  (-0.9287798E-04)
 number of electron      15.9999931 magnetization 
 augmentation part        8.2274876 magnetization 

 Broyden mixing:
  rms(total) = 0.56566E-02    rms(broyden)= 0.56541E-02
  rms(prec ) = 0.61122E-02
  weight for this iteration     100.00

 eigenvalues of (default mixing * dielectric matrix)
  average eigenvalue GAMMA=   1.5101
  2.5885  0.7906  0.9949  1.6664

 Free energy of the ion-electron system (eV)
  ---------------------------------------------------
  alpha Z        PSCENC =       136.46899361
  Ewald energy   TEWEN  =     -1228.52268157
  -Hartree energ DENC   =      -173.00423168
  -exchange      EXHF   =         0.00000000
  -V(xc)+E(xc)   XCENC  =         6.94668113
  PAW double counting   =      1483.27914228    -1500.93425437
  entropy T*S    EENTRO =         0.00276763
  eigenvalues    EBANDS =        71.17536379
  atomic energy  EATOM  =      1188.57490811
  Solvation  Ediel_sol  =         0.00000000
  ---------------------------------------------------
  free energy    TOTEN  =       -16.01331107 eV

  energy without entropy =      -16.01607870  energy(sigma->0) =      -16.01423361


--------------------------------------------------------------------------------------------------------




--------------------------------------- Iteration      1(  10)  ---------------------------------------


    POTLOK:  cpu time    0.0034: real time    0.0034
    SETDIJ:  cpu time    0.0021: real time    0.0021
     EDDAV:  cpu time    0.7465: real time    0.7466
       DOS:  cpu time    0.0065: real time    0.0065
    CHARGE:  cpu time    0.0196: real time    0.0196
    MIXING:  cpu time    0.0003: real time    0.0003
    --------------------------------------------
      LOOP:  cpu time    0.7784: real time    0.7785

 eigenvalue-minimisations  :  8936
 total energy-change (2. order) :-0.3144948E-04  (-0.3695583E-05)
 number of electron      15.9999931 magnetization 
 augmentation part        8.2279187 magnetization 

 Broyden mixing:
  rms(total) = 0.25880E-02    rms(broyden)= 0.25860E-02
  rms(prec ) = 0.32988E-02
  weight for this iteration     100.00

 eigenvalues of (default mixing * dielectric matrix)
  average eigenvalue GAMMA=   1.6273
  2.5460  2.5460  0.7904  1.0082  1.2458

 Free energy of the ion-electron system (eV)
  ---------------------------------------------------
  alpha Z        PSCENC =       136.46899361
  Ewald energy   TEWEN  =     -1228.52268157
  -Hartree energ DENC   =      -172.99998522
  -exchange      EXHF   =         0.00000000
  -V(xc)+E(xc)   XCENC  =         6.94768912
  PAW double counting   =      1486.56188816    -1504.20716963
  entropy T*S    EENTRO =         0.00276474
  eigenvalues    EBANDS =        71.16025016
  atomic energy  EATOM  =      1188.57490811
  Solvation  Ediel_sol  =         0.00000000
  ---------------------------------------------------
  free energy    TOTEN  =       -16.01334252 eV

  energy without entropy =      -16.01610726  energy(sigma->0) =      -16.01426410


--------------------------------------------------------------------------------------------------------




--------------------------------------- Iteration      1(  11)  ---------------------------------------


    POTLOK:  cpu time    0.0034: real time    0.0034
    SETDIJ:  cpu time    0.0022: real time    0.0022
     EDDAV:  cpu time    0.7681: real time    0.7681
       DOS:  cpu time    0.0065: real time    0.0065
    CHARGE:  cpu time    0.0192: real time    0.0192
    MIXING:  cpu time    0.0002: real time    0.0002
    --------------------------------------------
      LOOP:  cpu time    0.7995: real time    0.7995

 eigenvalue-minimisations  :  9008
 total energy-change (2. order) : 0.7735369E-05  (-0.5048220E-07)
 number of electron      15.9999931 magnetization 
 augmentation part        8.2276362 magnetization 

 Broyden mixing:
  rms(total) = 0.19448E-03    rms(broyden)= 0.19417E-03
  rms(prec ) = 0.25591E-03
  weight for this iteration     100.00

 eigenvalues of (default mixing * dielectric matrix)
  average eigenvalue GAMMA=   1.5460
  2.5739  2.5739  0.7903  1.0032  1.0032  1.3318

 Free energy of the ion-electron system (eV)
  ---------------------------------------------------
  alpha Z        PSCENC =       136.46899361
  Ewald energy   TEWEN  =     -1228.52268157
  -Hartree energ DENC   =      -173.05793105
  -exchange      EXHF   =         0.00000000
  -V(xc)+E(xc)   XCENC  =         6.95051056
  PAW double counting   =      1486.36775990    -1503.95872800
  entropy T*S    EENTRO =         0.00276461
  eigenvalues    EBANDS =        71.16106905
  atomic energy  EATOM  =      1188.57490811
  Solvation  Ediel_sol  =         0.00000000
  ---------------------------------------------------
  free energy    TOTEN  =       -16.01333479 eV

  energy without entropy =      -16.01609940  energy(sigma->0) =      -16.01425632


--------------------------------------------------------------------------------------------------------




--------------------------------------- Iteration      1(  12)  ---------------------------------------


    POTLOK:  cpu time    0.0033: real time    0.0033
    SETDIJ:  cpu time    0.0021: real time    0.0021
     EDDAV:  cpu time    0.5879: real time    0.5880
       DOS:  cpu time    0.0069: real time    0.0069
    --------------------------------------------
      LOOP:  cpu time    0.6002: real time    0.6003

 eigenvalue-minimisations  :  6144
 total energy-change (2. order) : 0.9172516E-06  (-0.4864505E-08)
 number of electron      15.9999931 magnetization 
 augmentation part        8.2276362 magnetization 

 Free energy of the ion-electron system (eV)
  ---------------------------------------------------
  alpha Z        PSCENC =       136.46899361
  Ewald energy   TEWEN  =     -1228.52268157
  -Hartree energ DENC   =      -173.06413140
  -exchange      EXHF   =         0.00000000
  -V(xc)+E(xc)   XCENC  =         6.95080590
  PAW double counting   =      1486.39797405    -1503.98266020
  entropy T*S    EENTRO =         0.00276473
  eigenvalues    EBANDS =        71.16069291
  atomic energy  EATOM  =      1188.57490811
  Solvation  Ediel_sol  =         0.00000000
  ---------------------------------------------------
  free energy    TOTEN  =       -16.01333387 eV

  energy without entropy =      -16.01609860  energy(sigma->0) =      -16.01425545


--------------------------------------------------------------------------------------------------------




 average (electrostatic) potential at core
  the test charge radii are     1.0103
  (the norm of the test charge is              1.0000)
       1 -42.5627       2 -42.5626
 
 
 
 E-fermi :   6.9727     XC(G=0): -13.8214     alpha+bet :-15.3033

 Fermi energy:         6.9727367567

 k-point     1 :       0.0000    0.0000    0.0000
  band No.  band energies     occupation 
      1      -1.9624      2.00000
      2       1.8966      2.00000
      3       4.6334      2.00000
      4       5.3902      2.00000
      5       5.3903      2.00000
      6       5.6739      2.00000
      7       5.6740      2.00000
      8       6.0607      2.00000
      9       6.7344      2.07056
     10       6.7344      2.07056
     11       7.7244     -0.00000
     12       7.7244     -0.00000
     13      14.0382      0.00000
     14      29.9052      0.00000
     15      30.7111      0.00000
     16      33.5815      0.00000
     17      36.1081      0.00000
     18      36.1082      0.00000
     19      36.6084      0.00000
     20      36.9073      0.00000
     21      36.9075      0.00000
     22      39.5707      0.00000
     23      39.5707      0.00000
     24      40.5611      0.00000
     25      43.0817      0.00000
     26      43.0817      0.00000
     27      43.5352      0.00000
     28      46.9404      0.00000
     29      46.9408      0.00000
     30      48.7957      0.00000
     31      48.7958      0.00000
     32      50.9718      0.00000
     33      58.5336      0.00000
     34      61.5664      0.00000
     35      61.5673      0.00000
     36      61.8864      0.00000
     37      62.5963      0.00000
     38      63.6671      0.00000
     39      63.7425      0.00000
     40      64.2257      0.00000

 k-point     2 :       0.0909   -0.0000    0.0000
  band No.  band energies     occupation 
      1      -1.6261      2.00000
      2       2.1536      2.00000
      3       4.6788      2.00000
      4       5.2924      2.00000
      5       5.2977      2.00000
      6       5.5538      2.00000
      7       5.5852      2.00000
      8       5.8579      2.00000
      9       6.5676      2.01470
     10       6.6237      2.03323
     11       7.7543     -0.00000
     12       8.7676     -0.00000
     13      14.0630      0.00000
     14      29.4236      0.00000
     15      30.2990      0.00000
     16      31.9807      0.00000
     17      33.2781      0.00000
     18      35.4386      0.00000
     19      35.5464      0.00000
     20      36.4793      0.00000
     21      38.9104      0.00000
     22      39.5245      0.00000
     23      39.8611      0.00000
     24      40.5226      0.00000
     25      44.2685      0.00000
     26      44.3396      0.00000
     27      44.5660      0.00000
     28      44.7572      0.00000
     29      48.1428      0.00000
     30      50.0574      0.00000
     31      51.1977      0.00000
     32      53.0308      0.00000
     33      57.9007      0.00000
     34      59.9514      0.00000
     35      60.2803      0.00000
     36      60.9312      0.00000
     37      61.3646      0.00000
     38      64.2369      0.00000
     39      64.6857      0.00000
     40      64.7927      0.00000

 k-point     3 :       0.1818   -0.0000    0.0000
  band No.  band energies     occupation 
      1      -0.6748      2.00000
      2       2.7618      2.00000
      3       4.2775      2.00000
      4       4.5716      2.00000
      5       5.0799      2.00000
      6       5.6401      2.00000
      7       6.1371      2.00000
      8       6.1747      2.00000
      9       6.3617      2.00014
     10       6.3720      2.00018
     11       7.7972     -0.00000
     12      10.5543     -0.00000
     13      14.1745      0.00000
     14      25.6269      0.00000
     15      30.4399      0.00000
     16      30.7044      0.00000
     17      30.8230      0.00000
     18      31.5651      0.00000
     19      35.6352      0.00000
     20      36.5990      0.00000
     21      36.9859      0.00000
     22      37.9464      0.00000
     23      40.6977      0.00000
     24      41.3600      0.00000
     25      44.4654      0.00000
     26      45.6407      0.00000
     27      47.0644      0.00000
     28      49.2289      0.00000
     29      50.8650      0.00000
     30      53.4640      0.00000
     31      54.0633      0.00000
     32      56.3771      0.00000
     33      56.7708      0.00000
     34      57.0119      0.00000
     35      58.5765      0.00000
     36      59.9881      0.00000
     37      61.6938      0.00000
     38      64.1042      0.00000
     39      65.2858      0.00000
     40      65.9560      0.00000

 k-point     4 :       0.2727   -0.0000    0.0000
  band No.  band energies     occupation 
      1       0.6741      2.00000
      2       3.0548      2.00000
      3       3.4900      2.00000
      4       4.5590      2.00000
      5       4.8897      2.00000
      6       5.6838      2.00000
      7       6.0630      2.00000
      8       6.3940      2.00033
      9       6.9171      1.45119
     10       7.0876      0.18386
     11       7.8148     -0.00000
     12      12.6005      0.00000
     13      14.4285      0.00000
     14      21.5665      0.00000
     15      27.2148      0.00000
     16      27.9999      0.00000
     17      28.9251      0.00000
     18      31.7328      0.00000
     19      33.8986      0.00000
     20      36.4639      0.00000
     21      37.2241      0.00000
     22      37.3734      0.00000
     23      38.1944      0.00000
     24      41.5955      0.00000
     25      48.1401      0.00000
     26      49.4288      0.00000
     27      50.6089      0.00000
     28      51.4618      0.00000
     29      51.9859      0.00000
     30      53.9306      0.00000
     31      55.1325      0.00000
     32      56.6237      0.00000
     33      58.2033      0.00000
     34      58.5774      0.00000
     35      59.6113      0.00000
     36      61.5578      0.00000
     37      63.0042      0.00000
     38      63.9436      0.00000
     39      65.9219      0.00000
     40      66.0264      0.00000

 k-point     5 :       0.3636   -0.0000    0.0000
  band No.  band energies     occupation 
      1       1.8741      2.00000
      2       2.7822      2.00000
      3       2.9730      2.00000
      4       4.6943      2.00000
      5       5.2475      2.00000
      6       5.3585      2.00000
      7       5.8153      2.00000
      8       7.6530     -0.00002
      9       7.7047     -0.00000
     10       7.8070     -0.00000
     11       7.8080     -0.00000
     12      14.4716      0.00000
     13      14.8086      0.00000
     14      18.5372      0.00000
     15      23.8669      0.00000
     16      25.9526      0.00000
     17      26.1420      0.00000
     18      31.0170      0.00000
     19      32.9202      0.00000
     20      36.1293      0.00000
     21      36.7842      0.00000
     22      38.1518      0.00000
     23      38.3652      0.00000
     24      41.6866      0.00000
     25      48.5793      0.00000
     26      50.3040      0.00000
     27      51.4983      0.00000
     28      54.5860      0.00000
     29      54.7242      0.00000
     30      55.0561      0.00000
     31      56.8530      0.00000
     32      58.5091      0.00000
     33      58.6883      0.00000
     34      60.0640      0.00000
     35      62.0465      0.00000
     36      63.5607      0.00000
     37      63.6617      0.00000
     38      64.8918      0.00000
     39      66.2385      0.00000
     40      67.0805      0.00000

 k-point     6 :       0.4545   -0.0000    0.0000
  band No.  band energies     occupation 
      1       2.3348      2.00000
      2       2.5395      2.00000
      3       2.7208      2.00000
      4       4.9917      2.00000
      5       5.2652      2.00000
      6       5.6002      2.00000
      7       5.6748      2.00000
      8       7.7967     -0.00000
      9       8.1915     -0.00000
     10       8.2923     -0.00000
     11       9.3617     -0.00000
     12      12.7943      0.00000
     13      16.9132      0.00000
     14      18.3743      0.00000
     15      21.2038      0.00000
     16      23.1925      0.00000
     17      25.1077      0.00000
     18      30.4223      0.00000
     19      32.6225      0.00000
     20      34.9836      0.00000
     21      36.5420      0.00000
     22      39.1401      0.00000
     23      40.8055      0.00000
     24      41.1622      0.00000
     25      45.1979      0.00000
     26      50.6125      0.00000
     27      52.3719      0.00000
     28      56.1587      0.00000
     29      57.2024      0.00000
     30      57.8975      0.00000
     31      58.6942      0.00000
     32      60.2042      0.00000
     33      60.5377      0.00000
     34      61.7388      0.00000
     35      62.7160      0.00000
     36      63.3654      0.00000
     37      65.3399      0.00000
     38      65.6360      0.00000
     39      66.5972      0.00000
     40      67.3245      0.00000

 k-point     7 :       0.0909    0.0909    0.0000
  band No.  band energies     occupation 
      1      -0.9795      2.00000
      2       2.6061      2.00000
      3       4.5435      2.00000
      4       4.5951      2.00000
      5       5.3092      2.00000
      6       5.3259      2.00000
      7       5.9894      2.00000
      8       6.1753      2.00000
      9       6.2552      2.00000
     10       6.5718      2.01574
     11       7.7550     -0.00000
     12      10.0542     -0.00000
     13      14.1356      0.00000
     14      27.3869      0.00000
     15      28.6673      0.00000
     16      30.9331      0.00000
     17      32.6384      0.00000
     18      34.2771      0.00000
     19      34.4532      0.00000
     20      35.5370      0.00000
     21      36.2666      0.00000
     22      41.3907      0.00000
     23      41.5025      0.00000
     24      42.2009      0.00000
     25      43.2288      0.00000
     26      43.5555      0.00000
     27      43.8585      0.00000
     28      49.8737      0.00000
     29      51.7504      0.00000
     30      51.8303      0.00000
     31      52.0722      0.00000
     32      55.9747      0.00000
     33      57.0814      0.00000
     34      57.6750      0.00000
     35      58.7880      0.00000
     36      59.9960      0.00000
     37      61.2920      0.00000
     38      64.4966      0.00000
     39      65.2701      0.00000
     40      65.9443      0.00000

 k-point     8 :       0.1818    0.0909    0.0000
  band No.  band energies     occupation 
      1       0.1968      2.00000
      2       3.1867      2.00000
      3       3.7747      2.00000
      4       4.3220      2.00000
      5       4.9966      2.00000
      6       5.7162      2.00000
      7       5.7465      2.00000
      8       6.3100      2.00003
      9       6.7079      2.06827
     10       6.9924      0.83434
     11       7.7377     -0.00000
     12      11.8827     -0.00000
     13      14.3612      0.00000
     14      23.6469      0.00000
     15      26.2892      0.00000
     16      29.0905      0.00000
     17      31.1567      0.00000
     18      31.7583      0.00000
     19      34.4459      0.00000
     20      34.7713      0.00000
     21      35.9397      0.00000
     22      40.2061      0.00000
     23      40.8194      0.00000
     24      42.0470      0.00000
     25      45.1173      0.00000
     26      46.0531      0.00000
     27      48.1436      0.00000
     28      51.7451      0.00000
     29      53.7065      0.00000
     30      54.3123      0.00000
     31      54.7913      0.00000
     32      56.7200      0.00000
     33      57.7251      0.00000
     34      57.7993      0.00000
     35      58.9322      0.00000
     36      59.4708      0.00000
     37      62.1830      0.00000
     38      64.7448      0.00000
     39      65.9312      0.00000
     40      66.3862      0.00000

 k-point     9 :       0.2727    0.0909    0.0000
  band No.  band energies     occupation 
      1       1.5658      2.00000
      2       3.1248      2.00000
      3       3.2062      2.00000
      4       4.4094      2.00000
      5       5.0728      2.00000
      6       5.3194      2.00000
      7       5.9442      2.00000
      8       6.5459      2.01012
      9       7.4918     -0.00150
     10       7.7146     -0.00000
     11       7.9491     -0.00000
     12      13.9859      0.00000
     13      14.7675      0.00000
     14      19.8854      0.00000
     15      24.5765      0.00000
     16      25.6284      0.00000
     17      28.3230      0.00000
     18      30.1083      0.00000
     19      33.9653      0.00000
     20      35.2931      0.00000
     21      35.9712      0.00000
     22      39.5870      0.00000
     23      40.1452      0.00000
     24      43.1008      0.00000
     25      47.0453      0.00000
     26      49.6720      0.00000
     27      50.7836      0.00000
     28      50.8575      0.00000
     29      53.2070      0.00000
     30      55.2411      0.00000
     31      56.1570      0.00000
     32      58.3081      0.00000
     33      59.2764      0.00000
     34      59.7277      0.00000
     35      61.2156      0.00000
     36      63.0900      0.00000
     37      64.5400      0.00000
     38      64.9460      0.00000
     39      65.3075      0.00000
     40      66.3958      0.00000

 k-point    10 :       0.3636    0.0909    0.0000
  band No.  band energies     occupation 
      1       2.4136      2.00000
      2       2.8069      2.00000
      3       2.8730      2.00000
      4       4.8180      2.00000
      5       5.0552      2.00000
      6       5.4774      2.00000
      7       5.6411      2.00000
      8       7.5057     -0.00107
      9       7.6895     -0.00000
     10       8.0253     -0.00000
     11       9.1610     -0.00000
     12      14.1760      0.00000
     13      16.2194      0.00000
     14      18.2062      0.00000
     15      22.5830      0.00000
     16      23.1971      0.00000
     17      25.0673      0.00000
     18      29.2366      0.00000
     19      33.0365      0.00000
     20      34.8133      0.00000
     21      37.5474      0.00000
     22      39.9263      0.00000
     23      40.7109      0.00000
     24      42.4176      0.00000
     25      47.2146      0.00000
     26      49.6999      0.00000
     27      51.0916      0.00000
     28      53.1169      0.00000
     29      54.6924      0.00000
     30      56.7709      0.00000
     31      58.1057      0.00000
     32      59.7490      0.00000
     33      60.5937      0.00000
     34      62.7318      0.00000
     35      62.8193      0.00000
     36      64.0745      0.00000
     37      64.3512      0.00000
     38      65.6361      0.00000
     39      66.3562      0.00000
     40      67.3989      0.00000

 k-point    11 :       0.4545    0.0909    0.0000
  band No.  band energies     occupation 
      1       2.5546      2.00000
      2       2.7020      2.00000
      3       2.7649      2.00000
      4       4.9626      2.00000
      5       5.2416      2.00000
      6       5.5233      2.00000
      7       5.5679      2.00000
      8       7.6778     -0.00001
      9       8.0608     -0.00000
     10       8.0889     -0.00000
     11      10.3925     -0.00000
     12      12.5378      0.00000
     13      17.7487      0.00000
     14      18.8242      0.00000
     15      20.7787      0.00000
     16      22.1880      0.00000
     17      23.7283      0.00000
     18      28.9238      0.00000
     19      32.6477      0.00000
[...]
     18      26.8510      0.00000
     19      32.2382      0.00000
     20      33.1002      0.00000
     21      36.3342      0.00000
     22      36.7685      0.00000
     23      41.8539      0.00000
     24      42.9583      0.00000
     25      48.5819      0.00000
     26      50.3365      0.00000
     27      52.6259      0.00000
     28      53.6859      0.00000
     29      55.4174      0.00000
     30      57.1289      0.00000
     31      59.6292      0.00000
     32      59.6861      0.00000
     33      61.2338      0.00000
     34      61.8126      0.00000
     35      62.9767      0.00000
     36      63.4738      0.00000
     37      64.2212      0.00000
     38      64.5072      0.00000
     39      66.9435      0.00000
     40      67.4257      0.00000

 k-point    91 :       0.4545    0.0909    0.4545
  band No.  band energies     occupation 
      1       2.2434      2.00000
      2       2.3770      2.00000
      3       3.5732      2.00000
      4       3.6416      2.00000
      5       5.9537      2.00000
      6       6.3396      2.00007
      7       6.9863      0.88522
      8       7.2939     -0.04559
      9       7.8758     -0.00000
     10       7.9226     -0.00000
     11      10.3029     -0.00000
     12      10.7798     -0.00000
     13      16.6715      0.00000
     14      16.7127      0.00000
     15      25.0265      0.00000
     16      25.6607      0.00000
     17      26.3699      0.00000
     18      26.7610      0.00000
     19      31.8036      0.00000
     20      32.1394      0.00000
     21      35.7712      0.00000
     22      35.7829      0.00000
     23      41.9203      0.00000
     24      43.0382      0.00000
     25      48.7156      0.00000
     26      50.4388      0.00000
     27      54.8150      0.00000
     28      56.4865      0.00000
     29      57.5213      0.00000
     30      57.7964      0.00000
     31      58.1387      0.00000
     32      58.2375      0.00000
     33      61.6413      0.00000
     34      61.7695      0.00000
     35      64.1338      0.00000
     36      64.3144      0.00000
     37      65.0683      0.00000
     38      65.0941      0.00000
     39      67.7660      0.00000
     40      68.3686      0.00000

 k-point    92 :       0.1818    0.1818    0.4545
  band No.  band energies     occupation 
      1       2.2549      2.00000
      2       2.5195      2.00000
      3       4.1608      2.00000
      4       4.2126      2.00000
      5       4.6540      2.00000
      6       4.6947      2.00000
      7       6.3153      2.00003
      8       6.5417      2.00938
      9       7.6508     -0.00002
     10       7.8191     -0.00000
     11       8.3044     -0.00000
     12       8.7892     -0.00000
     13      22.5690      0.00000
     14      23.0454      0.00000
     15      23.6168      0.00000
     16      24.3397      0.00000
     17      24.9002      0.00000
     18      25.7784      0.00000
     19      36.3163      0.00000
     20      37.4333      0.00000
     21      38.2034      0.00000
     22      39.3430      0.00000
     23      40.8063      0.00000
     24      40.9872      0.00000
     25      47.0096      0.00000
     26      47.4101      0.00000
     27      50.7675      0.00000
     28      52.1972      0.00000
     29      53.9082      0.00000
     30      54.4522      0.00000
     31      56.5499      0.00000
     32      57.1346      0.00000
     33      59.2103      0.00000
     34      59.3497      0.00000
     35      61.1570      0.00000
     36      61.3480      0.00000
     37      63.9086      0.00000
     38      65.0774      0.00000
     39      66.3028      0.00000
     40      66.6793      0.00000

 k-point    93 :       0.2727    0.1818    0.4545
  band No.  band energies     occupation 
      1       2.6632      2.00000
      2       2.7647      2.00000
      3       3.9500      2.00000
      4       4.1289      2.00000
      5       5.0064      2.00000
      6       5.1423      2.00000
      7       6.1928      2.00000
      8       6.4181      2.00063
      9       7.7514     -0.00000
     10       8.0206     -0.00000
     11       9.8337     -0.00000
     12      10.3262     -0.00000
     13      19.7935      0.00000
     14      20.3385      0.00000
     15      22.5339      0.00000
     16      23.2473      0.00000
     17      24.9774      0.00000
     18      26.6173      0.00000
     19      33.9669      0.00000
     20      35.5610      0.00000
     21      36.6274      0.00000
     22      38.1606      0.00000
     23      41.7688      0.00000
     24      42.2396      0.00000
     25      48.5910      0.00000
     26      49.0936      0.00000
     27      51.9578      0.00000
     28      53.8942      0.00000
     29      55.5677      0.00000
     30      57.1753      0.00000
     31      58.4987      0.00000
     32      59.2279      0.00000
     33      60.6971      0.00000
     34      60.8165      0.00000
     35      61.9148      0.00000
     36      62.3209      0.00000
     37      63.4787      0.00000
     38      64.4051      0.00000
     39      66.8280      0.00000
     40      67.0916      0.00000

 k-point    94 :       0.3636    0.1818    0.4545
  band No.  band energies     occupation 
      1       2.7110      2.00000
      2       2.8529      2.00000
      3       3.8492      2.00000
      4       4.0148      2.00000
      5       5.1459      2.00000
      6       5.4496      2.00000
      7       6.5036      2.00448
      8       6.6115      2.02839
      9       7.7311     -0.00000
     10       7.9028     -0.00000
     11      11.5701     -0.00000
     12      11.9944     -0.00000
     13      17.1434      0.00000
     14      17.5079      0.00000
     15      21.9332      0.00000
     16      22.6516      0.00000
     17      26.5659      0.00000
     18      27.6412      0.00000
     19      32.2280      0.00000
     20      33.2698      0.00000
     21      35.7371      0.00000
     22      37.2567      0.00000
     23      42.3450      0.00000
     24      42.7285      0.00000
     25      51.8952      0.00000
     26      52.6405      0.00000
     27      52.8008      0.00000
     28      54.2023      0.00000
     29      56.2586      0.00000
     30      57.1757      0.00000
     31      57.5422      0.00000
     32      58.3552      0.00000
     33      60.5392      0.00000
     34      61.1630      0.00000
     35      62.8685      0.00000
     36      63.6361      0.00000
     37      65.2413      0.00000
     38      65.2893      0.00000
     39      66.1632      0.00000
     40      66.5789      0.00000

 k-point    95 :       0.2727    0.2727    0.4545
  band No.  band energies     occupation 
      1       3.1152      2.00000
      2       3.1711      2.00000
      3       4.0725      2.00000
      4       4.2826      2.00000
      5       4.6907      2.00000
      6       4.8874      2.00000
      7       6.0586      2.00000
      8       6.2533      2.00000
      9       7.7448     -0.00000
     10       7.9324     -0.00000
     11      11.9967     -0.00000
     12      12.5029      0.00000
     13      18.2762      0.00000
     14      18.6876      0.00000
     15      20.0359      0.00000
     16      20.4247      0.00000
     17      26.7298      0.00000
     18      28.2876      0.00000
     19      32.3439      0.00000
     20      33.6769      0.00000
     21      35.4095      0.00000
     22      36.4720      0.00000
     23      44.8432      0.00000
     24      45.2569      0.00000
     25      48.9367      0.00000
     26      49.0319      0.00000
     27      54.5436      0.00000
     28      56.0677      0.00000
     29      56.6374      0.00000
     30      56.8918      0.00000
     31      58.7944      0.00000
     32      58.8580      0.00000
     33      59.6207      0.00000
     34      59.7277      0.00000
     35      61.4690      0.00000
     36      62.2108      0.00000
     37      64.9644      0.00000
     38      65.2452      0.00000
     39      66.2014      0.00000
     40      66.2870      0.00000

 k-point    96 :       0.3636    0.2727    0.4545
  band No.  band energies     occupation 
      1       3.3266      2.00000
      2       3.4515      2.00000
      3       4.0228      2.00000
      4       4.1193      2.00000
      5       4.6741      2.00000
      6       4.8072      2.00000
      7       6.1017      2.00000
      8       6.2480      2.00000
      9       7.7275     -0.00000
     10       7.7948     -0.00000
     11      13.8463      0.00000
     12      13.9846      0.00000
     13      16.5625      0.00000
     14      16.8791      0.00000
     15      19.3840      0.00000
     16      19.8230      0.00000
     17      28.4625      0.00000
     18      29.1468      0.00000
     19      31.3571      0.00000
     20      31.6859      0.00000
     21      35.1084      0.00000
     22      35.9143      0.00000
     23      45.9913      0.00000
     24      46.6113      0.00000
     25      50.7341      0.00000
     26      51.1740      0.00000
     27      53.2199      0.00000
     28      53.6173      0.00000
     29      56.2325      0.00000
     30      56.9140      0.00000
     31      58.6974      0.00000
     32      59.3375      0.00000
     33      59.5217      0.00000
     34      60.1522      0.00000
     35      61.4783      0.00000
     36      62.5510      0.00000
     37      64.0437      0.00000
     38      64.1294      0.00000
     39      67.6666      0.00000
     40      67.7513      0.00000


--------------------------------------------------------------------------------------------------------


 soft charge-density along one line, spin component           1
         0         1         2         3         4         5         6         7         8         9
x     7.7724    0.0000    0.0931   -0.1612   -0.0569   -0.0986    0.0189   -0.0000    0.0015   -0.0026
x     0.0000    0.0000
y     7.7724    0.0000    0.0931    0.1612   -0.0569    0.0986    0.0189    0.0000    0.0015    0.0026
y     0.0000    0.0000
z     7.7724    0.0000    0.0000    0.0000    0.5697    0.0000    0.0000    0.0000   -0.1700   -0.0000
z     0.0000    0.0000    0.0151    0.0000    0.0000    0.0000    0.0084   -0.0000    0.0000    0.0000
 total charge-density along one line
x    16.0000    0.0000    1.4739   -2.5529    0.2998    0.5193    0.0282    0.0000    0.0011   -0.0020
x     0.0001    0.0002   -0.0003    0.0000    0.0000   -0.0001   -0.0000   -0.0000    0.0000   -0.0000
x    -0.0000    0.0000
y    16.0000    0.0000    1.4739    2.5529    0.2998   -0.5193    0.0282   -0.0000    0.0011    0.0020
y     0.0001   -0.0002   -0.0003   -0.0000    0.0000    0.0001   -0.0000    0.0000    0.0000    0.0000
y    -0.0000   -0.0000
z    16.0000    0.0000   -0.0000    0.0000    6.2502   -0.0000   -0.0000    0.0000    1.4616   -0.0000
z     0.0000   -0.0000    0.0656   -0.0000    0.0000    0.0000    0.0005   -0.0000    0.0000   -0.0000
z     0.0034   -0.0000    0.0000    0.0000   -0.0015    0.0000    0.0000   -0.0000    0.0008    0.0000
z     0.0000    0.0000   -0.0005    0.0000   -0.0000    0.0000    0.0004   -0.0000
 
 pseudopotential strength for first ion, spin component:           1
 -4.398  -0.000  -0.000   0.000  -0.000  -4.963  -0.000  -0.000
 -0.000  -4.386  -0.000  -0.000  -0.000  -0.000  -4.951  -0.000
 -0.000  -0.000  -4.394  -0.000  -0.000  -0.000  -0.000  -4.959
  0.000  -0.000  -0.000  -4.386  -0.000   0.000  -0.000  -0.000
 -0.000  -0.000  -0.000  -0.000  -4.398  -0.000  -0.000  -0.000
 -4.963  -0.000  -0.000   0.000  -0.000  -5.485  -0.000  -0.000
 -0.000  -4.951  -0.000  -0.000  -0.000  -0.000  -5.473  -0.000
 -0.000  -0.000  -4.959  -0.000  -0.000  -0.000  -0.000  -5.481
  0.000  -0.000  -0.000  -4.951  -0.000   0.000  -0.000  -0.000
 -0.000  -0.000  -0.000  -0.000  -4.963  -0.000  -0.000  -0.000
  0.000  -0.000   0.001   0.000  -0.000   0.000  -0.000   0.000
  0.000  -0.000   0.001   0.000  -0.000   0.000  -0.000   0.001
 -0.000   0.000   0.000   0.000  -0.001  -0.000   0.000   0.000
  0.000  -0.000   0.000   0.000   0.000   0.000  -0.000   0.000
 -0.001   0.000   0.000   0.000  -0.000  -0.001   0.000   0.000
 -0.000   0.000   0.000   0.000  -0.001  -0.000   0.000   0.000
  0.000  -0.000   0.000   0.000   0.000   0.000  -0.000   0.000
 -0.001   0.000   0.000   0.000  -0.000  -0.001   0.000   0.000
 total augmentation occupancy for first ion, spin component:           1
  1.598   0.000   0.000   0.000   0.000  -0.972   0.000  -0.000   0.000  -0.000   0.000  -0.000   0.000   0.000   0.033  -0.000
 -0.000   2.150   0.000  -0.000   0.000   0.000  -1.245   0.000   0.000   0.000   0.000  -0.000   0.000   0.000   0.000   0.000
  0.000  -0.000   1.296   0.000  -0.000  -0.000  -0.000  -0.695   0.000   0.000   0.064  -0.014   0.000   0.000   0.000   0.000
  0.000  -0.000   0.000   2.150   0.000   0.000   0.000   0.000  -1.245   0.000  -0.000   0.000   0.000  -0.000   0.000   0.000
  0.000  -0.000  -0.000   0.000   1.598  -0.000   0.000   0.000  -0.000  -0.972   0.000  -0.000   0.033   0.000  -0.000  -0.002
 -0.972   0.000  -0.000   0.000  -0.000   1.716   0.000   0.000   0.000   0.000  -0.000   0.000  -0.000   0.000  -0.046   0.000
  0.000  -1.245   0.000   0.000   0.000   0.000   1.677   0.000  -0.000   0.000   0.000  -0.000  -0.000  -0.000   0.000   0.000
 -0.000  -0.000  -0.695   0.000   0.000   0.000  -0.000   1.446   0.000  -0.000  -0.156   0.013   0.000   0.000  -0.000  -0.000
  0.000   0.000   0.000  -1.245   0.000  -0.000  -0.000  -0.000   1.677   0.000   0.000   0.000   0.000   0.000   0.000   0.000
 -0.000   0.000   0.000   0.000  -0.972   0.000   0.000  -0.000  -0.000   1.716  -0.000   0.000  -0.046   0.000   0.000   0.003
  0.000  -0.000   0.064  -0.000   0.000  -0.000  -0.000  -0.156   0.000  -0.000   2.683  -0.307   0.000   0.000   0.000   0.000
 -0.000  -0.000  -0.014   0.000  -0.000   0.000  -0.000   0.013   0.000   0.000  -0.307   0.040  -0.000   0.000   0.000   0.000
  0.000  -0.000  -0.000  -0.000   0.033  -0.000  -0.000   0.000   0.000  -0.046   0.000  -0.000   0.357  -0.000  -0.000  -0.028
  0.000   0.000   0.000   0.000  -0.000   0.000   0.000   0.000  -0.000   0.000   0.000   0.000   0.000   0.326  -0.000   0.000
  0.033   0.000   0.000   0.000  -0.000  -0.046   0.000  -0.000  -0.000   0.000   0.000   0.000  -0.000  -0.000   0.357   0.000
 -0.000   0.000   0.000   0.000  -0.002   0.000  -0.000  -0.000   0.000   0.003  -0.000   0.000  -0.028  -0.000   0.000   0.003
  0.000   0.000   0.000  -0.000  -0.000  -0.000   0.000   0.000   0.000   0.000   0.000   0.000  -0.000  -0.030   0.000   0.000
 -0.002   0.000  -0.000   0.000   0.000   0.003   0.000   0.000  -0.000  -0.000   0.000  -0.000   0.000   0.000  -0.028  -0.000


------------------------ aborting loop because EDIFF is reached ----------------------------------------


    CHARGE:  cpu time    0.0193: real time    0.0193
    FORLOC:  cpu time    0.0002: real time    0.0002
    FORNL :  cpu time    0.1044: real time    0.1044
    STRESS:  cpu time    0.1488: real time    0.1488
    FORCOR:  cpu time    0.0034: real time    0.0034
    FORHAR:  cpu time    0.0008: real time    0.0007
    MIXING:  cpu time    0.0002: real time    0.0002

  FORCE on cell =-STRESS in cart. coord.  units (eV):
  Direction    XX          YY          ZZ          XY          YZ          ZX
  --------------------------------------------------------------------------------------
  Alpha Z   136.46899   136.46899   136.46899
  Ewald    -390.64756  -390.64756  -447.22836     0.00000    -0.00000     0.00000
  Hartree    64.86638    64.86638    43.33026    -0.00000    -0.00000    -0.00000
  E(xc)     -78.70820   -78.70823   -78.40118     0.00023     0.00000    -0.00000
  Local      96.92360    96.92381   171.98961    -0.00087     0.00000     0.00000
  n-local   -52.50317   -51.67703   -54.65740    -4.15841     1.36300     0.88024
  augment    75.62545    75.62492    76.05891     0.00110    -0.00000     0.00000
  Kinetic   153.62608   147.15222   148.14263     1.69134    -0.85674     0.26740
  Fock        0.00000     0.00000     0.00000     0.00000     0.00000     0.00000
  -------------------------------------------------------------------------------------
  Total       2.82754     2.82754    -4.29654    -0.00000    -0.00000     0.00000
  in kB     223.62892   223.62892  -339.81198    -0.00000    -0.00000     0.00000
  external pressure =       35.82 kB  Pullay stress =        0.00 kB


 VOLUME and BASIS-vectors are now :
 -----------------------------------------------------------------------------
  energy-cutoff  :      280.00
  volume of cell :       20.26
      direct lattice vectors                 reciprocal lattice vectors
     2.353300000  0.000000000  0.000000000     0.424935197  0.245336451  0.000000000
    -1.176650000  2.038017583  0.000000000     0.000000000  0.490672901  0.000000000
     0.000000000  0.000000000  4.223820000     0.000000000  0.000000000  0.236752513

  length of vectors
     2.353300000  2.353300000  4.223820000     0.490672901  0.490672901  0.236752513


 FORCES acting on ions
    electron-ion (+dipol)            ewald-force                    non-local-force                 convergence-correction
 -----------------------------------------------------------------------------------------------
   0.219E-06 -.571E-06 0.227E-14   0.499E-12 -.287E-12 -.259E-13   0.377E-16 -.120E-16 0.544E-19   -.450E-08 0.253E-08 -.381E-13
   -.705E-05 0.820E-05 0.248E-12   -.507E-12 0.290E-12 0.259E-13   -.324E-16 0.887E-17 -.427E-19   0.471E-08 -.265E-08 0.597E-13
 -----------------------------------------------------------------------------------------------
   -.683E-05 0.763E-05 0.250E-12   -.841E-14 0.281E-14 0.119E-16   0.529E-17 -.315E-17 0.117E-19   0.209E-09 -.120E-09 0.216E-13
 
 
 POSITION                                       TOTAL-FORCE (eV/Angst)
 -----------------------------------------------------------------------------------
      0.00000      0.00000      0.00000         0.000000     -0.000000     -0.000000
      0.00000      1.35868      2.11191        -0.000000      0.000000      0.000000
 -----------------------------------------------------------------------------------
    total drift:                               -0.000007      0.000008      0.000000


--------------------------------------------------------------------------------------------------------



  FREE ENERGIE OF THE ION-ELECTRON SYSTEM (eV)
  ---------------------------------------------------
  free  energy   TOTEN  =       -16.01333387 eV

  energy  without entropy=      -16.01609860  energy(sigma->0) =      -16.01425545
 


--------------------------------------------------------------------------------------------------------


    POTLOK:  cpu time    0.0056: real time    0.0056


--------------------------------------------------------------------------------------------------------


 writing wavefunctions
     LOOP+:  cpu time    9.9939: real time   10.0146
    4ORBIT:  cpu time    0.0000: real time    0.0000

 total amount of memory used by VASP MPI-rank0    50222. kBytes
=======================================================================

   base      :      30000. kBytes
   nonl-proj :       3159. kBytes
   grid      :        812. kBytes
   one-center:         31. kBytes
   wavefun   :      16220. kBytes
 
  
  
 General timing and accounting informations for this job:
 ========================================================
  
                  Total CPU time used (sec):       10.182
                            User time (sec):       10.138
                          System time (sec):        0.044
                         Elapsed time (sec):       10.193
  
                   Maximum memory used (kb):       55456.
                   Average memory used (kb):          N/A
  
                          Minor page faults:         7417
                          Major page faults:            0
                 Voluntary context switches:           26
