<?xml version="1.0" encoding="ISO-8859-1"?>
<modeling>
 <generator>
  <i name="program" type="string">vasp </i>
  <i name="version" type="string">6.2.0  </i>
  <i name="subversion" type="string">18Jan21 (build Mar 17 2021 09:06:54) complex                          serial </i>
  <i name="platform" type="string">LinuxIFC </i>
  <i name="date" type="string">2021 09 09 </i>
  <i name="time" type="string">12:06:15 </i>
 </generator>
 <incar>
  <i type="string" name="PREC">normal</i>
  <i type="int" name="ICHARG">     1</i>
  <i type="int" name="IBRION">     1</i>
  <i name="EDIFF">      0.00000100</i>
  <i type="int" name="NSW">     0</i>
  <i type="int" name="ISIF">     2</i>
  <i name="ENCUT">    280.00000000</i>
  <i type="int" name="NBANDS">    40</i>
  <i type="int" name="ISMEAR">     1</i>
  <i name="SIGMA">      0.20000000</i>
  <i type="logical" name="LCHARG"> T  </i>
  <i type="int" name="KPAR">     1</i>
  <i type="int" name="NCORE">     1</i>
  <i type="string" name="GGA">PE</i>
 </incar>
 <primitive_cell>
  <structure name="primitive_cell" >
   <crystal>
    <varray name="basis" >
     <v>       2.35330000       0.00000000       0.00000000 </v>
     <v>      -1.17665000       2.03801758       0.00000000 </v>
     <v>       0.00000000       0.00000000       4.22382000 </v>
    </varray>
    <i name="volume">     20.25772278 </i>
    <varray name="rec_basis" >
     <v>       0.42493520       0.24533645       0.00000000 </v>
     <v>       0.00000000       0.49067290       0.00000000 </v>
     <v>       0.00000000       0.00000000       0.23675251 </v>
    </varray>
   </crystal>
   <varray name="positions" >
    <v>       0.00000000       0.00000000       0.00000000 </v>
    <v>       0.33333333       0.66666667       0.50000000 </v>
   </varray>
  </structure>
  <varray name="primitive_index" >
   <v type="int" >        1 </v>
   <v type="int" >        2 </v>
  </varray>
 </primitive_cell>
 <kpoints>
  <generation param="Monkhorst-Pack">
   <v type="int" name="divisions">      11       11       11 </v>
   <v name="usershift">      0.00000000       0.00000000       0.00000000 </v>
   <v name="genvec1">      0.09090909      -0.00000000       0.00000000 </v>
   <v name="genvec2">      0.00000000       0.09090909       0.00000000 </v>
   <v name="genvec3">      0.00000000       0.00000000       0.09090909 </v>
   <v name="shift">      0.00000000       0.00000000       0.00000000 </v>
  </generation>
  <varray name="kpointlist" >
   <v>       0.00000000       0.00000000       0.00000000 </v>
   <v>       0.09090909      -0.00000000       0.00000000 </v>
   <v>       0.18181818      -0.00000000       0.00000000 </v>
   <v>       0.27272727      -0.00000000       0.00000000 </v>
   <v>       0.36363636      -0.00000000       0.00000000 </v>
   <v>       0.45454545      -0.00000000       0.00000000 </v>
   <v>       0.09090909       0.09090909       0.00000000 </v>
   <v>       0.18181818       0.09090909       0.00000000 </v>
   <v>       0.27272727       0.09090909       0.00000000 </v>
   <v>       0.36363636       0.09090909       0.00000000 </v>
   <v>       0.45454545       0.09090909       0.00000000 </v>
   <v>       0.18181818       0.18181818       0.00000000 </v>
   <v>       0.27272727       0.18181818       0.00000000 </v>
   <v>       0.36363636       0.18181818       0.00000000 </v>
   <v>       0.27272727       0.27272727       0.00000000 </v>
   <v>       0.36363636       0.27272727       0.00000000 </v>
   <v>       0.00000000       0.00000000       0.09090909 </v>
   <v>       0.09090909      -0.00000000       0.09090909 </v>
   <v>       0.18181818      -0.00000000       0.09090909 </v>
   <v>       0.27272727      -0.00000000       0.09090909 </v>
   <v>       0.36363636      -0.00000000       0.09090909 </v>
   <v>       0.45454545      -0.00000000       0.09090909 </v>
   <v>       0.09090909       0.09090909       0.09090909 </v>
   <v>       0.18181818       0.09090909       0.09090909 </v>
   <v>       0.27272727       0.09090909       0.09090909 </v>
   <v>       0.36363636       0.09090909       0.09090909 </v>
   <v>       0.45454545       0.09090909       0.09090909 </v>
   <v>       0.18181818       0.18181818       0.09090909 </v>
   <v>       0.27272727       0.18181818       0.09090909 </v>
   <v>       0.36363636       0.18181818       0.09090909 </v>
   <v>       0.27272727       0.27272727       0.09090909 </v>
   <v>       0.36363636       0.27272727       0.09090909 </v>
   <v>       0.00000000       0.00000000       0.18181818 </v>
   <v>       0.09090909      -0.00000000       0.18181818 </v>
   <v>       0.18181818      -0.00000000       0.18181818 </v>
   <v>       0.27272727      -0.00000000       0.18181818 </v>
   <v>       0.36363636      -0.00000000       0.18181818 </v>
   <v>       0.45454545      -0.00000000       0.18181818 </v>
   <v>       0.09090909       0.09090909       0.18181818 </v>
   <v>       0.18181818       0.09090909       0.18181818 </v>
   <v>       0.27272727       0.09090909       0.18181818 </v>
   <v>       0.36363636       0.09090909       0.18181818 </v>
   <v>       0.45454545       0.09090909       0.18181818 </v>
   <v>       0.18181818       0.18181818       0.18181818 </v>
   <v>       0.27272727       0.18181818       0.18181818 </v>
   <v>       0.36363636       0.18181818       0.18181818 </v>
   <v>       0.27272727       0.27272727       0.18181818 </v>
   <v>       0.36363636       0.27272727       0.18181818 </v>
   <v>       0.00000000       0.00000000       0.27272727 </v>
   <v>       0.09090909      -0.00000000       0.27272727 </v>
   <v>       0.18181818      -0.00000000       0.27272727 </v>
   <v>       0.27272727      -0.00000000       0.27272727 </v>
   <v>       0.36363636      -0.00000000       0.27272727 </v>
   <v>       0.45454545      -0.00000000       0.27272727 </v>
   <v>       0.09090909       0.09090909       0.27272727 </v>
   <v>       0.18181818       0.09090909       0.27272727 </v>
   <v>       0.27272727       0.09090909       0.27272727 </v>
   <v>       0.36363636       0.09090909       0.27272727 </v>
   <v>       0.45454545       0.09090909       0.27272727 </v>
   <v>       0.18181818       0.18181818       0.27272727 </v>
   <v>       0.27272727       0.18181818       0.27272727 </v>
   <v>       0.36363636       0.18181818       0.27272727 </v>
   <v>       0.27272727       0.27272727       0.27272727 </v>
   <v>       0.36363636       0.27272727       0.27272727 </v>
   <v>       0.00000000       0.00000000       0.36363636 </v>
   <v>       0.09090909      -0.00000000       0.36363636 </v>
   <v>       0.18181818      -0.00000000       0.36363636 </v>
   <v>       0.27272727      -0.00000000       0.36363636 </v>
   <v>       0.36363636      -0.00000000       0.36363636 </v>
   <v>       0.45454545      -0.00000000       0.36363636 </v>
   <v>       0.09090909       0.09090909       0.36363636 </v>
   <v>       0.18181818       0.09090909       0.36363636 </v>
   <v>       0.27272727       0.09090909       0.36363636 </v>
   <v>       0.36363636       0.09090909       0.36363636 </v>
   <v>       0.45454545       0.09090909       0.36363636 </v>
   <v>       0.18181818       0.18181818       0.36363636 </v>
   <v>       0.27272727       0.18181818       0.36363636 </v>
   <v>       0.36363636       0.18181818       0.36363636 </v>
   <v>       0.27272727       0.27272727       0.36363636 </v>
   <v>       0.36363636       0.27272727       0.36363636 </v>
   <v>       0.00000000       0.00000000       0.45454545 </v>
   <v>       0.09090909      -0.00000000       0.45454545 </v>
   <v>       0.18181818      -0.00000000       0.45454545 </v>
   <v>       0.27272727      -0.00000000       0.45454545 </v>
   <v>       0.36363636      -0.00000000       0.45454545 </v>
   <v>       0.45454545      -0.00000000       0.45454545 </v>
   <v>       0.09090909       0.09090909       0.45454545 </v>
   <v>       0.18181818       0.09090909       0.45454545 </v>
   <v>       0.27272727       0.09090909       0.45454545 </v>
   <v>       0.36363636       0.09090909       0.45454545 </v>
   <v>       0.45454545       0.09090909       0.45454545 </v>
   <v>       0.18181818       0.18181818       0.45454545 </v>
   <v>       0.27272727       0.18181818       0.45454545 </v>
   <v>       0.36363636       0.18181818       0.45454545 </v>
   <v>       0.27272727       0.27272727       0.45454545 </v>
   <v>       0.36363636       0.27272727       0.45454545 </v>
  </varray>
  <varray name="weights" >
   <v>       0.00075131 </v>
   <v>       0.00450789 </v>
   <v>       0.00450789 </v>
   <v>       0.00450789 </v>
   <v>       0.00450789 </v>
   <v>       0.00450789 </v>
   <v>       0.00450789 </v>
   <v>       0.00901578 </v>
   <v>       0.00901578 </v>
   <v>       0.00901578 </v>
   <v>       0.00450789 </v>
   <v>       0.00450789 </v>
   <v>       0.00901578 </v>
   <v>       0.00901578 </v>
   <v>       0.00450789 </v>
   <v>       0.00450789 </v>
   <v>       0.00150263 </v>
   <v>       0.00901578 </v>
   <v>       0.00901578 </v>
   <v>       0.00901578 </v>
   <v>       0.00901578 </v>
   <v>       0.00901578 </v>
   <v>       0.00901578 </v>
   <v>       0.01803156 </v>
   <v>       0.01803156 </v>
   <v>       0.01803156 </v>
   <v>       0.00901578 </v>
   <v>       0.00901578 </v>
   <v>       0.01803156 </v>
   <v>       0.01803156 </v>
   <v>       0.00901578 </v>
   <v>       0.00901578 </v>
   <v>       0.00150263 </v>
   <v>       0.00901578 </v>
   <v>       0.00901578 </v>
   <v>       0.00901578 </v>
   <v>       0.00901578 </v>
   <v>       0.00901578 </v>
   <v>       0.00901578 </v>
   <v>       0.01803156 </v>
   <v>       0.01803156 </v>
   <v>       0.01803156 </v>
   <v>       0.00901578 </v>
   <v>       0.00901578 </v>
   <v>       0.01803156 </v>
   <v>       0.01803156 </v>
   <v>       0.00901578 </v>
   <v>       0.00901578 </v>
   <v>       0.00150263 </v>
   <v>       0.00901578 </v>
   <v>       0.00901578 </v>
   <v>       0.00901578 </v>
   <v>       0.00901578 </v>
   <v>       0.00901578 </v>
   <v>       0.00901578 </v>
   <v>       0.01803156 </v>
   <v>       0.01803156 </v>
   <v>       0.01803156 </v>
   <v>       0.00901578 </v>
   <v>       0.00901578 </v>
   <v>       0.01803156 </v>
   <v>       0.01803156 </v>
   <v>       0.00901578 </v>
   <v>       0.00901578 </v>
   <v>       0.00150263 </v>
   <v>       0.00901578 </v>
   <v>       0.00901578 </v>
   <v>       0.00901578 </v>
   <v>       0.00901578 </v>
   <v>       0.00901578 </v>
   <v>       0.00901578 </v>
   <v>       0.01803156 </v>
   <v>       0.01803156 </v>
   <v>       0.01803156 </v>
   <v>       0.00901578 </v>
   <v>       0.00901578 </v>
   <v>       0.01803156 </v>
   <v>       0.01803156 </v>
   <v>       0.00901578 </v>
   <v>       0.00901578 </v>
   <v>       0.00150263 </v>
   <v>       0.00901578 </v>
   <v>       0.00901578 </v>
   <v>       0.00901578 </v>
   <v>       0.00901578 </v>
   <v>       0.00901578 </v>
   <v>       0.00901578 </v>
   <v>       0.01803156 </v>
   <v>       0.01803156 </v>
   <v>       0.01803156 </v>
   <v>       0.00901578 </v>
   <v>       0.00901578 </v>
   <v>       0.01803156 </v>
   <v>       0.01803156 </v>
   <v>       0.00901578 </v>
   <v>       0.00901578 </v>
  </varray>
 </kpoints>
 <parameters>
  <separator name="general" >
   <i type="string" name="SYSTEM">unknown system</i>
   <i type="logical" name="LCOMPAT"> F  </i>
  </separator>
  <separator name="electronic" >
   <i type="string" name="PREC">normal</i>
   <i name="ENMAX">    280.00000000</i>
   <i name="ENAUG">    511.36800000</i>
   <i name="EDIFF">      0.00000100</i>
   <i type="int" name="IALGO">    38</i>
   <i type="int" name="IWAVPR">     0</i>
   <i type="int" name="NBANDS">    40</i>
   <i type="int" name="NBANDSLOW">    -1</i>
   <i type="int" name="NBANDSHIGH">    -1</i>
   <i name="NELECT">     16.00000000</i>
   <i type="int" name="TURBO">     0</i>
   <i type="int" name="IRESTART">     0</i>
   <i type="int" name="NREBOOT">     0</i>
   <i type="int" name="NMIN">     0</i>
   <i name="EREF">      0.00000000</i>
   <separator name="electronic smearing" >
    <i type="int" name="ISMEAR">     1</i>
    <i name="SIGMA">      0.20000000</i>
    <i name="KSPACING">      0.50000000</i>
    <i type="logical" name="KGAMMA"> T  </i>
    <i type="logical" name="KBLOWUP"> T  </i>
   </separator>
   <separator name="electronic projectors" >
    <i type="logical" name="LREAL"> F  </i>
    <v name="ROPT">      0.00000000</v>
    <i type="int" name="LMAXPAW">  -100</i>
    <i type="int" name="LMAXMIX">     2</i>
    <i type="logical" name="NLSPLINE"> F  </i>
   </separator>
   <separator name="electronic startup" >
    <i type="int" name="ISTART">     0</i>
    <i type="int" name="ICHARG">     1</i>
    <i type="int" name="INIWAV">     1</i>
   </separator>
   <separator name="electronic spin" >
    <i type="int" name="ISPIN">     1</i>
    <i type="logical" name="LNONCOLLINEAR"> F  </i>
    <v name="MAGMOM">      1.00000000      1.00000000</v>
    <i name="NUPDOWN">     -1.00000000</i>
    <i type="logical" name="LSORBIT"> F  </i>
    <v name="SAXIS">      0.00000000      0.00000000      1.00000000</v>
    <i type="logical" name="LSPIRAL"> F  </i>
    <v name="QSPIRAL">      0.00000000      0.00000000      0.00000000</v>
    <i type="logical" name="LZEROZ"> F  </i>
   </separator>
   <separator name="electronic exchange-correlation" >
    <i type="logical" name="LASPH"> F  </i>
    <i type="logical" name="LMETAGGA"> F  </i>
   </separator>
   <separator name="electronic convergence" >
    <i type="int" name="NELM">    60</i>
    <i type="int" name="NELMDL">    -5</i>
    <i type="int" name="NELMIN">     2</i>
    <i name="ENINI">    280.00000000</i>
    <separator name="electronic convergence detail" >
     <i type="logical" name="LDIAG"> T  </i>
     <i type="logical" name="LSUBROT"> F  </i>
     <i name="WEIMIN">      0.00000000</i>
     <i name="EBREAK">      0.00000001</i>
     <i name="DEPER">      0.30000000</i>
     <i type="int" name="NRMM">     4</i>
     <i name="TIME">      0.40000000</i>
    </separator>
   </separator>
   <separator name="electronic mixer" >
    <i name="AMIX">      0.40000000</i>
    <i name="BMIX">      1.00000000</i>
    <i name="AMIN">      0.10000000</i>
    <i name="AMIX_MAG">      1.60000000</i>
    <i name="BMIX_MAG">      1.00000000</i>
    <separator name="electronic mixer details" >
     <i type="int" name="IMIX">     4</i>
     <i type="logical" name="MIXFIRST"> F  </i>
     <i type="int" name="MAXMIX">   -45</i>
     <i name="WC">    100.00000000</i>
     <i type="int" name="INIMIX">     1</i>
     <i type="int" name="MIXPRE">     1</i>
     <i type="int" name="MREMOVE">     5</i>
    </separator>
   </separator>
   <separator name="electronic dipolcorrection" >
    <i type="logical" name="LDIPOL"> F  </i>
    <i type="logical" name="LMONO"> F  </i>
    <i type="int" name="IDIPOL">     0</i>
    <i name="EPSILON">      1.00000000</i>
    <v name="DIPOL">   -100.00000000   -100.00000000   -100.00000000</v>
    <i name="EFIELD">      0.00000000</i>
   </separator>
  </separator>
  <separator name="grids" >
   <i type="int" name="NGX">    10</i>
   <i type="int" name="NGY">    10</i>
   <i type="int" name="NGZ">    18</i>
   <i type="int" name="NGXF">    20</i>
   <i type="int" name="NGYF">    20</i>
   <i type="int" name="NGZF">    36</i>
   <i type="logical" name="ADDGRID"> F  </i>
  </separator>
  <separator name="ionic" >
   <i type="int" name="NSW">     0</i>
   <i type="int" name="IBRION">    -1</i>
   <i type="int" name="MDALGO">     0</i>
   <i type="int" name="ISIF">     2</i>
   <i name="PSTRESS">      0.00000000</i>
   <i name="EDIFFG">      0.00001000</i>
   <i type="int" name="NFREE">     0</i>
   <i name="POTIM">      0.50000000</i>
   <i name="SMASS">     -3.00000000</i>
   <i name="SCALEE">      1.00000000</i>
  </separator>
  <separator name="ionic md" >
   <i name="TEBEG">      0.00010000</i>
   <i name="TEEND">      0.00010000</i>
   <i type="int" name="NBLOCK">     1</i>
   <i type="int" name="KBLOCK">     1</i>
   <i type="int" name="NPACO">   256</i>
   <i name="APACO">     16.00000000</i>
  </separator>
  <separator name="symmetry" >
   <i type="int" name="ISYM">     2</i>
   <i name="SYMPREC">      0.00001000</i>
  </separator>
  <separator name="dos" >
   <i type="int" name="LORBIT">     0</i>
   <v name="RWIGS">     -1.00000000</v>
   <i type="int" name="NEDOS">   301</i>
   <i name="EMIN">     10.00000000</i>
   <i name="EMAX">    -10.00000000</i>
   <i name="EFERMI">      0.00000000</i>
  </separator>
  <separator name="writing" >
   <i type="int" name="NWRITE">     2</i>
   <i type="logical" name="LWAVE"> T  </i>
   <i type="logical" name="LDOWNSAMPLE"> F  </i>
   <i type="logical" name="LCHARG"> T  </i>
   <i type="logical" name="LPARD"> F  </i>
   <i type="logical" name="LVTOT"> F  </i>
   <i type="logical" name="LVHAR"> F  </i>
   <i type="logical" name="LELF"> F  </i>
   <i type="logical" name="LOPTICS"> F  </i>
   <v name="STM">      0.00000000      0.00000000      0.00000000      0.00000000      0.00000000      0.00000000      0.00000000</v>
  </separator>
  <separator name="performance" >
   <i type="int" name="NPAR">     1</i>
   <i type="int" name="NSIM">     4</i>
   <i type="int" name="NBLK">    -1</i>
   <i type="logical" name="LPLANE"> T  </i>
   <i type="logical" name="LSCALAPACK"> F  </i>
   <i type="logical" name="LSCAAWARE"> F  </i>
   <i type="logical" name="LSCALU"> F  </i>
   <i type="logical" name="LASYNC"> F  </i>
   <i type="logical" name="LORBITALREAL"> F  </i>
  </separator>
  <separator name="miscellaneous" >
   <i type="int" name="IDIOT">     3</i>
   <i type="int" name="PHON_NSTRUCT">    -1</i>
   <i type="logical" name="LMUSIC"> F  </i>
   <v name="POMASS">     55.84700000</v>
   <v name="DARWINR">      0.00000000</v>
   <v name="DARWINV">      1.00000000</v>
   <i type="logical" name="LCORR"> T  </i>
  </separator>
  <i type="logical" name="GGA_COMPAT"> T  </i>
  <i type="logical" name="LBERRY"> F  </i>
  <i type="int" name="ICORELEVEL">     0</i>
  <i type="logical" name="LDAU"> F  </i>
  <i type="int" name="I_CONSTRAINED_M">     0</i>
  <separator name="electronic exchange-correlation" >
   <i type="string" name="GGA">PE</i>
   <i type="int" name="VOSKOWN">     0</i>
   <i type="logical" name="LHFCALC"> F  </i>
   <i type="string" name="PRECFOCK"></i>
   <i type="logical" name="LSYMGRAD"> F  </i>
   <i type="logical" name="LHFONE"> F  </i>
   <i type="logical" name="LRHFCALC"> F  </i>
   <i type="logical" name="LTHOMAS"> F  </i>
   <i type="logical" name="LMODELHF"> F  </i>
   <i type="logical" name="LFOCKACE"> F  </i>
   <i name="ENCUT4O">     -1.00000000</i>
   <i type="int" name="EXXOEP">     0</i>
   <i type="int" name="FOURORBIT">     0</i>
   <i name="AEXX">      0.00000000</i>
   <i name="HFALPHA">      0.00000000</i>
   <i name="MCALPHA">      0.00000000</i>
   <i name="ALDAX">      1.00000000</i>
   <i name="AGGAX">      1.00000000</i>
   <i name="ALDAC">      1.00000000</i>
   <i name="AGGAC">      1.00000000</i>
   <i type="int" name="NKREDX">     1</i>
   <i type="int" name="NKREDY">     1</i>
   <i type="int" name="NKREDZ">     1</i>
   <i type="logical" name="SHIFTRED"> F  </i>
   <i type="logical" name="ODDONLY"> F  </i>
   <i type="logical" name="EVENONLY"> F  </i>
   <i type="int" name="LMAXFOCK">     0</i>
   <i type="int" name="NMAXFOCKAE">     0</i>
   <i type="logical" name="LFOCKAEDFT"> F  </i>
   <i name="HFSCREEN">      0.00000000</i>
   <i name="HFSCREENC">      0.00000000</i>
   <i type="int" name="NBANDSGWLOW">     0</i>
  </separator>
  <separator name="vdW DFT" >
   <i type="logical" name="LUSE_VDW"> F  </i>
   <i name="Zab_VDW">     -0.84910000</i>
   <i name="PARAM1">      0.12340000</i>
   <i name="PARAM2">      1.00000000</i>
   <i name="PARAM3">      0.00000000</i>
  </separator>
  <separator name="model GW" >
   <i type="int" name="MODEL_GW">     0</i>
   <i name="MODEL_EPS0">      6.07731683</i>
   <i name="MODEL_ALPHA">      1.00000000</i>
  </separator>
  <separator name="linear response parameters" >
   <i type="logical" name="LEPSILON"> F  </i>
   <i type="logical" name="LRPA"> F  </i>
   <i type="logical" name="LNABLA"> F  </i>
   <i type="logical" name="LVEL"> F  </i>
   <i type="int" name="KINTER">     0</i>
   <i name="CSHIFT">      0.10000000</i>
   <i name="OMEGAMAX">     -1.00000000</i>
   <i name="DEG_THRESHOLD">      0.00200000</i>
   <i name="RTIME">     -0.10000000</i>
   <i name="WPLASMAI">      0.00000000</i>
   <v name="DFIELD">      0.00000000      0.00000000      0.00000000</v>
   <v name="WPLASMA">      0.00000000      0.00000000      0.00000000      0.00000000      0.00000000      0.00000000      0.00000000      0.00000000      0.00000000</v>
  </separator>
  <separator name="orbital magnetization" >
   <i type="logical" name="NUCIND"> F  </i>
   <v name="MAGPOS">      0.00000000      0.00000000      0.00000000</v>
   <i type="logical" name="LNICSALL"> T  </i>
   <i type="logical" name="ORBITALMAG"> F  </i>
   <i type="logical" name="LMAGBLOCH"> F  </i>
   <i type="logical" name="LCHIMAG"> F  </i>
   <i type="logical" name="LGAUGE"> T  </i>
   <i type="int" name="MAGATOM">     0</i>
   <v name="MAGDIPOL">      0.00000000      0.00000000      0.00000000</v>
   <v name="AVECCONST">      0.00000000      0.00000000      0.00000000</v>
  </separator>
  <separator name="response functions" >
   <i type="logical" name="LFINITE_TEMPERATURE"> F  </i>
   <i type="logical" name="LADDER"> F  </i>
   <i type="logical" name="LRPAFORCE"> F  </i>
   <i type="logical" name="LFXC"> F  </i>
   <i type="logical" name="LHARTREE"> T  </i>
   <i type="int" name="IBSE">     0</i>
   <v type="int" name="KPOINT">    -1     0     0     0</v>
   <i type="logical" name="LTCTC"> F  </i>
   <i type="logical" name="LTCTE"> F  </i>
   <i type="logical" name="LTETE"> F  </i>
   <i type="logical" name="LTRIPLET"> F  </i>
   <i type="logical" name="LFXCEPS"> F  </i>
   <i type="logical" name="LFXHEG"> F  </i>
   <i type="int" name="NATURALO">     2</i>
   <i type="logical" name="LHOLEGF"> F  </i>
   <i type="logical" name="L2ORDER"> F  </i>
   <i type="logical" name="LDMP1"> F  </i>
   <i type="logical" name="LMP2LT"> F  </i>
   <i type="logical" name="LSMP2LT"> F  </i>
   <i type="logical" name="LGWLF"> F  </i>
   <i name="ENCUTGW">     -2.00000000</i>
   <i name="ENCUTGWSOFT">     -2.00000000</i>
   <i name="ENCUTLF">     -1.00000000</i>
   <i type="logical" name="LESF_SPLINES"> F  </i>
   <i type="int" name="LMAXMP2">    -1</i>
   <i name="SCISSOR">      0.00000000</i>
   <i type="int" name="NOMEGA">     0</i>
   <i type="int" name="NOMEGAR">     0</i>
   <i type="int" name="NBANDSGW">    -1</i>
   <i type="int" name="NBANDSO">    -1</i>
   <i type="int" name="NBANDSV">    -1</i>
   <i type="int" name="NELM">     1</i>
   <i type="int" name="NELMHF">     1</i>
   <i type="int" name="DIM">     3</i>
   <i type="int" name="IESPILON">     4</i>
   <i type="int" name="ANTIRES">     0</i>
   <i name="OMEGAMAX">    -30.00000000</i>
   <i name="OMEGAMIN">    -30.00000000</i>
   <i name="OMEGATL">   -200.00000000</i>
   <i type="int" name="OMEGAGRID">     0</i>
   <i name="CSHIFT">     -0.10000000</i>
   <i type="logical" name="LSELFENERGY"> F  </i>
   <i type="logical" name="LSPECTRAL"> F  </i>
   <i type="logical" name="LSPECTRALGW"> F  </i>
   <i type="logical" name="LSINGLES"> F  </i>
   <i type="logical" name="LFERMIGW"> F  </i>
   <i type="logical" name="ODDONLYGW"> F  </i>
   <i type="logical" name="EVENONLYGW"> F  </i>
   <i type="int" name="NKREDLFX">     1</i>
   <i type="int" name="NKREDLFY">     1</i>
   <i type="int" name="NKREDLFZ">     1</i>
   <i type="int" name="MAXMEM">  2800</i>
   <i type="int" name="TELESCOPE">     0</i>
   <i type="int" name="NTAUPAR">    -1</i>
   <i type="int" name="NOMEGAPAR">    -1</i>
   <i name="DAMP_NEWTON">      0.80000001</i>
   <i name="LAMBDA">      1.00000000</i>
  </separator>
  <separator name="External order field" >
   <i name="OFIELD_KAPPA">      0.00000000</i>
   <v name="OFIELD_K">      0.00000000      0.00000000      0.00000000</v>
   <i name="OFIELD_Q6_NEAR">      0.00000000</i>
   <i name="OFIELD_Q6_FAR">      0.00000000</i>
   <i name="OFIELD_A">      0.00000000</i>
  </separator>
 </parameters>
 <atominfo>
  <atoms>       2 </atoms>
  <types>       1 </types>
  <array name="atoms" >
   <dimension dim="1">ion</dimension>
   <field type="string">element</field>
   <field type="int">atomtype</field>
   <set>
    <rc><c>Fe</c><c>   1</c></rc>
    <rc><c>Fe</c><c>   1</c></rc>
   </set>
  </array>
  <array name="atomtypes" >
   <dimension dim="1">type</dimension>
   <field type="int">atomspertype</field>
   <field type="string">element</field>
   <field>mass</field>
   <field>valence</field>
   <field type="string">pseudopotential</field>
   <set>
    <rc><c>   2</c><c>Fe</c><c>     55.84700000</c><c>      8.00000000</c><c>  PAW_PBE Fe 06Sep2000                  </c></rc>
   </set>
  </array>
 </atominfo>
 <structure name="initialpos" >
  <crystal>
   <varray name="basis" >
    <v>       2.35330000       0.00000000       0.00000000 </v>
    <v>      -1.17665000       2.03801758       0.00000000 </v>
    <v>       0.00000000       0.00000000       4.22382000 </v>
   </varray>
   <i name="volume">     20.25772278 </i>
   <varray name="rec_basis" >
    <v>       0.42493520       0.24533645       0.00000000 </v>
    <v>       0.00000000       0.49067290       0.00000000 </v>
    <v>       0.00000000       0.00000000       0.23675251 </v>
   </varray>
  </crystal>
  <varray name="positions" >
   <v>       0.00000000       0.00000000       0.00000000 </v>
   <v>       0.33333333       0.66666667       0.50000000 </v>
  </varray>
 </structure>
 <calculation>
  <scstep>
   <time name="dav">    0.79    0.81</time>
   <time name="total">    0.80    0.82</time>
   <energy>
    <i name="alphaZ">    136.46899361 </i>
    <i name="ewald">  -1228.52268157 </i>
    <i name="hartreedc">   -207.09041319 </i>
    <i name="XCdc">      8.53651633 </i>
    <i name="pawpsdc">   1109.69170683 </i>
    <i name="pawaedc">  -1125.09647265 </i>
    <i name="eentropy">      0.00298037 </i>
    <i name="bandstr">    179.27043907 </i>
    <i name="atom">   1188.57490811 </i>
    <i name="e_fr_energy">     61.83597691 </i>
    <i name="e_wo_entrp">     61.83299654 </i>
    <i name="e_0_energy">     61.83498346 </i>
   </energy>
  </scstep>
  <scstep>
   <time name="dav">    0.68    0.68</time>
   <time name="total">    0.69    0.69</time>
   <energy>
    <i name="e_fr_energy">    -14.59756591 </i>
    <i name="e_wo_entrp">    -14.60307181 </i>
    <i name="e_0_energy">    -14.59940121 </i>
   </energy>
  </scstep>
  <scstep>
   <time name="dav">    0.79    0.79</time>
   <time name="total">    0.80    0.80</time>
   <energy>
    <i name="e_fr_energy">    -19.04278685 </i>
    <i name="e_wo_entrp">    -19.04338510 </i>
    <i name="e_0_energy">    -19.04298627 </i>
   </energy>
  </scstep>
  <scstep>
   <time name="dav">    0.77    0.77</time>
   <time name="total">    0.78    0.78</time>
   <energy>
    <i name="e_fr_energy">    -19.06277949 </i>
    <i name="e_wo_entrp">    -19.06334325 </i>
    <i name="e_0_energy">    -19.06296741 </i>
   </energy>
  </scstep>
  <scstep>
   <time name="dav">    0.77    0.77</time>
   <time name="total">    0.79    0.79</time>
   <energy>
    <i name="e_fr_energy">    -19.06280316 </i>
    <i name="e_wo_entrp">    -19.06336688 </i>
    <i name="e_0_energy">    -19.06299106 </i>
   </energy>
  </scstep>
  <scstep>
   <time name="dav">    0.91    0.91</time>
   <time name="total">    0.95    0.95</time>
   <energy>
    <i name="e_fr_energy">    -16.24416181 </i>
    <i name="e_wo_entrp">    -16.24689730 </i>
    <i name="e_0_energy">    -16.24507364 </i>
   </energy>
  </scstep>
  <scstep>
   <time name="dav">    0.85    0.85</time>
   <time name="total">    0.89    0.89</time>
   <energy>
    <i name="e_fr_energy">    -16.05097584 </i>
    <i name="e_wo_entrp">    -16.05366979 </i>
    <i name="e_0_energy">    -16.05187382 </i>
   </energy>
  </scstep>
  <scstep>
   <time name="dav">    0.85    0.85</time>
   <time name="total">    0.88    0.88</time>
   <energy>
    <i name="e_fr_energy">    -16.02347714 </i>
    <i name="e_wo_entrp">    -16.02623822 </i>
    <i name="e_0_energy">    -16.02439750 </i>
   </energy>
  </scstep>
  <scstep>
   <time name="dav">    0.89    0.89</time>
   <time name="total">    0.92    0.92</time>
   <energy>
    <i name="e_fr_energy">    -16.01331107 </i>
    <i name="e_wo_entrp">    -16.01607870 </i>
    <i name="e_0_energy">    -16.01423361 </i>
   </energy>
  </scstep>
  <scstep>
   <time name="dav">    0.75    0.75</time>
   <time name="total">    0.78    0.78</time>
   <energy>
    <i name="e_fr_energy">    -16.01334252 </i>
    <i name="e_wo_entrp">    -16.01610726 </i>
    <i name="e_0_energy">    -16.01426410 </i>
   </energy>
  </scstep>
  <scstep>
   <time name="dav">    0.77    0.77</time>
   <time name="total">    0.80    0.80</time>
   <energy>
    <i name="e_fr_energy">    -16.01333479 </i>
    <i name="e_wo_entrp">    -16.01609940 </i>
    <i name="e_0_energy">    -16.01425632 </i>
   </energy>
  </scstep>
  <scstep>
   <time name="dav">    0.59    0.59</time>
   <time name="total">    0.60    0.60</time>
   <energy>
    <i name="alphaZ">    136.46899361 </i>
    <i name="ewald">  -1228.52268157 </i>
    <i name="hartreedc">   -173.06413140 </i>
    <i name="XCdc">      6.95080590 </i>
    <i name="pawpsdc">   1486.39797405 </i>
    <i name="pawaedc">  -1503.98266020 </i>
    <i name="eentropy">      0.00276473 </i>
    <i name="bandstr">     71.16069291 </i>
    <i name="atom">   1188.57490811 </i>
    <i name="e_fr_energy">    -16.01333387 </i>
    <i name="e_wo_entrp">    -16.01609860 </i>
    <i name="e_0_energy">    -16.01425545 </i>
   </energy>
  </scstep>
  <structure>
   <crystal>
    <varray name="basis" >
     <v>       2.35330000       0.00000000       0.00000000 </v>
     <v>      -1.17665000       2.03801758       0.00000000 </v>
     <v>       0.00000000       0.00000000       4.22382000 </v>
    </varray>
    <i name="volume">     20.25772278 </i>
    <varray name="rec_basis" >
     <v>       0.42493520       0.24533645       0.00000000 </v>
     <v>       0.00000000       0.49067290       0.00000000 </v>
     <v>       0.00000000       0.00000000       0.23675251 </v>
    </varray>
   </crystal>
   <varray name="positions" >
    <v>       0.00000000       0.00000000       0.00000000 </v>
    <v>       0.33333333       0.66666667       0.50000000 </v>
   </varray>
  </structure>
  <varray name="forces" >
   <v>       0.00000000      -0.00000000      -0.00000000 </v>
   <v>      -0.00000000       0.00000000       0.00000000 </v>
  </varray>
  <varray name="stress" >
   <v>     223.62892011      -0.00000000       0.00000000 </v>
   <v>      -0.00000000     223.62892011       0.00000000 </v>
   <v>       0.00000000      -0.00000000    -339.81198473 </v>
  </varray>
  <energy>
   <i name="e_fr_energy">    -16.01333387 </i>
   <i name="e_wo_entrp">    -16.01609860 </i>
   <i name="e_0_energy">    -16.01425545 </i>
  </energy>
  <time name="totalsc">    9.99   10.01</time>
  <eigenvalues>
   <array>
    <dimension dim="1">band</dimension>
    <dimension dim="2">kpoint</dimension>
    <dimension dim="3">spin</dimension>
    <field>eigene</field>
    <field>occ</field>
    <set>
     <set comment="spin 1">
      <set comment="kpoint 1">
       <r>   -1.9624    1.0000 </r>
       <r>    1.8966    1.0000 </r>
       <r>    4.6334    1.0000 </r>
       <r>    5.3902    1.0000 </r>
       <r>    5.3903    1.0000 </r>
       <r>    5.6739    1.0000 </r>
       <r>    5.6740    1.0000 </r>
       <r>    6.0607    1.0000 </r>
       <r>    6.7344    1.0353 </r>
       <r>    6.7344    1.0353 </r>
       <r>    7.7244   -0.0000 </r>
       <r>    7.7244   -0.0000 </r>
       <r>   14.0382    0.0000 </r>
       <r>   29.9052    0.0000 </r>
       <r>   30.7111    0.0000 </r>
       <r>   33.5815    0.0000 </r>
       <r>   36.1081    0.0000 </r>
       <r>   36.1082    0.0000 </r>
       <r>   36.6084    0.0000 </r>
       <r>   36.9073    0.0000 </r>
       <r>   36.9075    0.0000 </r>
       <r>   39.5707    0.0000 </r>
       <r>   39.5707    0.0000 </r>
       <r>   40.5611    0.0000 </r>
       <r>   43.0817    0.0000 </r>
       <r>   43.0817    0.0000 </r>
       <r>   43.5352    0.0000 </r>
       <r>   46.9404    0.0000 </r>
       <r>   46.9408    0.0000 </r>
       <r>   48.7957    0.0000 </r>
       <r>   48.7958    0.0000 </r>
       <r>   50.9718    0.0000 </r>
       <r>   58.5336    0.0000 </r>
       <r>   61.5664    0.0000 </r>
       <r>   61.5673    0.0000 </r>
       <r>   61.8864    0.0000 </r>
       <r>   62.5963    0.0000 </r>
       <r>   63.6671    0.0000 </r>
       <r>   63.7425    0.0000 </r>
       <r>   64.2257    0.0000 </r>
      </set>
      <set comment="kpoint 2">
       <r>   -1.6261    1.0000 </r>
       <r>    2.1536    1.0000 </r>
       <r>    4.6788    1.0000 </r>
       <r>    5.2924    1.0000 </r>
       <r>    5.2977    1.0000 </r>
       <r>    5.5538    1.0000 </r>
       <r>    5.5852    1.0000 </r>
       <r>    5.8579    1.0000 </r>
       <r>    6.5676    1.0074 </r>
       <r>    6.6237    1.0166 </r>
       <r>    7.7543   -0.0000 </r>
       <r>    8.7676   -0.0000 </r>
       <r>   14.0630    0.0000 </r>
       <r>   29.4236    0.0000 </r>
       <r>   30.2990    0.0000 </r>
       <r>   31.9807    0.0000 </r>
       <r>   33.2781    0.0000 </r>
       <r>   35.4386    0.0000 </r>
       <r>   35.5464    0.0000 </r>
       <r>   36.4793    0.0000 </r>
       <r>   38.9104    0.0000 </r>
       <r>   39.5245    0.0000 </r>
       <r>   39.8611    0.0000 </r>
       <r>   40.5226    0.0000 </r>
       <r>   44.2685    0.0000 </r>
       <r>   44.3396    0.0000 </r>
       <r>   44.5660    0.0000 </r>
       <r>   44.7572    0.0000 </r>
       <r>   48.1428    0.0000 </r>
       <r>   50.0574    0.0000 </r>
       <r>   51.1977    0.0000 </r>
       <r>   53.0308    0.0000 </r>
       <r>   57.9007    0.0000 </r>
       <r>   59.9514    0.0000 </r>
       <r>   60.2803    0.0000 </r>
       <r>   60.9312    0.0000 </r>
       <r>   61.3646    0.0000 </r>
       <r>   64.2369    0.0000 </r>
       <r>   64.6857    0.0000 </r>
       <r>   64.7927    0.0000 </r>
      </set>
      <set comment="kpoint 3">
       <r>   -0.6748    1.0000 </r>
       <r>    2.7618    1.0000 </r>
       <r>    4.2775    1.0000 </r>
       <r>    4.5716    1.0000 </r>
       <r>    5.0799    1.0000 </r>
       <r>    5.6401    1.0000 </r>
       <r>    6.1371    1.0000 </r>
       <r>    6.1747    1.0000 </r>
       <r>    6.3617    1.0001 </r>
       <r>    6.3720    1.0001 </r>
       <r>    7.7972   -0.0000 </r>
       <r>   10.5543   -0.0000 </r>
       <r>   14.1745    0.0000 </r>
       <r>   25.6269    0.0000 </r>
       <r>   30.4399    0.0000 </r>
       <r>   30.7044    0.0000 </r>
       <r>   30.8230    0.0000 </r>
       <r>   31.5651    0.0000 </r>
       <r>   35.6352    0.0000 </r>
       <r>   36.5990    0.0000 </r>
       <r>   36.9859    0.0000 </r>
       <r>   37.9464    0.0000 </r>
       <r>   40.6977    0.0000 </r>
       <r>   41.3600    0.0000 </r>
       <r>   44.4654    0.0000 </r>
       <r>   45.6407    0.0000 </r>
       <r>   47.0644    0.0000 </r>
       <r>   49.2289    0.0000 </r>
       <r>   50.8650    0.0000 </r>
       <r>   53.4640    0.0000 </r>
       <r>   54.0633    0.0000 </r>
       <r>   56.3771    0.0000 </r>
       <r>   56.7708    0.0000 </r>
       <r>   57.0119    0.0000 </r>
       <r>   58.5765    0.0000 </r>
       <r>   59.9881    0.0000 </r>
       <r>   61.6938    0.0000 </r>
       <r>   64.1042    0.0000 </r>
       <r>   65.2858    0.0000 </r>
       <r>   65.9560    0.0000 </r>
      </set>
      <set comment="kpoint 4">
       <r>    0.6741    1.0000 </r>
       <r>    3.0548    1.0000 </r>
       <r>    3.4900    1.0000 </r>
       <r>    4.5590    1.0000 </r>
       <r>    4.8897    1.0000 </r>
       <r>    5.6838    1.0000 </r>
       <r>    6.0630    1.0000 </r>
       <r>    6.3940    1.0002 </r>
       <r>    6.9171    0.7256 </r>
       <r>    7.0876    0.0919 </r>
       <r>    7.8148   -0.0000 </r>
       <r>   12.6005    0.0000 </r>
       <r>   14.4285    0.0000 </r>
       <r>   21.5665    0.0000 </r>
       <r>   27.2148    0.0000 </r>
       <r>   27.9999    0.0000 </r>
       <r>   28.9251    0.0000 </r>
       <r>   31.7328    0.0000 </r>
       <r>   33.8986    0.0000 </r>
       <r>   36.4639    0.0000 </r>
       <r>   37.2241    0.0000 </r>
       <r>   37.3734    0.0000 </r>
       <r>   38.1944    0.0000 </r>
       <r>   41.5955    0.0000 </r>
       <r>   48.1401    0.0000 </r>
       <r>   49.4288    0.0000 </r>
       <r>   50.6089    0.0000 </r>
       <r>   51.4618    0.0000 </r>
       <r>   51.9859    0.0000 </r>
       <r>   53.9306    0.0000 </r>
       <r>   55.1325    0.0000 </r>
       <r>   56.6237    0.0000 </r>
       <r>   58.2033    0.0000 </r>
       <r>   58.5774    0.0000 </r>
       <r>   59.6113    0.0000 </r>
       <r>   61.5578    0.0000 </r>
       <r>   63.0042    0.0000 </r>
       <r>   63.9436    0.0000 </r>
       <r>   65.9219    0.0000 </r>
       <r>   66.0264    0.0000 </r>
      </set>
      <set comment="kpoint 5">
       <r>    1.8741    1.0000 </r>
       <r>    2.7822    1.0000 </r>
       <r>    2.9730    1.0000 </r>
       <r>    4.6943    1.0000 </r>
       <r>    5.2475    1.0000 </r>
       <r>    5.3585    1.0000 </r>
       <r>    5.8153    1.0000 </r>
       <r>    7.6530   -0.0000 </r>
       <r>    7.7047   -0.0000 </r>
       <r>    7.8070   -0.0000 </r>
       <r>    7.8080   -0.0000 </r>
       <r>   14.4716    0.0000 </r>
       <r>   14.8086    0.0000 </r>
       <r>   18.5372    0.0000 </r>
       <r>   23.8669    0.0000 </r>
       <r>   25.9526    0.0000 </r>
       <r>   26.1420    0.0000 </r>
       <r>   31.0170    0.0000 </r>
       <r>   32.9202    0.0000 </r>
       <r>   36.1293    0.0000 </r>
       <r>   36.7842    0.0000 </r>
       <r>   38.1518    0.0000 </r>
       <r>   38.3652    0.0000 </r>
       <r>   41.6866    0.0000 </r>
       <r>   48.5793    0.0000 </r>
       <r>   50.3040    0.0000 </r>
       <r>   51.4983    0.0000 </r>
       <r>   54.5860    0.0000 </r>
       <r>   54.7242    0.0000 </r>
       <r>   55.0561    0.0000 </r>
       <r>   56.8530    0.0000 </r>
       <r>   58.5091    0.0000 </r>
       <r>   58.6883    0.0000 </r>
       <r>   60.0640    0.0000 </r>
       <r>   62.0465    0.0000 </r>
       <r>   63.5607    0.0000 </r>
       <r>   63.6617    0.0000 </r>
       <r>   64.8918    0.0000 </r>
       <r>   66.2385    0.0000 </r>
       <r>   67.0805    0.0000 </r>
      </set>
      <set comment="kpoint 6">
       <r>    2.3348    1.0000 </r>
       <r>    2.5395    1.0000 </r>
       <r>    2.7208    1.0000 </r>
       <r>    4.9917    1.0000 </r>
       <r>    5.2652    1.0000 </r>
       <r>    5.6002    1.0000 </r>
       <r>    5.6748    1.0000 </r>
       <r>    7.7967   -0.0000 </r>
       <r>    8.1915   -0.0000 </r>
       <r>    8.2923   -0.0000 </r>
       <r>    9.3617   -0.0000 </r>
       <r>   12.7943    0.0000 </r>
       <r>   16.9132    0.0000 </r>
       <r>   18.3743    0.0000 </r>
       <r>   21.2038    0.0000 </r>
       <r>   23.1925    0.0000 </r>
       <r>   25.1077    0.0000 </r>
       <r>   30.4223    0.0000 </r>
       <r>   32.6225    0.0000 </r>
       <r>   34.9836    0.0000 </r>
       <r>   36.5420    0.0000 </r>
       <r>   39.1401    0.0000 </r>
       <r>   40.8055    0.0000 </r>
       <r>   41.1622    0.0000 </r>
       <r>   45.1979    0.0000 </r>
       <r>   50.6125    0.0000 </r>
       <r>   52.3719    0.0000 </r>
       <r>   56.1587    0.0000 </r>
       <r>   57.2024    0.0000 </r>
       <r>   57.8975    0.0000 </r>
       <r>   58.6942    0.0000 </r>
       <r>   60.2042    0.0000 </r>
       <r>   60.5377    0.0000 </r>
       <r>   61.7388    0.0000 </r>
       <r>   62.7160    0.0000 </r>
       <r>   63.3654    0.0000 </r>
       <r>   65.3399    0.0000 </r>
       <r>   65.6360    0.0000 </r>
       <r>   66.5972    0.0000 </r>
       <r>   67.3245    0.0000 </r>
      </set>
      <set comment="kpoint 7">
       <r>   -0.9795    1.0000 </r>
       <r>    2.6061    1.0000 </r>
       <r>    4.5435    1.0000 </r>
       <r>    4.5951    1.0000 </r>
       <r>    5.3092    1.0000 </r>
       <r>    5.3259    1.0000 </r>
       <r>    5.9894    1.0000 </r>
       <r>    6.1753    1.0000 </r>
       <r>    6.2552    1.0000 </r>
       <r>    6.5718    1.0079 </r>
       <r>    7.7550   -0.0000 </r>
       <r>   10.0542   -0.0000 </r>
       <r>   14.1356    0.0000 </r>
       <r>   27.3869    0.0000 </r>
       <r>   28.6673    0.0000 </r>
       <r>   30.9331    0.0000 </r>
       <r>   32.6384    0.0000 </r>
       <r>   34.2771    0.0000 </r>
       <r>   34.4532    0.0000 </r>
       <r>   35.5370    0.0000 </r>
       <r>   36.2666    0.0000 </r>
       <r>   41.3907    0.0000 </r>
       <r>   41.5025    0.0000 </r>
       <r>   42.2009    0.0000 </r>
       <r>   43.2288    0.0000 </r>
       <r>   43.5555    0.0000 </r>
       <r>   43.8585    0.0000 </r>
       <r>   49.8737    0.0000 </r>
       <r>   51.7504    0.0000 </r>
       <r>   51.8303    0.0000 </r>
       <r>   52.0722    0.0000 </r>
       <r>   55.9747    0.0000 </r>
       <r>   57.0814    0.0000 </r>
       <r>   57.6750    0.0000 </r>
       <r>   58.7880    0.0000 </r>
       <r>   59.9960    0.0000 </r>
       <r>   61.2920    0.0000 </r>
       <r>   64.4966    0.0000 </r>
       <r>   65.2701    0.0000 </r>
       <r>   65.9443    0.0000 </r>
      </set>
      <set comment="kpoint 8">
       <r>    0.1968    1.0000 </r>
       <r>    3.1867    1.0000 </r>
       <r>    3.7747    1.0000 </r>
       <r>    4.3220    1.0000 </r>
       <r>    4.9966    1.0000 </r>
       <r>    5.7162    1.0000 </r>
       <r>    5.7465    1.0000 </r>
       <r>    6.3100    1.0000 </r>
       <r>    6.7079    1.0341 </r>
       <r>    6.9924    0.4172 </r>
       <r>    7.7377   -0.0000 </r>
       <r>   11.8827   -0.0000 </r>
       <r>   14.3612    0.0000 </r>
       <r>   23.6469    0.0000 </r>
       <r>   26.2892    0.0000 </r>
       <r>   29.0905    0.0000 </r>
       <r>   31.1567    0.0000 </r>
       <r>   31.7583    0.0000 </r>
       <r>   34.4459    0.0000 </r>
       <r>   34.7713    0.0000 </r>
       <r>   35.9397    0.0000 </r>
       <r>   40.2061    0.0000 </r>
       <r>   40.8194    0.0000 </r>
       <r>   42.0470    0.0000 </r>
       <r>   45.1173    0.0000 </r>
       <r>   46.0531    0.0000 </r>
       <r>   48.1436    0.0000 </r>
       <r>   51.7451    0.0000 </r>
       <r>   53.7065    0.0000 </r>
       <r>   54.3123    0.0000 </r>
       <r>   54.7913    0.0000 </r>
       <r>   56.7200    0.0000 </r>
       <r>   57.7251    0.0000 </r>
       <r>   57.7993    0.0000 </r>
       <r>   58.9322    0.0000 </r>
       <r>   59.4708    0.0000 </r>
       <r>   62.1830    0.0000 </r>
       <r>   64.7448    0.0000 </r>
       <r>   65.9312    0.0000 </r>
       <r>   66.3862    0.0000 </r>
      </set>
      <set comment="kpoint 9">
       <r>    1.5658    1.0000 </r>
       <r>    3.1248    1.0000 </r>
       <r>    3.2062    1.0000 </r>
       <r>    4.4094    1.0000 </r>
       <r>    5.0728    1.0000 </r>
       <r>    5.3194    1.0000 </r>
       <r>    5.9442    1.0000 </r>
       <r>    6.5459    1.0051 </r>
       <r>    7.4918   -0.0007 </r>
       <r>    7.7146   -0.0000 </r>
       <r>    7.9491   -0.0000 </r>
       <r>   13.9859    0.0000 </r>
       <r>   14.7675    0.0000 </r>
       <r>   19.8854    0.0000 </r>
       <r>   24.5765    0.0000 </r>
       <r>   25.6284    0.0000 </r>
       <r>   28.3230    0.0000 </r>
       <r>   30.1083    0.0000 </r>
       <r>   33.9653    0.0000 </r>
       <r>   35.2931    0.0000 </r>
       <r>   35.9712    0.0000 </r>
       <r>   39.5870    0.0000 </r>
       <r>   40.1452    0.0000 </r>
       <r>   43.1008    0.0000 </r>
       <r>   47.0453    0.0000 </r>
       <r>   49.6720    0.0000 </r>
       <r>   50.7836    0.0000 </r>
       <r>   50.8575    0.0000 </r>
       <r>   53.2070    0.0000 </r>
       <r>   55.2411    0.0000 </r>
       <r>   56.1570    0.0000 </r>
       <r>   58.3081    0.0000 </r>
       <r>   59.2764    0.0000 </r>
       <r>   59.7277    0.0000 </r>
       <r>   61.2156    0.0000 </r>
       <r>   63.0900    0.0000 </r>
       <r>   64.5400    0.0000 </r>
       <r>   64.9460    0.0000 </r>
       <r>   65.3075    0.0000 </r>
       <r>   66.3958    0.0000 </r>
      </set>
      <set comment="kpoint 10">
       <r>    2.4136    1.0000 </r>
       <r>    2.8069    1.0000 </r>
       <r>    2.8730    1.0000 </r>
       <r>    4.8180    1.0000 </r>
       <r>    5.0552    1.0000 </r>
       <r>    5.4774    1.0000 </r>
       <r>    5.6411    1.0000 </r>
       <r>    7.5057   -0.0005 </r>
       <r>    7.6895   -0.0000 </r>
       <r>    8.0253   -0.0000 </r>
       <r>    9.1610   -0.0000 </r>
       <r>   14.1760    0.0000 </r>
       <r>   16.2194    0.0000 </r>
       <r>   18.2062    0.0000 </r>
       <r>   22.5830    0.0000 </r>
       <r>   23.1971    0.0000 </r>
       <r>   25.0673    0.0000 </r>
       <r>   29.2366    0.0000 </r>
       <r>   33.0365    0.0000 </r>
       <r>   34.8133    0.0000 </r>
       <r>   37.5474    0.0000 </r>
       <r>   39.9263    0.0000 </r>
       <r>   40.7109    0.0000 </r>
       <r>   42.4176    0.0000 </r>
       <r>   47.2146    0.0000 </r>
       <r>   49.6999    0.0000 </r>
       <r>   51.0916    0.0000 </r>
       <r>   53.1169    0.0000 </r>
       <r>   54.6924    0.0000 </r>
       <r>   56.7709    0.0000 </r>
       <r>   58.1057    0.0000 </r>
       <r>   59.7490    0.0000 </r>
       <r>   60.5937    0.0000 </r>
       <r>   62.7318    0.0000 </r>
       <r>   62.8193    0.0000 </r>
       <r>   64.0745    0.0000 </r>
       <r>   64.3512    0.0000 </r>
       <r>   65.6361    0.0000 </r>
       <r>   66.3562    0.0000 </r>
       <r>   67.3989    0.0000 </r>
      </set>
      <set comment="kpoint 11">
       <r>    2.5546    1.0000 </r>
       <r>    2.7020    1.0000 </r>
       <r>    2.7649    1.0000 </r>
       <r>    4.9626    1.0000 </r>
       <r>    5.2416    1.0000 </r>
       <r>    5.5233    1.0000 </r>
       <r>    5.5679    1.0000 </r>
       <r>    7.6778   -0.0000 </r>
       <r>    8.0608   -0.0000 </r>
       <r>    8.0889   -0.0000 </r>
       <r>   10.3925   -0.0000 </r>
       <r>   12.5378    0.0000 </r>
       <r>   17.7487    0.0000 </r>
       <r>   18.8242    0.0000 </r>
       <r>   20.7787    0.0000 </r>
       <r>   22.1880    0.0000 </r>
       <r>   23.7283    0.0000 </r>
       <r>   28.9238    0.0000 </r>
       <r>   32.6477    0.0000 </r>
       <r>   34.6469    0.0000 </r>
       <r>   37.8912    0.0000 </r>
       <r>   40.6893    0.0000 </r>
       <r>   41.3312    0.0000 </r>
       <r>   42.2327    0.0000 </r>
       <r>   44.9572    0.0000 </r>
       <r>   50.9447    0.0000 </r>
       <r>   51.0178    0.0000 </r>
       <r>   53.6043    0.0000 </r>
       <r>   57.0127    0.0000 </r>
       <r>   57.3108    0.0000 </r>
       <r>   60.3038    0.0000 </r>
       <r>   60.7161    0.0000 </r>
       <r>   60.8752    0.0000 </r>
       <r>   60.8843    0.0000 </r>
       <r>   62.1201    0.0000 </r>
       <r>   64.6444    0.0000 </r>
       <r>   66.2154    0.0000 </r>
       <r>   66.2610    0.0000 </r>
       <r>   66.4895    0.0000 </r>
       <r>   67.8177    0.0000 </r>
      </set>
      <set comment="kpoint 12">
       <r>    1.4721    1.0000 </r>
       <r>    3.3452    1.0000 </r>
       <r>    3.6619    1.0000 </r>
       <r>    3.8693    1.0000 </r>
       <r>    5.0541    1.0000 </r>
       <r>    5.2632    1.0000 </r>
       <r>    5.9904    1.0000 </r>
       <r>    6.0663    1.0000 </r>
       <r>    7.4636   -0.0014 </r>
       <r>    7.6095   -0.0000 </r>
       <r>    8.0208   -0.0000 </r>
       <r>   13.7272    0.0000 </r>
       <r>   14.8868    0.0000 </r>
       <r>   21.6573    0.0000 </r>
       <r>   22.4164    0.0000 </r>
       <r>   27.2360    0.0000 </r>
       <r>   28.5445    0.0000 </r>
       <r>   30.6742    0.0000 </r>
       <r>   31.2661    0.0000 </r>
       <r>   35.4303    0.0000 </r>
       <r>   37.6007    0.0000 </r>
       <r>   41.3579    0.0000 </r>
       <r>   41.9963    0.0000 </r>
       <r>   44.1593    0.0000 </r>
       <r>   45.0477    0.0000 </r>
       <r>   46.9781    0.0000 </r>
       <r>   47.9385    0.0000 </r>
       <r>   52.2181    0.0000 </r>
       <r>   53.9772    0.0000 </r>
       <r>   54.5612    0.0000 </r>
       <r>   54.8607    0.0000 </r>
       <r>   58.7086    0.0000 </r>
       <r>   59.0593    0.0000 </r>
       <r>   61.8353    0.0000 </r>
       <r>   61.9451    0.0000 </r>
       <r>   62.0159    0.0000 </r>
       <r>   62.1018    0.0000 </r>
       <r>   65.3176    0.0000 </r>
       <r>   65.6057    0.0000 </r>
       <r>   67.3138    0.0000 </r>
      </set>
      <set comment="kpoint 13">
       <r>    2.6883    1.0000 </r>
       <r>    3.0833    1.0000 </r>
       <r>    3.3621    1.0000 </r>
       <r>    4.0971    1.0000 </r>
       <r>    4.9876    1.0000 </r>
       <r>    5.3453    1.0000 </r>
       <r>    5.6544    1.0000 </r>
       <r>    6.5808    1.0091 </r>
       <r>    7.4975   -0.0007 </r>
       <r>    7.9452   -0.0000 </r>
       <r>    9.3242   -0.0000 </r>
       <r>   15.5654    0.0000 </r>
       <r>   15.8857    0.0000 </r>
       <r>   18.6652    0.0000 </r>
       <r>   20.7843    0.0000 </r>
       <r>   24.5081    0.0000 </r>
       <r>   26.9626    0.0000 </r>
       <r>   27.1149    0.0000 </r>
       <r>   29.9754    0.0000 </r>
       <r>   37.6647    0.0000 </r>
       <r>   38.0976    0.0000 </r>
       <r>   41.2820    0.0000 </r>
       <r>   43.5935    0.0000 </r>
       <r>   45.1173    0.0000 </r>
       <r>   45.8191    0.0000 </r>
       <r>   47.9547    0.0000 </r>
       <r>   49.1220    0.0000 </r>
       <r>   50.1609    0.0000 </r>
       <r>   53.4810    0.0000 </r>
       <r>   54.5034    0.0000 </r>
       <r>   57.1192    0.0000 </r>
       <r>   59.9107    0.0000 </r>
       <r>   61.0335    0.0000 </r>
       <r>   62.2621    0.0000 </r>
       <r>   64.2075    0.0000 </r>
       <r>   64.3580    0.0000 </r>
       <r>   65.4258    0.0000 </r>
       <r>   65.7035    0.0000 </r>
       <r>   66.9508    0.0000 </r>
       <r>   68.2775    0.0000 </r>
      </set>
      <set comment="kpoint 14">
       <r>    2.9737    1.0000 </r>
       <r>    3.0568    1.0000 </r>
       <r>    3.1780    1.0000 </r>
       <r>    4.6147    1.0000 </r>
       <r>    4.9398    1.0000 </r>
       <r>    5.2773    1.0000 </r>
       <r>    5.6261    1.0000 </r>
       <r>    7.3155   -0.0180 </r>
       <r>    7.4364   -0.0025 </r>
       <r>    7.9283   -0.0000 </r>
       <r>   10.9506   -0.0000 </r>
       <r>   13.9945    0.0000 </r>
       <r>   18.1168    0.0000 </r>
       <r>   18.8591    0.0000 </r>
       <r>   19.8925    0.0000 </r>
       <r>   21.8067    0.0000 </r>
       <r>   24.1245    0.0000 </r>
       <r>   26.3814    0.0000 </r>
       <r>   29.3315    0.0000 </r>
       <r>   38.1462    0.0000 </r>
       <r>   39.8808    0.0000 </r>
       <r>   41.5280    0.0000 </r>
       <r>   42.9068    0.0000 </r>
       <r>   44.0042    0.0000 </r>
       <r>   47.5344    0.0000 </r>
       <r>   48.3386    0.0000 </r>
       <r>   49.9304    0.0000 </r>
       <r>   50.9414    0.0000 </r>
       <r>   54.5013    0.0000 </r>
       <r>   55.8559    0.0000 </r>
       <r>   56.7243    0.0000 </r>
       <r>   59.8428    0.0000 </r>
       <r>   60.5139    0.0000 </r>
       <r>   61.1924    0.0000 </r>
       <r>   65.2658    0.0000 </r>
       <r>   65.5740    0.0000 </r>
       <r>   66.9460    0.0000 </r>
       <r>   67.0517    0.0000 </r>
       <r>   67.2164    0.0000 </r>
       <r>   67.3201    0.0000 </r>
      </set>
      <set comment="kpoint 15">
       <r>    3.1186    1.0000 </r>
       <r>    3.4724    1.0000 </r>
       <r>    3.7795    1.0000 </r>
       <r>    3.8242    1.0000 </r>
       <r>    4.8286    1.0000 </r>
       <r>    5.2356    1.0000 </r>
       <r>    5.6532    1.0000 </r>
       <r>    6.8500    0.9260 </r>
       <r>    7.3096   -0.0192 </r>
       <r>    7.8873   -0.0000 </r>
       <r>   11.0896   -0.0000 </r>
       <r>   16.0981    0.0000 </r>
       <r>   16.7533    0.0000 </r>
       <r>   18.1495    0.0000 </r>
       <r>   19.5151    0.0000 </r>
       <r>   23.8752    0.0000 </r>
       <r>   23.8797    0.0000 </r>
       <r>   25.8852    0.0000 </r>
       <r>   26.7246    0.0000 </r>
       <r>   39.4241    0.0000 </r>
       <r>   40.2337    0.0000 </r>
       <r>   44.2589    0.0000 </r>
       <r>   45.3261    0.0000 </r>
       <r>   45.4081    0.0000 </r>
       <r>   45.5674    0.0000 </r>
       <r>   46.4324    0.0000 </r>
       <r>   48.8340    0.0000 </r>
       <r>   51.2992    0.0000 </r>
       <r>   51.5533    0.0000 </r>
       <r>   55.9649    0.0000 </r>
       <r>   55.9804    0.0000 </r>
       <r>   58.4686    0.0000 </r>
       <r>   60.4040    0.0000 </r>
       <r>   61.3537    0.0000 </r>
       <r>   65.3162    0.0000 </r>
       <r>   66.0427    0.0000 </r>
       <r>   66.2425    0.0000 </r>
       <r>   67.3940    0.0000 </r>
       <r>   67.3967    0.0000 </r>
       <r>   68.6370    0.0000 </r>
      </set>
      <set comment="kpoint 16">
       <r>    3.1697    1.0000 </r>
       <r>    3.6044    1.0000 </r>
       <r>    3.6697    1.0000 </r>
       <r>    4.1708    1.0000 </r>
       <r>    4.9011    1.0000 </r>
       <r>    4.9105    1.0000 </r>
       <r>    5.7971    1.0000 </r>
       <r>    7.2351   -0.0344 </r>
       <r>    7.2362   -0.0343 </r>
       <r>    7.5511   -0.0002 </r>
       <r>   12.8844    0.0000 </r>
       <r>   14.1683    0.0000 </r>
       <r>   16.3676    0.0000 </r>
       <r>   20.1273    0.0000 </r>
       <r>   20.4850    0.0000 </r>
       <r>   21.6170    0.0000 </r>
       <r>   23.6657    0.0000 </r>
       <r>   24.1521    0.0000 </r>
       <r>   26.1249    0.0000 </r>
       <r>   39.8091    0.0000 </r>
       <r>   42.7575    0.0000 </r>
       <r>   43.4925    0.0000 </r>
       <r>   44.3902    0.0000 </r>
       <r>   44.8361    0.0000 </r>
       <r>   46.4510    0.0000 </r>
       <r>   47.4239    0.0000 </r>
       <r>   50.6306    0.0000 </r>
       <r>   51.1819    0.0000 </r>
       <r>   51.4257    0.0000 </r>
       <r>   54.8425    0.0000 </r>
       <r>   56.1026    0.0000 </r>
       <r>   56.6714    0.0000 </r>
       <r>   59.8631    0.0000 </r>
       <r>   60.3638    0.0000 </r>
       <r>   65.4809    0.0000 </r>
       <r>   66.4197    0.0000 </r>
       <r>   67.4435    0.0000 </r>
       <r>   67.5671    0.0000 </r>
       <r>   67.9535    0.0000 </r>
       <r>   68.3239    0.0000 </r>
      </set>
      <set comment="kpoint 17">
       <r>   -1.8847    1.0000 </r>
       <r>    1.8603    1.0000 </r>
       <r>    4.6140    1.0000 </r>
       <r>    5.3844    1.0000 </r>
       <r>    5.3845    1.0000 </r>
       <r>    5.6594    1.0000 </r>
       <r>    5.6595    1.0000 </r>
       <r>    5.8558    1.0000 </r>
       <r>    6.7679    1.0275 </r>
       <r>    6.7679    1.0275 </r>
       <r>    7.7167   -0.0000 </r>
       <r>    7.7167   -0.0000 </r>
       <r>   14.4052    0.0000 </r>
       <r>   29.1853    0.0000 </r>
       <r>   30.8410    0.0000 </r>
       <r>   33.4245    0.0000 </r>
       <r>   36.1564    0.0000 </r>
       <r>   36.1564    0.0000 </r>
       <r>   36.9241    0.0000 </r>
       <r>   36.9243    0.0000 </r>
       <r>   37.1549    0.0000 </r>
       <r>   39.4998    0.0000 </r>
       <r>   39.4998    0.0000 </r>
       <r>   40.8047    0.0000 </r>
       <r>   42.7641    0.0000 </r>
       <r>   42.7641    0.0000 </r>
       <r>   43.7348    0.0000 </r>
       <r>   47.1895    0.0000 </r>
       <r>   47.1898    0.0000 </r>
       <r>   49.2038    0.0000 </r>
       <r>   49.2039    0.0000 </r>
       <r>   50.8392    0.0000 </r>
       <r>   57.8772    0.0000 </r>
       <r>   61.3546    0.0000 </r>
       <r>   61.3554    0.0000 </r>
       <r>   61.9563    0.0000 </r>
       <r>   61.9567    0.0000 </r>
       <r>   61.9790    0.0000 </r>
       <r>   63.0036    0.0000 </r>
       <r>   63.3399    0.0000 </r>
      </set>
      <set comment="kpoint 18">
       <r>   -1.5501    1.0000 </r>
       <r>    2.1213    1.0000 </r>
       <r>    4.6662    1.0000 </r>
       <r>    5.1471    1.0000 </r>
       <r>    5.2759    1.0000 </r>
       <r>    5.5767    1.0000 </r>
       <r>    5.5776    1.0000 </r>
       <r>    5.8422    1.0000 </r>
       <r>    6.6091    1.0137 </r>
       <r>    6.6624    1.0253 </r>
       <r>    7.7417   -0.0000 </r>
       <r>    8.6229   -0.0000 </r>
       <r>   14.4653    0.0000 </r>
       <r>   29.2682    0.0000 </r>
       <r>   29.8264    0.0000 </r>
       <r>   31.9648    0.0000 </r>
       <r>   33.3458    0.0000 </r>
       <r>   34.8068    0.0000 </r>
       <r>   36.0937    0.0000 </r>
       <r>   36.9531    0.0000 </r>
       <r>   38.6293    0.0000 </r>
       <r>   39.6269    0.0000 </r>
       <r>   39.9417    0.0000 </r>
       <r>   40.7142    0.0000 </r>
       <r>   43.9799    0.0000 </r>
       <r>   44.0787    0.0000 </r>
       <r>   45.0903    0.0000 </r>
       <r>   45.2431    0.0000 </r>
       <r>   47.9829    0.0000 </r>
       <r>   50.3154    0.0000 </r>
       <r>   51.5007    0.0000 </r>
       <r>   52.9760    0.0000 </r>
       <r>   56.6975    0.0000 </r>
       <r>   59.6726    0.0000 </r>
       <r>   60.3662    0.0000 </r>
       <r>   61.0672    0.0000 </r>
       <r>   61.6709    0.0000 </r>
       <r>   63.2334    0.0000 </r>
       <r>   63.2794    0.0000 </r>
       <r>   64.6588    0.0000 </r>
      </set>
      <set comment="kpoint 19">
       <r>   -0.6059    1.0000 </r>
       <r>    2.7419    1.0000 </r>
       <r>    4.2048    1.0000 </r>
       <r>    4.5853    1.0000 </r>
       <r>    5.0512    1.0000 </r>
       <r>    5.5775    1.0000 </r>
       <r>    6.1008    1.0000 </r>
       <r>    6.2732    1.0000 </r>
       <r>    6.3253    1.0000 </r>
       <r>    6.4618    1.0009 </r>
       <r>    7.7776   -0.0000 </r>
       <r>   10.2079   -0.0000 </r>
       <r>   14.7060    0.0000 </r>
       <r>   25.6807    0.0000 </r>
       <r>   29.9425    0.0000 </r>
       <r>   30.5279    0.0000 </r>
       <r>   30.9308    0.0000 </r>
       <r>   31.3910    0.0000 </r>
       <r>   35.3381    0.0000 </r>
       <r>   36.9835    0.0000 </r>
       <r>   37.4664    0.0000 </r>
       <r>   37.4924    0.0000 </r>
       <r>   41.0912    0.0000 </r>
       <r>   41.8432    0.0000 </r>
       <r>   44.6855    0.0000 </r>
       <r>   45.5566    0.0000 </r>
       <r>   46.8582    0.0000 </r>
       <r>   49.2470    0.0000 </r>
       <r>   50.6517    0.0000 </r>
       <r>   53.5216    0.0000 </r>
       <r>   54.3638    0.0000 </r>
       <r>   55.1082    0.0000 </r>
       <r>   56.2549    0.0000 </r>
       <r>   57.9856    0.0000 </r>
       <r>   58.4041    0.0000 </r>
       <r>   60.1712    0.0000 </r>
       <r>   61.7949    0.0000 </r>
       <r>   64.0668    0.0000 </r>
       <r>   64.1312    0.0000 </r>
       <r>   66.2775    0.0000 </r>
      </set>
      <set comment="kpoint 20">
       <r>    0.7221    1.0000 </r>
       <r>    3.0426    1.0000 </r>
       <r>    3.4741    1.0000 </r>
       <r>    4.5577    1.0000 </r>
       <r>    4.8594    1.0000 </r>
       <r>    5.6953    1.0000 </r>
       <r>    6.0831    1.0000 </r>
       <r>    6.4366    1.0005 </r>
       <r>    6.9251    0.6955 </r>
       <r>    7.0750    0.1239 </r>
       <r>    7.7924   -0.0000 </r>
       <r>   11.8936   -0.0000 </r>
       <r>   15.2666    0.0000 </r>
       <r>   21.6276    0.0000 </r>
       <r>   26.8011    0.0000 </r>
       <r>   28.1027    0.0000 </r>
       <r>   29.2087    0.0000 </r>
       <r>   31.4391    0.0000 </r>
       <r>   33.7398    0.0000 </r>
       <r>   35.8052    0.0000 </r>
       <r>   36.2481    0.0000 </r>
       <r>   38.3472    0.0000 </r>
       <r>   39.1992    0.0000 </r>
       <r>   42.1717    0.0000 </r>
       <r>   48.2314    0.0000 </r>
       <r>   48.9234    0.0000 </r>
       <r>   50.0101    0.0000 </r>
       <r>   50.2405    0.0000 </r>
       <r>   53.4884    0.0000 </r>
       <r>   54.0650    0.0000 </r>
       <r>   55.3797    0.0000 </r>
       <r>   56.8374    0.0000 </r>
       <r>   57.3891    0.0000 </r>
       <r>   58.2503    0.0000 </r>
       <r>   60.1218    0.0000 </r>
       <r>   61.2544    0.0000 </r>
       <r>   63.3090    0.0000 </r>
       <r>   64.1956    0.0000 </r>
       <r>   64.6900    0.0000 </r>
       <r>   66.7930    0.0000 </r>
      </set>
      <set comment="kpoint 21">
       <r>    1.8659    1.0000 </r>
       <r>    2.7413    1.0000 </r>
       <r>    3.0619    1.0000 </r>
       <r>    4.4835    1.0000 </r>
       <r>    5.3412    1.0000 </r>
       <r>    5.5440    1.0000 </r>
       <r>    5.8469    1.0000 </r>
       <r>    7.6175   -0.0000 </r>
       <r>    7.6848   -0.0000 </r>
       <r>    7.7211   -0.0000 </r>
       <r>    7.8707   -0.0000 </r>
       <r>   13.2722    0.0000 </r>
       <r>   16.0336    0.0000 </r>
       <r>   18.6316    0.0000 </r>
       <r>   23.4906    0.0000 </r>
       <r>   26.2587    0.0000 </r>
       <r>   26.3803    0.0000 </r>
       <r>   30.9681    0.0000 </r>
       <r>   32.8847    0.0000 </r>
       <r>   34.9613    0.0000 </r>
       <r>   36.5554    0.0000 </r>
       <r>   37.9809    0.0000 </r>
       <r>   39.6164    0.0000 </r>
       <r>   42.2887    0.0000 </r>
       <r>   47.3867    0.0000 </r>
       <r>   51.2509    0.0000 </r>
       <r>   51.5726    0.0000 </r>
       <r>   53.7215    0.0000 </r>
       <r>   54.1235    0.0000 </r>
       <r>   56.1482    0.0000 </r>
       <r>   56.7517    0.0000 </r>
       <r>   58.2969    0.0000 </r>
       <r>   59.2909    0.0000 </r>
       <r>   59.9246    0.0000 </r>
       <r>   62.1234    0.0000 </r>
       <r>   63.5065    0.0000 </r>
       <r>   64.0393    0.0000 </r>
       <r>   64.1957    0.0000 </r>
       <r>   66.8544    0.0000 </r>
       <r>   67.0288    0.0000 </r>
      </set>
      <set comment="kpoint 22">
       <r>    2.2650    1.0000 </r>
       <r>    2.4475    1.0000 </r>
       <r>    2.9342    1.0000 </r>
       <r>    4.5462    1.0000 </r>
       <r>    5.5121    1.0000 </r>
       <r>    5.7112    1.0000 </r>
       <r>    5.8944    1.0000 </r>
       <r>    7.7436   -0.0000 </r>
       <r>    8.1953   -0.0000 </r>
       <r>    8.2927   -0.0000 </r>
       <r>    9.2739   -0.0000 </r>
       <r>   12.6022    0.0000 </r>
       <r>   16.8051    0.0000 </r>
       <r>   18.4310    0.0000 </r>
       <r>   21.2797    0.0000 </r>
       <r>   23.5773    0.0000 </r>
       <r>   25.2308    0.0000 </r>
       <r>   30.4199    0.0000 </r>
       <r>   32.6099    0.0000 </r>
       <r>   34.0925    0.0000 </r>
       <r>   37.4811    0.0000 </r>
       <r>   38.1857    0.0000 </r>
       <r>   39.7813    0.0000 </r>
       <r>   42.8571    0.0000 </r>
       <r>   45.1328    0.0000 </r>
       <r>   51.3377    0.0000 </r>
       <r>   51.8297    0.0000 </r>
       <r>   55.0891    0.0000 </r>
       <r>   57.0731    0.0000 </r>
       <r>   58.2608    0.0000 </r>
       <r>   59.4144    0.0000 </r>
       <r>   60.3496    0.0000 </r>
       <r>   60.3748    0.0000 </r>
       <r>   61.8462    0.0000 </r>
       <r>   62.9673    0.0000 </r>
       <r>   63.5924    0.0000 </r>
       <r>   65.0993    0.0000 </r>
       <r>   66.1509    0.0000 </r>
       <r>   66.6417    0.0000 </r>
       <r>   67.0333    0.0000 </r>
      </set>
      <set comment="kpoint 23">
       <r>   -0.9078    1.0000 </r>
       <r>    2.5823    1.0000 </r>
       <r>    4.4526    1.0000 </r>
       <r>    4.6044    1.0000 </r>
       <r>    5.2356    1.0000 </r>
       <r>    5.3448    1.0000 </r>
       <r>    5.9674    1.0000 </r>
       <r>    6.1787    1.0000 </r>
       <r>    6.3203    1.0000 </r>
       <r>    6.6107    1.0140 </r>
       <r>    7.7377   -0.0000 </r>
       <r>    9.7719   -0.0000 </r>
       <r>   14.6204    0.0000 </r>
       <r>   27.4270    0.0000 </r>
       <r>   28.7203    0.0000 </r>
       <r>   30.2365    0.0000 </r>
       <r>   32.2297    0.0000 </r>
       <r>   34.4140    0.0000 </r>
       <r>   34.8870    0.0000 </r>
       <r>   34.9736    0.0000 </r>
       <r>   37.0440    0.0000 </r>
       <r>   41.3802    0.0000 </r>
       <r>   41.4973    0.0000 </r>
       <r>   42.4722    0.0000 </r>
       <r>   42.6585    0.0000 </r>
       <r>   44.0111    0.0000 </r>
       <r>   44.4187    0.0000 </r>
       <r>   49.6977    0.0000 </r>
       <r>   51.2433    0.0000 </r>
       <r>   52.2216    0.0000 </r>
       <r>   52.4483    0.0000 </r>
       <r>   55.3932    0.0000 </r>
       <r>   55.7035    0.0000 </r>
       <r>   58.2218    0.0000 </r>
       <r>   59.2115    0.0000 </r>
       <r>   60.5614    0.0000 </r>
       <r>   61.1784    0.0000 </r>
       <r>   63.3819    0.0000 </r>
       <r>   64.4748    0.0000 </r>
       <r>   66.3676    0.0000 </r>
      </set>
      <set comment="kpoint 24">
       <r>    0.2559    1.0000 </r>
       <r>    3.1790    1.0000 </r>
       <r>    3.7259    1.0000 </r>
       <r>    4.3425    1.0000 </r>
       <r>    4.9732    1.0000 </r>
       <r>    5.5160    1.0000 </r>
       <r>    5.9829    1.0000 </r>
       <r>    6.2802    1.0000 </r>
       <r>    6.7585    1.0310 </r>
       <r>    6.9749    0.4910 </r>
       <r>    7.7239   -0.0000 </r>
       <r>   11.3385   -0.0000 </r>
       <r>   15.0572    0.0000 </r>
       <r>   23.7077    0.0000 </r>
       <r>   26.3496    0.0000 </r>
       <r>   28.7661    0.0000 </r>
       <r>   30.6302    0.0000 </r>
       <r>   32.1386    0.0000 </r>
       <r>   33.4869    0.0000 </r>
       <r>   35.2717    0.0000 </r>
       <r>   36.4251    0.0000 </r>
       <r>   40.2818    0.0000 </r>
       <r>   40.8613    0.0000 </r>
       <r>   42.6225    0.0000 </r>
       <r>   45.0282    0.0000 </r>
       <r>   45.9745    0.0000 </r>
       <r>   48.3420    0.0000 </r>
       <r>   51.0044    0.0000 </r>
       <r>   53.3918    0.0000 </r>
       <r>   54.1462    0.0000 </r>
       <r>   55.3690    0.0000 </r>
       <r>   56.7302    0.0000 </r>
       <r>   56.9500    0.0000 </r>
       <r>   58.5086    0.0000 </r>
       <r>   58.6413    0.0000 </r>
       <r>   60.1192    0.0000 </r>
       <r>   62.2791    0.0000 </r>
       <r>   64.2089    0.0000 </r>
       <r>   65.0332    0.0000 </r>
       <r>   66.3312    0.0000 </r>
      </set>
      <set comment="kpoint 25">
       <r>    1.5895    1.0000 </r>
       <r>    3.0871    1.0000 </r>
       <r>    3.2460    1.0000 </r>
       <r>    4.3824    1.0000 </r>
       <r>    5.0246    1.0000 </r>
       <r>    5.4241    1.0000 </r>
       <r>    5.9523    1.0000 </r>
       <r>    6.5623    1.0067 </r>
       <r>    7.5077   -0.0005 </r>
       <r>    7.6355   -0.0000 </r>
       <r>    7.9850   -0.0000 </r>
       <r>   12.9437    0.0000 </r>
       <r>   15.9103    0.0000 </r>
       <r>   19.9510    0.0000 </r>
       <r>   24.5920    0.0000 </r>
       <r>   25.3488    0.0000 </r>
       <r>   28.6446    0.0000 </r>
       <r>   29.8985    0.0000 </r>
       <r>   34.0524    0.0000 </r>
       <r>   34.6547    0.0000 </r>
       <r>   35.9123    0.0000 </r>
       <r>   39.6513    0.0000 </r>
       <r>   40.7643    0.0000 </r>
       <r>   43.6127    0.0000 </r>
       <r>   46.7203    0.0000 </r>
       <r>   48.4312    0.0000 </r>
       <r>   50.4205    0.0000 </r>
       <r>   52.2211    0.0000 </r>
       <r>   53.4799    0.0000 </r>
       <r>   54.6780    0.0000 </r>
       <r>   56.5982    0.0000 </r>
       <r>   58.3286    0.0000 </r>
       <r>   58.9171    0.0000 </r>
       <r>   60.0388    0.0000 </r>
       <r>   61.4535    0.0000 </r>
       <r>   62.8628    0.0000 </r>
       <r>   64.0427    0.0000 </r>
       <r>   64.7969    0.0000 </r>
       <r>   65.4394    0.0000 </r>
       <r>   66.3739    0.0000 </r>
      </set>
      <set comment="kpoint 26">
       <r>    2.3491    1.0000 </r>
       <r>    2.7363    1.0000 </r>
       <r>    3.0560    1.0000 </r>
       <r>    4.4700    1.0000 </r>
       <r>    5.4090    1.0000 </r>
       <r>    5.4553    1.0000 </r>
       <r>    5.7405    1.0000 </r>
       <r>    7.4929   -0.0007 </r>
       <r>    7.6307   -0.0000 </r>
       <r>    8.0370   -0.0000 </r>
       <r>    9.1451   -0.0000 </r>
       <r>   13.6758    0.0000 </r>
       <r>   16.5011    0.0000 </r>
       <r>   18.4687    0.0000 </r>
       <r>   22.2187    0.0000 </r>
       <r>   23.4454    0.0000 </r>
       <r>   25.4435    0.0000 </r>
       <r>   29.0152    0.0000 </r>
       <r>   33.2605    0.0000 </r>
       <r>   34.7080    0.0000 </r>
       <r>   36.7465    0.0000 </r>
       <r>   39.2038    0.0000 </r>
       <r>   41.7414    0.0000 </r>
       <r>   42.9191    0.0000 </r>
       <r>   46.7164    0.0000 </r>
       <r>   49.5060    0.0000 </r>
       <r>   51.2607    0.0000 </r>
       <r>   53.4372    0.0000 </r>
       <r>   55.2475    0.0000 </r>
       <r>   56.4823    0.0000 </r>
       <r>   57.9756    0.0000 </r>
       <r>   59.5930    0.0000 </r>
       <r>   60.5730    0.0000 </r>
       <r>   62.3716    0.0000 </r>
       <r>   63.4486    0.0000 </r>
       <r>   64.2263    0.0000 </r>
       <r>   64.2744    0.0000 </r>
       <r>   65.2391    0.0000 </r>
       <r>   66.4503    0.0000 </r>
       <r>   67.6353    0.0000 </r>
      </set>
      <set comment="kpoint 27">
       <r>    2.4703    1.0000 </r>
       <r>    2.5671    1.0000 </r>
       <r>    3.0444    1.0000 </r>
       <r>    4.5332    1.0000 </r>
       <r>    5.4116    1.0000 </r>
       <r>    5.7096    1.0000 </r>
       <r>    5.7308    1.0000 </r>
       <r>    7.6190   -0.0000 </r>
       <r>    8.0562   -0.0000 </r>
       <r>    8.0898   -0.0000 </r>
       <r>   10.3321   -0.0000 </r>
       <r>   12.4571    0.0000 </r>
       <r>   17.6078    0.0000 </r>
       <r>   18.4344    0.0000 </r>
       <r>   21.3231    0.0000 </r>
       <r>   22.4219    0.0000 </r>
       <r>   23.9164    0.0000 </r>
       <r>   28.7073    0.0000 </r>
       <r>   32.8609    0.0000 </r>
       <r>   34.6079    0.0000 </r>
       <r>   37.5091    0.0000 </r>
       <r>   39.0566    0.0000 </r>
       <r>   41.5692    0.0000 </r>
       <r>   44.0719    0.0000 </r>
       <r>   44.7426    0.0000 </r>
       <r>   49.9577    0.0000 </r>
       <r>   51.6311    0.0000 </r>
       <r>   54.2948    0.0000 </r>
       <r>   57.0666    0.0000 </r>
       <r>   57.3218    0.0000 </r>
       <r>   59.9663    0.0000 </r>
       <r>   60.0744    0.0000 </r>
       <r>   60.6664    0.0000 </r>
       <r>   61.5247    0.0000 </r>
       <r>   62.1051    0.0000 </r>
       <r>   65.3119    0.0000 </r>
       <r>   65.9951    0.0000 </r>
       <r>   66.3721    0.0000 </r>
       <r>   66.7697    0.0000 </r>
       <r>   67.5711    0.0000 </r>
      </set>
      <set comment="kpoint 28">
       <r>    1.5086    1.0000 </r>
       <r>    3.3014    1.0000 </r>
       <r>    3.6920    1.0000 </r>
       <r>    3.8882    1.0000 </r>
       <r>    5.0506    1.0000 </r>
       <r>    5.2097    1.0000 </r>
       <r>    6.0444    1.0000 </r>
       <r>    6.0824    1.0000 </r>
       <r>    7.4981   -0.0006 </r>
       <r>    7.5298   -0.0003 </r>
       <r>    8.0558   -0.0000 </r>
       <r>   12.8254    0.0000 </r>
       <r>   15.9037    0.0000 </r>
       <r>   21.7262    0.0000 </r>
       <r>   22.4918    0.0000 </r>
       <r>   26.9181    0.0000 </r>
       <r>   28.1444    0.0000 </r>
       <r>   31.1035    0.0000 </r>
       <r>   31.4946    0.0000 </r>
       <r>   34.5354    0.0000 </r>
       <r>   38.2114    0.0000 </r>
       <r>   41.9416    0.0000 </r>
       <r>   41.9671    0.0000 </r>
       <r>   43.9272    0.0000 </r>
       <r>   44.3838    0.0000 </r>
       <r>   47.6550    0.0000 </r>
       <r>   47.7929    0.0000 </r>
       <r>   52.1215    0.0000 </r>
       <r>   52.8598    0.0000 </r>
       <r>   54.5062    0.0000 </r>
       <r>   56.5598    0.0000 </r>
       <r>   58.7997    0.0000 </r>
       <r>   59.0498    0.0000 </r>
       <r>   60.9438    0.0000 </r>
       <r>   61.3164    0.0000 </r>
       <r>   62.7388    0.0000 </r>
       <r>   62.9130    0.0000 </r>
       <r>   64.9653    0.0000 </r>
       <r>   65.4739    0.0000 </r>
       <r>   65.5129    0.0000 </r>
      </set>
      <set comment="kpoint 29">
       <r>    2.6597    1.0000 </r>
       <r>    3.0979    1.0000 </r>
       <r>    3.3874    1.0000 </r>
       <r>    4.0956    1.0000 </r>
       <r>    5.0090    1.0000 </r>
       <r>    5.3359    1.0000 </r>
       <r>    5.6779    1.0000 </r>
       <r>    6.6117    1.0142 </r>
       <r>    7.4342   -0.0026 </r>
       <r>    7.9727   -0.0000 </r>
       <r>    9.3400   -0.0000 </r>
       <r>   14.3981    0.0000 </r>
       <r>   17.0716    0.0000 </r>
       <r>   18.7957    0.0000 </r>
       <r>   20.8550    0.0000 </r>
       <r>   24.1519    0.0000 </r>
       <r>   26.5856    0.0000 </r>
       <r>   27.5916    0.0000 </r>
       <r>   30.4141    0.0000 </r>
       <r>   36.1366    0.0000 </r>
       <r>   38.9315    0.0000 </r>
       <r>   41.6814    0.0000 </r>
       <r>   43.2052    0.0000 </r>
       <r>   45.2426    0.0000 </r>
       <r>   45.8482    0.0000 </r>
       <r>   47.0642    0.0000 </r>
       <r>   50.1641    0.0000 </r>
       <r>   50.3194    0.0000 </r>
       <r>   53.0908    0.0000 </r>
       <r>   55.3178    0.0000 </r>
       <r>   57.2815    0.0000 </r>
       <r>   59.9467    0.0000 </r>
       <r>   60.9710    0.0000 </r>
       <r>   62.2103    0.0000 </r>
       <r>   64.0289    0.0000 </r>
       <r>   64.5242    0.0000 </r>
       <r>   64.7875    0.0000 </r>
       <r>   65.9632    0.0000 </r>
       <r>   66.5310    0.0000 </r>
       <r>   67.2715    0.0000 </r>
      </set>
      <set comment="kpoint 30">
       <r>    2.8352    1.0000 </r>
       <r>    3.0869    1.0000 </r>
       <r>    3.3526    1.0000 </r>
       <r>    4.3752    1.0000 </r>
       <r>    5.1083    1.0000 </r>
       <r>    5.2402    1.0000 </r>
       <r>    5.7391    1.0000 </r>
       <r>    7.3210   -0.0168 </r>
       <r>    7.3697   -0.0084 </r>
       <r>    7.9451   -0.0000 </r>
       <r>   10.9646   -0.0000 </r>
       <r>   13.8918    0.0000 </r>
       <r>   17.6399    0.0000 </r>
       <r>   19.2916    0.0000 </r>
       <r>   19.8302    0.0000 </r>
       <r>   21.9255    0.0000 </r>
       <r>   24.5464    0.0000 </r>
       <r>   25.9924    0.0000 </r>
       <r>   29.8226    0.0000 </r>
       <r>   37.5038    0.0000 </r>
       <r>   39.2737    0.0000 </r>
       <r>   40.7996    0.0000 </r>
       <r>   43.7649    0.0000 </r>
       <r>   44.7357    0.0000 </r>
       <r>   47.2369    0.0000 </r>
       <r>   47.4611    0.0000 </r>
       <r>   50.5310    0.0000 </r>
       <r>   51.8778    0.0000 </r>
       <r>   54.7929    0.0000 </r>
       <r>   55.6677    0.0000 </r>
       <r>   56.8236    0.0000 </r>
       <r>   59.8673    0.0000 </r>
       <r>   60.1698    0.0000 </r>
       <r>   61.5382    0.0000 </r>
       <r>   64.5017    0.0000 </r>
       <r>   65.5193    0.0000 </r>
       <r>   66.3645    0.0000 </r>
       <r>   66.9492    0.0000 </r>
       <r>   67.2375    0.0000 </r>
       <r>   67.6044    0.0000 </r>
      </set>
      <set comment="kpoint 31">
       <r>    3.1096    1.0000 </r>
       <r>    3.4814    1.0000 </r>
       <r>    3.7348    1.0000 </r>
       <r>    3.8751    1.0000 </r>
       <r>    4.8811    1.0000 </r>
       <r>    5.1593    1.0000 </r>
       <r>    5.6864    1.0000 </r>
       <r>    6.8884    0.8240 </r>
       <r>    7.2410   -0.0337 </r>
       <r>    7.9122   -0.0000 </r>
       <r>   11.1261   -0.0000 </r>
       <r>   15.7069    0.0000 </r>
       <r>   16.8244    0.0000 </r>
       <r>   18.1820    0.0000 </r>
       <r>   19.9134    0.0000 </r>
       <r>   23.4658    0.0000 </r>
       <r>   23.5228    0.0000 </r>
       <r>   26.4761    0.0000 </r>
       <r>   27.2223    0.0000 </r>
       <r>   37.8613    0.0000 </r>
       <r>   41.0645    0.0000 </r>
       <r>   43.5677    0.0000 </r>
       <r>   43.8361    0.0000 </r>
       <r>   45.9181    0.0000 </r>
       <r>   46.1518    0.0000 </r>
       <r>   47.3804    0.0000 </r>
       <r>   49.6527    0.0000 </r>
       <r>   51.1985    0.0000 </r>
       <r>   51.5178    0.0000 </r>
       <r>   56.0921    0.0000 </r>
       <r>   56.3409    0.0000 </r>
       <r>   58.6128    0.0000 </r>
       <r>   60.0212    0.0000 </r>
       <r>   61.6800    0.0000 </r>
       <r>   65.3078    0.0000 </r>
       <r>   65.8788    0.0000 </r>
       <r>   66.1497    0.0000 </r>
       <r>   67.3966    0.0000 </r>
       <r>   67.5084    0.0000 </r>
       <r>   68.3740    0.0000 </r>
      </set>
      <set comment="kpoint 32">
       <r>    3.1673    1.0000 </r>
       <r>    3.6237    1.0000 </r>
       <r>    3.7105    1.0000 </r>
       <r>    4.1158    1.0000 </r>
       <r>    4.8694    1.0000 </r>
       <r>    4.9271    1.0000 </r>
       <r>    5.8182    1.0000 </r>
       <r>    7.1661   -0.0213 </r>
       <r>    7.2642   -0.0295 </r>
       <r>    7.5804   -0.0001 </r>
       <r>   12.9523    0.0000 </r>
       <r>   14.1623    0.0000 </r>
       <r>   16.3730    0.0000 </r>
       <r>   19.8450    0.0000 </r>
       <r>   19.9140    0.0000 </r>
       <r>   22.0898    0.0000 </r>
       <r>   23.5196    0.0000 </r>
       <r>   24.5638    0.0000 </r>
       <r>   26.6681    0.0000 </r>
       <r>   38.8133    0.0000 </r>
       <r>   41.4398    0.0000 </r>
       <r>   43.3924    0.0000 </r>
       <r>   43.9992    0.0000 </r>
       <r>   46.0849    0.0000 </r>
       <r>   46.7555    0.0000 </r>
       <r>   48.5796    0.0000 </r>
       <r>   50.3458    0.0000 </r>
       <r>   51.4281    0.0000 </r>
       <r>   51.7476    0.0000 </r>
       <r>   54.6319    0.0000 </r>
       <r>   55.9081    0.0000 </r>
       <r>   56.9610    0.0000 </r>
       <r>   60.0206    0.0000 </r>
       <r>   60.4689    0.0000 </r>
       <r>   65.3871    0.0000 </r>
       <r>   66.3631    0.0000 </r>
       <r>   67.1860    0.0000 </r>
       <r>   67.6104    0.0000 </r>
       <r>   67.9237    0.0000 </r>
       <r>   68.3901    0.0000 </r>
      </set>
      <set comment="kpoint 33">
       <r>   -1.6544    1.0000 </r>
       <r>    1.7318    1.0000 </r>
       <r>    4.5593    1.0000 </r>
       <r>    5.3714    1.0000 </r>
       <r>    5.3715    1.0000 </r>
       <r>    5.3743    1.0000 </r>
       <r>    5.6187    1.0000 </r>
       <r>    5.6188    1.0000 </r>
       <r>    6.8588    0.9060 </r>
       <r>    6.8588    0.9059 </r>
       <r>    7.6850   -0.0000 </r>
       <r>    7.6850   -0.0000 </r>
       <r>   15.3879    0.0000 </r>
       <r>   27.6976    0.0000 </r>
       <r>   30.9219    0.0000 </r>
       <r>   33.0255    0.0000 </r>
       <r>   36.2958    0.0000 </r>
       <r>   36.2959    0.0000 </r>
       <r>   36.9506    0.0000 </r>
       <r>   36.9507    0.0000 </r>
       <r>   38.4379    0.0000 </r>
[...]
       <r>   21.9332    0.0000 </r>
       <r>   22.6516    0.0000 </r>
       <r>   26.5659    0.0000 </r>
       <r>   27.6412    0.0000 </r>
       <r>   32.2280    0.0000 </r>
       <r>   33.2698    0.0000 </r>
       <r>   35.7371    0.0000 </r>
       <r>   37.2567    0.0000 </r>
       <r>   42.3450    0.0000 </r>
       <r>   42.7285    0.0000 </r>
       <r>   51.8952    0.0000 </r>
       <r>   52.6405    0.0000 </r>
       <r>   52.8008    0.0000 </r>
       <r>   54.2023    0.0000 </r>
       <r>   56.2586    0.0000 </r>
       <r>   57.1757    0.0000 </r>
       <r>   57.5422    0.0000 </r>
       <r>   58.3552    0.0000 </r>
       <r>   60.5392    0.0000 </r>
       <r>   61.1630    0.0000 </r>
       <r>   62.8685    0.0000 </r>
       <r>   63.6361    0.0000 </r>
       <r>   65.2413    0.0000 </r>
       <r>   65.2893    0.0000 </r>
       <r>   66.1632    0.0000 </r>
       <r>   66.5789    0.0000 </r>
      </set>
      <set comment="kpoint 95">
       <r>    3.1152    1.0000 </r>
       <r>    3.1711    1.0000 </r>
       <r>    4.0725    1.0000 </r>
       <r>    4.2826    1.0000 </r>
       <r>    4.6907    1.0000 </r>
       <r>    4.8874    1.0000 </r>
       <r>    6.0586    1.0000 </r>
       <r>    6.2533    1.0000 </r>
       <r>    7.7448   -0.0000 </r>
       <r>    7.9324   -0.0000 </r>
       <r>   11.9967   -0.0000 </r>
       <r>   12.5029    0.0000 </r>
       <r>   18.2762    0.0000 </r>
       <r>   18.6876    0.0000 </r>
       <r>   20.0359    0.0000 </r>
       <r>   20.4247    0.0000 </r>
       <r>   26.7298    0.0000 </r>
       <r>   28.2876    0.0000 </r>
       <r>   32.3439    0.0000 </r>
       <r>   33.6769    0.0000 </r>
       <r>   35.4095    0.0000 </r>
       <r>   36.4720    0.0000 </r>
       <r>   44.8432    0.0000 </r>
       <r>   45.2569    0.0000 </r>
       <r>   48.9367    0.0000 </r>
       <r>   49.0319    0.0000 </r>
       <r>   54.5436    0.0000 </r>
       <r>   56.0677    0.0000 </r>
       <r>   56.6374    0.0000 </r>
       <r>   56.8918    0.0000 </r>
       <r>   58.7944    0.0000 </r>
       <r>   58.8580    0.0000 </r>
       <r>   59.6207    0.0000 </r>
       <r>   59.7277    0.0000 </r>
       <r>   61.4690    0.0000 </r>
       <r>   62.2108    0.0000 </r>
       <r>   64.9644    0.0000 </r>
       <r>   65.2452    0.0000 </r>
       <r>   66.2014    0.0000 </r>
       <r>   66.2870    0.0000 </r>
      </set>
      <set comment="kpoint 96">
       <r>    3.3266    1.0000 </r>
       <r>    3.4515    1.0000 </r>
       <r>    4.0228    1.0000 </r>
       <r>    4.1193    1.0000 </r>
       <r>    4.6741    1.0000 </r>
       <r>    4.8072    1.0000 </r>
       <r>    6.1017    1.0000 </r>
       <r>    6.2480    1.0000 </r>
       <r>    7.7275   -0.0000 </r>
       <r>    7.7948   -0.0000 </r>
       <r>   13.8463    0.0000 </r>
       <r>   13.9846    0.0000 </r>
       <r>   16.5625    0.0000 </r>
       <r>   16.8791    0.0000 </r>
       <r>   19.3840    0.0000 </r>
       <r>   19.8230    0.0000 </r>
       <r>   28.4625    0.0000 </r>
       <r>   29.1468    0.0000 </r>
       <r>   31.3571    0.0000 </r>
       <r>   31.6859    0.0000 </r>
       <r>   35.1084    0.0000 </r>
       <r>   35.9143    0.0000 </r>
       <r>   45.9913    0.0000 </r>
       <r>   46.6113    0.0000 </r>
       <r>   50.7341    0.0000 </r>
       <r>   51.1740    0.0000 </r>
       <r>   53.2199    0.0000 </r>
       <r>   53.6173    0.0000 </r>
       <r>   56.2325    0.0000 </r>
       <r>   56.9140    0.0000 </r>
       <r>   58.6974    0.0000 </r>
       <r>   59.3375    0.0000 </r>
       <r>   59.5217    0.0000 </r>
       <r>   60.1522    0.0000 </r>
       <r>   61.4783    0.0000 </r>
       <r>   62.5510    0.0000 </r>
       <r>   64.0437    0.0000 </r>
       <r>   64.1294    0.0000 </r>
       <r>   67.6666    0.0000 </r>
       <r>   67.7513    0.0000 </r>
      </set>
     </set>
    </set>
   </array>
  </eigenvalues>
  <separator name="orbital magnetization" >
   <v name="MAGDIPOLOUT">      0.00000000      0.00000000      0.00000000</v>
  </separator>
  <dos>
   <i name="efermi">      6.97273676 </i>
   <total>
    <array>
     <dimension dim="1">gridpoints</dimension>
     <dimension dim="2">spin</dimension>
     <field>energy</field>
     <field>total</field>
     <field>integrated</field>
     <set>
      <set comment="spin 1">
       <r>    -5.4927     0.0000     0.0000 </r>
       <r>    -5.2338     0.0000     0.0000 </r>
       <r>    -4.9749     0.0000     0.0000 </r>
       <r>    -4.7160     0.0000     0.0000 </r>
       <r>    -4.4572     0.0000     0.0000 </r>
       <r>    -4.1983     0.0000     0.0000 </r>
       <r>    -3.9394     0.0000     0.0000 </r>
       <r>    -3.6805    -0.0000    -0.0000 </r>
       <r>    -3.4216    -0.0000    -0.0000 </r>
       <r>    -3.1627    -0.0000    -0.0000 </r>
       <r>    -2.9038    -0.0000    -0.0000 </r>
       <r>    -2.6450    -0.0000    -0.0000 </r>
       <r>    -2.3861    -0.0000    -0.0000 </r>
       <r>    -2.1272    -0.0004    -0.0001 </r>
       <r>    -1.8683     0.0088     0.0021 </r>
       <r>    -1.6094     0.0532     0.0159 </r>
       <r>    -1.3505     0.1039     0.0428 </r>
       <r>    -1.0916     0.0574     0.0577 </r>
       <r>    -0.8327     0.1498     0.0964 </r>
       <r>    -0.5739     0.1759     0.1420 </r>
       <r>    -0.3150     0.1996     0.1937 </r>
       <r>    -0.0561     0.0848     0.2156 </r>
       <r>     0.2028     0.2259     0.2741 </r>
       <r>     0.4617     0.3048     0.3530 </r>
       <r>     0.7206     0.2991     0.4304 </r>
       <r>     0.9795     0.3134     0.5116 </r>
       <r>     1.2383     0.2395     0.5736 </r>
       <r>     1.4972     0.3628     0.6675 </r>
       <r>     1.7561     0.7289     0.8562 </r>
       <r>     2.0150     1.0027     1.1158 </r>
       <r>     2.2739     1.6046     1.5312 </r>
       <r>     2.5328     1.9875     2.0457 </r>
       <r>     2.7917     2.8587     2.7858 </r>
       <r>     3.0506     2.2525     3.3689 </r>
       <r>     3.3094     2.8496     4.1067 </r>
       <r>     3.5683     2.3873     4.7247 </r>
       <r>     3.8272     3.2633     5.5695 </r>
       <r>     4.0861     3.1519     6.3855 </r>
       <r>     4.3450     3.0714     7.1807 </r>
       <r>     4.6039     2.3838     7.7978 </r>
       <r>     4.8628     2.5409     8.4556 </r>
       <r>     5.1216     4.1860     9.5393 </r>
       <r>     5.3805     3.6244    10.4776 </r>
       <r>     5.6394     3.8406    11.4719 </r>
       <r>     5.8983     3.2866    12.3227 </r>
       <r>     6.1572     3.6732    13.2737 </r>
       <r>     6.4161     3.4216    14.1595 </r>
       <r>     6.6750     3.3738    15.0329 </r>
       <r>     6.9339     3.2972    15.8865 </r>
       <r>     7.1927     2.8713    16.6299 </r>
       <r>     7.4516     3.9465    17.6516 </r>
       <r>     7.7105     4.9790    18.9406 </r>
       <r>     7.9694     4.3628    20.0700 </r>
       <r>     8.2283     3.7645    21.0446 </r>
       <r>     8.4872     0.8104    21.2544 </r>
       <r>     8.7461     0.3382    21.3420 </r>
       <r>     9.0049     0.5500    21.4843 </r>
       <r>     9.2638     0.7436    21.6769 </r>
       <r>     9.5227     0.8455    21.8957 </r>
       <r>     9.7816     0.5983    22.0506 </r>
       <r>    10.0405     0.4232    22.1602 </r>
       <r>    10.2994     0.3649    22.2547 </r>
       <r>    10.5583     0.4776    22.3783 </r>
       <r>    10.8172     0.3920    22.4798 </r>
       <r>    11.0760     0.5751    22.6287 </r>
       <r>    11.3349     0.5996    22.7839 </r>
       <r>    11.5938     0.4052    22.8888 </r>
       <r>    11.8527     0.4906    23.0158 </r>
       <r>    12.1116     0.5270    23.1522 </r>
       <r>    12.3705     0.1594    23.1935 </r>
       <r>    12.6294     0.3510    23.2844 </r>
       <r>    12.8882     0.3371    23.3716 </r>
       <r>    13.1471     0.4359    23.4845 </r>
       <r>    13.4060     0.2919    23.5601 </r>
       <r>    13.6649     0.2471    23.6240 </r>
       <r>    13.9238     0.3778    23.7218 </r>
       <r>    14.1827     0.6160    23.8813 </r>
       <r>    14.4416     0.3778    23.9791 </r>
       <r>    14.7005     0.2495    24.0437 </r>
       <r>    14.9593     0.2323    24.1038 </r>
       <r>    15.2182     0.1578    24.1447 </r>
       <r>    15.4771     0.0935    24.1689 </r>
       <r>    15.7360     0.1692    24.2127 </r>
       <r>    15.9949     0.3909    24.3139 </r>
       <r>    16.2538     0.1966    24.3648 </r>
       <r>    16.5127     0.4952    24.4930 </r>
       <r>    16.7715     0.6622    24.6644 </r>
       <r>    17.0304     1.0239    24.9295 </r>
       <r>    17.2893     0.7710    25.1291 </r>
       <r>    17.5482     0.7741    25.3295 </r>
       <r>    17.8071     0.4800    25.4538 </r>
       <r>    18.0660     0.4873    25.5799 </r>
       <r>    18.3249     0.7564    25.7758 </r>
       <r>    18.5838     0.7677    25.9745 </r>
       <r>    18.8426     0.7310    26.1638 </r>
       <r>    19.1015     0.7808    26.3659 </r>
       <r>    19.3604     0.9048    26.6002 </r>
       <r>    19.6193     0.2922    26.6758 </r>
       <r>    19.8782     0.6370    26.8407 </r>
       <r>    20.1371     0.7895    27.0451 </r>
       <r>    20.3960     0.6443    27.2119 </r>
       <r>    20.6548     0.6337    27.3760 </r>
       <r>    20.9137     0.5053    27.5068 </r>
       <r>    21.1726     0.6736    27.6812 </r>
       <r>    21.4315     0.5130    27.8140 </r>
       <r>    21.6904     0.3607    27.9073 </r>
       <r>    21.9493     0.9939    28.1647 </r>
       <r>    22.2082     0.5089    28.2964 </r>
       <r>    22.4671     0.6081    28.4538 </r>
       <r>    22.7259     0.8437    28.6723 </r>
       <r>    22.9848     0.4713    28.7943 </r>
       <r>    23.2437     0.5882    28.9465 </r>
       <r>    23.5026     0.9940    29.2039 </r>
       <r>    23.7615     1.3128    29.5438 </r>
       <r>    24.0204     0.6786    29.7194 </r>
       <r>    24.2793     0.7391    29.9108 </r>
       <r>    24.5381     1.0313    30.1778 </r>
       <r>    24.7970     0.5938    30.3315 </r>
       <r>    25.0559     0.8062    30.5402 </r>
       <r>    25.3148     1.0920    30.8229 </r>
       <r>    25.5737     1.0013    31.0822 </r>
       <r>    25.8326     0.9332    31.3238 </r>
       <r>    26.0915     0.7232    31.5110 </r>
       <r>    26.3504     0.9715    31.7625 </r>
       <r>    26.6092     1.2126    32.0764 </r>
       <r>    26.8681     1.3510    32.4262 </r>
       <r>    27.1270     0.7521    32.6209 </r>
       <r>    27.3859     0.4170    32.7289 </r>
       <r>    27.6448     0.9635    32.9783 </r>
       <r>    27.9037     0.8020    33.1859 </r>
       <r>    28.1626     0.8901    33.4163 </r>
       <r>    28.4214     0.8679    33.6410 </r>
       <r>    28.6803     0.6918    33.8201 </r>
       <r>    28.9392     0.9344    34.0620 </r>
       <r>    29.1981     0.9181    34.2997 </r>
       <r>    29.4570     0.6947    34.4796 </r>
       <r>    29.7159     0.4398    34.5934 </r>
       <r>    29.9748     0.7603    34.7903 </r>
       <r>    30.2337     0.3806    34.8888 </r>
       <r>    30.4925     0.6991    35.0698 </r>
       <r>    30.7514     0.8910    35.3005 </r>
       <r>    31.0103     0.8976    35.5328 </r>
       <r>    31.2692     0.6226    35.6940 </r>
       <r>    31.5281     0.7759    35.8949 </r>
       <r>    31.7870     0.6726    36.0690 </r>
       <r>    32.0459     0.7559    36.2647 </r>
       <r>    32.3047     1.1174    36.5540 </r>
       <r>    32.5636     0.7536    36.7491 </r>
       <r>    32.8225     0.7431    36.9415 </r>
       <r>    33.0814     0.6611    37.1126 </r>
       <r>    33.3403     0.7277    37.3010 </r>
       <r>    33.5992     0.6938    37.4806 </r>
       <r>    33.8581     0.7779    37.6820 </r>
       <r>    34.1170     1.2307    38.0006 </r>
       <r>    34.3758     0.8202    38.2129 </r>
       <r>    34.6347     0.7913    38.4178 </r>
       <r>    34.8936     1.0198    38.6818 </r>
       <r>    35.1525     1.0680    38.9583 </r>
       <r>    35.4114     0.8744    39.1847 </r>
       <r>    35.6703     0.8623    39.4079 </r>
       <r>    35.9292     1.3439    39.7558 </r>
       <r>    36.1880     1.1610    40.0564 </r>
       <r>    36.4469     1.1173    40.3456 </r>
       <r>    36.7058     1.0716    40.6231 </r>
       <r>    36.9647     0.8049    40.8314 </r>
       <r>    37.2236     0.8493    41.0513 </r>
       <r>    37.4825     0.7852    41.2546 </r>
       <r>    37.7414     0.7139    41.4394 </r>
       <r>    38.0003     0.3858    41.5393 </r>
       <r>    38.2591     0.9616    41.7882 </r>
       <r>    38.5180     0.6457    41.9554 </r>
       <r>    38.7769     0.5178    42.0895 </r>
       <r>    39.0358     0.6746    42.2641 </r>
       <r>    39.2947     1.1938    42.5732 </r>
       <r>    39.5536     1.1192    42.8629 </r>
       <r>    39.8125     0.8948    43.0946 </r>
       <r>    40.0713     0.6834    43.2715 </r>
       <r>    40.3302     0.9269    43.5115 </r>
       <r>    40.5891     0.4991    43.6407 </r>
       <r>    40.8480     0.9783    43.8939 </r>
       <r>    41.1069     0.9373    44.1366 </r>
       <r>    41.3658     0.6346    44.3009 </r>
       <r>    41.6247     1.1418    44.5965 </r>
       <r>    41.8836     1.3092    44.9354 </r>
       <r>    42.1424     1.0425    45.2053 </r>
       <r>    42.4013     0.8738    45.4315 </r>
       <r>    42.6602     1.2418    45.7530 </r>
       <r>    42.9191     0.9178    45.9906 </r>
       <r>    43.1780     0.8555    46.2121 </r>
       <r>    43.4369     1.1319    46.5051 </r>
       <r>    43.6958     1.2071    46.8176 </r>
       <r>    43.9546     1.1457    47.1142 </r>
       <r>    44.2135     1.1235    47.4051 </r>
       <r>    44.4724     0.9394    47.6483 </r>
       <r>    44.7313     1.3021    47.9854 </r>
       <r>    44.9902     0.9635    48.2348 </r>
       <r>    45.2491     0.8534    48.4557 </r>
       <r>    45.5080     0.7770    48.6569 </r>
       <r>    45.7669     0.9988    48.9155 </r>
       <r>    46.0257     1.1076    49.2022 </r>
       <r>    46.2846     0.7987    49.4090 </r>
       <r>    46.5435     0.5300    49.5462 </r>
       <r>    46.8024     0.9453    49.7910 </r>
       <r>    47.0613     1.1832    50.0973 </r>
       <r>    47.3202     1.3511    50.4470 </r>
       <r>    47.5791     1.0167    50.7102 </r>
       <r>    47.8379     0.5387    50.8497 </r>
       <r>    48.0968     0.8073    51.0587 </r>
       <r>    48.3557     1.2890    51.3924 </r>
       <r>    48.6146     1.1545    51.6913 </r>
       <r>    48.8735     0.7391    51.8826 </r>
       <r>    49.1324     1.1908    52.1909 </r>
       <r>    49.3913     0.8376    52.4078 </r>
       <r>    49.6502     1.0545    52.6807 </r>
       <r>    49.9090     0.6618    52.8521 </r>
       <r>    50.1679     1.3411    53.1993 </r>
       <r>    50.4268     1.7915    53.6631 </r>
       <r>    50.6857     1.2570    53.9885 </r>
       <r>    50.9446     1.1028    54.2740 </r>
       <r>    51.2035     1.1480    54.5712 </r>
       <r>    51.4624     1.1927    54.8800 </r>
       <r>    51.7212     0.8702    55.1053 </r>
       <r>    51.9801     1.0744    55.3834 </r>
       <r>    52.2390     1.4887    55.7688 </r>
       <r>    52.4979     0.7045    55.9512 </r>
       <r>    52.7568     0.7388    56.1425 </r>
       <r>    53.0157     1.0810    56.4223 </r>
       <r>    53.2746     0.9822    56.6766 </r>
       <r>    53.5335     1.4079    57.0411 </r>
       <r>    53.7923     1.3301    57.3855 </r>
       <r>    54.0512     1.1395    57.6805 </r>
       <r>    54.3101     1.3643    58.0337 </r>
       <r>    54.5690     1.2012    58.3446 </r>
       <r>    54.8279     1.5177    58.7375 </r>
       <r>    55.0868     1.3870    59.0966 </r>
       <r>    55.3457     1.4390    59.4692 </r>
       <r>    55.6045     1.0544    59.7421 </r>
       <r>    55.8634     0.8297    59.9569 </r>
       <r>    56.1223     0.9957    60.2147 </r>
       <r>    56.3812     1.3563    60.5658 </r>
       <r>    56.6401     1.4357    60.9375 </r>
       <r>    56.8990     2.0997    61.4811 </r>
       <r>    57.1579     1.8815    61.9682 </r>
       <r>    57.4168     1.3847    62.3266 </r>
       <r>    57.6756     1.0779    62.6057 </r>
       <r>    57.9345     1.1777    62.9106 </r>
       <r>    58.1934     1.6369    63.3343 </r>
       <r>    58.4523     2.0102    63.8548 </r>
       <r>    58.7112     1.3591    64.2066 </r>
       <r>    58.9701     1.6900    64.6441 </r>
       <r>    59.2290     1.5567    65.0471 </r>
       <r>    59.4878     2.0574    65.5798 </r>
       <r>    59.7467     1.5630    65.9844 </r>
       <r>    60.0056     1.8136    66.4539 </r>
       <r>    60.2645     2.1613    67.0135 </r>
       <r>    60.5234     1.4257    67.3826 </r>
       <r>    60.7823     1.5336    67.7796 </r>
       <r>    61.0412     1.7173    68.2242 </r>
       <r>    61.3001     1.4274    68.5937 </r>
       <r>    61.5589     1.2965    68.9294 </r>
       <r>    61.8178     1.3900    69.2892 </r>
       <r>    62.0767     2.1197    69.8380 </r>
       <r>    62.3356     2.1372    70.3913 </r>
       <r>    62.5945     1.1532    70.6898 </r>
       <r>    62.8534     1.7178    71.1346 </r>
       <r>    63.1123     1.8146    71.6043 </r>
       <r>    63.3711     1.4720    71.9854 </r>
       <r>    63.6300     1.7979    72.4509 </r>
       <r>    63.8889     1.1368    72.7452 </r>
       <r>    64.1478     1.7428    73.1964 </r>
       <r>    64.4067     1.7854    73.6586 </r>
       <r>    64.6656     1.6618    74.0888 </r>
       <r>    64.9245     1.8877    74.5775 </r>
       <r>    65.1834     1.9723    75.0881 </r>
       <r>    65.4422     2.2987    75.6832 </r>
       <r>    65.7011     1.9741    76.1943 </r>
       <r>    65.9600     1.4751    76.5762 </r>
       <r>    66.2189     1.4388    76.9487 </r>
       <r>    66.4778     2.4741    77.5892 </r>
       <r>    66.7367     1.5290    77.9850 </r>
       <r>    66.9956     1.4062    78.3490 </r>
       <r>    67.2544     1.4585    78.7266 </r>
       <r>    67.5133     1.7655    79.1837 </r>
       <r>    67.7722     1.3981    79.5456 </r>
       <r>    68.0311     0.8995    79.7785 </r>
       <r>    68.2900     0.4372    79.8917 </r>
       <r>    68.5489     0.3059    79.9709 </r>
       <r>    68.8078     0.1156    80.0008 </r>
       <r>    69.0667    -0.0026    80.0002 </r>
       <r>    69.3255    -0.0006    80.0000 </r>
       <r>    69.5844    -0.0000    80.0000 </r>
       <r>    69.8433    -0.0000    80.0000 </r>
       <r>    70.1022    -0.0000    80.0000 </r>
       <r>    70.3611     0.0000    80.0000 </r>
       <r>    70.6200     0.0000    80.0000 </r>
       <r>    70.8789     0.0000    80.0000 </r>
       <r>    71.1377     0.0000    80.0000 </r>
       <r>    71.3966     0.0000    80.0000 </r>
       <r>    71.6555     0.0000    80.0000 </r>
       <r>    71.9144     0.0000    80.0000 </r>
       <r>    72.1733     0.0000    80.0000 </r>
      </set>
     </set>
    </array>
   </total>
  </dos>
 </calculation>
 <structure name="finalpos" >
  <crystal>
   <varray name="basis" >
    <v>       2.35330000       0.00000000       0.00000000 </v>
    <v>      -1.17665000       2.03801758       0.00000000 </v>
    <v>       0.00000000       0.00000000       4.22382000 </v>
   </varray>
   <i name="volume">     20.25772278 </i>
   <varray name="rec_basis" >
    <v>       0.42493520       0.24533645       0.00000000 </v>
    <v>       0.00000000       0.49067290       0.00000000 </v>
    <v>       0.00000000       0.00000000       0.23675251 </v>
   </varray>
  </crystal>
  <varray name="positions" >
   <v>       0.00000000       0.00000000       0.00000000 </v>
   <v>       0.33333333       0.66666667       0.50000000 </v>
  </varray>
 </structure>
</modeling>
