   4   4   0   0
  0.1022208E+02  0.3445083E-09  0.3445083E-09  0.3445083E-09  0.5000000E-15
  1.000000000000000E-004
  CAR 
 unknown system                          
     39.40642017     -4.02758322  301      6.80679518      1.00000000
     -4.028  0.0000E+00  0.0000E+00
     -3.883  0.0000E+00  0.0000E+00
     -3.738 -0.4308E-33 -0.6237E-34
     -3.593 -0.5570E-28 -0.8064E-29
     -3.448 -0.2504E-23 -0.3625E-24
     -3.304 -0.3908E-19 -0.5659E-20
     -3.159 -0.2052E-15 -0.2972E-16
     -3.014 -0.3808E-12 -0.5516E-13
     -2.869 -0.2439E-09 -0.3536E-10
     -2.725 -0.5395E-07 -0.7846E-08
     -2.580 -0.4154E-05 -0.6093E-06
     -2.435 -0.1131E-03 -0.1698E-04
     -2.290 -0.1073E-02 -0.1723E-03
     -2.145 -0.2300E-02 -0.5053E-03
     -2.001  0.1381E-01  0.1494E-02
     -1.856  0.7119E-01  0.1180E-01
     -1.711  0.1145E+00  0.2838E-01
     -1.566  0.1233E+00  0.4623E-01
     -1.422  0.2160E+00  0.7750E-01
     -1.277  0.2318E+00  0.1111E+00
     -1.132  0.1470E+00  0.1323E+00
     -0.987  0.2569E+00  0.1695E+00
     -0.842  0.3455E+00  0.2195E+00
     -0.698  0.2786E+00  0.2599E+00
     -0.553  0.3206E+00  0.3063E+00
     -0.408  0.3647E+00  0.3591E+00
     -0.263  0.2587E+00  0.3965E+00
     -0.119  0.4241E+00  0.4579E+00
      0.026  0.5018E+00  0.5306E+00
      0.171  0.5176E+00  0.6055E+00
      0.316  0.4748E+00  0.6743E+00
      0.461  0.2826E+00  0.7152E+00
      0.605  0.5419E+00  0.7936E+00
      0.750  0.8019E+00  0.9097E+00
      0.895  0.7025E+00  0.1011E+01
      1.040  0.5817E+00  0.1096E+01
      1.184  0.5592E+00  0.1177E+01
      1.329  0.9102E+00  0.1308E+01
      1.474  0.1149E+01  0.1475E+01
      1.619  0.8567E+00  0.1599E+01
      1.764  0.1038E+01  0.1749E+01
      1.908  0.2064E+01  0.2048E+01
      2.053  0.3091E+01  0.2495E+01
      2.198  0.3776E+01  0.3042E+01
      2.343  0.3772E+01  0.3588E+01
      2.488  0.3974E+01  0.4163E+01
      2.632  0.4422E+01  0.4804E+01
      2.777  0.4659E+01  0.5478E+01
      2.922  0.5508E+01  0.6276E+01
      3.067  0.6197E+01  0.7173E+01
      3.211  0.6135E+01  0.8061E+01
      3.356  0.5728E+01  0.8890E+01
      3.501  0.5626E+01  0.9705E+01
      3.646  0.5538E+01  0.1051E+02
      3.791  0.5118E+01  0.1125E+02
      3.935  0.4935E+01  0.1196E+02
      4.080  0.4875E+01  0.1267E+02
      4.225  0.4759E+01  0.1336E+02
      4.370  0.5232E+01  0.1411E+02
      4.514  0.6854E+01  0.1511E+02
      4.659  0.6905E+01  0.1611E+02
      4.804  0.6174E+01  0.1700E+02
      4.949  0.7416E+01  0.1807E+02
      5.094  0.8667E+01  0.1933E+02
      5.238  0.8337E+01  0.2054E+02
      5.383  0.8863E+01  0.2182E+02
      5.528  0.9633E+01  0.2321E+02
      5.673  0.8215E+01  0.2440E+02
      5.817  0.6609E+01  0.2536E+02
      5.962  0.5727E+01  0.2619E+02
      6.107  0.5371E+01  0.2697E+02
      6.252  0.6059E+01  0.2784E+02
      6.397  0.6810E+01  0.2883E+02
      6.541  0.7646E+01  0.2994E+02
      6.686  0.8282E+01  0.3114E+02
      6.831  0.7025E+01  0.3215E+02
      6.976  0.6235E+01  0.3306E+02
      7.120  0.6738E+01  0.3403E+02
      7.265  0.6322E+01  0.3495E+02
      7.410  0.6717E+01  0.3592E+02
      7.555  0.8184E+01  0.3710E+02
      7.700  0.1069E+02  0.3865E+02
      7.844  0.1232E+02  0.4043E+02
      7.989  0.7960E+01  0.4159E+02
      8.134  0.3324E+01  0.4207E+02
      8.279  0.1984E+01  0.4235E+02
      8.423  0.1678E+01  0.4260E+02
      8.568  0.1041E+01  0.4275E+02
      8.713  0.8998E+00  0.4288E+02
      8.858  0.9441E+00  0.4302E+02
      9.003  0.1367E+01  0.4321E+02
      9.147  0.1634E+01  0.4345E+02
      9.292  0.9903E+00  0.4359E+02
      9.437  0.4499E+00  0.4366E+02
      9.582  0.1095E+01  0.4382E+02
      9.727  0.1968E+01  0.4410E+02
      9.871  0.1225E+01  0.4428E+02
     10.016  0.5720E+00  0.4436E+02
     10.161  0.9146E+00  0.4449E+02
     10.306  0.1048E+01  0.4465E+02
     10.450  0.1197E+01  0.4482E+02
     10.595  0.1306E+01  0.4501E+02
     10.740  0.7705E+00  0.4512E+02
     10.885  0.7721E+00  0.4523E+02
     11.030  0.1170E+01  0.4540E+02
     11.174  0.1085E+01  0.4556E+02
     11.319  0.1050E+01  0.4571E+02
     11.464  0.9124E+00  0.4584E+02
     11.609  0.9087E+00  0.4597E+02
     11.753  0.1015E+01  0.4612E+02
     11.898  0.6273E+00  0.4621E+02
     12.043  0.3680E+00  0.4627E+02
     12.188  0.7825E+00  0.4638E+02
     12.333  0.1123E+01  0.4654E+02
     12.477  0.1133E+01  0.4671E+02
     12.622  0.9289E+00  0.4684E+02
     12.767  0.5629E+00  0.4692E+02
     12.912  0.3373E+00  0.4697E+02
     13.056  0.6312E+00  0.4706E+02
     13.201  0.8973E+00  0.4719E+02
     13.346  0.4592E+00  0.4726E+02
     13.491  0.2714E+00  0.4730E+02
     13.636  0.6429E+00  0.4739E+02
     13.780  0.6490E+00  0.4748E+02
     13.925  0.6135E+00  0.4757E+02
     14.070  0.6258E+00  0.4766E+02
     14.215  0.3549E+00  0.4772E+02
     14.359  0.2234E+00  0.4775E+02
     14.504  0.1619E+00  0.4777E+02
     14.649  0.2512E+00  0.4781E+02
     14.794  0.4759E+00  0.4788E+02
     14.939  0.2515E+00  0.4791E+02
     15.083  0.1567E+00  0.4794E+02
     15.228  0.7403E+00  0.4804E+02
     15.373  0.1492E+01  0.4826E+02
     15.518  0.1606E+01  0.4849E+02
     15.662  0.1568E+01  0.4872E+02
     15.807  0.1819E+01  0.4898E+02
     15.952  0.1704E+01  0.4923E+02
     16.097  0.9305E+00  0.4936E+02
     16.242  0.8461E+00  0.4949E+02
     16.386  0.1437E+01  0.4969E+02
     16.531  0.1209E+01  0.4987E+02
     16.676  0.8132E+00  0.4999E+02
     16.821  0.8721E+00  0.5011E+02
     16.966  0.9592E+00  0.5025E+02
     17.110  0.1096E+01  0.5041E+02
     17.255  0.1043E+01  0.5056E+02
     17.400  0.1110E+01  0.5072E+02
     17.545  0.1030E+01  0.5087E+02
     17.689  0.7757E+00  0.5098E+02
     17.834  0.8559E+00  0.5111E+02
     17.979  0.7399E+00  0.5121E+02
     18.124  0.6469E+00  0.5131E+02
     18.269  0.8833E+00  0.5144E+02
     18.413  0.1068E+01  0.5159E+02
     18.558  0.1539E+01  0.5181E+02
     18.703  0.1379E+01  0.5201E+02
     18.848  0.6525E+00  0.5211E+02
     18.992  0.4434E+00  0.5217E+02
     19.137  0.1593E+01  0.5240E+02
     19.282  0.2506E+01  0.5276E+02
     19.427  0.1665E+01  0.5301E+02
     19.572  0.7223E+00  0.5311E+02
     19.716  0.7833E+00  0.5322E+02
     19.861  0.1736E+01  0.5348E+02
     20.006  0.2090E+01  0.5378E+02
     20.151  0.1531E+01  0.5400E+02
     20.295  0.1319E+01  0.5419E+02
     20.440  0.1597E+01  0.5442E+02
     20.585  0.1630E+01  0.5466E+02
     20.730  0.1317E+01  0.5485E+02
     20.875  0.1088E+01  0.5501E+02
     21.019  0.1304E+01  0.5519E+02
     21.164  0.1711E+01  0.5544E+02
     21.309  0.1510E+01  0.5566E+02
     21.454  0.1855E+01  0.5593E+02
     21.598  0.2144E+01  0.5624E+02
     21.743  0.1936E+01  0.5652E+02
     21.888  0.1190E+01  0.5669E+02
     22.033  0.1009E+01  0.5684E+02
     22.178  0.1263E+01  0.5702E+02
     22.322  0.1933E+01  0.5730E+02
     22.467  0.1987E+01  0.5759E+02
     22.612  0.1270E+01  0.5777E+02
     22.757  0.1673E+01  0.5802E+02
     22.901  0.2225E+01  0.5834E+02
     23.046  0.1869E+01  0.5861E+02
     23.191  0.1504E+01  0.5883E+02
     23.336  0.1536E+01  0.5905E+02
     23.481  0.1911E+01  0.5932E+02
     23.625  0.2299E+01  0.5966E+02
     23.770  0.1758E+01  0.5991E+02
     23.915  0.1157E+01  0.6008E+02
     24.060  0.1572E+01  0.6031E+02
     24.205  0.2233E+01  0.6063E+02
     24.349  0.2042E+01  0.6093E+02
     24.494  0.1570E+01  0.6115E+02
     24.639  0.1522E+01  0.6137E+02
     24.784  0.1414E+01  0.6158E+02
     24.928  0.1535E+01  0.6180E+02
     25.073  0.1999E+01  0.6209E+02
     25.218  0.2193E+01  0.6241E+02
     25.363  0.1728E+01  0.6266E+02
     25.508  0.1411E+01  0.6286E+02
     25.652  0.1423E+01  0.6307E+02
     25.797  0.9916E+00  0.6321E+02
     25.942  0.8867E+00  0.6334E+02
     26.087  0.1856E+01  0.6361E+02
     26.231  0.2311E+01  0.6394E+02
     26.376  0.2175E+01  0.6426E+02
     26.521  0.1883E+01  0.6453E+02
     26.666  0.9224E+00  0.6466E+02
     26.811  0.9277E+00  0.6480E+02
     26.955  0.1809E+01  0.6506E+02
     27.100  0.1537E+01  0.6528E+02
     27.245  0.1222E+01  0.6546E+02
     27.390  0.1475E+01  0.6567E+02
     27.534  0.1841E+01  0.6594E+02
     27.679  0.1777E+01  0.6620E+02
     27.824  0.1424E+01  0.6640E+02
     27.969  0.9077E+00  0.6653E+02
     28.114  0.8202E+00  0.6665E+02
     28.258  0.1373E+01  0.6685E+02
     28.403  0.1443E+01  0.6706E+02
     28.548  0.1664E+01  0.6730E+02
     28.693  0.1812E+01  0.6756E+02
     28.837  0.1918E+01  0.6784E+02
     28.982  0.1936E+01  0.6812E+02
     29.127  0.1554E+01  0.6835E+02
     29.272  0.1262E+01  0.6853E+02
     29.417  0.1317E+01  0.6872E+02
     29.561  0.1217E+01  0.6890E+02
     29.706  0.9467E+00  0.6903E+02
     29.851  0.1050E+01  0.6919E+02
     29.996  0.1484E+01  0.6940E+02
     30.140  0.1962E+01  0.6969E+02
     30.285  0.2411E+01  0.7003E+02
     30.430  0.1999E+01  0.7032E+02
     30.575  0.1531E+01  0.7055E+02
     30.720  0.2089E+01  0.7085E+02
     30.864  0.2059E+01  0.7115E+02
     31.009  0.1733E+01  0.7140E+02
     31.154  0.1906E+01  0.7167E+02
     31.299  0.1919E+01  0.7195E+02
     31.444  0.1493E+01  0.7217E+02
     31.588  0.1583E+01  0.7240E+02
     31.733  0.2218E+01  0.7272E+02
     31.878  0.2169E+01  0.7303E+02
     32.023  0.2111E+01  0.7334E+02
     32.167  0.2310E+01  0.7367E+02
     32.312  0.1607E+01  0.7390E+02
     32.457  0.1211E+01  0.7408E+02
     32.602  0.1727E+01  0.7433E+02
     32.747  0.1938E+01  0.7461E+02
     32.891  0.1974E+01  0.7490E+02
     33.036  0.1925E+01  0.7517E+02
     33.181  0.2189E+01  0.7549E+02
     33.326  0.2287E+01  0.7582E+02
     33.470  0.2471E+01  0.7618E+02
     33.615  0.2057E+01  0.7648E+02
     33.760  0.1013E+01  0.7662E+02
     33.905  0.1297E+01  0.7681E+02
     34.050  0.2143E+01  0.7712E+02
     34.194  0.1943E+01  0.7740E+02
     34.339  0.1721E+01  0.7765E+02
     34.484  0.1691E+01  0.7790E+02
     34.629  0.1233E+01  0.7808E+02
     34.773  0.1481E+01  0.7829E+02
     34.918  0.1584E+01  0.7852E+02
     35.063  0.1025E+01  0.7867E+02
     35.208  0.8918E+00  0.7880E+02
     35.353  0.8299E+00  0.7892E+02
     35.497  0.6121E+00  0.7901E+02
     35.642  0.6914E+00  0.7911E+02
     35.787  0.8947E+00  0.7924E+02
     35.932  0.9642E+00  0.7938E+02
     36.076  0.1119E+01  0.7954E+02
     36.221  0.1163E+01  0.7971E+02
     36.366  0.8697E+00  0.7983E+02
     36.511  0.5237E+00  0.7991E+02
     36.656  0.1062E+00  0.7992E+02
     36.800 -0.2228E-01  0.7992E+02
     36.945  0.9050E-01  0.7993E+02
     37.090  0.1366E+00  0.7995E+02
     37.235  0.6752E-01  0.7996E+02
     37.380  0.1085E+00  0.7998E+02
     37.524  0.1293E+00  0.8000E+02
     37.669  0.2867E-01  0.8000E+02
     37.814 -0.6886E-02  0.8000E+02
     37.959 -0.1682E-02  0.8000E+02
     38.103 -0.8193E-04  0.8000E+02
     38.248 -0.1193E-05  0.8000E+02
     38.393 -0.5657E-08  0.8000E+02
     38.538 -0.9009E-11  0.8000E+02
     38.683 -0.4867E-14  0.8000E+02
     38.827  0.0000E+00  0.8000E+02
     38.972  0.0000E+00  0.8000E+02
     39.117  0.0000E+00  0.8000E+02
     39.262  0.0000E+00  0.8000E+02
     39.406  0.0000E+00  0.8000E+02
