       N       E                     dE             d eps       ncg     rms          rms(c)
DAV:   1     0.593551013898E+02    0.59355E+02   -0.25264E+03  9368   0.331E+02
DAV:   2    -0.148772148457E+02   -0.74232E+02   -0.63145E+02  7904   0.968E+01
DAV:   3    -0.189645776594E+02   -0.40874E+01   -0.39200E+01  9568   0.236E+01
DAV:   4    -0.189797888701E+02   -0.15211E-01   -0.15203E-01  8912   0.151E+00
DAV:   5    -0.189797999038E+02   -0.11034E-04   -0.11034E-04  9168   0.387E-02    0.188E+01
DAV:   6    -0.162199689412E+02    0.27598E+01   -0.14381E+00 11232   0.230E+01    0.145E+00
DAV:   7    -0.160895721279E+02    0.13040E+00   -0.72339E-02  9864   0.388E+00    0.128E+00
DAV:   8    -0.160571678761E+02    0.32404E-01   -0.22462E-03 10136   0.301E-01    0.551E-01
DAV:   9    -0.160479832931E+02    0.91846E-02   -0.89144E-04 10656   0.168E-01    0.630E-02
DAV:  10    -0.160479771851E+02    0.61081E-05   -0.29978E-05  8576   0.226E-02    0.184E-02
DAV:  11    -0.160479658928E+02    0.11292E-04   -0.14021E-07  7968   0.360E-03    0.175E-03
DAV:  12    -0.160479655541E+02    0.33877E-06   -0.56720E-08  5744   0.141E-03
   1 F= -.16047966E+02 E0= -.16047931E+02  d E =-.104373E-03
