unknown system                          
   1.00000000000000     
     2.283400    0.000000    0.000000
    -1.141700    1.977482    0.000000
     0.000000    0.000000    3.897460
   Fe
     2
Direct
  0.000000  0.000000  0.000000
  0.333333  0.666667  0.500000
 
   20   20   32
  147.52      140.08      120.01      92.844      64.875      41.007      23.899      14.002      9.8714      8.7748    
  8.4786      8.7748      9.8715      14.002      23.899      41.007      64.875      92.844      120.01      140.08    
  140.09      140.08      126.37      102.90      75.680      50.269      30.381      17.514      11.123      9.0317    
  8.4618      8.4616      9.0315      11.123      17.513      30.380      50.268      75.683      102.91      126.37    
  120.02      126.34      120.01      102.90      79.665      55.673      35.237      20.756      12.605      9.3654    
  8.4647      8.1826      8.4643      9.3654      12.605      20.755      35.234      55.671      79.667      102.91    
  92.842      102.83      102.83      92.844      75.680      55.673      37.038      22.703      13.818      9.7492    
  8.4797      7.9744      7.9742      8.4796      9.7498      13.819      22.703      37.036      55.669      75.676    
  64.867      75.574      79.519      75.581      64.875      50.269      35.237      22.703      14.286      10.014    
  8.4970      7.8467      7.6155      7.8466      8.4970      10.014      14.288      22.705      35.237      50.264    
  41.006      50.186      55.524      55.526      50.190      41.007      30.381      20.756      13.818      10.014    
  8.5062      7.7891      7.4079      7.4080      7.7889      8.5053      10.013      13.820      20.761      30.385    
  23.905      30.357      35.160      36.936      35.158      30.352      23.899      17.514      12.605      9.7492    
  8.4970      7.7891      7.3413      7.1924      7.3417      7.7883      8.4945      9.7467      12.605      17.518    
  14.002      17.539      20.774      22.704      22.701      20.769      17.535      14.002      11.123      9.3653    
  8.4797      7.8467      7.4078      7.1924      7.1930      7.4088      7.8465      8.4771      9.3607      11.119    
  9.8654      11.167      12.684      13.911      14.380      13.909      12.684      11.171      9.8714      9.0317    
  8.4647      7.9744      7.6155      7.4080      7.3417      7.4088      7.6176      7.9768      8.4647      9.0276    
  8.7746      9.0821      9.4637      9.8846      10.169      10.170      9.8876      9.4683      9.0860      8.7748    
  8.4618      8.1826      7.9742      7.8466      7.7889      7.7883      7.8464      7.9768      8.1876      8.4657    
  8.4844      8.5207      8.5717      8.6282      8.6758      8.6973      8.6783      8.6307      8.5713      8.5167    
  8.4786      8.4616      8.4643      8.4796      8.4970      8.5053      8.4945      8.4770      8.4647      8.4657    
  8.7746      8.5207      8.2957      8.1329      8.0402      8.0032      8.0037      8.0403      8.1303      8.2908    
  8.5169      8.7748      9.0315      9.3654      9.7498      10.014      10.013      9.7467      9.3608      9.0276    
  9.8653      9.0821      8.5717      8.1329      7.8161      7.6370      7.5807      7.6362      7.8140      8.1305    
  8.5717      9.0862      9.8715      11.123      12.605      13.819      14.288      13.820      12.605      11.119    
  14.002      11.167      9.4637      8.6282      8.0402      7.6370      7.4409      7.4404      7.6361      8.0404    
  8.6308      9.4682      11.170      14.002      17.513      20.755      22.703      22.705      20.761      17.518    
  23.905      17.539      12.684      9.8846      8.6758      8.0032      7.5807      7.4404      7.5803      8.0039    
  8.6783      9.8870      12.683      17.535      23.899      30.380      35.234      37.036      35.237      30.385    
  41.006      30.357      20.774      13.910      10.169      8.6973      8.0037      7.6362      7.6361      8.0039    
  8.6982      10.169      13.908      20.769      30.354      41.007      50.268      55.671      55.669      50.264    
  64.867      50.186      35.160      22.704      14.380      10.170      8.6782      8.0403      7.8140      8.0404    
  8.6783      10.169      14.378      22.701      35.160      50.191      64.875      75.683      79.667      75.676    
  92.842      75.574      55.524      36.936      22.701      13.909      9.8876      8.6307      8.1303      8.1305    
  8.6308      9.8870      13.908      22.701      36.938      55.527      75.578      92.844      102.91      102.91    
  120.02      102.83      79.519      55.526      35.158      20.768      12.684      9.4683      8.5713      8.2908    
  8.5717      9.4682      12.683      20.769      35.160      55.527      79.517      102.82      120.01      126.37    
  140.09      126.34      102.83      75.581      50.190      30.352      17.535      11.171      9.0860      8.5167    
  8.5169      9.0862      11.170      17.535      30.354      50.191      75.578      102.82      126.33      140.08    
  139.05      132.06      113.15      87.527      61.134      38.639      22.594      13.410      9.6481      8.6393    
  8.3496      8.6394      9.6482      13.410      22.594      38.639      61.134      87.527      113.15      132.06    
  132.06      132.06      119.13      97.010      71.317      47.345      28.641      16.635      10.761      8.8727    
  8.3217      8.3215      8.8725      10.761      16.634      28.640      47.344      71.319      97.016      119.14    
  113.15      119.11      113.15      97.010      75.073      52.429      33.184      19.631      12.095      9.1583    
  8.3171      8.0428      8.3166      9.1583      12.095      19.630      33.182      52.427      75.075      97.016    
  87.524      96.952      96.953      87.527      71.317      52.429      34.872      21.436      13.195      9.4888    
  8.3274      7.8370      7.8368      8.3273      9.4893      13.196      21.435      34.870      52.425      71.313    
  61.126      71.242      74.969      71.248      61.134      47.345      33.184      21.436      13.621      9.7188    
  8.3412      7.7117      7.4892      7.7116      8.3412      9.7195      13.623      21.438      33.184      47.340    
  38.638      47.298      52.339      52.341      47.302      38.639      28.641      19.631      13.195      9.7188    
  8.3480      7.6554      7.2892      7.2893      7.6552      8.3472      9.7187      13.198      19.635      28.645    
  22.599      28.653      33.173      34.846      33.171      28.649      22.594      16.635      12.095      9.4888    
  8.3412      7.6554      7.2252      7.0828      7.2256      7.6547      8.3389      9.4865      12.095      16.638    
  13.409      16.692      19.711      21.517      21.515      19.706      16.688      13.410      10.761      9.1583    
  8.3275      7.7117      7.2891      7.0828      7.0833      7.2900      7.7115      8.3250      9.1540      10.757    
  9.6424      10.834      12.230      13.365      13.800      13.363      12.230      10.837      9.6481      8.8727    
  8.3170      7.8371      7.4892      7.2893      7.2256      7.2900      7.4911      7.8393      8.3170      8.8689    
  8.6392      8.9497      9.3083      9.6960      9.9572      9.9580      9.6987      9.3126      8.9533      8.6393    
  8.3217      8.0428      7.8368      7.7116      7.6552      7.6547      7.7115      7.8393      8.0475      8.3254    
  8.3549      8.4059      8.4733      8.5450      8.6022      8.6259      8.6045      8.5473      8.4729      8.4021    
  8.3496      8.3215      8.3167      8.3273      8.3412      8.3472      8.3389      8.3250      8.3171      8.3254    
  8.6391      8.4059      8.2041      8.0632      7.9871      7.9588      7.9593      7.9872      8.0607      8.1995    
  8.4023      8.6394      8.8725      9.1583      9.4893      9.7195      9.7187      9.4865      9.1540      8.8689    
  9.6424      8.9497      8.4733      8.0632      7.7712      7.6084      7.5578      7.6077      7.7693      8.0609    
  8.4733      8.9535      9.6481      10.761      12.095      13.196      13.623      13.198      12.095      10.757    
  13.409      10.834      9.3083      8.5450      7.9871      7.6084      7.4257      7.4252      7.6076      7.9873    
  8.5474      9.3125      10.837      13.410      16.634      19.630      21.435      21.438      19.635      16.638    
  22.599      16.692      12.230      9.6960      8.6022      7.9588      7.5578      7.4252      7.5574      7.9595    
  8.6045      9.6982      12.229      16.688      22.594      28.640      33.182      34.870      33.184      28.645    
  38.638      28.653      19.711      13.365      9.9572      8.6259      7.9593      7.6077      7.6076      7.9595    
  8.6268      9.9574      13.362      19.707      28.650      38.639      47.344      52.427      52.425      47.340    
  61.126      47.298      33.173      21.517      13.800      9.9581      8.6045      7.9872      7.7693      7.9873    
  8.6045      9.9574      13.798      21.515      33.173      47.302      61.134      71.319      75.075      71.313    
  87.524      71.242      52.339      34.846      21.515      13.363      9.6987      8.5473      8.0608      8.0609    
  8.5474      9.6982      13.362      21.515      34.848      52.342      71.246      87.527      97.016      97.016    
  113.15      96.952      74.969      52.341      33.171      19.706      12.230      9.3126      8.4729      8.1995    
  8.4733      9.3125      12.229      19.707      33.173      52.342      74.967      96.946      113.15      119.14    
  132.06      119.11      96.953      71.248      47.302      28.649      16.688      10.837      8.9533      8.4021    
  8.4023      8.9535      10.837      16.688      28.650      47.302      71.246      96.946      119.10      132.06    
  116.52      110.67      94.829      73.317      51.151      32.365      19.189      11.905      9.0877      8.2701    
  8.0007      8.2702      9.0878      11.905      19.189      32.365      51.151      73.317      94.829      110.67    
  110.67      110.67      99.838      81.262      59.662      39.566      24.066      14.372      9.8541      8.4528    
  7.9445      7.9443      8.4526      9.8543      14.372      24.065      39.565      59.664      81.268      99.845    
  94.833      99.836      94.829      81.262      62.804      43.786      27.764      16.711      10.807      8.6322    
  7.9181      7.6674      7.9177      8.6321      10.807      16.711      27.762      43.785      62.806      81.267    
  73.315      81.258      81.258      73.317      59.662      43.786      29.143      18.136      11.612      8.8338    
  7.9132      7.4670      7.4668      7.9130      8.8342      11.613      18.135      29.142      43.783      59.659    
  51.144      59.670      62.814      59.675      51.151      39.566      27.764      18.136      11.928      8.9782    
  7.9175      7.3461      7.1481      7.3461      7.9176      8.9787      11.930      18.137      27.764      39.562    
  32.364      39.616      43.854      43.856      39.619      32.365      24.066      16.711      11.612      8.9782    
  7.9204      7.2918      6.9673      6.9674      7.2918      7.9198      8.9781      11.614      16.715      24.069    
  19.193      24.171      27.923      29.318      27.922      24.168      19.189      14.372      10.807      8.8338    
  7.9176      7.2918      6.9098      6.7850      6.9102      7.2913      7.9158      8.8320      10.807      14.375    
  11.905      14.513      16.952      18.424      18.422      16.947      14.509      11.905      9.8541      8.6322    
  7.9132      7.3461      6.9672      6.7850      6.7853      6.9679      7.3459      7.9112      8.6288      9.8513    
  9.0831      9.9999      11.083      11.975      12.320      11.974      11.083      10.003      9.0877      8.4528    
  7.9181      7.4670      7.1481      6.9674      6.9102      6.9679      7.1495      7.4688      7.9181      8.4497    
  8.2700      8.5957      8.9099      9.2183      9.4218      9.4224      9.2204      8.9132      8.5985      8.2701    
  7.9444      7.6674      7.4669      7.3461      7.2918      7.2914      7.3459      7.4688      7.6711      7.9474    
  8.0050      8.0901      8.1939      8.2980      8.3770      8.4074      8.3788      8.2997      8.1935      8.0871    
  8.0007      7.9443      7.9177      7.9130      7.9176      7.9198      7.9157      7.9112      7.9181      7.9474    
  8.2700      8.0901      7.9449      7.8542      7.8146      7.8050      7.8054      7.8147      7.8523      7.9412    
  8.0873      8.2702      8.4526      8.6322      8.8341      8.9787      8.9781      8.8320      8.6288      8.4497    
  9.0831      8.5956      8.1939      7.8542      7.6206      7.4948      7.4566      7.4943      7.6192      7.8525    
  8.1939      8.5987      9.0878      9.8543      10.807      11.613      11.930      11.614      10.807      9.8513    
  11.905      9.9999      8.9099      8.2980      7.8146      7.4948      7.3432      7.3428      7.4942      7.8147    
  8.2998      8.9132      10.003      11.905      14.372      16.711      18.135      18.137      16.715      14.375    
  19.193      14.513      11.083      9.2183      8.3770      7.8050      7.4566      7.3428      7.4563      7.8054    
  8.3788      9.2200      11.083      14.509      19.189      24.065      27.762      29.142      27.764      24.069    
  32.364      24.171      16.952      11.975      9.4218      8.4074      7.8054      7.4943      7.4941      7.8054    
  8.4081      9.4220      11.973      16.948      24.169      32.365      39.565      43.785      43.783      39.562    
  51.144      39.616      27.923      18.424      12.320      9.4224      8.3788      7.8147      7.6192      7.8147    
  8.3788      9.4220      12.318      18.422      27.923      39.619      51.151      59.664      62.806      59.659    
  73.315      59.670      43.854      29.318      18.422      11.974      9.2204      8.2997      7.8523      7.8525    
  8.2998      9.2200      11.973      18.422      29.320      43.857      59.673      73.317      81.268      81.267    
  94.833      81.258      62.815      43.856      27.922      16.947      11.083      8.9132      8.1936      7.9412    
  8.1939      8.9132      11.083      16.948      27.923      43.857      62.813      81.253      94.829      99.845    
  110.67      99.836      81.258      59.675      39.619      24.168      14.509      10.003      8.5985      8.0871    
  8.0873      8.5987      10.003      14.509      24.169      39.619      59.673      81.253      99.830      110.67    
  86.837      82.471      70.637      54.550      38.043      24.271      14.954      10.140      8.4220      7.7643    
  7.5299      7.7643      8.4220      10.140      14.954      24.271      38.043      54.550      70.637      82.471    
  82.473      82.471      74.369      60.456      44.309      29.440      18.270      11.642      8.8105      7.8821    
  7.4372      7.4370      7.8820      8.8107      11.642      18.269      29.440      44.310      60.460      74.373    
  70.640      74.393      70.637      60.456      46.628      32.495      20.833      13.125      9.3073      7.9798    
  7.3775      7.1647      7.3772      7.9797      9.3076      13.125      20.832      32.494      46.629      60.460    
  54.549      60.520      60.520      54.550      44.309      32.495      21.797      14.047      9.7476      8.0560    
  7.3453      6.9686      6.9684      7.3451      8.0562      9.7480      14.047      21.796      32.493      44.307    
  38.039      44.424      46.786      44.427      38.043      29.440      20.833      14.047      9.9245      8.1089    
  7.3315      6.8490      6.6865      6.8490      7.3315      8.1092      9.9253      14.048      20.833      29.438    
  24.271      29.613      32.763      32.764      29.615      24.271      18.270      13.125      9.7476      8.1089    
  7.3279      6.7943      6.5286      6.5287      6.7945      7.3276      8.1088      9.7489      13.127      18.272    
  14.957      18.491      21.205      22.222      21.204      18.489      14.954      11.642      9.3072      8.0560    
  7.3315      6.7943      6.4786      6.3772      6.4789      6.7941      7.3304      8.0549      9.3076      11.644    
  10.140      11.883      13.561      14.590      14.589      13.558      11.881      10.140      8.8105      7.9798    
  7.3454      6.8490      6.5285      6.3772      6.3774      6.5289      6.8488      7.3441      7.9775      8.8085    
  8.4188      9.0438      9.7547      10.344      10.573      10.343      9.7547      9.0459      8.4220      7.8821    
  7.3775      6.9686      6.6865      6.5287      6.4789      6.5289      6.6873      6.9697      7.3775      7.8800    
  7.7642      8.1036      8.4098      8.6515      8.7965      8.7968      8.6528      8.4119      8.1055      7.7643    
  7.4371      7.1647      6.9684      6.8490      6.7945      6.7941      6.8488      6.9697      7.1672      7.4391    
  7.5328      7.6553      7.7939      7.9260      8.0226      8.0588      8.0238      7.9270      7.7936      7.6532    
  7.5299      7.4370      7.3772      7.3451      7.3315      7.3276      7.3303      7.3441      7.3775      7.4391    
  7.7641      7.6553      7.5777      7.5415      7.5380      7.5455      7.5459      7.5382      7.5403      7.5752    
  7.6534      7.7643      7.8820      7.9797      8.0562      8.1092      8.1088      8.0549      7.9776      7.8800    
  8.4188      8.1036      7.7939      7.5415      7.3746      7.2884      7.2631      7.2882      7.3738      7.5404    
  7.7939      8.1057      8.4220      8.8107      9.3076      9.7480      9.9253      9.7489      9.3076      8.8085    
  10.140      9.0438      8.4098      7.9260      7.5380      7.2884      7.1723      7.1721      7.2881      7.5381    
  7.9272      8.4120      9.0458      10.140      11.642      13.125      14.047      14.048      13.127      11.644    
  14.957      11.883      9.7547      8.6515      8.0226      7.5455      7.2631      7.1721      7.2628      7.5458    
  8.0238      8.6526      9.7543      11.881      14.954      18.269      20.832      21.796      20.833      18.272    
  24.271      18.491      13.561      10.344      8.7965      8.0588      7.5459      7.2882      7.2880      7.5458    
  8.0591      8.7966      10.342      13.558      18.489      24.271      29.440      32.494      32.493      29.438    
  38.039      29.613      21.205      14.590      10.573      8.7968      8.0237      7.5381      7.3738      7.5381    
  8.0238      8.7966      10.572      14.589      21.205      29.615      38.043      44.310      46.629      44.307    
  54.549      44.424      32.763      22.222      14.589      10.343      8.6528      7.9270      7.5403      7.5404    
  7.9272      8.6526      10.342      14.589      22.223      32.765      44.425      54.550      60.460      60.460    
  70.640      60.520      46.786      32.764      21.204      13.558      9.7547      8.4120      7.7936      7.5752    
  7.7939      8.4120      9.7543      13.558      21.205      32.765      46.784      60.517      70.637      74.373    
  82.473      74.393      60.520      44.427      29.615      18.489      11.881      9.0460      8.1055      7.6532    
  7.6534      8.1057      9.0458      11.881      18.489      29.615      44.425      60.517      74.389      82.471    
  57.532      54.627      46.764      36.134      25.396      16.747      11.274      8.7340      7.7852      7.2405    
  7.0531      7.2405      7.7852      8.7340      11.274      16.747      25.396      36.134      46.764      54.627    
  54.628      54.627      49.226      39.984      29.374      19.854      13.063      9.3860      7.9547      7.2791    
  6.9210      6.9209      7.2790      7.9549      9.3863      13.063      19.854      29.375      39.986      49.228    
  46.766      49.273      46.764      39.984      30.857      21.723      14.498      10.074      8.1107      7.3109    
  6.8209      6.6548      6.8206      7.3109      8.1110      10.074      14.498      21.722      30.857      39.986    
  36.133      40.108      40.108      36.134      29.374      21.723      15.047      10.520      8.2520      7.3286    
  6.7526      6.4594      6.4592      6.7524      7.3286      8.2521      10.520      15.046      21.721      29.373    
  25.394      29.583      31.144      29.584      25.396      19.854      14.498      10.520      8.3112      7.3348    
  6.7134      6.3357      6.2124      6.3358      6.7134      7.3348      8.3114      10.521      14.498      19.853    
  16.747      20.135      22.167      22.167      20.136      16.747      13.063      10.074      8.2520      7.3348    
  6.7006      6.2770      6.0738      6.0740      6.2772      6.7005      7.3347      8.2526      10.076      13.065    
  11.276      13.387      15.057      15.691      15.056      13.386      11.274      9.3860      8.1107      7.3286    
  6.7134      6.2770      6.0298      5.9517      6.0300      6.2770      6.7129      7.3281      8.1110      9.3872    
  8.7338      9.7173      10.684      11.289      11.288      10.683      9.7164      8.7340      7.9547      7.3109    
  6.7526      6.3357      6.0738      5.9517      5.9517      6.0739      6.3356      6.7520      7.3098      7.9537    
  7.7834      8.2705      8.7163      9.0624      9.1953      9.0619      8.7163      8.2717      7.7852      7.2791    
  6.8209      6.4594      6.2124      6.0740      6.0300      6.0740      6.2127      6.4599      6.8209      7.2780    
  7.2404      7.5780      7.8898      8.1289      8.2582      8.2583      8.1294      7.8909      7.5790      7.2405    
  6.9210      6.6548      6.4592      6.3358      6.2772      6.2770      6.3356      6.4599      6.6562      6.9221    
  7.0546      7.2120      7.3790      7.5311      7.6392      7.6787      7.6397      7.5315      7.3787      7.2109    
  7.0531      6.9209      6.8207      6.7525      6.7134      6.7005      6.7129      6.7520      6.8209      6.9221    
  7.2404      7.2120      7.2060      7.2242      7.2549      7.2781      7.2783      7.2551      7.2236      7.2046    
  7.2110      7.2405      7.2790      7.3109      7.3286      7.3348      7.3347      7.3281      7.3098      7.2780    
  7.7834      7.5780      7.3790      7.2242      7.1284      7.0831      7.0708      7.0831      7.1282      7.2237    
  7.3790      7.5792      7.7852      7.9549      8.1110      8.2521      8.3115      8.2526      8.1110      7.9537    
  8.7338      8.2705      7.8898      7.5311      7.2549      7.0831      7.0051      7.0050      7.0830      7.2550    
  7.5317      7.8909      8.2715      8.7340      9.3863      10.074      10.520      10.521      10.076      9.3872    
  11.276      9.7173      8.7163      8.1289      7.6392      7.2781      7.0709      7.0050      7.0706      7.2781    
  7.6397      8.1294      8.7161      9.7161      11.274      13.063      14.497      15.046      14.498      13.065    
  16.747      13.387      10.684      9.0624      8.2582      7.6787      7.2783      7.0831      7.0829      7.2781    
  7.6788      8.2583      9.0618      10.683      13.386      16.747      19.854      21.722      21.721      19.853    
  25.394      20.135      15.057      11.289      9.1954      8.2583      7.6397      7.2551      7.1282      7.2550    
  7.6397      8.2583      9.1951      11.289      15.057      20.136      25.396      29.375      30.857      29.373    
  36.133      29.583      22.167      15.691      11.288      9.0619      8.1294      7.5315      7.2236      7.2237    
  7.5317      8.1294      9.0618      11.289      15.692      22.168      29.584      36.134      39.986      39.985    
  46.766      40.108      31.144      22.167      15.056      10.683      8.7163      7.8909      7.3787      7.2046    
  7.3790      7.8909      8.7161      10.683      15.057      22.168      31.143      40.106      46.764      49.228    
  54.628      49.273      40.108      29.584      20.136      13.386      9.7164      8.2717      7.5790      7.2109    
  7.2110      7.5792      8.2715      9.7161      13.386      20.136      29.584      40.106      49.271      54.627    
  33.977      32.291      27.760      21.744      15.886      11.474      8.9687      7.8709      7.2097      6.7975    
  6.6612      6.7975      7.2097      7.8709      8.9687      11.474      15.886      21.744      27.760      32.291    
  32.291      32.291      29.156      23.860      17.946      12.911      9.6278      8.0417      7.2768      6.7506    
  6.4877      6.4876      6.7506      7.2770      8.0420      9.6280      12.911      17.946      23.860      29.157    
  27.760      29.216      27.760      23.860      18.726      13.805      10.194      8.2151      7.3141      6.7107    
  6.3453      6.2260      6.3451      6.7106      7.3143      8.2153      10.194      13.804      18.726      23.860    
  21.743      24.018      24.018      21.744      17.946      13.805      10.418      8.3354      7.3261      6.6780    
  6.2395      6.0275      6.0274      6.2393      6.6779      7.3261      8.3352      10.418      13.804      17.946    
  15.885      18.209      19.088      18.210      15.886      12.911      10.194      8.3354      7.3281      6.6586    
  6.1740      5.8963      5.8082      5.8964      6.1740      6.6585      7.3280      8.3354      10.194      12.910    
  11.474      13.256      14.354      14.354      13.256      11.474      9.6278      8.2151      7.3261      6.6586    
  6.1517      5.8315      5.6825      5.6826      5.8317      6.1518      6.6585      7.3263      8.2157      9.6283    
  8.9693      10.018      10.871      11.201      10.871      10.017      8.9687      8.0417      7.3141      6.6780    
  6.1740      5.8315      5.6418      5.5824      5.6420      5.8316      6.1739      6.6779      7.3143      8.0422    
  7.8707      8.4409      8.9496      9.2625      9.2623      8.9492      8.4407      7.8709      7.2768      6.7107    
  6.2395      5.8963      5.6824      5.5824      5.5823      5.6824      5.8963      6.2393      6.7103      7.2764    
  7.2089      7.6658      8.0539      8.3132      8.4044      8.3129      8.0539      7.6663      7.2097      6.7506    
  6.3453      6.0275      5.8081      5.6826      5.6420      5.6824      5.8081      6.0276      6.3453      6.7502    
  6.7974      7.1267      7.4348      7.6752      7.8071      7.8071      7.6753      7.4351      7.1270      6.7975    
  6.4877      6.2260      6.0274      5.8964      5.8318      5.8316      5.8962      6.0276      6.2265      6.4880    
  6.6618      6.8565      7.0543      7.2292      7.3509      7.3948      7.3510      7.2292      7.0541      6.8560    
  6.6612      6.4876      6.3451      6.2393      6.1740      6.1518      6.1738      6.2393      6.3453      6.4880    
  6.7974      6.8565      6.9295      7.0102      7.0825      7.1259      7.1260      7.0826      7.0100      6.9290    
  6.8561      6.7975      6.7506      6.7106      6.6779      6.6585      6.6585      6.6779      6.7103      6.7502    
  7.2089      7.1267      7.0543      7.0102      6.9962      6.9994      7.0031      6.9996      6.9963      7.0101    
  7.0543      7.1271      7.2097      7.2770      7.3143      7.3261      7.3280      7.3263      7.3143      7.2764    
  7.8707      7.6658      7.4349      7.2292      7.0825      6.9994      6.9654      6.9654      6.9995      7.0825    
  7.2294      7.4352      7.6662      7.8709      8.0420      8.2153      8.3353      8.3354      8.2157      8.0422    
  8.9693      8.4409      8.0539      7.6752      7.3509      7.1259      7.0031      6.9654      7.0029      7.1258    
  7.3510      7.6753      8.0537      8.4404      8.9687      9.6280      10.194      10.418      10.194      9.6283    
  11.474      10.018      8.9496      8.3132      7.8071      7.3948      7.1260      6.9996      6.9995      7.1258    
  7.3947      7.8072      8.3130      8.9490      10.017      11.474      12.911      13.804      13.804      12.910    
  15.885      13.256      10.871      9.2625      8.4044      7.8071      7.3510      7.0826      6.9963      7.0825    
  7.3510      7.8072      8.4045      9.2624      10.871      13.256      15.886      17.946      18.726      17.946    
  21.743      18.209      14.354      11.201      9.2623      8.3129      7.6752      7.2292      7.0100      7.0101    
  7.2294      7.6753      8.3130      9.2624      11.201      14.354      18.209      21.744      23.860      23.860    
  27.760      24.018      19.088      14.354      10.871      8.9492      8.0539      7.4351      7.0541      6.9290    
  7.0543      7.4352      8.0538      8.9490      10.871      14.354      19.088      24.018      27.760      29.157    
  32.291      29.216      24.018      18.210      13.256      10.017      8.4407      7.6663      7.1270      6.8560    
  6.8561      7.1271      7.6662      8.4404      10.017      13.256      18.209      24.018      29.216      32.291    
  18.537      17.738      15.628      12.935      10.487      8.8213      7.9070      7.2611      6.7791      6.4977    
  6.4075      6.4978      6.7791      7.2611      7.9070      8.8213      10.487      12.935      15.628      17.738    
  17.738      17.738      16.255      13.819      11.240      9.2242      8.0234      7.3028      6.7380      6.3653    
  6.1873      6.1873      6.3652      6.7380      7.3030      8.0236      9.2242      11.240      13.819      16.255    
  15.628      16.317      15.628      13.819      11.534      9.4935      8.1234      7.3202      6.7016      6.2570    