   2   2   0   0
  0.8799263E+01  0.2283400E-09  0.2283400E-09  0.3897460E-09  0.5000000E-15
  1.000000000000000E-004
  CAR 
 unknown system                          
     78.65820078     -4.86101362  301      8.66195068      1.00000000
     -4.861  0.0000E+00  0.0000E+00
     -4.583  0.0000E+00  0.0000E+00
     -4.304  0.0000E+00  0.0000E+00
     -4.026  0.0000E+00  0.0000E+00
     -3.747  0.0000E+00  0.0000E+00
     -3.469  0.0000E+00  0.0000E+00
     -3.191  0.0000E+00  0.0000E+00
     -2.912 -0.1223E-38 -0.3404E-39
     -2.634 -0.2210E-28 -0.6152E-29
     -2.355 -0.8040E-20 -0.2238E-20
     -2.077 -0.5610E-13 -0.1562E-13
     -1.799 -0.7768E-08 -0.2163E-08
     -1.520 -0.1971E-04 -0.5490E-05
     -1.242 -0.4067E-03 -0.1187E-03
     -0.963  0.8369E-02  0.2211E-02
     -0.685  0.4461E-01  0.1463E-01
     -0.407  0.8904E-01  0.3942E-01
     -0.128  0.5721E-01  0.5535E-01
      0.150  0.1264E+00  0.9055E-01
      0.429  0.1673E+00  0.1371E+00
      0.707  0.1601E+00  0.1817E+00
      0.985  0.9900E-01  0.2093E+00
      1.264  0.1763E+00  0.2584E+00
      1.542  0.3255E+00  0.3490E+00
      1.821  0.2464E+00  0.4176E+00
      2.099  0.3100E+00  0.5039E+00
      2.377  0.2053E+00  0.5610E+00
      2.656  0.5434E+00  0.7123E+00
      2.934  0.1493E+01  0.1128E+01
      3.213  0.1658E+01  0.1589E+01
      3.491  0.2041E+01  0.2158E+01
      3.769  0.2584E+01  0.2877E+01
      4.048  0.2457E+01  0.3561E+01
      4.326  0.2112E+01  0.4149E+01
      4.604  0.2018E+01  0.4711E+01
      4.883  0.2831E+01  0.5499E+01
      5.161  0.2586E+01  0.6219E+01
      5.440  0.2601E+01  0.6943E+01
      5.718  0.2004E+01  0.7501E+01
      5.996  0.1792E+01  0.8000E+01
      6.275  0.2952E+01  0.8821E+01
      6.553  0.3349E+01  0.9754E+01
      6.832  0.3264E+01  0.1066E+02
      7.110  0.3351E+01  0.1160E+02
      7.388  0.3717E+01  0.1263E+02
      7.667  0.3213E+01  0.1352E+02
      7.945  0.2409E+01  0.1420E+02
      8.224  0.2309E+01  0.1484E+02
      8.502  0.2761E+01  0.1561E+02
      8.780  0.2245E+01  0.1623E+02
      9.059  0.1801E+01  0.1673E+02
      9.337  0.3425E+01  0.1769E+02
      9.616  0.4267E+01  0.1887E+02
      9.894  0.4253E+01  0.2006E+02
     10.172  0.3555E+01  0.2105E+02
     10.451  0.6542E+00  0.2123E+02
     10.729  0.9597E-01  0.2126E+02
     11.008  0.4127E+00  0.2137E+02
     11.286  0.9879E+00  0.2165E+02
     11.564  0.6354E+00  0.2182E+02
     11.843  0.2524E+00  0.2189E+02
     12.121  0.6460E+00  0.2207E+02
     12.400  0.4589E+00  0.2220E+02
     12.678  0.2669E+00  0.2228E+02
     12.956  0.1692E+00  0.2232E+02
     13.235  0.7579E+00  0.2253E+02
     13.513  0.5906E+00  0.2270E+02
     13.792  0.3980E+00  0.2281E+02
     14.070  0.2225E+00  0.2287E+02
     14.348  0.3626E+00  0.2297E+02
     14.627  0.3837E+00  0.2308E+02
     14.905  0.4607E+00  0.2321E+02
     15.184  0.3130E+00  0.2329E+02
     15.462  0.2480E+00  0.2336E+02
     15.740  0.2830E+00  0.2344E+02
     16.019  0.3150E+00  0.2353E+02
     16.297  0.3417E+00  0.2363E+02
     16.576  0.5156E+00  0.2377E+02
     16.854  0.3271E+00  0.2386E+02
     17.132  0.9893E-01  0.2389E+02
     17.411  0.6015E-01  0.2390E+02
     17.689  0.1593E+00  0.2395E+02
     17.968  0.7980E-01  0.2397E+02
     18.246  0.1811E+00  0.2402E+02
     18.524  0.2416E+00  0.2409E+02
     18.803  0.2475E+00  0.2416E+02
     19.081  0.4059E+00  0.2427E+02
     19.360  0.2751E+00  0.2435E+02
     19.638  0.4572E+00  0.2447E+02
     19.916  0.7877E+00  0.2469E+02
     20.195  0.8196E+00  0.2492E+02
     20.473  0.7463E+00  0.2513E+02
     20.752  0.5156E+00  0.2527E+02
     21.030  0.3655E+00  0.2537E+02
     21.308  0.8098E+00  0.2560E+02
     21.587  0.5376E+00  0.2575E+02
     21.865  0.9097E+00  0.2600E+02
     22.144  0.5621E+00  0.2616E+02
     22.422  0.5499E+00  0.2631E+02
     22.700  0.7222E+00  0.2651E+02
     22.979  0.7749E+00  0.2673E+02
     23.257  0.6348E+00  0.2691E+02
     23.536  0.6031E+00  0.2707E+02
     23.814  0.6859E+00  0.2727E+02
     24.092  0.5871E+00  0.2743E+02
     24.371  0.6758E+00  0.2762E+02
     24.649  0.3714E+00  0.2772E+02
     24.928  0.5223E+00  0.2787E+02
     25.206  0.5770E+00  0.2803E+02
     25.484  0.5880E+00  0.2819E+02
     25.763  0.6903E+00  0.2838E+02
     26.041  0.5805E+00  0.2854E+02
     26.319  0.5943E+00  0.2871E+02
     26.598  0.7561E+00  0.2892E+02
     26.876  0.1112E+01  0.2923E+02
     27.155  0.5145E+00  0.2937E+02
     27.433  0.8148E+00  0.2960E+02
     27.711  0.1067E+01  0.2990E+02
     27.990  0.6538E+00  0.3008E+02
     28.268  0.6867E+00  0.3027E+02
     28.547  0.9023E+00  0.3052E+02
     28.825  0.7298E+00  0.3072E+02
     29.103  0.7690E+00  0.3094E+02
     29.382  0.1237E+01  0.3128E+02
     29.660  0.1035E+01  0.3157E+02
     29.939  0.5805E+00  0.3173E+02
     30.217  0.1016E+01  0.3201E+02
     30.495  0.6396E+00  0.3219E+02
     30.774  0.6114E+00  0.3236E+02
     31.052  0.1061E+01  0.3266E+02
     31.331  0.1061E+01  0.3295E+02
     31.609  0.6563E+00  0.3314E+02
     31.887  0.7969E+00  0.3336E+02
     32.166  0.1028E+01  0.3364E+02
     32.444  0.1029E+01  0.3393E+02
     32.723  0.7391E+00  0.3414E+02
     33.001  0.5056E+00  0.3428E+02
     33.279  0.3383E+00  0.3437E+02
     33.558  0.8218E+00  0.3460E+02
     33.836  0.9582E+00  0.3487E+02
     34.115  0.7570E+00  0.3508E+02
     34.393  0.6493E+00  0.3526E+02
     34.671  0.6114E+00  0.3543E+02
     34.950  0.6884E+00  0.3562E+02
     35.228  0.8489E+00  0.3586E+02
     35.507  0.5124E+00  0.3600E+02
     35.785  0.4043E+00  0.3611E+02
     36.063  0.4643E+00  0.3624E+02
     36.342  0.5336E+00  0.3639E+02
     36.620  0.8808E+00  0.3663E+02
     36.899  0.7253E+00  0.3684E+02
     37.177  0.9237E+00  0.3709E+02
     37.455  0.9757E+00  0.3737E+02
     37.734  0.8324E+00  0.3760E+02
     38.012  0.6419E+00  0.3778E+02
     38.291  0.6995E+00  0.3797E+02
     38.569  0.6979E+00  0.3817E+02
     38.847  0.1102E+01  0.3847E+02
     39.126  0.1053E+01  0.3876E+02
     39.404  0.7517E+00  0.3897E+02
     39.683  0.7024E+00  0.3917E+02
     39.961  0.8796E+00  0.3941E+02
     40.239  0.7165E+00  0.3961E+02
     40.518  0.8999E+00  0.3986E+02
     40.796  0.8680E+00  0.4011E+02
     41.075  0.6689E+00  0.4029E+02
     41.353  0.8856E+00  0.4054E+02
     41.631  0.1013E+01  0.4082E+02
     41.910  0.4899E+00  0.4096E+02
     42.188  0.6975E+00  0.4115E+02
     42.467  0.6740E+00  0.4134E+02
     42.745  0.9958E+00  0.4162E+02
     43.023  0.7680E+00  0.4183E+02
     43.302  0.8829E+00  0.4208E+02
     43.580  0.8732E+00  0.4232E+02
     43.859  0.7284E+00  0.4252E+02
     44.137  0.7225E+00  0.4272E+02
     44.415  0.8184E+00  0.4295E+02
     44.694  0.1174E+01  0.4328E+02
     44.972  0.9945E+00  0.4355E+02
     45.251  0.4689E+00  0.4369E+02
     45.529  0.6012E+00  0.4385E+02
     45.807  0.6060E+00  0.4402E+02
     46.086  0.7476E+00  0.4423E+02
     46.364  0.6410E+00  0.4441E+02
     46.643  0.8938E+00  0.4466E+02
     46.921  0.1237E+01  0.4500E+02
     47.199  0.1071E+01  0.4530E+02
     47.478  0.1283E+01  0.4566E+02
     47.756  0.9612E+00  0.4592E+02
     48.034  0.7740E+00  0.4614E+02
     48.313  0.7625E+00  0.4635E+02
     48.591  0.1057E+01  0.4665E+02
     48.870  0.1266E+01  0.4700E+02
     49.148  0.9674E+00  0.4727E+02
     49.426  0.8659E+00  0.4751E+02
     49.705  0.1184E+01  0.4784E+02
     49.983  0.1158E+01  0.4816E+02
     50.262  0.1032E+01  0.4845E+02
     50.540  0.8618E+00  0.4869E+02
     50.818  0.7486E+00  0.4890E+02
     51.097  0.5377E+00  0.4905E+02
     51.375  0.6924E+00  0.4924E+02
     51.654  0.1003E+01  0.4952E+02
     51.932  0.5961E+00  0.4968E+02
     52.210  0.4097E+00  0.4980E+02
     52.489  0.1078E+01  0.5010E+02
     52.767  0.6754E+00  0.5029E+02
     53.046  0.1278E+01  0.5064E+02
     53.324  0.1086E+01  0.5094E+02
     53.602  0.7518E+00  0.5115E+02
     53.881  0.1119E+01  0.5147E+02
     54.159  0.1356E+01  0.5184E+02
     54.438  0.1155E+01  0.5216E+02
     54.716  0.8951E+00  0.5241E+02
     54.994  0.6970E+00  0.5261E+02
     55.273  0.6228E+00  0.5278E+02
     55.551  0.9975E+00  0.5306E+02
     55.830  0.1091E+01  0.5336E+02
     56.108  0.1340E+01  0.5374E+02
     56.386  0.1319E+01  0.5410E+02
     56.665  0.7996E+00  0.5432E+02
     56.943  0.1414E+01  0.5472E+02
     57.222  0.8808E+00  0.5496E+02
     57.500  0.1380E+01  0.5535E+02
     57.778  0.1212E+01  0.5569E+02
     58.057  0.1094E+01  0.5599E+02
     58.335  0.1109E+01  0.5630E+02
     58.614  0.1107E+01  0.5661E+02
     58.892  0.1188E+01  0.5694E+02
     59.170  0.1259E+01  0.5729E+02
     59.449  0.1125E+01  0.5760E+02
     59.727  0.1217E+01  0.5794E+02
     60.006  0.1515E+01  0.5836E+02
     60.284  0.1356E+01  0.5874E+02
     60.562  0.1409E+01  0.5913E+02
     60.841  0.1414E+01  0.5953E+02
     61.119  0.1429E+01  0.5992E+02
     61.398  0.1738E+01  0.6041E+02
     61.676  0.1871E+01  0.6093E+02
     61.954  0.1612E+01  0.6138E+02
     62.233  0.2468E+01  0.6206E+02
     62.511  0.1901E+01  0.6259E+02
     62.790  0.1547E+01  0.6302E+02
     63.068  0.2288E+01  0.6366E+02
     63.346  0.2925E+01  0.6448E+02
     63.625  0.2559E+01  0.6519E+02
     63.903  0.2668E+01  0.6593E+02
     64.182  0.2095E+01  0.6651E+02
     64.460  0.1683E+01  0.6698E+02
     64.738  0.1628E+01  0.6744E+02
     65.017  0.1460E+01  0.6784E+02
     65.295  0.1230E+01  0.6818E+02
     65.574  0.1787E+01  0.6868E+02
     65.852  0.1264E+01  0.6903E+02
     66.130  0.1612E+01  0.6948E+02
     66.409  0.1507E+01  0.6990E+02
     66.687  0.1235E+01  0.7025E+02
     66.966  0.1221E+01  0.7059E+02
     67.244  0.1511E+01  0.7101E+02
     67.522  0.1510E+01  0.7143E+02
     67.801  0.1079E+01  0.7173E+02
     68.079  0.8712E+00  0.7197E+02
     68.357  0.1144E+01  0.7229E+02
     68.636  0.1950E+01  0.7283E+02
     68.914  0.1234E+01  0.7317E+02
     69.193  0.1470E+01  0.7358E+02
     69.471  0.1768E+01  0.7408E+02
     69.749  0.1883E+01  0.7460E+02
     70.028  0.1120E+01  0.7491E+02
     70.306  0.8290E+00  0.7514E+02
     70.585  0.1382E+01  0.7553E+02
     70.863  0.1203E+01  0.7586E+02
     71.141  0.1532E+01  0.7629E+02
     71.420  0.1311E+01  0.7665E+02
     71.698  0.1522E+01  0.7708E+02
     71.977  0.1044E+01  0.7737E+02
     72.255  0.7551E+00  0.7758E+02
     72.533  0.1481E+01  0.7799E+02
     72.812  0.1683E+01  0.7846E+02
     73.090  0.1110E+01  0.7877E+02
     73.369  0.9581E+00  0.7904E+02
     73.647  0.6444E+00  0.7922E+02
     73.925  0.1169E+01  0.7954E+02
     74.204  0.1004E+01  0.7982E+02
     74.482  0.4192E+00  0.7994E+02
     74.761  0.1443E+00  0.7998E+02
     75.039  0.8572E-01  0.8000E+02
     75.317 -0.2594E-02  0.8000E+02
     75.596 -0.2101E-03  0.8000E+02
     75.874 -0.9008E-07  0.8000E+02
     76.153 -0.6668E-12  0.8000E+02
     76.431  0.0000E+00  0.8000E+02
     76.709  0.0000E+00  0.8000E+02
     76.988  0.0000E+00  0.8000E+02
     77.266  0.0000E+00  0.8000E+02
     77.545  0.0000E+00  0.8000E+02
     77.823  0.0000E+00  0.8000E+02
     78.101  0.0000E+00  0.8000E+02
     78.380  0.0000E+00  0.8000E+02
     78.658  0.0000E+00  0.8000E+02
