    2    2    1    1
  0.8799263E+01  0.2283400E-09  0.2283400E-09  0.3897460E-09  0.5000000E-15
  1.000000000000000E-004
  CAR 
 unknown system                          
     16     96     40
 
  0.0000000E+00  0.0000000E+00  0.0000000E+00  0.7513148E-03
    1       -1.064686   1.000000
    2        2.831493   1.000000
    3        6.218098   1.000000
    4        6.713516   1.000000
    5        6.713567   1.000000
    6        7.154721   1.000000
    7        7.154781   1.000000
    8        8.110928   1.000344
    9        8.110944   1.000344
   10        8.278210   1.010303
   11        9.592582  -0.000000
   12        9.592599  -0.000000
   13       17.950880   0.000000
   14       32.914788   0.000000
   15       34.689987   0.000000
   16       36.520889   0.000000
   17       39.584736   0.000000
   18       39.584811   0.000000
   19       40.264579   0.000000
   20       40.264764   0.000000
   21       42.940755   0.000000
   22       42.940770   0.000000
   23       43.156457   0.000000
   24       44.102587   0.000000
   25       47.574277   0.000000
   26       47.574286   0.000000
   27       49.392724   0.000000
   28       51.961983   0.000000
   29       51.962417   0.000000
   30       53.862845   0.000000
   31       53.863048   0.000000
   32       57.568750   0.000000
   33       64.824450   0.000000
   34       65.434249   0.000000
   35       65.435147   0.000000
   36       65.586492   0.000000
   37       67.021624   0.000000
   38       69.232090   0.000000
   39       69.233192   0.000000
   40       72.807162   0.000000
 
  0.9090909E-01  0.4340745E-17  0.0000000E+00  0.4507889E-02
    1       -0.700626   1.000000
    2        3.098188   1.000000
    3        6.118024   1.000000
    4        6.742909   1.000000
    5        6.943307   1.000000
    6        7.030663   1.000000
    7        7.092125   1.000000
    8        7.365462   1.000000
    9        7.968958   1.000005
   10        7.980201   1.000008
   11        9.644664  -0.000000
   12       11.029280  -0.000000
   13       17.963864   0.000000
   14       31.961399   0.000000
   15       34.979545   0.000000
   16       35.026639   0.000000
   17       36.591436   0.000000
   18       38.735978   0.000000
   19       38.776365   0.000000
   20       42.546121   0.000000
   21       42.934772   0.000000
   22       43.436239   0.000000
   23       44.172489   0.000000
   24       44.591375   0.000000
   25       48.650539   0.000000
   26       48.750076   0.000000
   27       49.497977   0.000000
   28       49.735106   0.000000
   29       53.198002   0.000000
   30       55.601791   0.000000
   31       56.291678   0.000000
   32       58.947969   0.000000
   33       63.787527   0.000000
   34       64.568967   0.000000
   35       64.794293   0.000000
   36       66.001218   0.000000
   37       66.011812   0.000000
   38       69.696170   0.000000
   39       71.521449   0.000000
   40       72.876207   0.000000
 
  0.1818182E+00  0.5084367E-17  0.0000000E+00  0.4507889E-02
    1        0.318087   1.000000
    2        3.710029   1.000000
    3        5.723272   1.000000
    4        5.751630   1.000000
    5        6.573832   1.000000
    6        7.286226   1.000000
    7        7.582990   1.000000
    8        7.607154   1.000000
    9        7.632867   1.000000
   10        7.945437   1.000002
   11        9.737982  -0.000000
   12       13.172552  -0.000000
   13       18.020335   0.000000
   14       28.480984   0.000000
   15       33.520609   0.000000
   16       33.738900   0.000000
   17       34.319768   0.000000
   18       35.661831   0.000000
   19       39.776910   0.000000
   20       41.853011   0.000000
   21       41.882827   0.000000
   22       42.402330   0.000000
   23       44.896701   0.000000
   24       46.717492   0.000000
   25       48.880594   0.000000
   26       49.543478   0.000000
   27       51.223935   0.000000
   28       53.691669   0.000000
   29       56.674191   0.000000
   30       58.309276   0.000000
   31       59.077840   0.000000
   32       61.256457   0.000000
   33       62.176879   0.000000
   34       63.243430   0.000000
   35       63.574110   0.000000
   36       64.202536   0.000000
   37       67.138282   0.000000
   38       70.276479   0.000000
   39       72.828151   0.000000
   40       72.894415   0.000000
 
  0.2727273E+00  0.3914717E-16  0.0000000E+00  0.4507889E-02
    1        1.720142   1.000000
    2        3.957795   1.000000
    3        4.645589   1.000000
    4        5.656677   1.000000
    5        6.409342   1.000000
    6        7.143297   1.000000
    7        7.253396   1.000000
    8        8.186915   1.001986
    9        8.491527   1.002205
   10        8.758927   0.138320
   11        9.802677  -0.000000
   12       15.514684   0.000000
   13       18.139061   0.000000
   14       24.464959   0.000000
   15       30.622985   0.000000
   16       30.858550   0.000000
   17       32.353472   0.000000
   18       35.200142   0.000000
   19       38.504959   0.000000
   20       41.343710   0.000000
   21       42.310280   0.000000
   22       42.557025   0.000000
   23       42.618636   0.000000
   24       46.974241   0.000000
   25       52.235934   0.000000
   26       54.020142   0.000000
   27       54.787673   0.000000
   28       56.933655   0.000000
   29       58.257078   0.000000
   30       58.912159   0.000000
   31       60.707207   0.000000
   32       62.173606   0.000000
   33       62.315808   0.000000
   34       63.217459   0.000000
   35       63.679906   0.000000
   36       66.478119   0.000000
   37       66.743187   0.000000
   38       70.791061   0.000000
   39       72.565192   0.000000
   40       72.714807   0.000000
 
  0.3636364E+00 -0.4174529E-16  0.0000000E+00  0.4507889E-02
    1        2.863658   1.000000
    2        3.646818   1.000000
    3        3.910382   1.000000
    4        5.965105   1.000000
    5        6.737294   1.000000
    6        6.800080   1.000000
    7        6.943027   1.000000
    8        9.409700  -0.000001
    9        9.586764  -0.000000
   10        9.619764  -0.000000
   11        9.831927  -0.000000
   12       17.662230   0.000000
   13       17.962992   0.000000
   14       21.728811   0.000000
   15       27.318819   0.000000
   16       28.811180   0.000000
   17       29.765603   0.000000
   18       34.159247   0.000000
   19       37.209779   0.000000
   20       40.453154   0.000000
   21       41.035914   0.000000
   22       43.407769   0.000000
   23       44.759717   0.000000
   24       47.359232   0.000000
   25       55.519777   0.000000
   26       55.895092   0.000000
   27       56.095564   0.000000
   28       59.165787   0.000000
   29       59.814833   0.000000
   30       60.242159   0.000000
   31       62.270525   0.000000
   32       62.971792   0.000000
   33       63.052985   0.000000
   34       64.153204   0.000000
   35       64.623085   0.000000
   36       66.512215   0.000000
   37       70.876394   0.000000
   38       71.229755   0.000000
   39       71.815733   0.000000
   40       71.873436   0.000000
 
  0.4545455E+00  0.6316907E-18  0.0000000E+00  0.4507889E-02
    1        3.148402   1.000000
    2        3.487153   1.000000
    3        3.538227   1.000000
    4        6.504481   1.000000
    5        6.584999   1.000000
    6        6.773498   1.000000
    7        7.090135   1.000000
    8        9.840864  -0.000000
    9        9.980348  -0.000000
   10       10.150950  -0.000000
   11       11.523799  -0.000000
   12       15.391247   0.000000
   13       20.236832   0.000000
   14       21.872495   0.000000
   15       24.644693   0.000000
   16       27.170527   0.000000
   17       27.653031   0.000000
   18       33.457079   0.000000
   19       36.782909   0.000000
   20       39.227833   0.000000
   21       41.020683   0.000000
   22       44.272231   0.000000
   23       46.907585   0.000000
   24       47.689242   0.000000
   25       52.227147   0.000000
   26       57.383714   0.000000
   27       57.887654   0.000000
   28       60.767329   0.000000
   29       61.797495   0.000000
   30       62.038386   0.000000
   31       63.325291   0.000000
   32       63.619054   0.000000
   33       64.022704   0.000000
   34       66.640317   0.000000
   35       66.747549   0.000000
   36       69.276780   0.000000
   37       69.484839   0.000000
   38       69.728377   0.000000
   39       71.935921   0.000000
   40       72.020358   0.000000
 
  0.9090909E-01  0.9090909E-01  0.0000000E+00  0.4507889E-02
    1       -0.005661   1.000000
    2        3.559711   1.000000
    3        5.813141   1.000000
    4        6.089142   1.000000
    5        6.786371   1.000000
    6        6.934886   1.000000
    7        7.410325   1.000000
    8        7.480202   1.000000
    9        7.820290   1.000000
   10        7.972740   1.000006
   11        9.681631  -0.000000
   12       12.582706  -0.000000
   13       18.001970   0.000000
   14       30.109271   0.000000
   15       31.814754   0.000000
   16       35.279784   0.000000
   17       35.830577   0.000000
   18       37.377955   0.000000
   19       37.785759   0.000000
   20       40.490327   0.000000
   21       42.259921   0.000000
   22       45.800638   0.000000
   23       45.803687   0.000000
   24       46.865576   0.000000
   25       47.644455   0.000000
   26       47.998926   0.000000
   27       48.295327   0.000000
   28       53.956005   0.000000
   29       56.664607   0.000000
   30       57.430363   0.000000
   31       57.544503   0.000000
   32       60.709238   0.000000
   33       62.016176   0.000000
   34       64.059681   0.000000
   35       64.401440   0.000000
   36       64.902562   0.000000
   37       65.756352   0.000000
   38       70.628018   0.000000
   39       72.654996   0.000000
   40       72.821601   0.000000
 
  0.1818182E+00  0.9090909E-01  0.0000000E+00  0.9015778E-02
    1        1.238838   1.000000
    2        4.123214   1.000000
    3        5.041845   1.000000
    4        5.399436   1.000000
    5        6.494152   1.000000
    6        6.993417   1.000000
    7        7.456024   1.000000
    8        7.682458   1.000000
    9        8.247730   1.006311
   10        8.669850   0.466604
   11        9.712451  -0.000000
   12       14.699384   0.000000
   13       18.146125   0.000000
   14       26.499833   0.000000
   15       29.257456   0.000000
   16       32.372441   0.000000
   17       34.804770   0.000000
   18       35.333195   0.000000
   19       38.709242   0.000000
   20       40.019187   0.000000
   21       40.773378   0.000000
   22       45.352678   0.000000
   23       45.807377   0.000000
   24       46.566312   0.000000
   25       49.591364   0.000000
   26       50.418305   0.000000
   27       52.239606   0.000000
   28       57.486390   0.000000
   29       58.815186   0.000000
   30       59.745608   0.000000
   31       59.962414   0.000000
   32       61.744683   0.000000
   33       61.988181   0.000000
   34       63.364696   0.000000
   35       64.021387   0.000000
   36       64.318070   0.000000
   37       66.323585   0.000000
   38       71.252527   0.000000
   39       71.954974   0.000000
   40       72.681992   0.000000
 
  0.2727273E+00  0.9090909E-01  0.0000000E+00  0.9015778E-02
    1        2.622415   1.000000
    2        4.012939   1.000000
    3        4.229872   1.000000
    4        5.504540   1.000000
    5        6.589766   1.000000
    6        6.628710   1.000000
    7        7.247094   1.000000
    8        8.336622   1.021838
    9        9.176635  -0.000829
   10        9.728700  -0.000000
   11        9.783049  -0.000000
   12       17.061345   0.000000
   13       18.303817   0.000000
   14       22.821362   0.000000
   15       27.398218   0.000000
   16       29.027099   0.000000
   17       32.194143   0.000000
   18       33.539435   0.000000
   19       38.290617   0.000000
   20       39.476463   0.000000
   21       41.258724   0.000000
   22       45.293589   0.000000
   23       45.365859   0.000000
   24       47.835747   0.000000
   25       51.802807   0.000000
   26       54.347589   0.000000
   27       56.355239   0.000000
   28       57.482827   0.000000
   29       57.886780   0.000000
   30       61.001468   0.000000
   31       61.530386   0.000000
   32       63.033172   0.000000
   33       63.447775   0.000000
   34       64.174126   0.000000
   35       64.492305   0.000000
   36       66.005123   0.000000
   37       69.505816   0.000000
   38       70.852528   0.000000
   39       70.888097   0.000000
   40       73.198770   0.000000
 
  0.3636364E+00  0.9090909E-01  0.0000000E+00  0.9015778E-02
    1        3.343733   1.000000
    2        3.706329   1.000000
    3        3.727352   1.000000
    4        6.042867   1.000000
    5        6.454449   1.000000
    6        6.836090   1.000000
    7        6.989586   1.000000
    8        9.370385  -0.000003
    9        9.729255  -0.000000
   10        9.839015  -0.000000
   11       11.197544  -0.000000
   12       16.952467   0.000000
   13       19.494891   0.000000
   14       21.638569   0.000000
   15       25.954432   0.000000
   16       26.033954   0.000000
   17       28.985402   0.000000
   18       32.532779   0.000000
   19       37.306591   0.000000
   20       38.892857   0.000000
   21       42.054510   0.000000
   22       45.755766   0.000000
   23       46.861678   0.000000
   24       47.814567   0.000000
   25       54.116616   0.000000
   26       54.602729   0.000000
   27       57.197845   0.000000
   28       58.432695   0.000000
   29       60.373052   0.000000
   30       61.693591   0.000000
   31       62.057678   0.000000
   32       63.225451   0.000000
   33       63.765619   0.000000
   34       66.174593   0.000000
   35       67.814768   0.000000
   36       68.016076   0.000000
   37       68.466723   0.000000
   38       71.455887   0.000000
   39       72.487031   0.000000
   40       72.932157   0.000000
 
  0.4545455E+00  0.9090909E-01  0.0000000E+00  0.4507889E-02
    1        3.350852   1.000000
    2        3.557718   1.000000
    3        3.691261   1.000000
    4        6.454347   1.000000
    5        6.455168   1.000000
    6        6.624391   1.000000
    7        7.142329   1.000000
    8        9.726827  -0.000000
    9        9.947795  -0.000000
   10        9.963919  -0.000000
   11       12.555431  -0.000000
   12       15.059301   0.000000
   13       21.133175   0.000000
   14       22.319077   0.000000
   15       24.209761   0.000000
   16       25.197869   0.000000
   17       27.414701   0.000000
   18       32.172249   0.000000
   19       36.883926   0.000000
   20       38.716101   0.000000
   21       42.217796   0.000000
   22       46.598214   0.000000
   23       46.871442   0.000000
   24       48.726037   0.000000
   25       51.910334   0.000000
   26       56.624823   0.000000
   27       57.323748   0.000000
   28       59.694090   0.000000
   29       61.111096   0.000000
   30       61.372967   0.000000
   31       63.652826   0.000000
   32       63.678220   0.000000
   33       64.193830   0.000000
   34       65.105880   0.000000
   35       68.822653   0.000000
   36       70.045148   0.000000
   37       70.340902   0.000000
   38       70.497357   0.000000
   39       71.372530   0.000000
   40       73.630061   0.000000
 
  0.1818182E+00  0.1818182E+00  0.0000000E+00  0.4507889E-02
    1        2.563743   1.000000
    2        4.416117   1.000000
    3        4.584105   1.000000
    4        4.864867   1.000000
    5        6.477873   1.000000
    6        6.579757   1.000000
    7        7.441014   1.000000
    8        7.753327   1.000000
    9        9.153580  -0.001393
   10        9.619602  -0.000000
   11        9.853136  -0.000000
   12       16.771556   0.000000
   13       18.540620   0.000000
   14       24.362910   0.000000
   15       25.400881   0.000000
   16       30.359265   0.000000
   17       32.361834   0.000000
   18       34.635573   0.000000
   19       35.517826   0.000000
   20       40.992581   0.000000
   21       42.078005   0.000000
   22       46.492826   0.000000
   23       46.871714   0.000000
   24       48.857124   0.000000
   25       49.505266   0.000000
   26       51.656272   0.000000
   27       53.387485   0.000000
   28       58.854027   0.000000
   29       58.919750   0.000000
   30       60.523305   0.000000
   31       60.677674   0.000000
   32       63.059953   0.000000
   33       63.220719   0.000000
   34       64.849024   0.000000
   35       65.741371   0.000000
   36       66.532404   0.000000
   37       66.894054   0.000000
   38       70.468175   0.000000
   39       70.840000   0.000000
   40       73.995305   0.000000
 
  0.2727273E+00  0.1818182E+00  0.0000000E+00  0.9015778E-02
    1        3.753895   1.000000
    2        3.973264   1.000000
    3        4.263806   1.000000
    4        5.131371   1.000000
    5        6.211745   1.000000
    6        6.904912   1.000000
    7        6.993005   1.000000
    8        8.401674   1.034644
    9        9.539207  -0.000000
   10        9.789932  -0.000000
   11       11.331169  -0.000000
   12       18.725587   0.000000
   13       19.141579   0.000000
   14       21.624667   0.000000
   15       23.647830   0.000000
   16       27.870836   0.000000
   17       30.560260   0.000000
   18       31.173506   0.000000
   19       34.160481   0.000000
   20       42.598734   0.000000
   21       43.038685   0.000000
   22       46.793288   0.000000
   23       48.663155   0.000000
   24       49.591211   0.000000
   25       51.343833   0.000000
   26       52.929114   0.000000
   27       54.677150   0.000000
   28       56.701085   0.000000
   29       59.538763   0.000000
   30       60.723659   0.000000
   31       62.025002   0.000000
   32       62.937672   0.000000
   33       63.963851   0.000000
   34       65.672795   0.000000
   35       67.488527   0.000000
   36       68.071276   0.000000
   37       69.813698   0.000000
   38       71.157988   0.000000
   39       72.540721   0.000000
   40       73.765856   0.000000
 
  0.3636364E+00  0.1818182E+00  0.0000000E+00  0.9015778E-02
    1        3.748709   1.000000
    2        3.932380   1.000000
    3        4.171044   1.000000
    4        5.737975   1.000000
    5        6.238710   1.000000
    6        6.536980   1.000000
    7        7.214253   1.000000
    8        9.203223  -0.000439
    9        9.493432  -0.000000
   10        9.855783  -0.000000
   11       13.102142  -0.000000
   12       16.527667   0.000000
   13       21.526894   0.000000
   14       21.899283   0.000000
   15       22.968639   0.000000
   16       25.246628   0.000000
   17       28.221480   0.000000
   18       29.807017   0.000000
   19       33.482034   0.000000
   20       42.491150   0.000000
   21       44.625999   0.000000
   22       47.237994   0.000000
   23       48.953415   0.000000
   24       49.672927   0.000000
   25       53.555199   0.000000
   26       53.956660   0.000000
   27       55.742967   0.000000
   28       56.015286   0.000000
   29       59.812182   0.000000
   30       60.721563   0.000000
   31       61.462651   0.000000
   32       63.644699   0.000000
   33       63.954278   0.000000
   34       64.359263   0.000000
   35       68.498800   0.000000
   36       69.536508   0.000000
   37       71.420996   0.000000
   38       71.513790   0.000000
   39       73.008381   0.000000
   40       73.970927   0.000000
 
  0.2727273E+00  0.2727273E+00  0.0000000E+00  0.4507889E-02
    1        3.881419   1.000000
    2        4.428485   1.000000
    3        4.776724   1.000000
    4        4.849946   1.000000
    5        6.043860   1.000000
    6        6.567394   1.000000
    7        7.272161   1.000000
    8        8.717672   0.274063
    9        9.374688  -0.000003
   10        9.828243  -0.000000
   11       13.254205  -0.000000
   12       18.773209   0.000000
   13       19.252503   0.000000
   14       21.565451   0.000000
   15       23.004465   0.000000
   16       27.055872   0.000000
   17       27.628271   0.000000
   18       29.925862   0.000000
   19       30.888906   0.000000
   20       44.633513   0.000000
   21       45.702191   0.000000
   22       48.974719   0.000000
   23       50.036937   0.000000
   24       51.304095   0.000000
   25       51.389796   0.000000
   26       51.537314   0.000000
   27       54.525709   0.000000
   28       57.105893   0.000000
   29       57.428535   0.000000
   30       59.800466   0.000000
   31       61.206888   0.000000
   32       63.938473   0.000000
   33       64.046936   0.000000
   34       64.265757   0.000000
   35       68.495453   0.000000
   36       69.686519   0.000000
   37       69.726544   0.000000
   38       71.880975   0.000000
   39       73.690662   0.000000
   40       74.212809   0.000000
 
  0.3636364E+00  0.2727273E+00  0.0000000E+00  0.4507889E-02
    1        3.869897   1.000000
    2        4.545933   1.000000
    3        4.649757   1.000000
    4        5.220386   1.000000
    5        6.124385   1.000000
    6        6.246304   1.000000
    7        7.450352   1.000000
    8        9.145401  -0.001663
    9        9.311990  -0.000022
   10        9.494668  -0.000000
   11       15.093708   0.000000
   12       16.668704   0.000000
   13       18.868427   0.000000
   14       23.683006   0.000000
   15       23.961642   0.000000
   16       25.089116   0.000000
   17       27.053930   0.000000
   18       28.302044   0.000000
   19       30.250411   0.000000
   20       45.060926   0.000000
   21       47.814855   0.000000
   22       49.300115   0.000000
   23       49.840410   0.000000
   24       50.747615   0.000000
   25       52.255573   0.000000
   26       52.748975   0.000000
   27       55.671889   0.000000
   28       56.074283   0.000000
   29       56.359966   0.000000
   30       59.692731   0.000000
   31       60.869102   0.000000
   32       61.465783   0.000000
   33       64.250304   0.000000
   34       64.449676   0.000000
   35       68.491316   0.000000
   36       69.823371   0.000000
   37       72.456104   0.000000
   38       72.623603   0.000000
   39       72.624728   0.000000
   40       73.248242   0.000000
 
  0.0000000E+00  0.0000000E+00  0.9090909E-01  0.1502630E-02
    1       -0.970211   1.000000
    2        2.819156   1.000000
    3        6.186468   1.000000
    4        6.696781   1.000000
    5        6.696827   1.000000
    6        7.130716   1.000000
    7        7.130762   1.000000
    8        8.016190   1.000025
    9        8.171853   1.001441
   10        8.171869   1.001441
   11        9.583625  -0.000000
   12        9.583641  -0.000000
   13       18.361776   0.000000
   14       32.706322   0.000000
   15       34.453983   0.000000
   16       36.310526   0.000000
   17       39.653681   0.000000
   18       39.653712   0.000000
   19       40.297292   0.000000
   20       40.297435   0.000000
   21       42.899188   0.000000
   22       42.899203   0.000000
   23       43.407581   0.000000
   24       44.420910   0.000000
   25       47.270454   0.000000
   26       47.270468   0.000000
   27       49.738202   0.000000
   28       52.366357   0.000000
   29       52.366648   0.000000
   30       54.278090   0.000000
   31       54.278244   0.000000
   32       57.316363   0.000000
   33       64.195036   0.000000
   34       64.989400   0.000000
   35       65.375372   0.000000
   36       65.376004   0.000000
   37       68.469777   0.000000
   38       68.593821   0.000000
   39       68.594160   0.000000
   40       72.762694   0.000000
 
  0.9090909E-01  0.4340745E-17  0.9090909E-01  0.9015778E-02
    1       -0.608896   1.000000
    2        3.090881   1.000000
    3        6.113873   1.000000
    4        6.679429   1.000000
    5        6.807659   1.000000
    6        6.919360   1.000000
    7        7.180092   1.000000
    8        7.334777   1.000000
    9        8.040508   1.000051
   10        8.040545   1.000051
   11        9.631310  -0.000000
   12       10.844592  -0.000000
   13       18.410136   0.000000
   14       31.915587   0.000000
   15       34.437210   0.000000
   16       35.089468   0.000000
   17       36.662594   0.000000
   18       37.960748   0.000000
   19       39.549562   0.000000
   20       42.254858   0.000000
   21       42.747140   0.000000
   22       43.538710   0.000000
   23       44.202058   0.000000
   24       45.063395   0.000000
   25       48.288451   0.000000
   26       48.655123   0.000000
   27       50.034920   0.000000
   28       50.231601   0.000000
   29       53.113790   0.000000
   30       55.890778   0.000000
   31       56.575748   0.000000
   32       58.752011   0.000000
   33       62.629075   0.000000
   34       64.563597   0.000000
   35       64.780607   0.000000
   36       65.511409   0.000000
   37       67.368824   0.000000
   38       68.999821   0.000000
   39       70.427417   0.000000
   40       72.558667   0.000000
 
  0.1818182E+00  0.5084367E-17  0.9090909E-01  0.9015778E-02
    1        0.399092   1.000000
    2        3.718874   1.000000
    3        5.611993   1.000000
    4        5.778278   1.000000
    5        6.530636   1.000000
    6        7.157118   1.000000
    7        7.457289   1.000000
    8        7.766708   1.000000
    9        7.787235   1.000000
   10        7.956825   1.000004
   11        9.715182  -0.000000
   12       12.789386  -0.000000
   13       18.586861   0.000000
   14       28.536737   0.000000
   15       33.218058   0.000000
   16       33.616517   0.000000
   17       34.637651   0.000000
   18       35.248633   0.000000
   19       39.770948   0.000000
   20       41.274953   0.000000
   21       41.413257   0.000000
   22       43.107796   0.000000
   23       45.179466   0.000000
   24       47.366482   0.000000
   25       49.181182   0.000000
   26       49.573978   0.000000
   27       51.033075   0.000000
   28       53.746898   0.000000
   29       56.388016   0.000000
   30       58.537143   0.000000
   31       59.269640   0.000000
   32       60.532246   0.000000
   33       61.464983   0.000000
   34       62.959456   0.000000
   35       64.060048   0.000000
   36       65.002413   0.000000
   37       67.063095   0.000000
   38       69.737642   0.000000
   39       71.817340   0.000000
   40       72.456376   0.000000
 
  0.2727273E+00  0.3914717E-16  0.9090909E-01  0.9015778E-02
    1        1.769701   1.000000
    2        3.978206   1.000000
    3        4.611391   1.000000
    4        5.667344   1.000000
    5        6.338214   1.000000
    6        7.186922   1.000000
    7        7.281505   1.000000
    8        8.226694   1.004342
    9        8.507365   0.982793
   10        8.734831   0.213144
   11        9.774980  -0.000000
   12       14.786615   0.000000
   13       19.000283   0.000000
   14       24.539572   0.000000
   15       30.172812   0.000000
   16       30.984278   0.000000
   17       32.681998   0.000000
   18       35.075888   0.000000
   19       38.459129   0.000000
   20       40.377183   0.000000
   21       41.174629   0.000000
   22       43.383027   0.000000
   23       43.610389   0.000000
   24       47.956247   0.000000
   25       52.376101   0.000000
   26       53.923239   0.000000
   27       54.437756   0.000000
   28       55.438277   0.000000
   29       58.734076   0.000000
   30       59.768190   0.000000
   31       61.077371   0.000000
   32       61.923617   0.000000
   33       62.235393   0.000000
   34       62.663447   0.000000
   35       64.393216   0.000000
   36       66.047275   0.000000
   37       67.021118   0.000000
   38       70.390132   0.000000
   39       71.358526   0.000000
   40       73.221069   0.000000
 
  0.3636364E+00 -0.4174529E-16  0.9090909E-01  0.9015778E-02
    1        2.828244   1.000000
    2        3.610885   1.000000
    3        4.046346   1.000000
    4        5.707201   1.000000
    5        6.800442   1.000000
    6        6.989771   1.000000
    7        7.058049   1.000000
    8        9.417546  -0.000001
    9        9.516740  -0.000000
   10        9.574788  -0.000000
   11        9.832307  -0.000000
   12       16.287666   0.000000
   13       19.296172   0.000000
   14       21.895433   0.000000
   15       26.928501   0.000000
   16       28.955125   0.000000
   17       30.188946   0.000000
   18       34.154799   0.000000
   19       37.210040   0.000000
   20       39.162748   0.000000
   21       42.325127   0.000000
   22       42.423078   0.000000
   23       44.861625   0.000000
   24       48.612346   0.000000
   25       53.855454   0.000000
   26       55.840379   0.000000
   27       57.493465   0.000000
   28       58.148504   0.000000
   29       59.630907   0.000000
   30       61.139471   0.000000
   31       62.259794   0.000000
   32       63.098228   0.000000
   33       63.100258   0.000000
   34       64.366327   0.000000
   35       64.677102   0.000000
   36       66.497220   0.000000
   37       70.325497   0.000000
   38       70.822227   0.000000
   39       71.410477   0.000000
   40       72.673112   0.000000
 
  0.4545455E+00  0.6316907E-18  0.9090909E-01  0.9015778E-02
    1        3.092471   1.000000
    2        3.248241   1.000000
    3        3.915815   1.000000
    4        5.816798   1.000000
    5        6.822333   1.000000
    6        7.075143   1.000000
    7        7.376010   1.000000
    8        9.748427  -0.000000
    9        9.991391  -0.000000
   10       10.155464  -0.000000
   11       11.416307  -0.000000
   12       15.186548   0.000000
   13       20.072637   0.000000
   14       21.900592   0.000000
   15       24.812566   0.000000
   16       27.564887   0.000000
   17       27.808270   0.000000
   18       33.483229   0.000000
   19       36.779080   0.000000
   20       38.241487   0.000000
   21       41.977936   0.000000