 vasp.6.2.0 18Jan21 (build Mar 17 2021 09:06:54) complex                        
  
 executed on             LinuxIFC date 2021.09.09  12:00:51
 serial version


--------------------------------------------------------------------------------------------------------


 INCAR:
   ENCUT = 280.000000
   SIGMA = 0.200000
   EDIFF = 1.00e-06
   GGA = PE
   PREC = normal
   IBRION = 1
   ICHARG = 1
   ISIF = 2
   ISMEAR = 1
   KPAR = 1
   NBANDS = 40
   NSW = 0
   NCORE = 1
   LCHARG = .TRUE.

 POTCAR:    PAW_PBE Fe 06Sep2000                  
 POTCAR:    PAW_PBE Fe 06Sep2000                  
   SHA256 =  cd5a22d9368cc8b5cc476bea79732366149640da08ac9009b0e1b7fc627eea28 Fe/POTCAR             
   COPYR  = (c) Copyright 06Sep2000 Georg Kresse                                                    
   COPYR  = This file is part of the software VASP. Any use, copying, and all other rights are regul
   COPYR  = If you do not have a valid VASP license, you may not use, copy or distribute this file. 
   VRHFIN =Fe:  d7 s1                                                                               
   LEXCH  = PE                                                                                      
   EATOM  =   594.3153 eV,   43.6809 Ry                                                             
                                                                                                    
   TITEL  = PAW_PBE Fe 06Sep2000                                                                    
   LULTRA =        F    use ultrasoft PP ?                                                          
   IUNSCR =        1    unscreen: 0-lin 1-nonlin 2-no                                               
   RPACOR =    2.000    partial core radius                                                         
   POMASS =   55.847; ZVAL   =    8.000    mass and valenz                                          
   RCORE  =    2.300    outmost cutoff radius                                                       
   RWIGS  =    2.460; RWIGS  =    1.302    wigner-seitz radius (au A)                               
   ENMAX  =  267.882; ENMIN  =  200.911 eV                                                          
   RCLOC  =    1.701    cutoff for local pot                                                        
   LCOR   =        T    correct aug charges                                                         
   LPAW   =        T    paw PP                                                                      
   EAUG   =  511.368                                                                                
   DEXC   =    0.000                                                                                
   RMAX   =    2.356    core radius for proj-oper                                                   
   RAUG   =    1.300    factor for augmentation sphere                                              
   RDEP   =    2.442    radius for radial grids                                                     
   RDEPT  =    1.890    core radius for aug-charge                                                  
                                                                                                    
   Atomic configuration                                                                             
    9 entries                                                                                       
     n  l   j            E        occ.                                                              
     1  0  0.50     -6993.8440   2.0000                                                             
     2  0  0.50      -814.6047   2.0000                                                             
     2  1  1.50      -693.3689   6.0000                                                             
     3  0  0.50       -89.4732   2.0000                                                             
     3  1  1.50       -55.6373   6.0000                                                             
     3  2  2.50        -3.8151   7.0000                                                             
     4  0  0.50        -4.2551   1.0000                                                             
     4  1  1.50        -3.4015   0.0000                                                             
     4  3  2.50        -1.3606   0.0000                                                             
   Description                                                                                      
     l       E           TYP  RCUT    TYP  RCUT                                                     
     2     -3.8151135     23  2.300                                                                 
     2     -5.1756961     23  2.300                                                                 
     0     -4.2550963     23  2.300                                                                 
     0      7.2035603     23  2.300                                                                 
     1     -2.7211652     23  2.300                                                                 
     1     18.4316424     23  2.300                                                                 
  local pseudopotential read in
  partial core-charges read in
  partial kinetic energy density read in
  atomic valenz-charges read in
  non local Contribution for L=           2  read in
    real space projection operators read in
  non local Contribution for L=           2  read in
    real space projection operators read in
  non local Contribution for L=           0  read in
    real space projection operators read in
  non local Contribution for L=           0  read in
    real space projection operators read in
  non local Contribution for L=           1  read in
    real space projection operators read in
  non local Contribution for L=           1  read in
    real space projection operators read in
    PAW grid and wavefunctions read in
 
   number of l-projection  operators is LMAX  =           6
   number of lm-projection operators is LMMAX =          18
 
  PAW_PBE Fe 06Sep2000                  :
 energy of atom  1       EATOM= -594.3153
 kinetic energy error for atom=    0.0278 (will be added to EATOM!!)
 
 
 POSCAR: Fe
  positions in cartesian coordinates
  No initial velocities read in
 exchange correlation table for  LEXCH =        8
   RHO(1)=    0.500       N(1)  =     2000
   RHO(2)=  100.500       N(2)  =     4000
 


--------------------------------------------------------------------------------------------------------


 ion  position               nearest neighbor table
   1  0.000  0.000  0.000-   2 2.35   2 2.35   2 2.35   2 2.35   2 2.35   2 2.35
   2  0.333  0.667  0.500-   1 2.35   1 2.35   1 2.35   1 2.35   1 2.35   1 2.35
 
  LATTYP: Found a hexagonal cell.
 ALAT       =     2.2834000000
 C/A-ratio  =     1.7068669528
  
  Lattice vectors:
  
 A1 = (   2.2834000000,   0.0000000000,   0.0000000000)
 A2 = (  -1.1417000000,   1.9774824070,   0.0000000000)
 A3 = (   0.0000000000,   0.0000000000,   3.8974600000)


Analysis of symmetry for initial positions (statically):
=====================================================================
 Subroutine PRICEL returns:
 Original cell was already a primitive cell.
 

 Routine SETGRP: Setting up the symmetry group for a 
 hexagonal supercell.


 Subroutine GETGRP returns: Found 24 space group operations
 (whereof 12 operations were pure point group operations)
 out of a pool of 24 trial point group operations.


The static configuration has the point symmetry D_3h.
 The point group associated with its full space group is D_6h.


Analysis of symmetry for dynamics (positions and initial velocities):
=====================================================================
 Subroutine PRICEL returns:
 Original cell was already a primitive cell.
 

 Routine SETGRP: Setting up the symmetry group for a 
 hexagonal supercell.


 Subroutine GETGRP returns: Found 24 space group operations
 (whereof 12 operations were pure point group operations)
 out of a pool of 24 trial point group operations.


The dynamic configuration has the point symmetry D_3h.
 The point group associated with its full space group is D_6h.


 Subroutine INISYM returns: Found 24 space group operations
 (whereof 12 operations are pure point group operations),
 and found     1 'primitive' translations


----------------------------------------------------------------------------------------

                                     Primitive cell                                     

  volume of cell :      17.5985

  direct lattice vectors                    reciprocal lattice vectors
     2.283400000  0.000000000  0.000000000     0.437943418  0.252846750  0.000000000
    -1.141700000  1.977482407  0.000000000     0.000000000  0.505693500  0.000000000
     0.000000000  0.000000000  3.897460000     0.000000000  0.000000000  0.256577361

  length of vectors
     2.283400000  2.283400000  3.897460000     0.505693500  0.505693500  0.256577361

  position of ions in fractional coordinates (direct lattice)
     0.000000000  0.000000000  0.000000000
     0.333333333  0.666666667  0.500000000

  ion indices of the primitive-cell ions
   primitive index   ion index
                 1           1
                 2           2

----------------------------------------------------------------------------------------

 
 
 KPOINTS: KPOINTS created by Atomic Simulation Env

Automatic generation of k-mesh.
 Grid dimensions read from file:
 generate k-points for:   11   11   11

 Generating k-lattice:

  Cartesian coordinates                     Fractional coordinates (reciprocal lattice)
     0.039813038  0.022986068  0.000000000     0.090909091 -0.000000000  0.000000000
     0.000000000  0.045972136  0.000000000     0.000000000  0.090909091  0.000000000
     0.000000000  0.000000000  0.023325215     0.000000000  0.000000000  0.090909091

  Length of vectors
     0.045972136  0.045972136  0.023325215

  Shift w.r.t. Gamma in fractional coordinates (k-lattice)
     0.000000000  0.000000000  0.000000000

 
 Subroutine IBZKPT returns following result:
 ===========================================
 
 Found     96 irreducible k-points:
 
 Following reciprocal coordinates:
            Coordinates               Weight
  0.000000  0.000000  0.000000      1.000000
  0.090909  0.000000  0.000000      6.000000
  0.181818  0.000000  0.000000      6.000000
  0.272727  0.000000  0.000000      6.000000
  0.363636 -0.000000  0.000000      6.000000
  0.454545  0.000000  0.000000      6.000000
  0.090909  0.090909  0.000000      6.000000
  0.181818  0.090909  0.000000     12.000000
  0.272727  0.090909  0.000000     12.000000
  0.363636  0.090909  0.000000     12.000000
  0.454545  0.090909  0.000000      6.000000
  0.181818  0.181818  0.000000      6.000000
  0.272727  0.181818  0.000000     12.000000
  0.363636  0.181818  0.000000     12.000000
  0.272727  0.272727  0.000000      6.000000
  0.363636  0.272727  0.000000      6.000000
  0.000000  0.000000  0.090909      2.000000
  0.090909  0.000000  0.090909     12.000000
  0.181818  0.000000  0.090909     12.000000
  0.272727  0.000000  0.090909     12.000000
  0.363636 -0.000000  0.090909     12.000000
  0.454545  0.000000  0.090909     12.000000
  0.090909  0.090909  0.090909     12.000000
  0.181818  0.090909  0.090909     24.000000
  0.272727  0.090909  0.090909     24.000000
  0.363636  0.090909  0.090909     24.000000
  0.454545  0.090909  0.090909     12.000000
  0.181818  0.181818  0.090909     12.000000
  0.272727  0.181818  0.090909     24.000000
  0.363636  0.181818  0.090909     24.000000
  0.272727  0.272727  0.090909     12.000000
  0.363636  0.272727  0.090909     12.000000
  0.000000  0.000000  0.181818      2.000000
  0.090909  0.000000  0.181818     12.000000
  0.181818  0.000000  0.181818     12.000000
  0.272727  0.000000  0.181818     12.000000
  0.363636 -0.000000  0.181818     12.000000
  0.454545  0.000000  0.181818     12.000000
  0.090909  0.090909  0.181818     12.000000
  0.181818  0.090909  0.181818     24.000000
  0.272727  0.090909  0.181818     24.000000
  0.363636  0.090909  0.181818     24.000000
  0.454545  0.090909  0.181818     12.000000
  0.181818  0.181818  0.181818     12.000000
  0.272727  0.181818  0.181818     24.000000
  0.363636  0.181818  0.181818     24.000000
  0.272727  0.272727  0.181818     12.000000
  0.363636  0.272727  0.181818     12.000000
  0.000000  0.000000  0.272727      2.000000
  0.090909  0.000000  0.272727     12.000000
  0.181818  0.000000  0.272727     12.000000
  0.272727  0.000000  0.272727     12.000000
  0.363636 -0.000000  0.272727     12.000000
  0.454545  0.000000  0.272727     12.000000
  0.090909  0.090909  0.272727     12.000000
  0.181818  0.090909  0.272727     24.000000
  0.272727  0.090909  0.272727     24.000000
  0.363636  0.090909  0.272727     24.000000
  0.454545  0.090909  0.272727     12.000000
  0.181818  0.181818  0.272727     12.000000
  0.272727  0.181818  0.272727     24.000000
  0.363636  0.181818  0.272727     24.000000
  0.272727  0.272727  0.272727     12.000000
  0.363636  0.272727  0.272727     12.000000
  0.000000  0.000000  0.363636      2.000000
  0.090909  0.000000  0.363636     12.000000
  0.181818  0.000000  0.363636     12.000000
  0.272727  0.000000  0.363636     12.000000
  0.363636 -0.000000  0.363636     12.000000
  0.454545  0.000000  0.363636     12.000000
  0.090909  0.090909  0.363636     12.000000
  0.181818  0.090909  0.363636     24.000000
  0.272727  0.090909  0.363636     24.000000
  0.363636  0.090909  0.363636     24.000000
  0.454545  0.090909  0.363636     12.000000
  0.181818  0.181818  0.363636     12.000000
  0.272727  0.181818  0.363636     24.000000
  0.363636  0.181818  0.363636     24.000000
  0.272727  0.272727  0.363636     12.000000
  0.363636  0.272727  0.363636     12.000000
  0.000000  0.000000  0.454545      2.000000
  0.090909  0.000000  0.454545     12.000000
  0.181818  0.000000  0.454545     12.000000
  0.272727  0.000000  0.454545     12.000000
  0.363636 -0.000000  0.454545     12.000000
  0.454545  0.000000  0.454545     12.000000
  0.090909  0.090909  0.454545     12.000000
  0.181818  0.090909  0.454545     24.000000
  0.272727  0.090909  0.454545     24.000000
  0.363636  0.090909  0.454545     24.000000
  0.454545  0.090909  0.454545     12.000000
  0.181818  0.181818  0.454545     12.000000
  0.272727  0.181818  0.454545     24.000000
  0.363636  0.181818  0.454545     24.000000
  0.272727  0.272727  0.454545     12.000000
  0.363636  0.272727  0.454545     12.000000
 
 Following cartesian coordinates:
            Coordinates               Weight
  0.000000  0.000000  0.000000      1.000000
  0.039813  0.022986  0.000000      6.000000
  0.079626  0.045972  0.000000      6.000000
  0.119439  0.068958  0.000000      6.000000
  0.159252  0.091944  0.000000      6.000000
  0.199065  0.114930  0.000000      6.000000
  0.039813  0.068958  0.000000      6.000000
  0.079626  0.091944  0.000000     12.000000
  0.119439  0.114930  0.000000     12.000000
  0.159252  0.137916  0.000000     12.000000
  0.199065  0.160902  0.000000      6.000000
  0.079626  0.137916  0.000000      6.000000
  0.119439  0.160902  0.000000     12.000000
  0.159252  0.183889  0.000000     12.000000
  0.119439  0.206875  0.000000      6.000000
  0.159252  0.229861  0.000000      6.000000
  0.000000  0.000000  0.023325      2.000000
  0.039813  0.022986  0.023325     12.000000
  0.079626  0.045972  0.023325     12.000000
  0.119439  0.068958  0.023325     12.000000
  0.159252  0.091944  0.023325     12.000000
  0.199065  0.114930  0.023325     12.000000
  0.039813  0.068958  0.023325     12.000000
  0.079626  0.091944  0.023325     24.000000
  0.119439  0.114930  0.023325     24.000000
  0.159252  0.137916  0.023325     24.000000
  0.199065  0.160902  0.023325     12.000000
  0.079626  0.137916  0.023325     12.000000
  0.119439  0.160902  0.023325     24.000000
  0.159252  0.183889  0.023325     24.000000
  0.119439  0.206875  0.023325     12.000000
  0.159252  0.229861  0.023325     12.000000
  0.000000  0.000000  0.046650      2.000000
  0.039813  0.022986  0.046650     12.000000
  0.079626  0.045972  0.046650     12.000000
  0.119439  0.068958  0.046650     12.000000
  0.159252  0.091944  0.046650     12.000000
  0.199065  0.114930  0.046650     12.000000
  0.039813  0.068958  0.046650     12.000000
  0.079626  0.091944  0.046650     24.000000
  0.119439  0.114930  0.046650     24.000000
  0.159252  0.137916  0.046650     24.000000
  0.199065  0.160902  0.046650     12.000000
  0.079626  0.137916  0.046650     12.000000
  0.119439  0.160902  0.046650     24.000000
  0.159252  0.183889  0.046650     24.000000
  0.119439  0.206875  0.046650     12.000000
  0.159252  0.229861  0.046650     12.000000
  0.000000  0.000000  0.069976      2.000000
  0.039813  0.022986  0.069976     12.000000
  0.079626  0.045972  0.069976     12.000000
  0.119439  0.068958  0.069976     12.000000
  0.159252  0.091944  0.069976     12.000000
  0.199065  0.114930  0.069976     12.000000
  0.039813  0.068958  0.069976     12.000000
  0.079626  0.091944  0.069976     24.000000
  0.119439  0.114930  0.069976     24.000000
  0.159252  0.137916  0.069976     24.000000
  0.199065  0.160902  0.069976     12.000000
  0.079626  0.137916  0.069976     12.000000
  0.119439  0.160902  0.069976     24.000000
  0.159252  0.183889  0.069976     24.000000
  0.119439  0.206875  0.069976     12.000000
  0.159252  0.229861  0.069976     12.000000
  0.000000  0.000000  0.093301      2.000000
  0.039813  0.022986  0.093301     12.000000
  0.079626  0.045972  0.093301     12.000000
  0.119439  0.068958  0.093301     12.000000
  0.159252  0.091944  0.093301     12.000000
  0.199065  0.114930  0.093301     12.000000
  0.039813  0.068958  0.093301     12.000000
  0.079626  0.091944  0.093301     24.000000
  0.119439  0.114930  0.093301     24.000000
  0.159252  0.137916  0.093301     24.000000
  0.199065  0.160902  0.093301     12.000000
  0.079626  0.137916  0.093301     12.000000
  0.119439  0.160902  0.093301     24.000000
  0.159252  0.183889  0.093301     24.000000
  0.119439  0.206875  0.093301     12.000000
  0.159252  0.229861  0.093301     12.000000
  0.000000  0.000000  0.116626      2.000000
  0.039813  0.022986  0.116626     12.000000
  0.079626  0.045972  0.116626     12.000000
  0.119439  0.068958  0.116626     12.000000
  0.159252  0.091944  0.116626     12.000000
  0.199065  0.114930  0.116626     12.000000
  0.039813  0.068958  0.116626     12.000000
  0.079626  0.091944  0.116626     24.000000
  0.119439  0.114930  0.116626     24.000000
  0.159252  0.137916  0.116626     24.000000
  0.199065  0.160902  0.116626     12.000000
  0.079626  0.137916  0.116626     12.000000
  0.119439  0.160902  0.116626     24.000000
  0.159252  0.183889  0.116626     24.000000
  0.119439  0.206875  0.116626     12.000000
  0.159252  0.229861  0.116626     12.000000
 


--------------------------------------------------------------------------------------------------------




 Dimension of arrays:
   k-points           NKPTS =     96   k-points in BZ     NKDIM =     96   number of bands    NBANDS=     40
   number of dos      NEDOS =    301   number of ions     NIONS =      2
   non local maximal  LDIM  =      6   non local SUM 2l+1 LMDIM =     18
   total plane-waves  NPLWV =   1600
   max r-space proj   IRMAX =      1   max aug-charges    IRDMAX=   3438
   dimension x,y,z NGX =    10 NGY =   10 NGZ =   16
   dimension x,y,z NGXF=    20 NGYF=   20 NGZF=   32
   support grid    NGXF=    20 NGYF=   20 NGZF=   32
   ions per type =               2
   NGX,Y,Z   is equivalent  to a cutoff of   7.28,  7.28,  6.82 a.u.
   NGXF,Y,Z  is equivalent  to a cutoff of  14.56, 14.56, 13.65 a.u.

 SYSTEM =  unknown system                          
 POSCAR =  Fe                                      

 Startparameter for this run:
   NWRITE =      2    write-flag & timer
   PREC   = normal    normal or accurate (medium, high low for compatibility)
   ISTART =      0    job   : 0-new  1-cont  2-samecut
   ICHARG =      1    charge: 1-file 2-atom 10-const
   ISPIN  =      1    spin polarized calculation?
   LNONCOLLINEAR =      F non collinear calculations
   LSORBIT =      F    spin-orbit coupling
   INIWAV =      1    electr: 0-lowe 1-rand  2-diag
   LASPH  =      F    aspherical Exc in radial PAW
   METAGGA=      F    non-selfconsistent MetaGGA calc.

 Electronic Relaxation 1
   ENCUT  =  280.0 eV  20.58 Ry    4.54 a.u.   3.12  3.12  5.32*2*pi/ulx,y,z
   ENINI  =  280.0     initial cutoff
   ENAUG  =  511.4 eV  augmentation charge cutoff
   NELM   =     60;   NELMIN=  2; NELMDL= -5     # of ELM steps 
   EDIFF  = 0.1E-05   stopping-criterion for ELM
   LREAL  =      F    real-space projection
   NLSPLINE    = F    spline interpolate recip. space projectors
   LCOMPAT=      F    compatible to vasp.4.4
   GGA_COMPAT  = T    GGA compatible to vasp.4.4-vasp.4.6
   LMAXPAW     = -100 max onsite density
   LMAXMIX     =    2 max onsite mixed and CHGCAR
   VOSKOWN=      0    Vosko Wilk Nusair interpolation
   ROPT   =    0.00000
 Ionic relaxation
   EDIFFG = 0.1E-04   stopping-criterion for IOM
   NSW    =      0    number of steps for IOM
   NBLOCK =      1;   KBLOCK =      1    inner block; outer block 
   IBRION =     -1    ionic relax: 0-MD 1-quasi-New 2-CG
   NFREE  =      0    steps in history (QN), initial steepest desc. (CG)
   ISIF   =      2    stress and relaxation
   IWAVPR =      0    prediction:  0-non 1-charg 2-wave 3-comb
   ISYM   =      2    0-nonsym 1-usesym 2-fastsym
   LCORR  =      T    Harris-Foulkes like correction to forces

   POTIM  = 0.5000    time-step for ionic-motion
   TEIN   =    0.0    initial temperature
   TEBEG  =    0.0;   TEEND  =   0.0 temperature during run
   SMASS  =  -3.00    Nose mass-parameter (am)
   estimated Nose-frequenzy (Omega)   =  0.10E-29 period in steps = 0.13E+47 mass=  -0.119E-27a.u.
   SCALEE = 1.0000    scale energy and forces
   NPACO  =    256;   APACO  = 16.0  distance and # of slots for P.C.
   PSTRESS=    0.0 pullay stress

  Mass of Ions in am
   POMASS =  55.85
  Ionic Valenz
   ZVAL   =   8.00
  Atomic Wigner-Seitz radii
   RWIGS  =  -1.00
  virtual crystal weights 
   VCA    =   1.00
   NELECT =      16.0000    total number of electrons
   NUPDOWN=      -1.0000    fix difference up-down

 DOS related values:
   EMIN   =  10.00;   EMAX   =-10.00  energy-range for DOS
   EFERMI =   0.00
   ISMEAR =     1;   SIGMA  =   0.20  broadening in eV -4-tet -1-fermi 0-gaus

 Electronic relaxation 2 (details)
   IALGO  =     38    algorithm
   LDIAG  =      T    sub-space diagonalisation (order eigenvalues)
   LSUBROT=      F    optimize rotation matrix (better conditioning)
   TURBO    =      0    0=normal 1=particle mesh
   IRESTART =      0    0=no restart 2=restart with 2 vectors
   NREBOOT  =      0    no. of reboots
   NMIN     =      0    reboot dimension
   EREF     =   0.00    reference energy to select bands
   IMIX   =      4    mixing-type and parameters
     AMIX     =   0.40;   BMIX     =  1.00
     AMIX_MAG =   1.60;   BMIX_MAG =  1.00
     AMIN     =   0.10
     WC   =   100.;   INIMIX=   1;  MIXPRE=   1;  MAXMIX= -45

 Intra band minimization:
   WEIMIN = 0.0000     energy-eigenvalue tresh-hold
   EBREAK =  0.62E-08  absolut break condition
   DEPER  =   0.30     relativ break condition  

   TIME   =   0.40     timestep for ELM

  volume/ion in A,a.u.               =       8.80        59.38
  Fermi-wavevector in a.u.,A,eV,Ry     =   1.585950  2.997010 34.221867  2.515236
  Thomas-Fermi vector in A             =   2.685336
 
 Write flags
   LWAVE        =      T    write WAVECAR
   LDOWNSAMPLE  =      F    k-point downsampling of WAVECAR
   LCHARG       =      T    write CHGCAR
   LVTOT        =      F    write LOCPOT, total local potential
   LVHAR        =      F    write LOCPOT, Hartree potential only
   LELF         =      F    write electronic localiz. function (ELF)
   LORBIT       =      0    0 simple, 1 ext, 2 COOP (PROOUT), +10 PAW based schemes


 Dipole corrections
   LMONO  =      F    monopole corrections only (constant potential shift)
   LDIPOL =      F    correct potential (dipole corrections)
   IDIPOL =      0    1-x, 2-y, 3-z, 4-all directions 
   EPSILON=  1.0000000 bulk dielectric constant

 Exchange correlation treatment:
   GGA     =    PE    GGA type
   LEXCH   =     8    internal setting for exchange type
   VOSKOWN=      0    Vosko Wilk Nusair interpolation
   LHFCALC =     F    Hartree Fock is set to
   LHFONE  =     F    Hartree Fock one center treatment
   AEXX    =    0.0000 exact exchange contribution

 Linear response parameters
   LEPSILON=     F    determine dielectric tensor
   LRPA    =     F    only Hartree local field effects (RPA)
   LNABLA  =     F    use nabla operator in PAW spheres
   LVEL    =     F    velocity operator in full k-point grid
   LINTERFAST=   F  fast interpolation
   KINTER  =     0    interpolate to denser k-point grid
   CSHIFT  =0.1000    complex shift for real part using Kramers Kronig
   OMEGAMAX=  -1.0    maximum frequency
   DEG_THRESHOLD= 0.2000000E-02 threshold for treating states as degnerate
   RTIME   =   -0.100 relaxation time in fs
  (WPLASMAI=    0.000 imaginary part of plasma frequency in eV, 0.658/RTIME)
   DFIELD  = 0.0000000 0.0000000 0.0000000 field for delta impulse in time
 
 Orbital magnetization related:
   ORBITALMAG=     F  switch on orbital magnetization
   LCHIMAG   =     F  perturbation theory with respect to B field
   DQ        =  0.001000  dq finite difference perturbation B field
   LLRAUG    =     F  two centre corrections for induced B field



--------------------------------------------------------------------------------------------------------


 Static calculation
 charge density and potential will be updated during run
 non-spin polarized calculation
 Variant of blocked Davidson
 Davidson routine will perform the subspace rotation
 perform sub-space diagonalisation
    after iterative eigenvector-optimisation
 modified Broyden-mixing scheme, WC =      100.0
 initial mixing is a Kerker type mixing with AMIX =  0.4000 and BMIX =      1.0000
 Hartree-type preconditioning will be used
 using additional bands           32
 reciprocal scheme for non local part
 use partial core corrections
 calculate Harris-corrections to forces 
   (improved forces if not selfconsistent)
 use gradient corrections 
 use of overlap-Matrix (Vanderbilt PP)
 Methfessel and Paxton  Order N= 1 SIGMA  =   0.20


--------------------------------------------------------------------------------------------------------


  energy-cutoff  :      280.00
  volume of cell :       17.60
      direct lattice vectors                 reciprocal lattice vectors
     2.283400000  0.000000000  0.000000000     0.437943418  0.252846750  0.000000000
    -1.141700000  1.977482407  0.000000000     0.000000000  0.505693500  0.000000000
     0.000000000  0.000000000  3.897460000     0.000000000  0.000000000  0.256577361

  length of vectors
     2.283400000  2.283400000  3.897460000     0.505693500  0.505693500  0.256577361


 
 k-points in units of 2pi/SCALE and weight: KPOINTS created by Atomic Simulation Env
   0.00000000  0.00000000  0.00000000       0.001
   0.03981304  0.02298607  0.00000000       0.005
   0.07962608  0.04597214  0.00000000       0.005
   0.11943911  0.06895820  0.00000000       0.005
   0.15925215  0.09194427  0.00000000       0.005
   0.19906519  0.11493034  0.00000000       0.005
   0.03981304  0.06895820  0.00000000       0.005
   0.07962608  0.09194427  0.00000000       0.009
   0.11943911  0.11493034  0.00000000       0.009
   0.15925215  0.13791641  0.00000000       0.009
   0.19906519  0.16090248  0.00000000       0.005
   0.07962608  0.13791641  0.00000000       0.005
   0.11943911  0.16090248  0.00000000       0.009
   0.15925215  0.18388855  0.00000000       0.009
   0.11943911  0.20687461  0.00000000       0.005
   0.15925215  0.22986068  0.00000000       0.005
   0.00000000  0.00000000  0.02332521       0.002
   0.03981304  0.02298607  0.02332521       0.009
   0.07962608  0.04597214  0.02332521       0.009
   0.11943911  0.06895820  0.02332521       0.009
   0.15925215  0.09194427  0.02332521       0.009
   0.19906519  0.11493034  0.02332521       0.009
   0.03981304  0.06895820  0.02332521       0.009
   0.07962608  0.09194427  0.02332521       0.018
   0.11943911  0.11493034  0.02332521       0.018
   0.15925215  0.13791641  0.02332521       0.018
   0.19906519  0.16090248  0.02332521       0.009
   0.07962608  0.13791641  0.02332521       0.009
   0.11943911  0.16090248  0.02332521       0.018
   0.15925215  0.18388855  0.02332521       0.018
   0.11943911  0.20687461  0.02332521       0.009
   0.15925215  0.22986068  0.02332521       0.009
   0.00000000  0.00000000  0.04665043       0.002
   0.03981304  0.02298607  0.04665043       0.009
   0.07962608  0.04597214  0.04665043       0.009
   0.11943911  0.06895820  0.04665043       0.009
   0.15925215  0.09194427  0.04665043       0.009
   0.19906519  0.11493034  0.04665043       0.009
   0.03981304  0.06895820  0.04665043       0.009
   0.07962608  0.09194427  0.04665043       0.018
   0.11943911  0.11493034  0.04665043       0.018
   0.15925215  0.13791641  0.04665043       0.018
   0.19906519  0.16090248  0.04665043       0.009
   0.07962608  0.13791641  0.04665043       0.009
   0.11943911  0.16090248  0.04665043       0.018
   0.15925215  0.18388855  0.04665043       0.018
   0.11943911  0.20687461  0.04665043       0.009
   0.15925215  0.22986068  0.04665043       0.009
   0.00000000  0.00000000  0.06997564       0.002
   0.03981304  0.02298607  0.06997564       0.009
   0.07962608  0.04597214  0.06997564       0.009
   0.11943911  0.06895820  0.06997564       0.009
   0.15925215  0.09194427  0.06997564       0.009
   0.19906519  0.11493034  0.06997564       0.009
   0.03981304  0.06895820  0.06997564       0.009
   0.07962608  0.09194427  0.06997564       0.018
   0.11943911  0.11493034  0.06997564       0.018
   0.15925215  0.13791641  0.06997564       0.018
   0.19906519  0.16090248  0.06997564       0.009
   0.07962608  0.13791641  0.06997564       0.009
   0.11943911  0.16090248  0.06997564       0.018
   0.15925215  0.18388855  0.06997564       0.018
   0.11943911  0.20687461  0.06997564       0.009
   0.15925215  0.22986068  0.06997564       0.009
   0.00000000  0.00000000  0.09330086       0.002
   0.03981304  0.02298607  0.09330086       0.009
   0.07962608  0.04597214  0.09330086       0.009
   0.11943911  0.06895820  0.09330086       0.009
   0.15925215  0.09194427  0.09330086       0.009
   0.19906519  0.11493034  0.09330086       0.009
   0.03981304  0.06895820  0.09330086       0.009
   0.07962608  0.09194427  0.09330086       0.018
   0.11943911  0.11493034  0.09330086       0.018
   0.15925215  0.13791641  0.09330086       0.018
   0.19906519  0.16090248  0.09330086       0.009
   0.07962608  0.13791641  0.09330086       0.009
   0.11943911  0.16090248  0.09330086       0.018
   0.15925215  0.18388855  0.09330086       0.018
   0.11943911  0.20687461  0.09330086       0.009
   0.15925215  0.22986068  0.09330086       0.009
   0.00000000  0.00000000  0.11662607       0.002
   0.03981304  0.02298607  0.11662607       0.009
   0.07962608  0.04597214  0.11662607       0.009
   0.11943911  0.06895820  0.11662607       0.009
   0.15925215  0.09194427  0.11662607       0.009
   0.19906519  0.11493034  0.11662607       0.009
   0.03981304  0.06895820  0.11662607       0.009
   0.07962608  0.09194427  0.11662607       0.018
   0.11943911  0.11493034  0.11662607       0.018
   0.15925215  0.13791641  0.11662607       0.018
   0.19906519  0.16090248  0.11662607       0.009
   0.07962608  0.13791641  0.11662607       0.009
   0.11943911  0.16090248  0.11662607       0.018
   0.15925215  0.18388855  0.11662607       0.018
   0.11943911  0.20687461  0.11662607       0.009
   0.15925215  0.22986068  0.11662607       0.009
 
 k-points in reciprocal lattice and weights: KPOINTS created by Atomic Simulation Env
   0.00000000  0.00000000  0.00000000       0.001
   0.09090909  0.00000000  0.00000000       0.005
   0.18181818  0.00000000  0.00000000       0.005
   0.27272727  0.00000000  0.00000000       0.005
   0.36363636 -0.00000000  0.00000000       0.005
   0.45454545  0.00000000  0.00000000       0.005
   0.09090909  0.09090909  0.00000000       0.005
   0.18181818  0.09090909  0.00000000       0.009
   0.27272727  0.09090909  0.00000000       0.009
   0.36363636  0.09090909  0.00000000       0.009
   0.45454545  0.09090909  0.00000000       0.005
   0.18181818  0.18181818  0.00000000       0.005
   0.27272727  0.18181818  0.00000000       0.009
   0.36363636  0.18181818  0.00000000       0.009
   0.27272727  0.27272727  0.00000000       0.005
   0.36363636  0.27272727  0.00000000       0.005
   0.00000000  0.00000000  0.09090909       0.002
   0.09090909  0.00000000  0.09090909       0.009
   0.18181818  0.00000000  0.09090909       0.009
   0.27272727  0.00000000  0.09090909       0.009
   0.36363636 -0.00000000  0.09090909       0.009
   0.45454545  0.00000000  0.09090909       0.009
   0.09090909  0.09090909  0.09090909       0.009
   0.18181818  0.09090909  0.09090909       0.018
   0.27272727  0.09090909  0.09090909       0.018
   0.36363636  0.09090909  0.09090909       0.018
   0.45454545  0.09090909  0.09090909       0.009
   0.18181818  0.18181818  0.09090909       0.009
   0.27272727  0.18181818  0.09090909       0.018
   0.36363636  0.18181818  0.09090909       0.018
   0.27272727  0.27272727  0.09090909       0.009
   0.36363636  0.27272727  0.09090909       0.009
   0.00000000  0.00000000  0.18181818       0.002
   0.09090909  0.00000000  0.18181818       0.009
   0.18181818  0.00000000  0.18181818       0.009
   0.27272727  0.00000000  0.18181818       0.009
   0.36363636 -0.00000000  0.18181818       0.009
   0.45454545  0.00000000  0.18181818       0.009
   0.09090909  0.09090909  0.18181818       0.009
   0.18181818  0.09090909  0.18181818       0.018
   0.27272727  0.09090909  0.18181818       0.018
   0.36363636  0.09090909  0.18181818       0.018
   0.45454545  0.09090909  0.18181818       0.009
   0.18181818  0.18181818  0.18181818       0.009
   0.27272727  0.18181818  0.18181818       0.018
   0.36363636  0.18181818  0.18181818       0.018
   0.27272727  0.27272727  0.18181818       0.009
   0.36363636  0.27272727  0.18181818       0.009
   0.00000000  0.00000000  0.27272727       0.002
   0.09090909  0.00000000  0.27272727       0.009
   0.18181818  0.00000000  0.27272727       0.009
   0.27272727  0.00000000  0.27272727       0.009
   0.36363636 -0.00000000  0.27272727       0.009
   0.45454545  0.00000000  0.27272727       0.009
   0.09090909  0.09090909  0.27272727       0.009
   0.18181818  0.09090909  0.27272727       0.018
   0.27272727  0.09090909  0.27272727       0.018
   0.36363636  0.09090909  0.27272727       0.018
   0.45454545  0.09090909  0.27272727       0.009
   0.18181818  0.18181818  0.27272727       0.009
   0.27272727  0.18181818  0.27272727       0.018
   0.36363636  0.18181818  0.27272727       0.018
   0.27272727  0.27272727  0.27272727       0.009
   0.36363636  0.27272727  0.27272727       0.009
   0.00000000  0.00000000  0.36363636       0.002
   0.09090909  0.00000000  0.36363636       0.009
   0.18181818  0.00000000  0.36363636       0.009
   0.27272727  0.00000000  0.36363636       0.009
   0.36363636 -0.00000000  0.36363636       0.009
   0.45454545  0.00000000  0.36363636       0.009
   0.09090909  0.09090909  0.36363636       0.009
   0.18181818  0.09090909  0.36363636       0.018
   0.27272727  0.09090909  0.36363636       0.018
   0.36363636  0.09090909  0.36363636       0.018
   0.45454545  0.09090909  0.36363636       0.009
   0.18181818  0.18181818  0.36363636       0.009
   0.27272727  0.18181818  0.36363636       0.018
   0.36363636  0.18181818  0.36363636       0.018
   0.27272727  0.27272727  0.36363636       0.009
   0.36363636  0.27272727  0.36363636       0.009
   0.00000000  0.00000000  0.45454545       0.002
   0.09090909  0.00000000  0.45454545       0.009
   0.18181818  0.00000000  0.45454545       0.009
   0.27272727  0.00000000  0.45454545       0.009
   0.36363636 -0.00000000  0.45454545       0.009
   0.45454545  0.00000000  0.45454545       0.009
   0.09090909  0.09090909  0.45454545       0.009
   0.18181818  0.09090909  0.45454545       0.018
   0.27272727  0.09090909  0.45454545       0.018
   0.36363636  0.09090909  0.45454545       0.018
   0.45454545  0.09090909  0.45454545       0.009
   0.18181818  0.18181818  0.45454545       0.009
   0.27272727  0.18181818  0.45454545       0.018
   0.36363636  0.18181818  0.45454545       0.018
   0.27272727  0.27272727  0.45454545       0.009
   0.36363636  0.27272727  0.45454545       0.009
 
 position of ions in fractional coordinates (direct lattice) 
   0.00000000  0.00000000  0.00000000
   0.33333333  0.66666667  0.50000000
 
 position of ions in cartesian coordinates  (Angst):
   0.00000000  0.00000000  0.00000000
   0.00000000  1.31832160  1.94873000
 


--------------------------------------------------------------------------------------------------------


 k-point   1 :   0.0000 0.0000 0.0000  plane waves:     197
 k-point   2 :   0.0909 0.0000 0.0000  plane waves:     179
 k-point   3 :   0.1818 0.0000 0.0000  plane waves:     183
 k-point   4 :   0.2727 0.0000 0.0000  plane waves:     189
 k-point   5 :   0.3636-0.0000 0.0000  plane waves:     192
 k-point   6 :   0.4545 0.0000 0.0000  plane waves:     188
 k-point   7 :   0.0909 0.0909 0.0000  plane waves:     181
 k-point   8 :   0.1818 0.0909 0.0000  plane waves:     184
 k-point   9 :   0.2727 0.0909 0.0000  plane waves:     185
 k-point  10 :   0.3636 0.0909 0.0000  plane waves:     187
 k-point  11 :   0.4545 0.0909 0.0000  plane waves:     186
 k-point  12 :   0.1818 0.1818 0.0000  plane waves:     185
 k-point  13 :   0.2727 0.1818 0.0000  plane waves:     191
 k-point  14 :   0.3636 0.1818 0.0000  plane waves:     195
 k-point  15 :   0.2727 0.2727 0.0000  plane waves:     195
 k-point  16 :   0.3636 0.2727 0.0000  plane waves:     193
 k-point  17 :   0.0000 0.0000 0.0909  plane waves:     185
 k-point  18 :   0.0909 0.0000 0.0909  plane waves:     180
 k-point  19 :   0.1818 0.0000 0.0909  plane waves:     185
 k-point  20 :   0.2727 0.0000 0.0909  plane waves:     184
 k-point  21 :   0.3636-0.0000 0.0909  plane waves:     186
 k-point  22 :   0.4545 0.0000 0.0909  plane waves:     188
 k-point  23 :   0.0909 0.0909 0.0909  plane waves:     181
 k-point  24 :   0.1818 0.0909 0.0909  plane waves:     186
 k-point  25 :   0.2727 0.0909 0.0909  plane waves:     186
 k-point  26 :   0.3636 0.0909 0.0909  plane waves:     187
 k-point  27 :   0.4545 0.0909 0.0909  plane waves:     186
 k-point  28 :   0.1818 0.1818 0.0909  plane waves:     183
 k-point  29 :   0.2727 0.1818 0.0909  plane waves:     191
 k-point  30 :   0.3636 0.1818 0.0909  plane waves:     195
 k-point  31 :   0.2727 0.2727 0.0909  plane waves:     194
 k-point  32 :   0.3636 0.2727 0.0909  plane waves:     195
 k-point  33 :   0.0000 0.0000 0.1818  plane waves:     185
 k-point  34 :   0.0909 0.0000 0.1818  plane waves:     185
 k-point  35 :   0.1818 0.0000 0.1818  plane waves:     184
 k-point  36 :   0.2727 0.0000 0.1818  plane waves:     184
 k-point  37 :   0.3636-0.0000 0.1818  plane waves:     186
 k-point  38 :   0.4545 0.0000 0.1818  plane waves:     190
 k-point  39 :   0.0909 0.0909 0.1818  plane waves:     185
 k-point  40 :   0.1818 0.0909 0.1818  plane waves:     185
 k-point  41 :   0.2727 0.0909 0.1818  plane waves:     185
 k-point  42 :   0.3636 0.0909 0.1818  plane waves:     187
 k-point  43 :   0.4545 0.0909 0.1818  plane waves:     187
 k-point  44 :   0.1818 0.1818 0.1818  plane waves:     185
 k-point  45 :   0.2727 0.1818 0.1818  plane waves:     190
 k-point  46 :   0.3636 0.1818 0.1818  plane waves:     194
 k-point  47 :   0.2727 0.2727 0.1818  plane waves:     194
 k-point  48 :   0.3636 0.2727 0.1818  plane waves:     195
 k-point  49 :   0.0000 0.0000 0.2727  plane waves:     185
 k-point  50 :   0.0909 0.0000 0.2727  plane waves:     182
 k-point  51 :   0.1818 0.0000 0.2727  plane waves:     189
 k-point  52 :   0.2727 0.0000 0.2727  plane waves:     184
 k-point  53 :   0.3636-0.0000 0.2727  plane waves:     188
 k-point  54 :   0.4545 0.0000 0.2727  plane waves:     186
 k-point  55 :   0.0909 0.0909 0.2727  plane waves:     184
 k-point  56 :   0.1818 0.0909 0.2727  plane waves:     187
 k-point  57 :   0.2727 0.0909 0.2727  plane waves:     185
 k-point  58 :   0.3636 0.0909 0.2727  plane waves:     189
 k-point  59 :   0.4545 0.0909 0.2727  plane waves:     185
 k-point  60 :   0.1818 0.1818 0.2727  plane waves:     185
 k-point  61 :   0.2727 0.1818 0.2727  plane waves:     187
 k-point  62 :   0.3636 0.1818 0.2727  plane waves:     187
 k-point  63 :   0.2727 0.2727 0.2727  plane waves:     191
 k-point  64 :   0.3636 0.2727 0.2727  plane waves:     195
 k-point  65 :   0.0000 0.0000 0.3636  plane waves:     184
 k-point  66 :   0.0909 0.0000 0.3636  plane waves:     184
 k-point  67 :   0.1818 0.0000 0.3636  plane waves:     182
 k-point  68 :   0.2727 0.0000 0.3636  plane waves:     182
 k-point  69 :   0.3636-0.0000 0.3636  plane waves:     188
 k-point  70 :   0.4545 0.0000 0.3636  plane waves:     189
 k-point  71 :   0.0909 0.0909 0.3636  plane waves:     182
 k-point  72 :   0.1818 0.0909 0.3636  plane waves:     184
 k-point  73 :   0.2727 0.0909 0.3636  plane waves:     188
 k-point  74 :   0.3636 0.0909 0.3636  plane waves:     191
 k-point  75 :   0.4545 0.0909 0.3636  plane waves:     188
 k-point  76 :   0.1818 0.1818 0.3636  plane waves:     188
 k-point  77 :   0.2727 0.1818 0.3636  plane waves:     186
 k-point  78 :   0.3636 0.1818 0.3636  plane waves:     189
 k-point  79 :   0.2727 0.2727 0.3636  plane waves:     188
 k-point  80 :   0.3636 0.2727 0.3636  plane waves:     191
 k-point  81 :   0.0000 0.0000 0.4545  plane waves:     190
 k-point  82 :   0.0909 0.0000 0.4545  plane waves:     186
 k-point  83 :   0.1818 0.0000 0.4545  plane waves:     182
 k-point  84 :   0.2727 0.0000 0.4545  plane waves:     182
 k-point  85 :   0.3636-0.0000 0.4545  plane waves:     186
 k-point  86 :   0.4545 0.0000 0.4545  plane waves:     189
 k-point  87 :   0.0909 0.0909 0.4545  plane waves:     182
 k-point  88 :   0.1818 0.0909 0.4545  plane waves:     182
 k-point  89 :   0.2727 0.0909 0.4545  plane waves:     191
 k-point  90 :   0.3636 0.0909 0.4545  plane waves:     189
 k-point  91 :   0.4545 0.0909 0.4545  plane waves:     190
 k-point  92 :   0.1818 0.1818 0.4545  plane waves:     188
 k-point  93 :   0.2727 0.1818 0.4545  plane waves:     189
 k-point  94 :   0.3636 0.1818 0.4545  plane waves:     189
 k-point  95 :   0.2727 0.2727 0.4545  plane waves:     188
 k-point  96 :   0.3636 0.2727 0.4545  plane waves:     188

 maximum number of plane-waves:       197
 maximum index in each direction: 
   IXMAX=    3   IYMAX=    3   IZMAX=    5
   IXMIN=   -3   IYMIN=   -3   IZMIN=   -5


 total amount of memory used by VASP MPI-rank0    47796. kBytes
=======================================================================

   base      :      30000. kBytes
   nonl-proj :       2729. kBytes
   grid      :        721. kBytes
   one-center:         31. kBytes
   wavefun   :      14315. kBytes
 
     INWAV:  cpu time    0.0000: real time    0.0000
 Broyden mixing: mesh for mixing (old mesh)
   NGX =  7   NGY =  7   NGZ = 11
  (NGX  = 20   NGY  = 20   NGZ  = 32)
  gives a total of    539 points

 initial charge density was supplied:
 charge density of overlapping atoms calculated
 number of electron      16.0000000 magnetization 
 keeping initial charge density in first step


--------------------------------------------------------------------------------------------------------


 Maximum index for augmentation-charges         3168 (set IRDMAX)


--------------------------------------------------------------------------------------------------------


 First call to EWALD:  gamma=   0.681
 Maximum number of real-space cells 3x 3x 2
 Maximum number of reciprocal cells 2x 2x 4

    FEWALD:  cpu time    0.0009: real time    0.0009


--------------------------------------- Iteration      1(   1)  ---------------------------------------


    POTLOK:  cpu time    0.0031: real time    0.0031
    SETDIJ:  cpu time    0.0022: real time    0.0022
     EDDAV:  cpu time    0.7599: real time    0.7813
       DOS:  cpu time    0.0054: real time    0.0054
    --------------------------------------------
      LOOP:  cpu time    0.7707: real time    0.7920

 eigenvalue-minimisations  :  9656
 total energy-change (2. order) : 0.5968588E+02  (-0.2484285E+03)
 number of electron      16.0000000 magnetization 
 augmentation part       16.0000000 magnetization 

 Free energy of the ion-electron system (eV)
  ---------------------------------------------------
  alpha Z        PSCENC =       157.08992076
  Ewald energy   TEWEN  =     -1288.92059171
  -Hartree energ DENC   =      -185.55861256
  -exchange      EXHF   =         0.00000000
  -V(xc)+E(xc)   XCENC  =         9.46884831
  PAW double counting   =      1109.69170683    -1125.09647265
  entropy T*S    EENTRO =         0.00026070
  eigenvalues    EBANDS =       194.43591200
  atomic energy  EATOM  =      1188.57490811
  Solvation  Ediel_sol  =         0.00000000
  ---------------------------------------------------
  free energy    TOTEN  =        59.68587978 eV

  energy without entropy =       59.68561907  energy(sigma->0) =       59.68579288


--------------------------------------------------------------------------------------------------------




--------------------------------------- Iteration      1(   2)  ---------------------------------------


     EDDAV:  cpu time    0.6301: real time    0.6301
       DOS:  cpu time    0.0056: real time    0.0056
    --------------------------------------------
      LOOP:  cpu time    0.6357: real time    0.6357

 eigenvalue-minimisations  :  7976
 total energy-change (2. order) :-0.7421190E+02  (-0.6337654E+02)
 number of electron      16.0000000 magnetization 
 augmentation part       16.0000000 magnetization 

 Free energy of the ion-electron system (eV)
  ---------------------------------------------------
  alpha Z        PSCENC =       157.08992076
  Ewald energy   TEWEN  =     -1288.92059171
  -Hartree energ DENC   =      -185.55861256
  -exchange      EXHF   =         0.00000000
  -V(xc)+E(xc)   XCENC  =         9.46884831
  PAW double counting   =      1109.69170683    -1125.09647265
  entropy T*S    EENTRO =        -0.00020851
  eigenvalues    EBANDS =       120.22448471
  atomic energy  EATOM  =      1188.57490811
  Solvation  Ediel_sol  =         0.00000000
  ---------------------------------------------------
  free energy    TOTEN  =       -14.52601673 eV

  energy without entropy =      -14.52580822  energy(sigma->0) =      -14.52594722


--------------------------------------------------------------------------------------------------------




--------------------------------------- Iteration      1(   3)  ---------------------------------------


     EDDAV:  cpu time    0.7275: real time    0.7276
       DOS:  cpu time    0.0062: real time    0.0062
    --------------------------------------------
      LOOP:  cpu time    0.7337: real time    0.7338

 eigenvalue-minimisations  :  9608
 total energy-change (2. order) :-0.3984910E+01  (-0.3822244E+01)
 number of electron      16.0000000 magnetization 
 augmentation part       16.0000000 magnetization 

 Free energy of the ion-electron system (eV)
  ---------------------------------------------------
  alpha Z        PSCENC =       157.08992076
  Ewald energy   TEWEN  =     -1288.92059171
  -Hartree energ DENC   =      -185.55861256
  -exchange      EXHF   =         0.00000000
  -V(xc)+E(xc)   XCENC  =         9.46884831
  PAW double counting   =      1109.69170683    -1125.09647265
  entropy T*S    EENTRO =        -0.00063538
  eigenvalues    EBANDS =       116.24000169
  atomic energy  EATOM  =      1188.57490811
  Solvation  Ediel_sol  =         0.00000000
  ---------------------------------------------------
  free energy    TOTEN  =       -18.51092662 eV

  energy without entropy =      -18.51029124  energy(sigma->0) =      -18.51071483


--------------------------------------------------------------------------------------------------------




--------------------------------------- Iteration      1(   4)  ---------------------------------------


     EDDAV:  cpu time    0.6655: real time    0.6655
       DOS:  cpu time    0.0063: real time    0.0063
    --------------------------------------------
      LOOP:  cpu time    0.6718: real time    0.6718

 eigenvalue-minimisations  :  8768
 total energy-change (2. order) :-0.1320470E-01  (-0.1319972E-01)
 number of electron      16.0000000 magnetization 
 augmentation part       16.0000000 magnetization 

 Free energy of the ion-electron system (eV)
  ---------------------------------------------------
  alpha Z        PSCENC =       157.08992076
  Ewald energy   TEWEN  =     -1288.92059171
  -Hartree energ DENC   =      -185.55861256
  -exchange      EXHF   =         0.00000000
  -V(xc)+E(xc)   XCENC  =         9.46884831
  PAW double counting   =      1109.69170683    -1125.09647265
  entropy T*S    EENTRO =        -0.00061596
  eigenvalues    EBANDS =       116.22677757
  atomic energy  EATOM  =      1188.57490811
  Solvation  Ediel_sol  =         0.00000000
  ---------------------------------------------------
  free energy    TOTEN  =       -18.52413131 eV

  energy without entropy =      -18.52351536  energy(sigma->0) =      -18.52392600


--------------------------------------------------------------------------------------------------------




--------------------------------------- Iteration      1(   5)  ---------------------------------------


     EDDAV:  cpu time    0.6974: real time    0.6974
       DOS:  cpu time    0.0058: real time    0.0058
    CHARGE:  cpu time    0.0174: real time    0.0174
    MIXING:  cpu time    0.0001: real time    0.0001
    --------------------------------------------
      LOOP:  cpu time    0.7207: real time    0.7208

 eigenvalue-minimisations  :  9320
 total energy-change (2. order) :-0.7682702E-05  (-0.7684162E-05)
 number of electron      16.0000185 magnetization 
 augmentation part        7.1969497 magnetization 

 Broyden mixing:
  rms(total) = 0.20083E+01    rms(broyden)= 0.20083E+01
  rms(prec ) = 0.30633E+01
  weight for this iteration     100.00

 Free energy of the ion-electron system (eV)
  ---------------------------------------------------
  alpha Z        PSCENC =       157.08992076
  Ewald energy   TEWEN  =     -1288.92059171
  -Hartree energ DENC   =      -185.55861256
  -exchange      EXHF   =         0.00000000
  -V(xc)+E(xc)   XCENC  =         9.46884831
  PAW double counting   =      1109.69170683    -1125.09647265
  entropy T*S    EENTRO =        -0.00061595
  eigenvalues    EBANDS =       116.22676988
  atomic energy  EATOM  =      1188.57490811
  Solvation  Ediel_sol  =         0.00000000
  ---------------------------------------------------
  free energy    TOTEN  =       -18.52413900 eV

  energy without entropy =      -18.52352305  energy(sigma->0) =      -18.52393368


--------------------------------------------------------------------------------------------------------




--------------------------------------- Iteration      1(   6)  ---------------------------------------


    POTLOK:  cpu time    0.0029: real time    0.0029
    SETDIJ:  cpu time    0.0021: real time    0.0021
     EDDAV:  cpu time    0.8265: real time    0.8266
       DOS:  cpu time    0.0064: real time    0.0064
    CHARGE:  cpu time    0.0170: real time    0.0170
    MIXING:  cpu time    0.0002: real time    0.0002
    --------------------------------------------
      LOOP:  cpu time    0.8551: real time    0.8552

 eigenvalue-minimisations  : 11256
 total energy-change (2. order) : 0.2619869E+01  (-0.1289669E+00)
 number of electron      16.0000218 magnetization 
 augmentation part        8.3094313 magnetization 

 Broyden mixing:
  rms(total) = 0.15047E+00    rms(broyden)= 0.15040E+00
  rms(prec ) = 0.17688E+00
  weight for this iteration     100.00

 eigenvalues of (default mixing * dielectric matrix)
  average eigenvalue GAMMA=   1.0372
  1.0372

 Free energy of the ion-electron system (eV)
  ---------------------------------------------------
  alpha Z        PSCENC =       157.08992076
  Ewald energy   TEWEN  =     -1288.92059171
  -Hartree energ DENC   =      -155.44987154
  -exchange      EXHF   =         0.00000000
  -V(xc)+E(xc)   XCENC  =         7.98440892
  PAW double counting   =      1348.41206986    -1360.85310221
  entropy T*S    EENTRO =         0.00016658
  eigenvalues    EBANDS =        87.25782102
  atomic energy  EATOM  =      1188.57490811
  Solvation  Ediel_sol  =         0.00000000
  ---------------------------------------------------
  free energy    TOTEN  =       -15.90427021 eV

  energy without entropy =      -15.90443679  energy(sigma->0) =      -15.90432574


--------------------------------------------------------------------------------------------------------




--------------------------------------- Iteration      1(   7)  ---------------------------------------


    POTLOK:  cpu time    0.0029: real time    0.0029
    SETDIJ:  cpu time    0.0021: real time    0.0021
     EDDAV:  cpu time    0.7219: real time    0.7220
       DOS:  cpu time    0.0064: real time    0.0064
    CHARGE:  cpu time    0.0172: real time    0.0172
    MIXING:  cpu time    0.0002: real time    0.0002
    --------------------------------------------
      LOOP:  cpu time    0.7508: real time    0.7508

 eigenvalue-minimisations  :  9672
 total energy-change (2. order) : 0.1131792E+00  (-0.5284352E-02)
 number of electron      16.0000214 magnetization 
 augmentation part        8.1723830 magnetization 

 Broyden mixing:
  rms(total) = 0.15509E+00    rms(broyden)= 0.15509E+00
  rms(prec ) = 0.22238E+00
  weight for this iteration     100.00

 eigenvalues of (default mixing * dielectric matrix)
  average eigenvalue GAMMA=   1.2100
  0.8445  1.5755

 Free energy of the ion-electron system (eV)
  ---------------------------------------------------
  alpha Z        PSCENC =       157.08992076
  Ewald energy   TEWEN  =     -1288.92059171
  -Hartree energ DENC   =      -156.12722090
  -exchange      EXHF   =         0.00000000
  -V(xc)+E(xc)   XCENC  =         8.04498543
  PAW double counting   =      1466.93206788    -1482.74402403
  entropy T*S    EENTRO =         0.00004717
  eigenvalues    EBANDS =        91.35881627
  atomic energy  EATOM  =      1188.57490811
  Solvation  Ediel_sol  =         0.00000000
  ---------------------------------------------------
  free energy    TOTEN  =       -15.79109102 eV

  energy without entropy =      -15.79113819  energy(sigma->0) =      -15.79110674


--------------------------------------------------------------------------------------------------------




--------------------------------------- Iteration      1(   8)  ---------------------------------------


    POTLOK:  cpu time    0.0028: real time    0.0028
    SETDIJ:  cpu time    0.0021: real time    0.0021
     EDDAV:  cpu time    0.7673: real time    0.7673
       DOS:  cpu time    0.0063: real time    0.0063
    CHARGE:  cpu time    0.0172: real time    0.0172
    MIXING:  cpu time    0.0002: real time    0.0002
    --------------------------------------------
      LOOP:  cpu time    0.7959: real time    0.7959

 eigenvalue-minimisations  : 10416
 total energy-change (2. order) : 0.3787904E-01  (-0.2118622E-03)
 number of electron      16.0000215 magnetization 
 augmentation part        8.1944952 magnetization 

 Broyden mixing:
  rms(total) = 0.54370E-01    rms(broyden)= 0.54370E-01
  rms(prec ) = 0.74949E-01
  weight for this iteration     100.00

 eigenvalues of (default mixing * dielectric matrix)
  average eigenvalue GAMMA=   1.5540
  2.7161  1.0792  0.8669

 Free energy of the ion-electron system (eV)
  ---------------------------------------------------
  alpha Z        PSCENC =       157.08992076
  Ewald energy   TEWEN  =     -1288.92059171
  -Hartree energ DENC   =      -153.60923147
  -exchange      EXHF   =         0.00000000
  -V(xc)+E(xc)   XCENC  =         7.94342228
  PAW double counting   =      1587.64273572    -1605.55524914
  entropy T*S    EENTRO =         0.00006773
  eigenvalues    EBANDS =        91.08080575
  atomic energy  EATOM  =      1188.57490811
  Solvation  Ediel_sol  =         0.00000000
  ---------------------------------------------------
  free energy    TOTEN  =       -15.75321198 eV

  energy without entropy =      -15.75327971  energy(sigma->0) =      -15.75323456


--------------------------------------------------------------------------------------------------------




--------------------------------------- Iteration      1(   9)  ---------------------------------------


    POTLOK:  cpu time    0.0029: real time    0.0029
    SETDIJ:  cpu time    0.0021: real time    0.0021
     EDDAV:  cpu time    0.7614: real time    0.7614
       DOS:  cpu time    0.0061: real time    0.0061
    CHARGE:  cpu time    0.0173: real time    0.0173
    MIXING:  cpu time    0.0002: real time    0.0002
    --------------------------------------------
      LOOP:  cpu time    0.7900: real time    0.7900

 eigenvalue-minimisations  : 10360
 total energy-change (2. order) : 0.6077049E-02  (-0.6778100E-04)
 number of electron      16.0000215 magnetization 
 augmentation part        8.2025997 magnetization 

 Broyden mixing:
  rms(total) = 0.71743E-02    rms(broyden)= 0.71739E-02
  rms(prec ) = 0.10255E-01
  weight for this iteration     100.00

 eigenvalues of (default mixing * dielectric matrix)
  average eigenvalue GAMMA=   1.6482
  2.6932  0.8751  0.9957  2.0287

 Free energy of the ion-electron system (eV)
  ---------------------------------------------------
  alpha Z        PSCENC =       157.08992076
  Ewald energy   TEWEN  =     -1288.92059171
  -Hartree energ DENC   =      -152.12237944
  -exchange      EXHF   =         0.00000000
  -V(xc)+E(xc)   XCENC  =         7.88657492
  PAW double counting   =      1675.67238290    -1695.00315100
  entropy T*S    EENTRO =         0.00007390
  eigenvalues    EBANDS =        91.07512663
  atomic energy  EATOM  =      1188.57490811
  Solvation  Ediel_sol  =         0.00000000
  ---------------------------------------------------
  free energy    TOTEN  =       -15.74713493 eV

  energy without entropy =      -15.74720883  energy(sigma->0) =      -15.74715956


--------------------------------------------------------------------------------------------------------




--------------------------------------- Iteration      1(  10)  ---------------------------------------


    POTLOK:  cpu time    0.0029: real time    0.0029
    SETDIJ:  cpu time    0.0021: real time    0.0021
     EDDAV:  cpu time    0.6445: real time    0.6445
       DOS:  cpu time    0.0066: real time    0.0066
    CHARGE:  cpu time    0.0170: real time    0.0170
    MIXING:  cpu time    0.0002: real time    0.0002
    --------------------------------------------
      LOOP:  cpu time    0.6733: real time    0.6734

 eigenvalue-minimisations  :  8440
 total energy-change (2. order) : 0.3631105E-04  (-0.2254009E-05)
 number of electron      16.0000215 magnetization 
 augmentation part        8.2020099 magnetization 

 Broyden mixing:
  rms(total) = 0.19994E-02    rms(broyden)= 0.19990E-02
  rms(prec ) = 0.30500E-02
  weight for this iteration     100.00

 eigenvalues of (default mixing * dielectric matrix)
  average eigenvalue GAMMA=   1.6623
  2.6044  2.5298  0.8738  1.0010  1.3027

 Free energy of the ion-electron system (eV)
  ---------------------------------------------------
  alpha Z        PSCENC =       157.08992076
  Ewald energy   TEWEN  =     -1288.92059171
  -Hartree energ DENC   =      -152.26006778
  -exchange      EXHF   =         0.00000000
  -V(xc)+E(xc)   XCENC  =         7.89332323
  PAW double counting   =      1674.49652239    -1693.69083993
  entropy T*S    EENTRO =         0.00007113
  eigenvalues    EBANDS =        91.06965517
  atomic energy  EATOM  =      1188.57490811
  Solvation  Ediel_sol  =         0.00000000
  ---------------------------------------------------
  free energy    TOTEN  =       -15.74709862 eV

  energy without entropy =      -15.74716975  energy(sigma->0) =      -15.74712233


--------------------------------------------------------------------------------------------------------




--------------------------------------- Iteration      1(  11)  ---------------------------------------


    POTLOK:  cpu time    0.0028: real time    0.0028
    SETDIJ:  cpu time    0.0022: real time    0.0022
     EDDAV:  cpu time    0.6441: real time    0.6441
       DOS:  cpu time    0.0065: real time    0.0065
    CHARGE:  cpu time    0.0172: real time    0.0172
    MIXING:  cpu time    0.0002: real time    0.0002
    --------------------------------------------
      LOOP:  cpu time    0.6729: real time    0.6730

 eigenvalue-minimisations  :  8136
 total energy-change (2. order) : 0.1604825E-04  (-0.2950104E-07)
 number of electron      16.0000215 magnetization 
 augmentation part        8.2018039 magnetization 

 Broyden mixing:
  rms(total) = 0.14497E-03    rms(broyden)= 0.14495E-03
  rms(prec ) = 0.23578E-03
  weight for this iteration     100.00

 eigenvalues of (default mixing * dielectric matrix)
  average eigenvalue GAMMA=   1.5874
  2.5790  2.5790  0.8740  1.0125  1.0125  1.4671

 Free energy of the ion-electron system (eV)
  ---------------------------------------------------
  alpha Z        PSCENC =       157.08992076
  Ewald energy   TEWEN  =     -1288.92059171
  -Hartree energ DENC   =      -152.32085456
  -exchange      EXHF   =         0.00000000
  -V(xc)+E(xc)   XCENC  =         7.89610096
  PAW double counting   =      1673.30909250    -1692.44172143
  entropy T*S    EENTRO =         0.00007116
  eigenvalues    EBANDS =        91.06599163
  atomic energy  EATOM  =      1188.57490811
  Solvation  Ediel_sol  =         0.00000000
  ---------------------------------------------------
  free energy    TOTEN  =       -15.74708257 eV

  energy without entropy =      -15.74715373  energy(sigma->0) =      -15.74710629


--------------------------------------------------------------------------------------------------------




--------------------------------------- Iteration      1(  12)  ---------------------------------------


    POTLOK:  cpu time    0.0029: real time    0.0029
    SETDIJ:  cpu time    0.0021: real time    0.0021
     EDDAV:  cpu time    0.5091: real time    0.5091
       DOS:  cpu time    0.0065: real time    0.0065
    --------------------------------------------
      LOOP:  cpu time    0.5205: real time    0.5205

 eigenvalue-minimisations  :  5848
 total energy-change (2. order) : 0.7156109E-06  (-0.5828582E-08)
 number of electron      16.0000215 magnetization 
 augmentation part        8.2018039 magnetization 

 Free energy of the ion-electron system (eV)
  ---------------------------------------------------
  alpha Z        PSCENC =       157.08992076
  Ewald energy   TEWEN  =     -1288.92059171
  -Hartree energ DENC   =      -152.32613481
  -exchange      EXHF   =         0.00000000
  -V(xc)+E(xc)   XCENC  =         7.89633247
  PAW double counting   =      1673.27571921    -1692.40369288
  entropy T*S    EENTRO =         0.00007130
  eigenvalues    EBANDS =        91.06638571
  atomic energy  EATOM  =      1188.57490811
  Solvation  Ediel_sol  =         0.00000000
  ---------------------------------------------------
  free energy    TOTEN  =       -15.74708186 eV

  energy without entropy =      -15.74715316  energy(sigma->0) =      -15.74710562


--------------------------------------------------------------------------------------------------------




 average (electrostatic) potential at core
  the test charge radii are     1.0103
  (the norm of the test charge is              1.0000)
       1 -41.0202       2 -41.0203
 
 
 
 E-fermi :   8.6620     XC(G=0): -14.6731     alpha+bet :-17.6156

 Fermi energy:         8.6619506840

 k-point     1 :       0.0000    0.0000    0.0000
  band No.  band energies     occupation 
      1      -1.0647      2.00000
      2       2.8315      2.00000
      3       6.2181      2.00000
      4       6.7135      2.00000
      5       6.7136      2.00000
      6       7.1547      2.00000
      7       7.1548      2.00000
      8       8.1109      2.00069
      9       8.1109      2.00069
     10       8.2782      2.02061
     11       9.5926     -0.00000
     12       9.5926     -0.00000
     13      17.9509      0.00000
     14      32.9148      0.00000
     15      34.6900      0.00000
     16      36.5209      0.00000
     17      39.5847      0.00000
     18      39.5848      0.00000
     19      40.2646      0.00000
     20      40.2648      0.00000
     21      42.9408      0.00000
     22      42.9408      0.00000
     23      43.1565      0.00000
     24      44.1026      0.00000
     25      47.5743      0.00000
     26      47.5743      0.00000
     27      49.3927      0.00000
     28      51.9620      0.00000
     29      51.9624      0.00000
     30      53.8628      0.00000
     31      53.8630      0.00000
     32      57.5687      0.00000
     33      64.8245      0.00000
     34      65.4342      0.00000
     35      65.4351      0.00000
     36      65.5865      0.00000
     37      67.0216      0.00000
     38      69.2321      0.00000
     39      69.2332      0.00000
     40      72.8072      0.00000

 k-point     2 :       0.0909    0.0000    0.0000
  band No.  band energies     occupation 
      1      -0.7006      2.00000
      2       3.0982      2.00000
      3       6.1180      2.00000
      4       6.7429      2.00000
      5       6.9433      2.00000
      6       7.0307      2.00000
      7       7.0921      2.00000
      8       7.3655      2.00000
      9       7.9690      2.00001
     10       7.9802      2.00002
     11       9.6447     -0.00000
     12      11.0293     -0.00000
     13      17.9639      0.00000
     14      31.9614      0.00000
     15      34.9795      0.00000
     16      35.0266      0.00000
     17      36.5914      0.00000
     18      38.7360      0.00000
     19      38.7764      0.00000
     20      42.5461      0.00000
     21      42.9348      0.00000
     22      43.4362      0.00000
     23      44.1725      0.00000
     24      44.5914      0.00000
     25      48.6505      0.00000
     26      48.7501      0.00000
     27      49.4980      0.00000
     28      49.7351      0.00000
     29      53.1980      0.00000
     30      55.6018      0.00000
     31      56.2917      0.00000
     32      58.9480      0.00000
     33      63.7875      0.00000
     34      64.5690      0.00000
     35      64.7943      0.00000
     36      66.0012      0.00000
     37      66.0118      0.00000
     38      69.6962      0.00000
     39      71.5214      0.00000
     40      72.8762      0.00000

 k-point     3 :       0.1818    0.0000    0.0000
  band No.  band energies     occupation 
      1       0.3181      2.00000
      2       3.7100      2.00000
      3       5.7233      2.00000
      4       5.7516      2.00000
      5       6.5738      2.00000
      6       7.2862      2.00000
      7       7.5830      2.00000
      8       7.6072      2.00000
      9       7.6329      2.00000
     10       7.9454      2.00000
     11       9.7380     -0.00000
     12      13.1726     -0.00000
     13      18.0203      0.00000
     14      28.4810      0.00000
     15      33.5206      0.00000
     16      33.7389      0.00000
     17      34.3198      0.00000
     18      35.6618      0.00000
     19      39.7769      0.00000
     20      41.8530      0.00000
     21      41.8828      0.00000
     22      42.4023      0.00000
     23      44.8967      0.00000
     24      46.7175      0.00000
     25      48.8806      0.00000
     26      49.5435      0.00000
     27      51.2239      0.00000
     28      53.6917      0.00000
     29      56.6742      0.00000
     30      58.3093      0.00000
     31      59.0778      0.00000
     32      61.2565      0.00000
     33      62.1769      0.00000
     34      63.2434      0.00000
     35      63.5741      0.00000
     36      64.2025      0.00000
     37      67.1383      0.00000
     38      70.2765      0.00000
     39      72.8282      0.00000
     40      72.8944      0.00000

 k-point     4 :       0.2727    0.0000    0.0000
  band No.  band energies     occupation 
      1       1.7201      2.00000
      2       3.9578      2.00000
      3       4.6456      2.00000
      4       5.6567      2.00000
      5       6.4093      2.00000
      6       7.1433      2.00000
      7       7.2534      2.00000
      8       8.1869      2.00397
      9       8.4915      2.00441
     10       8.7589      0.27664
     11       9.8027     -0.00000
     12      15.5147      0.00000
     13      18.1391      0.00000
     14      24.4650      0.00000
     15      30.6230      0.00000
     16      30.8585      0.00000
     17      32.3535      0.00000
     18      35.2001      0.00000
     19      38.5050      0.00000
     20      41.3437      0.00000
     21      42.3103      0.00000
     22      42.5570      0.00000
     23      42.6186      0.00000
     24      46.9742      0.00000
     25      52.2359      0.00000
     26      54.0201      0.00000
     27      54.7877      0.00000
     28      56.9337      0.00000
     29      58.2571      0.00000
     30      58.9122      0.00000
     31      60.7072      0.00000
     32      62.1736      0.00000
     33      62.3158      0.00000
     34      63.2175      0.00000
     35      63.6799      0.00000
     36      66.4781      0.00000
     37      66.7432      0.00000
     38      70.7911      0.00000
     39      72.5652      0.00000
     40      72.7148      0.00000

 k-point     5 :       0.3636   -0.0000    0.0000
  band No.  band energies     occupation 
      1       2.8637      2.00000
      2       3.6468      2.00000
      3       3.9104      2.00000
      4       5.9651      2.00000
      5       6.7373      2.00000
      6       6.8001      2.00000
      7       6.9430      2.00000
      8       9.4097     -0.00000
      9       9.5868     -0.00000
     10       9.6198     -0.00000
     11       9.8319     -0.00000
     12      17.6622      0.00000
     13      17.9630      0.00000
     14      21.7288      0.00000
     15      27.3188      0.00000
     16      28.8112      0.00000
     17      29.7656      0.00000
     18      34.1592      0.00000
     19      37.2098      0.00000
     20      40.4532      0.00000
     21      41.0359      0.00000
     22      43.4078      0.00000
     23      44.7597      0.00000
     24      47.3592      0.00000
     25      55.5198      0.00000
     26      55.8951      0.00000
     27      56.0956      0.00000
     28      59.1658      0.00000
     29      59.8148      0.00000
     30      60.2422      0.00000
     31      62.2705      0.00000
     32      62.9718      0.00000
     33      63.0530      0.00000
     34      64.1532      0.00000
     35      64.6231      0.00000
     36      66.5122      0.00000
     37      70.8764      0.00000
     38      71.2298      0.00000
     39      71.8157      0.00000
     40      71.8734      0.00000

 k-point     6 :       0.4545    0.0000    0.0000
  band No.  band energies     occupation 
      1       3.1484      2.00000
      2       3.4872      2.00000
      3       3.5382      2.00000
      4       6.5045      2.00000
      5       6.5850      2.00000
      6       6.7735      2.00000
      7       7.0901      2.00000
      8       9.8409     -0.00000
      9       9.9803     -0.00000
     10      10.1510     -0.00000
     11      11.5238     -0.00000
     12      15.3912      0.00000
     13      20.2368      0.00000
     14      21.8725      0.00000
     15      24.6447      0.00000
     16      27.1705      0.00000
     17      27.6530      0.00000
     18      33.4571      0.00000
     19      36.7829      0.00000
     20      39.2278      0.00000
     21      41.0207      0.00000
     22      44.2722      0.00000
     23      46.9076      0.00000
     24      47.6892      0.00000
     25      52.2271      0.00000
     26      57.3837      0.00000
     27      57.8877      0.00000
     28      60.7673      0.00000
     29      61.7975      0.00000
     30      62.0384      0.00000
     31      63.3253      0.00000
     32      63.6191      0.00000
     33      64.0227      0.00000
     34      66.6403      0.00000
     35      66.7475      0.00000
     36      69.2768      0.00000
     37      69.4848      0.00000
     38      69.7284      0.00000
     39      71.9359      0.00000
     40      72.0204      0.00000

 k-point     7 :       0.0909    0.0909    0.0000
  band No.  band energies     occupation 
      1      -0.0057      2.00000
      2       3.5597      2.00000
      3       5.8131      2.00000
      4       6.0891      2.00000
      5       6.7864      2.00000
      6       6.9349      2.00000
      7       7.4103      2.00000
      8       7.4802      2.00000
      9       7.8203      2.00000
     10       7.9727      2.00001
     11       9.6816     -0.00000
     12      12.5827     -0.00000
     13      18.0020      0.00000
     14      30.1093      0.00000
     15      31.8148      0.00000
     16      35.2798      0.00000
     17      35.8306      0.00000
     18      37.3780      0.00000
     19      37.7858      0.00000
     20      40.4903      0.00000
     21      42.2599      0.00000
     22      45.8006      0.00000
     23      45.8037      0.00000
     24      46.8656      0.00000
     25      47.6445      0.00000
     26      47.9989      0.00000
     27      48.2953      0.00000
     28      53.9560      0.00000
     29      56.6646      0.00000
     30      57.4304      0.00000
     31      57.5445      0.00000
     32      60.7092      0.00000
     33      62.0162      0.00000
     34      64.0597      0.00000
     35      64.4014      0.00000
     36      64.9026      0.00000
     37      65.7564      0.00000
     38      70.6280      0.00000
     39      72.6550      0.00000
     40      72.8216      0.00000

 k-point     8 :       0.1818    0.0909    0.0000
  band No.  band energies     occupation 
      1       1.2388      2.00000
      2       4.1232      2.00000
      3       5.0418      2.00000
      4       5.3994      2.00000
      5       6.4942      2.00000
      6       6.9934      2.00000
      7       7.4560      2.00000
      8       7.6825      2.00000
      9       8.2477      2.01262
     10       8.6698      0.93321
     11       9.7125     -0.00000
     12      14.6994      0.00000
     13      18.1461      0.00000
     14      26.4998      0.00000
     15      29.2575      0.00000
     16      32.3724      0.00000
     17      34.8048      0.00000
     18      35.3332      0.00000
     19      38.7092      0.00000
     20      40.0192      0.00000
     21      40.7734      0.00000
     22      45.3527      0.00000
     23      45.8074      0.00000
     24      46.5663      0.00000
     25      49.5914      0.00000
     26      50.4183      0.00000
     27      52.2396      0.00000
     28      57.4864      0.00000
     29      58.8152      0.00000
     30      59.7456      0.00000
     31      59.9624      0.00000
     32      61.7447      0.00000
     33      61.9882      0.00000
     34      63.3647      0.00000
     35      64.0214      0.00000
     36      64.3181      0.00000
     37      66.3236      0.00000
     38      71.2525      0.00000
     39      71.9550      0.00000
     40      72.6820      0.00000

 k-point     9 :       0.2727    0.0909    0.0000
  band No.  band energies     occupation 
      1       2.6224      2.00000
      2       4.0129      2.00000
      3       4.2299      2.00000
      4       5.5045      2.00000
      5       6.5898      2.00000
      6       6.6287      2.00000
      7       7.2471      2.00000
      8       8.3366      2.04368
      9       9.1766     -0.00166
     10       9.7287     -0.00000
     11       9.7830     -0.00000
     12      17.0613      0.00000
     13      18.3038      0.00000
     14      22.8214      0.00000
     15      27.3982      0.00000
     16      29.0271      0.00000
     17      32.1941      0.00000
     18      33.5394      0.00000
     19      38.2906      0.00000
     20      39.4765      0.00000
     21      41.2587      0.00000
     22      45.2936      0.00000
     23      45.3659      0.00000
     24      47.8357      0.00000
     25      51.8028      0.00000
     26      54.3476      0.00000
     27      56.3552      0.00000
     28      57.4828      0.00000
     29      57.8868      0.00000
     30      61.0015      0.00000
     31      61.5304      0.00000
     32      63.0332      0.00000
     33      63.4478      0.00000
     34      64.1741      0.00000
     35      64.4923      0.00000
     36      66.0051      0.00000
     37      69.5058      0.00000
     38      70.8525      0.00000
     39      70.8881      0.00000
     40      73.1988      0.00000

 k-point    10 :       0.3636    0.0909    0.0000
  band No.  band energies     occupation 
      1       3.3437      2.00000
      2       3.7063      2.00000
      3       3.7274      2.00000
      4       6.0429      2.00000
      5       6.4544      2.00000
      6       6.8361      2.00000
      7       6.9896      2.00000
      8       9.3704     -0.00001
      9       9.7293     -0.00000
     10       9.8390     -0.00000
     11      11.1975     -0.00000
     12      16.9525      0.00000
     13      19.4949      0.00000
     14      21.6386      0.00000
     15      25.9544      0.00000
     16      26.0340      0.00000
     17      28.9854      0.00000
     18      32.5328      0.00000
     19      37.3066      0.00000
     20      38.8929      0.00000
     21      42.0545      0.00000
     22      45.7558      0.00000
     23      46.8617      0.00000
     24      47.8146      0.00000
     25      54.1166      0.00000
     26      54.6027      0.00000
     27      57.1978      0.00000
     28      58.4327      0.00000
     29      60.3731      0.00000
     30      61.6936      0.00000
     31      62.0577      0.00000
     32      63.2255      0.00000
     33      63.7656      0.00000
     34      66.1746      0.00000
     35      67.8148      0.00000
     36      68.0161      0.00000
     37      68.4667      0.00000
     38      71.4559      0.00000
     39      72.4870      0.00000
     40      72.9322      0.00000

 k-point    11 :       0.4545    0.0909    0.0000
  band No.  band energies     occupation 
      1       3.3509      2.00000
      2       3.5577      2.00000
      3       3.6913      2.00000
      4       6.4543      2.00000
      5       6.4552      2.00000
      6       6.6244      2.00000
      7       7.1423      2.00000
      8       9.7268     -0.00000
      9       9.9478     -0.00000
     10       9.9639     -0.00000
     11      12.5554     -0.00000
     12      15.0593      0.00000
     13      21.1332      0.00000
     14      22.3191      0.00000
     15      24.2098      0.00000
     16      25.1979      0.00000
     17      27.4147      0.00000
     18      32.1722      0.00000
     19      36.8839      0.00000
[...]
     17      29.8599      0.00000
     18      31.1938      0.00000
     19      36.4068      0.00000
     20      37.0396      0.00000
     21      41.3216      0.00000
     22      42.0842      0.00000
     23      46.8636      0.00000
     24      47.9980      0.00000
     25      54.0750      0.00000
     26      55.8739      0.00000
     27      57.8795      0.00000
     28      58.5995      0.00000
     29      61.5840      0.00000
     30      62.5032      0.00000
     31      63.1663      0.00000
     32      63.5421      0.00000
     33      65.6362      0.00000
     34      66.1261      0.00000
     35      67.5031      0.00000
     36      68.1197      0.00000
     37      69.0537      0.00000
     38      70.9133      0.00000
     39      72.6484      0.00000
     40      73.1470      0.00000

 k-point    91 :       0.4545    0.0909    0.4545
  band No.  band energies     occupation 
      1       3.0078      2.00000
      2       3.1935      2.00000
      3       4.6408      2.00000
      4       4.7939      2.00000
      5       7.3150      2.00000
      6       7.8293      2.00000
      7       8.6211      1.33821
      8       8.9782     -0.04785
      9       9.8301     -0.00000
     10       9.8434     -0.00000
     11      12.4077     -0.00000
     12      12.9936     -0.00000
     13      19.7903      0.00000
     14      19.8320      0.00000
     15      28.1724      0.00000
     16      28.9715      0.00000
     17      30.6145      0.00000
     18      31.1681      0.00000
     19      36.2590      0.00000
     20      36.3497      0.00000
     21      40.6063      0.00000
     22      40.8936      0.00000
     23      47.0414      0.00000
     24      48.2174      0.00000
     25      54.3997      0.00000
     26      56.2761      0.00000
     27      60.5939      0.00000
     28      61.1653      0.00000
     29      61.2848      0.00000
     30      61.7470      0.00000
     31      62.7986      0.00000
     32      63.3175      0.00000
     33      66.9607      0.00000
     34      67.1989      0.00000
     35      67.9176      0.00000
     36      68.9057      0.00000
     37      70.4921      0.00000
     38      71.0090      0.00000
     39      73.1466      0.00000
     40      73.4264      0.00000

 k-point    92 :       0.1818    0.1818    0.4545
  band No.  band energies     occupation 
      1       3.3064      2.00000
      2       3.5637      2.00000
      3       5.3439      2.00000
      4       5.3978      2.00000
      5       5.9366      2.00000
      6       6.0058      2.00000
      7       7.7098      2.00000
      8       8.0161      2.00005
      9       9.6005     -0.00000
     10       9.7131     -0.00000
     11      10.3293     -0.00000
     12      11.0088     -0.00000
     13      26.0235      0.00000
     14      26.5032      0.00000
     15      26.8049      0.00000
     16      28.0157      0.00000
     17      28.6039      0.00000
     18      30.2397      0.00000
     19      40.4597      0.00000
     20      41.5654      0.00000
     21      42.2328      0.00000
     22      43.4219      0.00000
     23      45.8228      0.00000
     24      45.9250      0.00000
     25      52.5967      0.00000
     26      53.1428      0.00000
     27      56.7752      0.00000
     28      57.0693      0.00000
     29      59.4602      0.00000
     30      60.8841      0.00000
     31      61.6450      0.00000
     32      62.1300      0.00000
     33      63.0289      0.00000
     34      63.0864      0.00000
     35      65.0985      0.00000
     36      65.3694      0.00000
     37      69.0713      0.00000
     38      70.7968      0.00000
     39      71.3436      0.00000
     40      71.4389      0.00000

 k-point    93 :       0.2727    0.1818    0.4545
  band No.  band energies     occupation 
      1       3.5465      2.00000
      2       3.6685      2.00000
      3       5.1017      2.00000
      4       5.3650      2.00000
      5       6.2674      2.00000
      6       6.4820      2.00000
      7       7.6692      2.00000
      8       7.9593      2.00001
      9       9.7264     -0.00000
     10      10.0130     -0.00000
     11      12.0057     -0.00000
     12      12.6286     -0.00000
     13      22.7868      0.00000
     14      23.4209      0.00000
     15      25.7311      0.00000
     16      26.5421      0.00000
     17      29.4032      0.00000
     18      31.3258      0.00000
     19      38.4733      0.00000
     20      39.9757      0.00000
     21      41.5288      0.00000
     22      43.0321      0.00000
     23      46.0478      0.00000
     24      46.6187      0.00000
     25      53.8896      0.00000
     26      54.4411      0.00000
     27      58.0919      0.00000
     28      59.7020      0.00000
     29      61.7470      0.00000
     30      62.7873      0.00000
     31      63.1890      0.00000
     32      63.5603      0.00000
     33      64.5640      0.00000
     34      64.7848      0.00000
     35      65.4497      0.00000
     36      66.0180      0.00000
     37      69.4875      0.00000
     38      71.6114      0.00000
     39      71.8304      0.00000
     40      72.6071      0.00000

 k-point    94 :       0.3636    0.1818    0.4545
  band No.  band energies     occupation 
      1       3.5252      2.00000
      2       3.7170      2.00000
      3       4.9451      2.00000
      4       5.2042      2.00000
      5       6.3847      2.00000
      6       6.8058      2.00000
      7       8.0920      2.00042
      8       8.2426      2.01156
      9       9.6751     -0.00000
     10       9.8795     -0.00000
     11      13.8499     -0.00000
     12      14.3429      0.00000
     13      20.1644      0.00000
     14      20.5621      0.00000
     15      25.0494      0.00000
     16      25.8671      0.00000
     17      31.0097      0.00000
     18      32.2503      0.00000
     19      37.0717      0.00000
     20      38.1955      0.00000
     21      40.3010      0.00000
     22      41.9229      0.00000
     23      47.0521      0.00000
     24      47.4939      0.00000
     25      56.8713      0.00000
     26      57.4156      0.00000
     27      58.5209      0.00000
     28      60.2000      0.00000
     29      61.0850      0.00000
     30      61.5262      0.00000
     31      63.0466      0.00000
     32      63.6506      0.00000
     33      65.5532      0.00000
     34      65.9906      0.00000
     35      67.7404      0.00000
     36      68.5248      0.00000
     37      70.1450      0.00000
     38      70.8168      0.00000
     39      71.5192      0.00000
     40      72.8767      0.00000

 k-point    95 :       0.2727    0.2727    0.4545
  band No.  band energies     occupation 
      1       3.9762      2.00000
      2       4.0569      2.00000
      3       5.1807      2.00000
      4       5.4397      2.00000
      5       5.9209      2.00000
      6       6.1885      2.00000
      7       7.6129      2.00000
      8       7.8579      2.00000
      9       9.6926     -0.00000
     10       9.9126     -0.00000
     11      14.3661      0.00000
     12      14.9505      0.00000
     13      21.0737      0.00000
     14      21.5710      0.00000
     15      23.3044      0.00000
     16      23.7634      0.00000
     17      31.2374      0.00000
     18      33.0327      0.00000
     19      37.0437      0.00000
     20      38.6627      0.00000
     21      40.1215      0.00000
     22      41.4282      0.00000
     23      48.8559      0.00000
     24      49.3009      0.00000
     25      54.1678      0.00000
     26      54.2089      0.00000
     27      60.8343      0.00000
     28      61.3912      0.00000
     29      61.4579      0.00000
     30      62.5315      0.00000
     31      63.6189      0.00000
     32      63.7564      0.00000
     33      64.2388      0.00000
     34      64.8798      0.00000
     35      67.9755      0.00000
     36      68.4934      0.00000
     37      69.2988      0.00000
     38      69.5627      0.00000
     39      70.4588      0.00000
     40      72.3959      0.00000

 k-point    96 :       0.3636    0.2727    0.4545
  band No.  band energies     occupation 
      1       4.2042      2.00000
      2       4.3691      2.00000
      3       5.0554      2.00000
      4       5.1355      2.00000
      5       5.9797      2.00000
      6       6.1153      2.00000
      7       7.7044      2.00000
      8       7.8896      2.00000
      9       9.6538     -0.00000
     10       9.7362     -0.00000
     11      16.3027      0.00000
     12      16.4592      0.00000
     13      19.3454      0.00000
     14      19.7562      0.00000
     15      22.6539      0.00000
     16      23.1122      0.00000
     17      32.8970      0.00000
     18      33.9371      0.00000
     19      36.3100      0.00000
     20      36.4645      0.00000
     21      39.9431      0.00000
     22      40.8466      0.00000
     23      50.2564      0.00000
     24      50.9627      0.00000
     25      54.9747      0.00000
     26      55.3955      0.00000
     27      58.7226      0.00000
     28      59.0548      0.00000
     29      62.3337      0.00000
     30      63.4157      0.00000
     31      63.6590      0.00000
     32      63.8597      0.00000
     33      65.1102      0.00000
     34      65.5155      0.00000
     35      66.4072      0.00000
     36      67.6838      0.00000
     37      69.9159      0.00000
     38      72.2484      0.00000
     39      72.4045      0.00000
     40      73.1885      0.00000


--------------------------------------------------------------------------------------------------------


 soft charge-density along one line, spin component           1
         0         1         2         3         4         5         6         7         8         9
x     7.7982    0.0000    0.0727   -0.1260   -0.0531   -0.0920    0.0216   -0.0000    0.0011   -0.0019
x     0.0000    0.0000
y     7.7982    0.0000    0.0727    0.1260   -0.0531    0.0920    0.0216    0.0000    0.0011    0.0019
y     0.0000    0.0000
z     7.7982    0.0000    0.0000   -0.0000    0.2460    0.0000    0.0000    0.0000   -0.1333   -0.0000
z     0.0000    0.0000    0.0234   -0.0000    0.0000    0.0000    0.0000    0.0000
 total charge-density along one line
x    16.0000    0.0000    1.4141   -2.4493    0.2600    0.4504    0.0072    0.0000    0.0020   -0.0034
x    -0.0003   -0.0006    0.0006   -0.0000   -0.0001    0.0001    0.0001    0.0001   -0.0001    0.0000
x     0.0000    0.0000
y    16.0000    0.0000    1.4141    2.4493    0.2600   -0.4504    0.0072   -0.0000    0.0020    0.0034
y    -0.0003    0.0006    0.0006    0.0000   -0.0001   -0.0001    0.0001   -0.0001   -0.0001   -0.0000
y     0.0000   -0.0000
z    16.0000    0.0000    0.0000   -0.0000    5.5467    0.0000    0.0000    0.0000    1.0376   -0.0000
z     0.0000    0.0000    0.0041   -0.0000    0.0000   -0.0000    0.0061    0.0000   -0.0000   -0.0000
z    -0.0020   -0.0000   -0.0000   -0.0000    0.0009   -0.0000   -0.0000   -0.0000   -0.0006    0.0000
z     0.0000    0.0000    0.0005    0.0000
 
 pseudopotential strength for first ion, spin component:           1
 -3.402   0.000  -0.000   0.000  -0.000  -3.995   0.000  -0.000
  0.000  -3.393   0.000  -0.000   0.000   0.000  -3.986   0.000
 -0.000   0.000  -3.404  -0.000  -0.000  -0.000   0.000  -3.997
  0.000  -0.000  -0.000  -3.393   0.000   0.000  -0.000  -0.000
 -0.000   0.000  -0.000   0.000  -3.402  -0.000   0.000  -0.000
 -3.995   0.000  -0.000   0.000  -0.000  -4.545   0.000  -0.000
  0.000  -3.986   0.000  -0.000   0.000   0.000  -4.536   0.000
 -0.000   0.000  -3.997  -0.000  -0.000  -0.000   0.000  -4.546
  0.000  -0.000  -0.000  -3.986   0.000   0.000  -0.000  -0.000
 -0.000   0.000  -0.000   0.000  -3.995  -0.000   0.000  -0.000
  0.000  -0.000   0.001  -0.000  -0.000   0.000  -0.000   0.001
  0.000  -0.000   0.002  -0.000  -0.000   0.000  -0.000   0.002
 -0.000   0.000  -0.000   0.000  -0.002  -0.000   0.000  -0.000
  0.000  -0.000   0.000   0.000   0.000   0.000  -0.000   0.000
 -0.002   0.000   0.000   0.000  -0.000  -0.002   0.000   0.000
 -0.000   0.000  -0.000   0.000  -0.002  -0.000   0.000  -0.000
  0.000  -0.000   0.000   0.000   0.000   0.000  -0.000   0.000
 -0.002   0.000   0.000   0.000  -0.000  -0.002   0.000   0.000
 total augmentation occupancy for first ion, spin component:           1
  1.938  -0.000   0.000   0.000   0.000  -1.559   0.000  -0.000   0.000  -0.000  -0.000   0.000   0.000   0.000   0.042  -0.000
  0.000   2.280   0.000  -0.000   0.000   0.000  -1.722  -0.000   0.000   0.000  -0.000   0.000   0.000  -0.000   0.000   0.000
  0.000   0.000   1.597  -0.000  -0.000  -0.000  -0.000  -1.304   0.000   0.000  -0.002  -0.006  -0.000   0.000   0.000   0.000
  0.000  -0.000  -0.000   2.280   0.000   0.000   0.000   0.000  -1.722   0.000   0.000  -0.000   0.000  -0.000  -0.000   0.000
  0.000   0.000  -0.000   0.000   1.938  -0.000   0.000   0.000   0.000  -1.559  -0.000   0.000   0.042   0.000  -0.000  -0.002
 -1.559   0.000  -0.000   0.000  -0.000   2.560   0.000   0.000  -0.000   0.000   0.000   0.000  -0.000  -0.000  -0.060   0.000
  0.000  -1.722   0.000   0.000   0.000  -0.000   2.520  -0.000  -0.000   0.000   0.000   0.000   0.000   0.000   0.000   0.000
 -0.000   0.000  -1.304  -0.000   0.000   0.000  -0.000   2.380  -0.000  -0.000  -0.046   0.002   0.000   0.000  -0.000   0.000
  0.000   0.000   0.000  -1.722   0.000  -0.000  -0.000  -0.000   2.520  -0.000  -0.000   0.000   0.000  -0.000  -0.000   0.000
 -0.000   0.000   0.000  -0.000  -1.559   0.000   0.000  -0.000   0.000   2.560   0.000  -0.000  -0.060  -0.000   0.000   0.002
 -0.000  -0.000  -0.002   0.000  -0.000   0.000   0.000  -0.046   0.000   0.000   3.144  -0.380   0.000   0.000  -0.000   0.000
  0.000   0.000  -0.006  -0.000   0.000   0.000  -0.000   0.002   0.000  -0.000  -0.380   0.052   0.000   0.000   0.000   0.000
  0.000   0.000   0.000   0.000   0.042  -0.000   0.000   0.000   0.000  -0.060   0.000   0.000   0.433  -0.000  -0.000  -0.033
 -0.000  -0.000   0.000  -0.000   0.000  -0.000   0.000   0.000  -0.000  -0.000   0.000   0.000  -0.000   0.423   0.000  -0.000
  0.042   0.000   0.000   0.000  -0.000  -0.060   0.000  -0.000  -0.000   0.000   0.000   0.000  -0.000   0.000   0.433   0.000
 -0.000   0.000   0.000   0.000  -0.002   0.000   0.000   0.000   0.000   0.002   0.000   0.000  -0.033   0.000   0.000   0.003
  0.000   0.000   0.000  -0.000  -0.000   0.000   0.000   0.000  -0.000   0.000   0.000   0.000   0.000  -0.036   0.000   0.000
 -0.002   0.000   0.000   0.000   0.000   0.002   0.000   0.000   0.000  -0.000  -0.000  -0.000   0.000   0.000  -0.033  -0.000


------------------------ aborting loop because EDIFF is reached ----------------------------------------


    CHARGE:  cpu time    0.0174: real time    0.0174
    FORLOC:  cpu time    0.0002: real time    0.0002
    FORNL :  cpu time    0.0948: real time    0.0948
    STRESS:  cpu time    0.1358: real time    0.1358
    FORCOR:  cpu time    0.0031: real time    0.0031
    FORHAR:  cpu time    0.0007: real time    0.0007
    MIXING:  cpu time    0.0002: real time    0.0002

  FORCE on cell =-STRESS in cart. coord.  units (eV):
  Direction    XX          YY          ZZ          XY          YZ          ZX
  --------------------------------------------------------------------------------------
  Alpha Z   157.08992   157.08992   157.08992
  Ewald    -421.29024  -421.29024  -446.34063     0.00000     0.00000    -0.00000
  Hartree    53.61034    53.61035    45.10340    -0.00000    -0.00000    -0.00000
  E(xc)     -80.21807   -80.21808   -80.03888     0.00011    -0.00000    -0.00000
  Local     117.94746   117.94763   149.60440    -0.00063     0.00000     0.00000
  n-local   -49.08471   -48.80883   -50.82734    -4.83452     1.57364     1.09363
  augment    74.95620    74.95597    75.18127     0.00074    -0.00000     0.00000
  Kinetic   158.18838   152.06500   152.86839     0.94774    -1.07206     0.06765
  Fock        0.00000     0.00000     0.00000     0.00000     0.00000     0.00000
  -------------------------------------------------------------------------------------
  Total       8.27550     8.27550     2.64053    -0.00000     0.00000     0.00000
  in kB     753.40478   753.40478   240.39491    -0.00000     0.00000     0.00000
  external pressure =      582.40 kB  Pullay stress =        0.00 kB


 VOLUME and BASIS-vectors are now :
 -----------------------------------------------------------------------------
  energy-cutoff  :      280.00
  volume of cell :       17.60
      direct lattice vectors                 reciprocal lattice vectors
     2.283400000  0.000000000  0.000000000     0.437943418  0.252846750  0.000000000
    -1.141700000  1.977482407  0.000000000     0.000000000  0.505693500  0.000000000
     0.000000000  0.000000000  3.897460000     0.000000000  0.000000000  0.256577361

  length of vectors
     2.283400000  2.283400000  3.897460000     0.505693500  0.505693500  0.256577361


 FORCES acting on ions
    electron-ion (+dipol)            ewald-force                    non-local-force                 convergence-correction
 -----------------------------------------------------------------------------------------------
   0.587E-06 -.689E-06 -.172E-14   0.736E-12 -.427E-12 -.251E-13   0.226E-17 0.761E-18 0.123E-18   -.952E-08 0.547E-08 0.150E-13
   -.270E-05 0.137E-05 0.593E-13   -.733E-12 0.428E-12 0.251E-13   -.934E-17 -.192E-17 0.190E-18   0.950E-08 -.546E-08 0.527E-14
 -----------------------------------------------------------------------------------------------
   -.211E-05 0.679E-06 0.576E-13   0.287E-14 0.129E-14 0.121E-16   -.708E-17 -.116E-17 0.313E-18   -.161E-10 0.929E-11 0.203E-13
 
 
 POSITION                                       TOTAL-FORCE (eV/Angst)
 -----------------------------------------------------------------------------------
      0.00000      0.00000      0.00000        -0.000000     -0.000000      0.000000
      0.00000      1.31832      1.94873         0.000000      0.000000     -0.000000
 -----------------------------------------------------------------------------------
    total drift:                               -0.000002      0.000001      0.000000


--------------------------------------------------------------------------------------------------------



  FREE ENERGIE OF THE ION-ELECTRON SYSTEM (eV)
  ---------------------------------------------------
  free  energy   TOTEN  =       -15.74708186 eV

  energy  without entropy=      -15.74715316  energy(sigma->0) =      -15.74710562
 


--------------------------------------------------------------------------------------------------------


    POTLOK:  cpu time    0.0052: real time    0.0052


--------------------------------------------------------------------------------------------------------


 writing wavefunctions
     LOOP+:  cpu time    8.8860: real time    8.9078
    4ORBIT:  cpu time    0.0000: real time    0.0000

 total amount of memory used by VASP MPI-rank0    47796. kBytes
=======================================================================

   base      :      30000. kBytes
   nonl-proj :       2729. kBytes
   grid      :        721. kBytes
   one-center:         31. kBytes
   wavefun   :      14315. kBytes
 
  
  
 General timing and accounting informations for this job:
 ========================================================
  
                  Total CPU time used (sec):        9.054
                            User time (sec):        9.014
                          System time (sec):        0.040
                         Elapsed time (sec):        9.065
  
                   Maximum memory used (kb):       52784.
                   Average memory used (kb):          N/A
  
                          Minor page faults:         6728
                          Major page faults:            0
                 Voluntary context switches:           26
