 vasp.6.2.0 18Jan21 (build Mar 17 2021 09:06:54) complex                        
  
 POSCAR found type information on POSCAR Fe
 POSCAR found :  1 types and       2 ions
 LDA part: xc-table for Pade appr. of Perdew
 POSCAR, INCAR and KPOINTS ok, starting setup
 FFT: planning ...
 WAVECAR not read
 WARNING: chargedensity file is incomplete
 entering main loop
       N       E                     dE             d eps       ncg     rms          rms(c)
DAV:   1     0.596858797780E+02    0.59686E+02   -0.24843E+03  9656   0.336E+02
DAV:   2    -0.145260167271E+02   -0.74212E+02   -0.63377E+02  7976   0.977E+01
DAV:   3    -0.185109266184E+02   -0.39849E+01   -0.38222E+01  9608   0.235E+01
DAV:   4    -0.185241313146E+02   -0.13205E-01   -0.13200E-01  8768   0.142E+00
DAV:   5    -0.185241389973E+02   -0.76827E-05   -0.76842E-05  9320   0.329E-02    0.201E+01
DAV:   6    -0.159042702124E+02    0.26199E+01   -0.12897E+00 11256   0.216E+01    0.150E+00
DAV:   7    -0.157910910216E+02    0.11318E+00   -0.52844E-02  9672   0.305E+00    0.155E+00
DAV:   8    -0.157532119794E+02    0.37879E-01   -0.21186E-03 10416   0.281E-01    0.544E-01
DAV:   9    -0.157471349301E+02    0.60770E-02   -0.67781E-04 10360   0.147E-01    0.717E-02
DAV:  10    -0.157470986191E+02    0.36311E-04   -0.22540E-05  8440   0.218E-02    0.200E-02
DAV:  11    -0.157470825708E+02    0.16048E-04   -0.29501E-07  8136   0.337E-03    0.145E-03
DAV:  12    -0.157470818552E+02    0.71561E-06   -0.58286E-08  5848   0.118E-03
   1 F= -.15747082E+02 E0= -.15747106E+02  d E =0.713004E-04
 writing wavefunctions
