<?xml version="1.0" encoding="ISO-8859-1"?>
<modeling>
 <generator>
  <i name="program" type="string">vasp </i>
  <i name="version" type="string">6.2.0  </i>
  <i name="subversion" type="string">18Jan21 (build Mar 17 2021 09:06:54) complex                          serial </i>
  <i name="platform" type="string">LinuxIFC </i>
  <i name="date" type="string">2021 09 09 </i>
  <i name="time" type="string">12:00:51 </i>
 </generator>
 <incar>
  <i type="string" name="PREC">normal</i>
  <i type="int" name="ICHARG">     1</i>
  <i type="int" name="IBRION">     1</i>
  <i name="EDIFF">      0.00000100</i>
  <i type="int" name="NSW">     0</i>
  <i type="int" name="ISIF">     2</i>
  <i name="ENCUT">    280.00000000</i>
  <i type="int" name="NBANDS">    40</i>
  <i type="int" name="ISMEAR">     1</i>
  <i name="SIGMA">      0.20000000</i>
  <i type="logical" name="LCHARG"> T  </i>
  <i type="int" name="KPAR">     1</i>
  <i type="int" name="NCORE">     1</i>
  <i type="string" name="GGA">PE</i>
 </incar>
 <primitive_cell>
  <structure name="primitive_cell" >
   <crystal>
    <varray name="basis" >
     <v>       2.28340000       0.00000000       0.00000000 </v>
     <v>      -1.14170000       1.97748241       0.00000000 </v>
     <v>       0.00000000       0.00000000       3.89746000 </v>
    </varray>
    <i name="volume">     17.59852591 </i>
    <varray name="rec_basis" >
     <v>       0.43794342       0.25284675       0.00000000 </v>
     <v>       0.00000000       0.50569350       0.00000000 </v>
     <v>       0.00000000       0.00000000       0.25657736 </v>
    </varray>
   </crystal>
   <varray name="positions" >
    <v>       0.00000000       0.00000000       0.00000000 </v>
    <v>       0.33333333       0.66666667       0.50000000 </v>
   </varray>
  </structure>
  <varray name="primitive_index" >
   <v type="int" >        1 </v>
   <v type="int" >        2 </v>
  </varray>
 </primitive_cell>
 <kpoints>
  <generation param="Monkhorst-Pack">
   <v type="int" name="divisions">      11       11       11 </v>
   <v name="usershift">      0.00000000       0.00000000       0.00000000 </v>
   <v name="genvec1">      0.09090909      -0.00000000       0.00000000 </v>
   <v name="genvec2">      0.00000000       0.09090909       0.00000000 </v>
   <v name="genvec3">      0.00000000       0.00000000       0.09090909 </v>
   <v name="shift">      0.00000000       0.00000000       0.00000000 </v>
  </generation>
  <varray name="kpointlist" >
   <v>       0.00000000       0.00000000       0.00000000 </v>
   <v>       0.09090909       0.00000000       0.00000000 </v>
   <v>       0.18181818       0.00000000       0.00000000 </v>
   <v>       0.27272727       0.00000000       0.00000000 </v>
   <v>       0.36363636      -0.00000000       0.00000000 </v>
   <v>       0.45454545       0.00000000       0.00000000 </v>
   <v>       0.09090909       0.09090909       0.00000000 </v>
   <v>       0.18181818       0.09090909       0.00000000 </v>
   <v>       0.27272727       0.09090909       0.00000000 </v>
   <v>       0.36363636       0.09090909       0.00000000 </v>
   <v>       0.45454545       0.09090909       0.00000000 </v>
   <v>       0.18181818       0.18181818       0.00000000 </v>
   <v>       0.27272727       0.18181818       0.00000000 </v>
   <v>       0.36363636       0.18181818       0.00000000 </v>
   <v>       0.27272727       0.27272727       0.00000000 </v>
   <v>       0.36363636       0.27272727       0.00000000 </v>
   <v>       0.00000000       0.00000000       0.09090909 </v>
   <v>       0.09090909       0.00000000       0.09090909 </v>
   <v>       0.18181818       0.00000000       0.09090909 </v>
   <v>       0.27272727       0.00000000       0.09090909 </v>
   <v>       0.36363636      -0.00000000       0.09090909 </v>
   <v>       0.45454545       0.00000000       0.09090909 </v>
   <v>       0.09090909       0.09090909       0.09090909 </v>
   <v>       0.18181818       0.09090909       0.09090909 </v>
   <v>       0.27272727       0.09090909       0.09090909 </v>
   <v>       0.36363636       0.09090909       0.09090909 </v>
   <v>       0.45454545       0.09090909       0.09090909 </v>
   <v>       0.18181818       0.18181818       0.09090909 </v>
   <v>       0.27272727       0.18181818       0.09090909 </v>
   <v>       0.36363636       0.18181818       0.09090909 </v>
   <v>       0.27272727       0.27272727       0.09090909 </v>
   <v>       0.36363636       0.27272727       0.09090909 </v>
   <v>       0.00000000       0.00000000       0.18181818 </v>
   <v>       0.09090909       0.00000000       0.18181818 </v>
   <v>       0.18181818       0.00000000       0.18181818 </v>
   <v>       0.27272727       0.00000000       0.18181818 </v>
   <v>       0.36363636      -0.00000000       0.18181818 </v>
   <v>       0.45454545       0.00000000       0.18181818 </v>
   <v>       0.09090909       0.09090909       0.18181818 </v>
   <v>       0.18181818       0.09090909       0.18181818 </v>
   <v>       0.27272727       0.09090909       0.18181818 </v>
   <v>       0.36363636       0.09090909       0.18181818 </v>
   <v>       0.45454545       0.09090909       0.18181818 </v>
   <v>       0.18181818       0.18181818       0.18181818 </v>
   <v>       0.27272727       0.18181818       0.18181818 </v>
   <v>       0.36363636       0.18181818       0.18181818 </v>
   <v>       0.27272727       0.27272727       0.18181818 </v>
   <v>       0.36363636       0.27272727       0.18181818 </v>
   <v>       0.00000000       0.00000000       0.27272727 </v>
   <v>       0.09090909       0.00000000       0.27272727 </v>
   <v>       0.18181818       0.00000000       0.27272727 </v>
   <v>       0.27272727       0.00000000       0.27272727 </v>
   <v>       0.36363636      -0.00000000       0.27272727 </v>
   <v>       0.45454545       0.00000000       0.27272727 </v>
   <v>       0.09090909       0.09090909       0.27272727 </v>
   <v>       0.18181818       0.09090909       0.27272727 </v>
   <v>       0.27272727       0.09090909       0.27272727 </v>
   <v>       0.36363636       0.09090909       0.27272727 </v>
   <v>       0.45454545       0.09090909       0.27272727 </v>
   <v>       0.18181818       0.18181818       0.27272727 </v>
   <v>       0.27272727       0.18181818       0.27272727 </v>
   <v>       0.36363636       0.18181818       0.27272727 </v>
   <v>       0.27272727       0.27272727       0.27272727 </v>
   <v>       0.36363636       0.27272727       0.27272727 </v>
   <v>       0.00000000       0.00000000       0.36363636 </v>
   <v>       0.09090909       0.00000000       0.36363636 </v>
   <v>       0.18181818       0.00000000       0.36363636 </v>
   <v>       0.27272727       0.00000000       0.36363636 </v>
   <v>       0.36363636      -0.00000000       0.36363636 </v>
   <v>       0.45454545       0.00000000       0.36363636 </v>
   <v>       0.09090909       0.09090909       0.36363636 </v>
   <v>       0.18181818       0.09090909       0.36363636 </v>
   <v>       0.27272727       0.09090909       0.36363636 </v>
   <v>       0.36363636       0.09090909       0.36363636 </v>
   <v>       0.45454545       0.09090909       0.36363636 </v>
   <v>       0.18181818       0.18181818       0.36363636 </v>
   <v>       0.27272727       0.18181818       0.36363636 </v>
   <v>       0.36363636       0.18181818       0.36363636 </v>
   <v>       0.27272727       0.27272727       0.36363636 </v>
   <v>       0.36363636       0.27272727       0.36363636 </v>
   <v>       0.00000000       0.00000000       0.45454545 </v>
   <v>       0.09090909       0.00000000       0.45454545 </v>
   <v>       0.18181818       0.00000000       0.45454545 </v>
   <v>       0.27272727       0.00000000       0.45454545 </v>
   <v>       0.36363636      -0.00000000       0.45454545 </v>
   <v>       0.45454545       0.00000000       0.45454545 </v>
   <v>       0.09090909       0.09090909       0.45454545 </v>
   <v>       0.18181818       0.09090909       0.45454545 </v>
   <v>       0.27272727       0.09090909       0.45454545 </v>
   <v>       0.36363636       0.09090909       0.45454545 </v>
   <v>       0.45454545       0.09090909       0.45454545 </v>
   <v>       0.18181818       0.18181818       0.45454545 </v>
   <v>       0.27272727       0.18181818       0.45454545 </v>
   <v>       0.36363636       0.18181818       0.45454545 </v>
   <v>       0.27272727       0.27272727       0.45454545 </v>
   <v>       0.36363636       0.27272727       0.45454545 </v>
  </varray>
  <varray name="weights" >
   <v>       0.00075131 </v>
   <v>       0.00450789 </v>
   <v>       0.00450789 </v>
   <v>       0.00450789 </v>
   <v>       0.00450789 </v>
   <v>       0.00450789 </v>
   <v>       0.00450789 </v>
   <v>       0.00901578 </v>
   <v>       0.00901578 </v>
   <v>       0.00901578 </v>
   <v>       0.00450789 </v>
   <v>       0.00450789 </v>
   <v>       0.00901578 </v>
   <v>       0.00901578 </v>
   <v>       0.00450789 </v>
   <v>       0.00450789 </v>
   <v>       0.00150263 </v>
   <v>       0.00901578 </v>
   <v>       0.00901578 </v>
   <v>       0.00901578 </v>
   <v>       0.00901578 </v>
   <v>       0.00901578 </v>
   <v>       0.00901578 </v>
   <v>       0.01803156 </v>
   <v>       0.01803156 </v>
   <v>       0.01803156 </v>
   <v>       0.00901578 </v>
   <v>       0.00901578 </v>
   <v>       0.01803156 </v>
   <v>       0.01803156 </v>
   <v>       0.00901578 </v>
   <v>       0.00901578 </v>
   <v>       0.00150263 </v>
   <v>       0.00901578 </v>
   <v>       0.00901578 </v>
   <v>       0.00901578 </v>
   <v>       0.00901578 </v>
   <v>       0.00901578 </v>
   <v>       0.00901578 </v>
   <v>       0.01803156 </v>
   <v>       0.01803156 </v>
   <v>       0.01803156 </v>
   <v>       0.00901578 </v>
   <v>       0.00901578 </v>
   <v>       0.01803156 </v>
   <v>       0.01803156 </v>
   <v>       0.00901578 </v>
   <v>       0.00901578 </v>
   <v>       0.00150263 </v>
   <v>       0.00901578 </v>
   <v>       0.00901578 </v>
   <v>       0.00901578 </v>
   <v>       0.00901578 </v>
   <v>       0.00901578 </v>
   <v>       0.00901578 </v>
   <v>       0.01803156 </v>
   <v>       0.01803156 </v>
   <v>       0.01803156 </v>
   <v>       0.00901578 </v>
   <v>       0.00901578 </v>
   <v>       0.01803156 </v>
   <v>       0.01803156 </v>
   <v>       0.00901578 </v>
   <v>       0.00901578 </v>
   <v>       0.00150263 </v>
   <v>       0.00901578 </v>
   <v>       0.00901578 </v>
   <v>       0.00901578 </v>
   <v>       0.00901578 </v>
   <v>       0.00901578 </v>
   <v>       0.00901578 </v>
   <v>       0.01803156 </v>
   <v>       0.01803156 </v>
   <v>       0.01803156 </v>
   <v>       0.00901578 </v>
   <v>       0.00901578 </v>
   <v>       0.01803156 </v>
   <v>       0.01803156 </v>
   <v>       0.00901578 </v>
   <v>       0.00901578 </v>
   <v>       0.00150263 </v>
   <v>       0.00901578 </v>
   <v>       0.00901578 </v>
   <v>       0.00901578 </v>
   <v>       0.00901578 </v>
   <v>       0.00901578 </v>
   <v>       0.00901578 </v>
   <v>       0.01803156 </v>
   <v>       0.01803156 </v>
   <v>       0.01803156 </v>
   <v>       0.00901578 </v>
   <v>       0.00901578 </v>
   <v>       0.01803156 </v>
   <v>       0.01803156 </v>
   <v>       0.00901578 </v>
   <v>       0.00901578 </v>
  </varray>
 </kpoints>
 <parameters>
  <separator name="general" >
   <i type="string" name="SYSTEM">unknown system</i>
   <i type="logical" name="LCOMPAT"> F  </i>
  </separator>
  <separator name="electronic" >
   <i type="string" name="PREC">normal</i>
   <i name="ENMAX">    280.00000000</i>
   <i name="ENAUG">    511.36800000</i>
   <i name="EDIFF">      0.00000100</i>
   <i type="int" name="IALGO">    38</i>
   <i type="int" name="IWAVPR">     0</i>
   <i type="int" name="NBANDS">    40</i>
   <i type="int" name="NBANDSLOW">    -1</i>
   <i type="int" name="NBANDSHIGH">    -1</i>
   <i name="NELECT">     16.00000000</i>
   <i type="int" name="TURBO">     0</i>
   <i type="int" name="IRESTART">     0</i>
   <i type="int" name="NREBOOT">     0</i>
   <i type="int" name="NMIN">     0</i>
   <i name="EREF">      0.00000000</i>
   <separator name="electronic smearing" >
    <i type="int" name="ISMEAR">     1</i>
    <i name="SIGMA">      0.20000000</i>
    <i name="KSPACING">      0.50000000</i>
    <i type="logical" name="KGAMMA"> T  </i>
    <i type="logical" name="KBLOWUP"> T  </i>
   </separator>
   <separator name="electronic projectors" >
    <i type="logical" name="LREAL"> F  </i>
    <v name="ROPT">      0.00000000</v>
    <i type="int" name="LMAXPAW">  -100</i>
    <i type="int" name="LMAXMIX">     2</i>
    <i type="logical" name="NLSPLINE"> F  </i>
   </separator>
   <separator name="electronic startup" >
    <i type="int" name="ISTART">     0</i>
    <i type="int" name="ICHARG">     1</i>
    <i type="int" name="INIWAV">     1</i>
   </separator>
   <separator name="electronic spin" >
    <i type="int" name="ISPIN">     1</i>
    <i type="logical" name="LNONCOLLINEAR"> F  </i>
    <v name="MAGMOM">      1.00000000      1.00000000</v>
    <i name="NUPDOWN">     -1.00000000</i>
    <i type="logical" name="LSORBIT"> F  </i>
    <v name="SAXIS">      0.00000000      0.00000000      1.00000000</v>
    <i type="logical" name="LSPIRAL"> F  </i>
    <v name="QSPIRAL">      0.00000000      0.00000000      0.00000000</v>
    <i type="logical" name="LZEROZ"> F  </i>
   </separator>
   <separator name="electronic exchange-correlation" >
    <i type="logical" name="LASPH"> F  </i>
    <i type="logical" name="LMETAGGA"> F  </i>
   </separator>
   <separator name="electronic convergence" >
    <i type="int" name="NELM">    60</i>
    <i type="int" name="NELMDL">    -5</i>
    <i type="int" name="NELMIN">     2</i>
    <i name="ENINI">    280.00000000</i>
    <separator name="electronic convergence detail" >
     <i type="logical" name="LDIAG"> T  </i>
     <i type="logical" name="LSUBROT"> F  </i>
     <i name="WEIMIN">      0.00000000</i>
     <i name="EBREAK">      0.00000001</i>
     <i name="DEPER">      0.30000000</i>
     <i type="int" name="NRMM">     4</i>
     <i name="TIME">      0.40000000</i>
    </separator>
   </separator>
   <separator name="electronic mixer" >
    <i name="AMIX">      0.40000000</i>
    <i name="BMIX">      1.00000000</i>
    <i name="AMIN">      0.10000000</i>
    <i name="AMIX_MAG">      1.60000000</i>
    <i name="BMIX_MAG">      1.00000000</i>
    <separator name="electronic mixer details" >
     <i type="int" name="IMIX">     4</i>
     <i type="logical" name="MIXFIRST"> F  </i>
     <i type="int" name="MAXMIX">   -45</i>
     <i name="WC">    100.00000000</i>
     <i type="int" name="INIMIX">     1</i>
     <i type="int" name="MIXPRE">     1</i>
     <i type="int" name="MREMOVE">     5</i>
    </separator>
   </separator>
   <separator name="electronic dipolcorrection" >
    <i type="logical" name="LDIPOL"> F  </i>
    <i type="logical" name="LMONO"> F  </i>
    <i type="int" name="IDIPOL">     0</i>
    <i name="EPSILON">      1.00000000</i>
    <v name="DIPOL">   -100.00000000   -100.00000000   -100.00000000</v>
    <i name="EFIELD">      0.00000000</i>
   </separator>
  </separator>
  <separator name="grids" >
   <i type="int" name="NGX">    10</i>
   <i type="int" name="NGY">    10</i>
   <i type="int" name="NGZ">    16</i>
   <i type="int" name="NGXF">    20</i>
   <i type="int" name="NGYF">    20</i>
   <i type="int" name="NGZF">    32</i>
   <i type="logical" name="ADDGRID"> F  </i>
  </separator>
  <separator name="ionic" >
   <i type="int" name="NSW">     0</i>
   <i type="int" name="IBRION">    -1</i>
   <i type="int" name="MDALGO">     0</i>
   <i type="int" name="ISIF">     2</i>
   <i name="PSTRESS">      0.00000000</i>
   <i name="EDIFFG">      0.00001000</i>
   <i type="int" name="NFREE">     0</i>
   <i name="POTIM">      0.50000000</i>
   <i name="SMASS">     -3.00000000</i>
   <i name="SCALEE">      1.00000000</i>
  </separator>
  <separator name="ionic md" >
   <i name="TEBEG">      0.00010000</i>
   <i name="TEEND">      0.00010000</i>
   <i type="int" name="NBLOCK">     1</i>
   <i type="int" name="KBLOCK">     1</i>
   <i type="int" name="NPACO">   256</i>
   <i name="APACO">     16.00000000</i>
  </separator>
  <separator name="symmetry" >
   <i type="int" name="ISYM">     2</i>
   <i name="SYMPREC">      0.00001000</i>
  </separator>
  <separator name="dos" >
   <i type="int" name="LORBIT">     0</i>
   <v name="RWIGS">     -1.00000000</v>
   <i type="int" name="NEDOS">   301</i>
   <i name="EMIN">     10.00000000</i>
   <i name="EMAX">    -10.00000000</i>
   <i name="EFERMI">      0.00000000</i>
  </separator>
  <separator name="writing" >
   <i type="int" name="NWRITE">     2</i>
   <i type="logical" name="LWAVE"> T  </i>
   <i type="logical" name="LDOWNSAMPLE"> F  </i>
   <i type="logical" name="LCHARG"> T  </i>
   <i type="logical" name="LPARD"> F  </i>
   <i type="logical" name="LVTOT"> F  </i>
   <i type="logical" name="LVHAR"> F  </i>
   <i type="logical" name="LELF"> F  </i>
   <i type="logical" name="LOPTICS"> F  </i>
   <v name="STM">      0.00000000      0.00000000      0.00000000      0.00000000      0.00000000      0.00000000      0.00000000</v>
  </separator>
  <separator name="performance" >
   <i type="int" name="NPAR">     1</i>
   <i type="int" name="NSIM">     4</i>
   <i type="int" name="NBLK">    -1</i>
   <i type="logical" name="LPLANE"> T  </i>
   <i type="logical" name="LSCALAPACK"> F  </i>
   <i type="logical" name="LSCAAWARE"> F  </i>
   <i type="logical" name="LSCALU"> F  </i>
   <i type="logical" name="LASYNC"> F  </i>
   <i type="logical" name="LORBITALREAL"> F  </i>
  </separator>
  <separator name="miscellaneous" >
   <i type="int" name="IDIOT">     3</i>
   <i type="int" name="PHON_NSTRUCT">    -1</i>
   <i type="logical" name="LMUSIC"> F  </i>
   <v name="POMASS">     55.84700000</v>
   <v name="DARWINR">      0.00000000</v>
   <v name="DARWINV">      1.00000000</v>
   <i type="logical" name="LCORR"> T  </i>
  </separator>
  <i type="logical" name="GGA_COMPAT"> T  </i>
  <i type="logical" name="LBERRY"> F  </i>
  <i type="int" name="ICORELEVEL">     0</i>
  <i type="logical" name="LDAU"> F  </i>
  <i type="int" name="I_CONSTRAINED_M">     0</i>
  <separator name="electronic exchange-correlation" >
   <i type="string" name="GGA">PE</i>
   <i type="int" name="VOSKOWN">     0</i>
   <i type="logical" name="LHFCALC"> F  </i>
   <i type="string" name="PRECFOCK"></i>
   <i type="logical" name="LSYMGRAD"> F  </i>
   <i type="logical" name="LHFONE"> F  </i>
   <i type="logical" name="LRHFCALC"> F  </i>
   <i type="logical" name="LTHOMAS"> F  </i>
   <i type="logical" name="LMODELHF"> F  </i>
   <i type="logical" name="LFOCKACE"> F  </i>
   <i name="ENCUT4O">     -1.00000000</i>
   <i type="int" name="EXXOEP">     0</i>
   <i type="int" name="FOURORBIT">     0</i>
   <i name="AEXX">      0.00000000</i>
   <i name="HFALPHA">      0.00000000</i>
   <i name="MCALPHA">      0.00000000</i>
   <i name="ALDAX">      1.00000000</i>
   <i name="AGGAX">      1.00000000</i>
   <i name="ALDAC">      1.00000000</i>
   <i name="AGGAC">      1.00000000</i>
   <i type="int" name="NKREDX">     1</i>
   <i type="int" name="NKREDY">     1</i>
   <i type="int" name="NKREDZ">     1</i>
   <i type="logical" name="SHIFTRED"> F  </i>
   <i type="logical" name="ODDONLY"> F  </i>
   <i type="logical" name="EVENONLY"> F  </i>
   <i type="int" name="LMAXFOCK">     0</i>
   <i type="int" name="NMAXFOCKAE">     0</i>
   <i type="logical" name="LFOCKAEDFT"> F  </i>
   <i name="HFSCREEN">      0.00000000</i>
   <i name="HFSCREENC">      0.00000000</i>
   <i type="int" name="NBANDSGWLOW">     0</i>
  </separator>
  <separator name="vdW DFT" >
   <i type="logical" name="LUSE_VDW"> F  </i>
   <i name="Zab_VDW">     -0.84910000</i>
   <i name="PARAM1">      0.12340000</i>
   <i name="PARAM2">      1.00000000</i>
   <i name="PARAM3">      0.00000000</i>
  </separator>
  <separator name="model GW" >
   <i type="int" name="MODEL_GW">     0</i>
   <i name="MODEL_EPS0">      5.27955777</i>
   <i name="MODEL_ALPHA">      1.00000000</i>
  </separator>
  <separator name="linear response parameters" >
   <i type="logical" name="LEPSILON"> F  </i>
   <i type="logical" name="LRPA"> F  </i>
   <i type="logical" name="LNABLA"> F  </i>
   <i type="logical" name="LVEL"> F  </i>
   <i type="int" name="KINTER">     0</i>
   <i name="CSHIFT">      0.10000000</i>
   <i name="OMEGAMAX">     -1.00000000</i>
   <i name="DEG_THRESHOLD">      0.00200000</i>
   <i name="RTIME">     -0.10000000</i>
   <i name="WPLASMAI">      0.00000000</i>
   <v name="DFIELD">      0.00000000      0.00000000      0.00000000</v>
   <v name="WPLASMA">      0.00000000      0.00000000      0.00000000      0.00000000      0.00000000      0.00000000      0.00000000      0.00000000      0.00000000</v>
  </separator>
  <separator name="orbital magnetization" >
   <i type="logical" name="NUCIND"> F  </i>
   <v name="MAGPOS">      0.00000000      0.00000000      0.00000000</v>
   <i type="logical" name="LNICSALL"> T  </i>
   <i type="logical" name="ORBITALMAG"> F  </i>
   <i type="logical" name="LMAGBLOCH"> F  </i>
   <i type="logical" name="LCHIMAG"> F  </i>
   <i type="logical" name="LGAUGE"> T  </i>
   <i type="int" name="MAGATOM">     0</i>
   <v name="MAGDIPOL">      0.00000000      0.00000000      0.00000000</v>
   <v name="AVECCONST">      0.00000000      0.00000000      0.00000000</v>
  </separator>
  <separator name="response functions" >
   <i type="logical" name="LFINITE_TEMPERATURE"> F  </i>
   <i type="logical" name="LADDER"> F  </i>
   <i type="logical" name="LRPAFORCE"> F  </i>
   <i type="logical" name="LFXC"> F  </i>
   <i type="logical" name="LHARTREE"> T  </i>
   <i type="int" name="IBSE">     0</i>
   <v type="int" name="KPOINT">    -1     0     0     0</v>
   <i type="logical" name="LTCTC"> F  </i>
   <i type="logical" name="LTCTE"> F  </i>
   <i type="logical" name="LTETE"> F  </i>
   <i type="logical" name="LTRIPLET"> F  </i>
   <i type="logical" name="LFXCEPS"> F  </i>
   <i type="logical" name="LFXHEG"> F  </i>
   <i type="int" name="NATURALO">     2</i>
   <i type="logical" name="LHOLEGF"> F  </i>
   <i type="logical" name="L2ORDER"> F  </i>
   <i type="logical" name="LDMP1"> F  </i>
   <i type="logical" name="LMP2LT"> F  </i>
   <i type="logical" name="LSMP2LT"> F  </i>
   <i type="logical" name="LGWLF"> F  </i>
   <i name="ENCUTGW">     -2.00000000</i>
   <i name="ENCUTGWSOFT">     -2.00000000</i>
   <i name="ENCUTLF">     -1.00000000</i>
   <i type="logical" name="LESF_SPLINES"> F  </i>
   <i type="int" name="LMAXMP2">    -1</i>
   <i name="SCISSOR">      0.00000000</i>
   <i type="int" name="NOMEGA">     0</i>
   <i type="int" name="NOMEGAR">     0</i>
   <i type="int" name="NBANDSGW">    -1</i>
   <i type="int" name="NBANDSO">    -1</i>
   <i type="int" name="NBANDSV">    -1</i>
   <i type="int" name="NELM">     1</i>
   <i type="int" name="NELMHF">     1</i>
   <i type="int" name="DIM">     3</i>
   <i type="int" name="IESPILON">     4</i>
   <i type="int" name="ANTIRES">     0</i>
   <i name="OMEGAMAX">    -30.00000000</i>
   <i name="OMEGAMIN">    -30.00000000</i>
   <i name="OMEGATL">   -200.00000000</i>
   <i type="int" name="OMEGAGRID">     0</i>
   <i name="CSHIFT">     -0.10000000</i>
   <i type="logical" name="LSELFENERGY"> F  </i>
   <i type="logical" name="LSPECTRAL"> F  </i>
   <i type="logical" name="LSPECTRALGW"> F  </i>
   <i type="logical" name="LSINGLES"> F  </i>
   <i type="logical" name="LFERMIGW"> F  </i>
   <i type="logical" name="ODDONLYGW"> F  </i>
   <i type="logical" name="EVENONLYGW"> F  </i>
   <i type="int" name="NKREDLFX">     1</i>
   <i type="int" name="NKREDLFY">     1</i>
   <i type="int" name="NKREDLFZ">     1</i>
   <i type="int" name="MAXMEM">  2800</i>
   <i type="int" name="TELESCOPE">     0</i>
   <i type="int" name="NTAUPAR">    -1</i>
   <i type="int" name="NOMEGAPAR">    -1</i>
   <i name="DAMP_NEWTON">      0.80000001</i>
   <i name="LAMBDA">      1.00000000</i>
  </separator>
  <separator name="External order field" >
   <i name="OFIELD_KAPPA">      0.00000000</i>
   <v name="OFIELD_K">      0.00000000      0.00000000      0.00000000</v>
   <i name="OFIELD_Q6_NEAR">      0.00000000</i>
   <i name="OFIELD_Q6_FAR">      0.00000000</i>
   <i name="OFIELD_A">      0.00000000</i>
  </separator>
 </parameters>
 <atominfo>
  <atoms>       2 </atoms>
  <types>       1 </types>
  <array name="atoms" >
   <dimension dim="1">ion</dimension>
   <field type="string">element</field>
   <field type="int">atomtype</field>
   <set>
    <rc><c>Fe</c><c>   1</c></rc>
    <rc><c>Fe</c><c>   1</c></rc>
   </set>
  </array>
  <array name="atomtypes" >
   <dimension dim="1">type</dimension>
   <field type="int">atomspertype</field>
   <field type="string">element</field>
   <field>mass</field>
   <field>valence</field>
   <field type="string">pseudopotential</field>
   <set>
    <rc><c>   2</c><c>Fe</c><c>     55.84700000</c><c>      8.00000000</c><c>  PAW_PBE Fe 06Sep2000                  </c></rc>
   </set>
  </array>
 </atominfo>
 <structure name="initialpos" >
  <crystal>
   <varray name="basis" >
    <v>       2.28340000       0.00000000       0.00000000 </v>
    <v>      -1.14170000       1.97748241       0.00000000 </v>
    <v>       0.00000000       0.00000000       3.89746000 </v>
   </varray>
   <i name="volume">     17.59852591 </i>
   <varray name="rec_basis" >
    <v>       0.43794342       0.25284675       0.00000000 </v>
    <v>       0.00000000       0.50569350       0.00000000 </v>
    <v>       0.00000000       0.00000000       0.25657736 </v>
   </varray>
  </crystal>
  <varray name="positions" >
   <v>       0.00000000       0.00000000       0.00000000 </v>
   <v>       0.33333333       0.66666667       0.50000000 </v>
  </varray>
 </structure>
 <calculation>
  <scstep>
   <time name="dav">    0.76    0.78</time>
   <time name="total">    0.77    0.79</time>
   <energy>
    <i name="alphaZ">    157.08992076 </i>
    <i name="ewald">  -1288.92059171 </i>
    <i name="hartreedc">   -185.55861256 </i>
    <i name="XCdc">      9.46884831 </i>
    <i name="pawpsdc">   1109.69170683 </i>
    <i name="pawaedc">  -1125.09647265 </i>
    <i name="eentropy">      0.00026070 </i>
    <i name="bandstr">    194.43591200 </i>
    <i name="atom">   1188.57490811 </i>
    <i name="e_fr_energy">     59.68587978 </i>
    <i name="e_wo_entrp">     59.68561907 </i>
    <i name="e_0_energy">     59.68579288 </i>
   </energy>
  </scstep>
  <scstep>
   <time name="dav">    0.63    0.63</time>
   <time name="total">    0.64    0.64</time>
   <energy>
    <i name="e_fr_energy">    -14.52601673 </i>
    <i name="e_wo_entrp">    -14.52580822 </i>
    <i name="e_0_energy">    -14.52594722 </i>
   </energy>
  </scstep>
  <scstep>
   <time name="dav">    0.73    0.73</time>
   <time name="total">    0.73    0.73</time>
   <energy>
    <i name="e_fr_energy">    -18.51092662 </i>
    <i name="e_wo_entrp">    -18.51029124 </i>
    <i name="e_0_energy">    -18.51071483 </i>
   </energy>
  </scstep>
  <scstep>
   <time name="dav">    0.67    0.67</time>
   <time name="total">    0.67    0.67</time>
   <energy>
    <i name="e_fr_energy">    -18.52413131 </i>
    <i name="e_wo_entrp">    -18.52351536 </i>
    <i name="e_0_energy">    -18.52392600 </i>
   </energy>
  </scstep>
  <scstep>
   <time name="dav">    0.70    0.70</time>
   <time name="total">    0.72    0.72</time>
   <energy>
    <i name="e_fr_energy">    -18.52413900 </i>
    <i name="e_wo_entrp">    -18.52352305 </i>
    <i name="e_0_energy">    -18.52393368 </i>
   </energy>
  </scstep>
  <scstep>
   <time name="dav">    0.83    0.83</time>
   <time name="total">    0.86    0.86</time>
   <energy>
    <i name="e_fr_energy">    -15.90427021 </i>
    <i name="e_wo_entrp">    -15.90443679 </i>
    <i name="e_0_energy">    -15.90432574 </i>
   </energy>
  </scstep>
  <scstep>
   <time name="dav">    0.72    0.72</time>
   <time name="total">    0.75    0.75</time>
   <energy>
    <i name="e_fr_energy">    -15.79109102 </i>
    <i name="e_wo_entrp">    -15.79113819 </i>
    <i name="e_0_energy">    -15.79110674 </i>
   </energy>
  </scstep>
  <scstep>
   <time name="dav">    0.77    0.77</time>
   <time name="total">    0.80    0.80</time>
   <energy>
    <i name="e_fr_energy">    -15.75321198 </i>
    <i name="e_wo_entrp">    -15.75327971 </i>
    <i name="e_0_energy">    -15.75323456 </i>
   </energy>
  </scstep>
  <scstep>
   <time name="dav">    0.76    0.76</time>
   <time name="total">    0.79    0.79</time>
   <energy>
    <i name="e_fr_energy">    -15.74713493 </i>
    <i name="e_wo_entrp">    -15.74720883 </i>
    <i name="e_0_energy">    -15.74715956 </i>
   </energy>
  </scstep>
  <scstep>
   <time name="dav">    0.64    0.64</time>
   <time name="total">    0.67    0.67</time>
   <energy>
    <i name="e_fr_energy">    -15.74709862 </i>
    <i name="e_wo_entrp">    -15.74716975 </i>
    <i name="e_0_energy">    -15.74712233 </i>
   </energy>
  </scstep>
  <scstep>
   <time name="dav">    0.64    0.64</time>
   <time name="total">    0.67    0.67</time>
   <energy>
    <i name="e_fr_energy">    -15.74708257 </i>
    <i name="e_wo_entrp">    -15.74715373 </i>
    <i name="e_0_energy">    -15.74710629 </i>
   </energy>
  </scstep>
  <scstep>
   <time name="dav">    0.51    0.51</time>
   <time name="total">    0.52    0.52</time>
   <energy>
    <i name="alphaZ">    157.08992076 </i>
    <i name="ewald">  -1288.92059171 </i>
    <i name="hartreedc">   -152.32613481 </i>
    <i name="XCdc">      7.89633247 </i>
    <i name="pawpsdc">   1673.27571921 </i>
    <i name="pawaedc">  -1692.40369288 </i>
    <i name="eentropy">      0.00007130 </i>
    <i name="bandstr">     91.06638571 </i>
    <i name="atom">   1188.57490811 </i>
    <i name="e_fr_energy">    -15.74708186 </i>
    <i name="e_wo_entrp">    -15.74715316 </i>
    <i name="e_0_energy">    -15.74710562 </i>
   </energy>
  </scstep>
  <structure>
   <crystal>
    <varray name="basis" >
     <v>       2.28340000       0.00000000       0.00000000 </v>
     <v>      -1.14170000       1.97748241       0.00000000 </v>
     <v>       0.00000000       0.00000000       3.89746000 </v>
    </varray>
    <i name="volume">     17.59852591 </i>
    <varray name="rec_basis" >
     <v>       0.43794342       0.25284675       0.00000000 </v>
     <v>       0.00000000       0.50569350       0.00000000 </v>
     <v>       0.00000000       0.00000000       0.25657736 </v>
    </varray>
   </crystal>
   <varray name="positions" >
    <v>       0.00000000       0.00000000       0.00000000 </v>
    <v>       0.33333333       0.66666667       0.50000000 </v>
   </varray>
  </structure>
  <varray name="forces" >
   <v>      -0.00000000      -0.00000000       0.00000000 </v>
   <v>       0.00000000       0.00000000      -0.00000000 </v>
  </varray>
  <varray name="stress" >
   <v>     753.40478131      -0.00000000       0.00000000 </v>
   <v>      -0.00000000     753.40478131       0.00000000 </v>
   <v>       0.00000000       0.00000000     240.39491434 </v>
  </varray>
  <energy>
   <i name="e_fr_energy">    -15.74708186 </i>
   <i name="e_wo_entrp">    -15.74715316 </i>
   <i name="e_0_energy">    -15.74710562 </i>
  </energy>
  <time name="totalsc">    8.89    8.91</time>
  <eigenvalues>
   <array>
    <dimension dim="1">band</dimension>
    <dimension dim="2">kpoint</dimension>
    <dimension dim="3">spin</dimension>
    <field>eigene</field>
    <field>occ</field>
    <set>
     <set comment="spin 1">
      <set comment="kpoint 1">
       <r>   -1.0647    1.0000 </r>
       <r>    2.8315    1.0000 </r>
       <r>    6.2181    1.0000 </r>
       <r>    6.7135    1.0000 </r>
       <r>    6.7136    1.0000 </r>
       <r>    7.1547    1.0000 </r>
       <r>    7.1548    1.0000 </r>
       <r>    8.1109    1.0003 </r>
       <r>    8.1109    1.0003 </r>
       <r>    8.2782    1.0103 </r>
       <r>    9.5926   -0.0000 </r>
       <r>    9.5926   -0.0000 </r>
       <r>   17.9509    0.0000 </r>
       <r>   32.9148    0.0000 </r>
       <r>   34.6900    0.0000 </r>
       <r>   36.5209    0.0000 </r>
       <r>   39.5847    0.0000 </r>
       <r>   39.5848    0.0000 </r>
       <r>   40.2646    0.0000 </r>
       <r>   40.2648    0.0000 </r>
       <r>   42.9408    0.0000 </r>
       <r>   42.9408    0.0000 </r>
       <r>   43.1565    0.0000 </r>
       <r>   44.1026    0.0000 </r>
       <r>   47.5743    0.0000 </r>
       <r>   47.5743    0.0000 </r>
       <r>   49.3927    0.0000 </r>
       <r>   51.9620    0.0000 </r>
       <r>   51.9624    0.0000 </r>
       <r>   53.8628    0.0000 </r>
       <r>   53.8630    0.0000 </r>
       <r>   57.5687    0.0000 </r>
       <r>   64.8245    0.0000 </r>
       <r>   65.4342    0.0000 </r>
       <r>   65.4351    0.0000 </r>
       <r>   65.5865    0.0000 </r>
       <r>   67.0216    0.0000 </r>
       <r>   69.2321    0.0000 </r>
       <r>   69.2332    0.0000 </r>
       <r>   72.8072    0.0000 </r>
      </set>
      <set comment="kpoint 2">
       <r>   -0.7006    1.0000 </r>
       <r>    3.0982    1.0000 </r>
       <r>    6.1180    1.0000 </r>
       <r>    6.7429    1.0000 </r>
       <r>    6.9433    1.0000 </r>
       <r>    7.0307    1.0000 </r>
       <r>    7.0921    1.0000 </r>
       <r>    7.3655    1.0000 </r>
       <r>    7.9690    1.0000 </r>
       <r>    7.9802    1.0000 </r>
       <r>    9.6447   -0.0000 </r>
       <r>   11.0293   -0.0000 </r>
       <r>   17.9639    0.0000 </r>
       <r>   31.9614    0.0000 </r>
       <r>   34.9795    0.0000 </r>
       <r>   35.0266    0.0000 </r>
       <r>   36.5914    0.0000 </r>
       <r>   38.7360    0.0000 </r>
       <r>   38.7764    0.0000 </r>
       <r>   42.5461    0.0000 </r>
       <r>   42.9348    0.0000 </r>
       <r>   43.4362    0.0000 </r>
       <r>   44.1725    0.0000 </r>
       <r>   44.5914    0.0000 </r>
       <r>   48.6505    0.0000 </r>
       <r>   48.7501    0.0000 </r>
       <r>   49.4980    0.0000 </r>
       <r>   49.7351    0.0000 </r>
       <r>   53.1980    0.0000 </r>
       <r>   55.6018    0.0000 </r>
       <r>   56.2917    0.0000 </r>
       <r>   58.9480    0.0000 </r>
       <r>   63.7875    0.0000 </r>
       <r>   64.5690    0.0000 </r>
       <r>   64.7943    0.0000 </r>
       <r>   66.0012    0.0000 </r>
       <r>   66.0118    0.0000 </r>
       <r>   69.6962    0.0000 </r>
       <r>   71.5214    0.0000 </r>
       <r>   72.8762    0.0000 </r>
      </set>
      <set comment="kpoint 3">
       <r>    0.3181    1.0000 </r>
       <r>    3.7100    1.0000 </r>
       <r>    5.7233    1.0000 </r>
       <r>    5.7516    1.0000 </r>
       <r>    6.5738    1.0000 </r>
       <r>    7.2862    1.0000 </r>
       <r>    7.5830    1.0000 </r>
       <r>    7.6072    1.0000 </r>
       <r>    7.6329    1.0000 </r>
       <r>    7.9454    1.0000 </r>
       <r>    9.7380   -0.0000 </r>
       <r>   13.1726   -0.0000 </r>
       <r>   18.0203    0.0000 </r>
       <r>   28.4810    0.0000 </r>
       <r>   33.5206    0.0000 </r>
       <r>   33.7389    0.0000 </r>
       <r>   34.3198    0.0000 </r>
       <r>   35.6618    0.0000 </r>
       <r>   39.7769    0.0000 </r>
       <r>   41.8530    0.0000 </r>
       <r>   41.8828    0.0000 </r>
       <r>   42.4023    0.0000 </r>
       <r>   44.8967    0.0000 </r>
       <r>   46.7175    0.0000 </r>
       <r>   48.8806    0.0000 </r>
       <r>   49.5435    0.0000 </r>
       <r>   51.2239    0.0000 </r>
       <r>   53.6917    0.0000 </r>
       <r>   56.6742    0.0000 </r>
       <r>   58.3093    0.0000 </r>
       <r>   59.0778    0.0000 </r>
       <r>   61.2565    0.0000 </r>
       <r>   62.1769    0.0000 </r>
       <r>   63.2434    0.0000 </r>
       <r>   63.5741    0.0000 </r>
       <r>   64.2025    0.0000 </r>
       <r>   67.1383    0.0000 </r>
       <r>   70.2765    0.0000 </r>
       <r>   72.8282    0.0000 </r>
       <r>   72.8944    0.0000 </r>
      </set>
      <set comment="kpoint 4">
       <r>    1.7201    1.0000 </r>
       <r>    3.9578    1.0000 </r>
       <r>    4.6456    1.0000 </r>
       <r>    5.6567    1.0000 </r>
       <r>    6.4093    1.0000 </r>
       <r>    7.1433    1.0000 </r>
       <r>    7.2534    1.0000 </r>
       <r>    8.1869    1.0020 </r>
       <r>    8.4915    1.0022 </r>
       <r>    8.7589    0.1383 </r>
       <r>    9.8027   -0.0000 </r>
       <r>   15.5147    0.0000 </r>
       <r>   18.1391    0.0000 </r>
       <r>   24.4650    0.0000 </r>
       <r>   30.6230    0.0000 </r>
       <r>   30.8585    0.0000 </r>
       <r>   32.3535    0.0000 </r>
       <r>   35.2001    0.0000 </r>
       <r>   38.5050    0.0000 </r>
       <r>   41.3437    0.0000 </r>
       <r>   42.3103    0.0000 </r>
       <r>   42.5570    0.0000 </r>
       <r>   42.6186    0.0000 </r>
       <r>   46.9742    0.0000 </r>
       <r>   52.2359    0.0000 </r>
       <r>   54.0201    0.0000 </r>
       <r>   54.7877    0.0000 </r>
       <r>   56.9337    0.0000 </r>
       <r>   58.2571    0.0000 </r>
       <r>   58.9122    0.0000 </r>
       <r>   60.7072    0.0000 </r>
       <r>   62.1736    0.0000 </r>
       <r>   62.3158    0.0000 </r>
       <r>   63.2175    0.0000 </r>
       <r>   63.6799    0.0000 </r>
       <r>   66.4781    0.0000 </r>
       <r>   66.7432    0.0000 </r>
       <r>   70.7911    0.0000 </r>
       <r>   72.5652    0.0000 </r>
       <r>   72.7148    0.0000 </r>
      </set>
      <set comment="kpoint 5">
       <r>    2.8637    1.0000 </r>
       <r>    3.6468    1.0000 </r>
       <r>    3.9104    1.0000 </r>
       <r>    5.9651    1.0000 </r>
       <r>    6.7373    1.0000 </r>
       <r>    6.8001    1.0000 </r>
       <r>    6.9430    1.0000 </r>
       <r>    9.4097   -0.0000 </r>
       <r>    9.5868   -0.0000 </r>
       <r>    9.6198   -0.0000 </r>
       <r>    9.8319   -0.0000 </r>
       <r>   17.6622    0.0000 </r>
       <r>   17.9630    0.0000 </r>
       <r>   21.7288    0.0000 </r>
       <r>   27.3188    0.0000 </r>
       <r>   28.8112    0.0000 </r>
       <r>   29.7656    0.0000 </r>
       <r>   34.1592    0.0000 </r>
       <r>   37.2098    0.0000 </r>
       <r>   40.4532    0.0000 </r>
       <r>   41.0359    0.0000 </r>
       <r>   43.4078    0.0000 </r>
       <r>   44.7597    0.0000 </r>
       <r>   47.3592    0.0000 </r>
       <r>   55.5198    0.0000 </r>
       <r>   55.8951    0.0000 </r>
       <r>   56.0956    0.0000 </r>
       <r>   59.1658    0.0000 </r>
       <r>   59.8148    0.0000 </r>
       <r>   60.2422    0.0000 </r>
       <r>   62.2705    0.0000 </r>
       <r>   62.9718    0.0000 </r>
       <r>   63.0530    0.0000 </r>
       <r>   64.1532    0.0000 </r>
       <r>   64.6231    0.0000 </r>
       <r>   66.5122    0.0000 </r>
       <r>   70.8764    0.0000 </r>
       <r>   71.2298    0.0000 </r>
       <r>   71.8157    0.0000 </r>
       <r>   71.8734    0.0000 </r>
      </set>
      <set comment="kpoint 6">
       <r>    3.1484    1.0000 </r>
       <r>    3.4872    1.0000 </r>
       <r>    3.5382    1.0000 </r>
       <r>    6.5045    1.0000 </r>
       <r>    6.5850    1.0000 </r>
       <r>    6.7735    1.0000 </r>
       <r>    7.0901    1.0000 </r>
       <r>    9.8409   -0.0000 </r>
       <r>    9.9803   -0.0000 </r>
       <r>   10.1510   -0.0000 </r>
       <r>   11.5238   -0.0000 </r>
       <r>   15.3912    0.0000 </r>
       <r>   20.2368    0.0000 </r>
       <r>   21.8725    0.0000 </r>
       <r>   24.6447    0.0000 </r>
       <r>   27.1705    0.0000 </r>
       <r>   27.6530    0.0000 </r>
       <r>   33.4571    0.0000 </r>
       <r>   36.7829    0.0000 </r>
       <r>   39.2278    0.0000 </r>
       <r>   41.0207    0.0000 </r>
       <r>   44.2722    0.0000 </r>
       <r>   46.9076    0.0000 </r>
       <r>   47.6892    0.0000 </r>
       <r>   52.2271    0.0000 </r>
       <r>   57.3837    0.0000 </r>
       <r>   57.8877    0.0000 </r>
       <r>   60.7673    0.0000 </r>
       <r>   61.7975    0.0000 </r>
       <r>   62.0384    0.0000 </r>
       <r>   63.3253    0.0000 </r>
       <r>   63.6191    0.0000 </r>
       <r>   64.0227    0.0000 </r>
       <r>   66.6403    0.0000 </r>
       <r>   66.7475    0.0000 </r>
       <r>   69.2768    0.0000 </r>
       <r>   69.4848    0.0000 </r>
       <r>   69.7284    0.0000 </r>
       <r>   71.9359    0.0000 </r>
       <r>   72.0204    0.0000 </r>
      </set>
      <set comment="kpoint 7">
       <r>   -0.0057    1.0000 </r>
       <r>    3.5597    1.0000 </r>
       <r>    5.8131    1.0000 </r>
       <r>    6.0891    1.0000 </r>
       <r>    6.7864    1.0000 </r>
       <r>    6.9349    1.0000 </r>
       <r>    7.4103    1.0000 </r>
       <r>    7.4802    1.0000 </r>
       <r>    7.8203    1.0000 </r>
       <r>    7.9727    1.0000 </r>
       <r>    9.6816   -0.0000 </r>
       <r>   12.5827   -0.0000 </r>
       <r>   18.0020    0.0000 </r>
       <r>   30.1093    0.0000 </r>
       <r>   31.8148    0.0000 </r>
       <r>   35.2798    0.0000 </r>
       <r>   35.8306    0.0000 </r>
       <r>   37.3780    0.0000 </r>
       <r>   37.7858    0.0000 </r>
       <r>   40.4903    0.0000 </r>
       <r>   42.2599    0.0000 </r>
       <r>   45.8006    0.0000 </r>
       <r>   45.8037    0.0000 </r>
       <r>   46.8656    0.0000 </r>
       <r>   47.6445    0.0000 </r>
       <r>   47.9989    0.0000 </r>
       <r>   48.2953    0.0000 </r>
       <r>   53.9560    0.0000 </r>
       <r>   56.6646    0.0000 </r>
       <r>   57.4304    0.0000 </r>
       <r>   57.5445    0.0000 </r>
       <r>   60.7092    0.0000 </r>
       <r>   62.0162    0.0000 </r>
       <r>   64.0597    0.0000 </r>
       <r>   64.4014    0.0000 </r>
       <r>   64.9026    0.0000 </r>
       <r>   65.7564    0.0000 </r>
       <r>   70.6280    0.0000 </r>
       <r>   72.6550    0.0000 </r>
       <r>   72.8216    0.0000 </r>
      </set>
      <set comment="kpoint 8">
       <r>    1.2388    1.0000 </r>
       <r>    4.1232    1.0000 </r>
       <r>    5.0418    1.0000 </r>
       <r>    5.3994    1.0000 </r>
       <r>    6.4942    1.0000 </r>
       <r>    6.9934    1.0000 </r>
       <r>    7.4560    1.0000 </r>
       <r>    7.6825    1.0000 </r>
       <r>    8.2477    1.0063 </r>
       <r>    8.6698    0.4666 </r>
       <r>    9.7125   -0.0000 </r>
       <r>   14.6994    0.0000 </r>
       <r>   18.1461    0.0000 </r>
       <r>   26.4998    0.0000 </r>
       <r>   29.2575    0.0000 </r>
       <r>   32.3724    0.0000 </r>
       <r>   34.8048    0.0000 </r>
       <r>   35.3332    0.0000 </r>
       <r>   38.7092    0.0000 </r>
       <r>   40.0192    0.0000 </r>
       <r>   40.7734    0.0000 </r>
       <r>   45.3527    0.0000 </r>
       <r>   45.8074    0.0000 </r>
       <r>   46.5663    0.0000 </r>
       <r>   49.5914    0.0000 </r>
       <r>   50.4183    0.0000 </r>
       <r>   52.2396    0.0000 </r>
       <r>   57.4864    0.0000 </r>
       <r>   58.8152    0.0000 </r>
       <r>   59.7456    0.0000 </r>
       <r>   59.9624    0.0000 </r>
       <r>   61.7447    0.0000 </r>
       <r>   61.9882    0.0000 </r>
       <r>   63.3647    0.0000 </r>
       <r>   64.0214    0.0000 </r>
       <r>   64.3181    0.0000 </r>
       <r>   66.3236    0.0000 </r>
       <r>   71.2525    0.0000 </r>
       <r>   71.9550    0.0000 </r>
       <r>   72.6820    0.0000 </r>
      </set>
      <set comment="kpoint 9">
       <r>    2.6224    1.0000 </r>
       <r>    4.0129    1.0000 </r>
       <r>    4.2299    1.0000 </r>
       <r>    5.5045    1.0000 </r>
       <r>    6.5898    1.0000 </r>
       <r>    6.6287    1.0000 </r>
       <r>    7.2471    1.0000 </r>
       <r>    8.3366    1.0218 </r>
       <r>    9.1766   -0.0008 </r>
       <r>    9.7287   -0.0000 </r>
       <r>    9.7830   -0.0000 </r>
       <r>   17.0613    0.0000 </r>
       <r>   18.3038    0.0000 </r>
       <r>   22.8214    0.0000 </r>
       <r>   27.3982    0.0000 </r>
       <r>   29.0271    0.0000 </r>
       <r>   32.1941    0.0000 </r>
       <r>   33.5394    0.0000 </r>
       <r>   38.2906    0.0000 </r>
       <r>   39.4765    0.0000 </r>
       <r>   41.2587    0.0000 </r>
       <r>   45.2936    0.0000 </r>
       <r>   45.3659    0.0000 </r>
       <r>   47.8357    0.0000 </r>
       <r>   51.8028    0.0000 </r>
       <r>   54.3476    0.0000 </r>
       <r>   56.3552    0.0000 </r>
       <r>   57.4828    0.0000 </r>
       <r>   57.8868    0.0000 </r>
       <r>   61.0015    0.0000 </r>
       <r>   61.5304    0.0000 </r>
       <r>   63.0332    0.0000 </r>
       <r>   63.4478    0.0000 </r>
       <r>   64.1741    0.0000 </r>
       <r>   64.4923    0.0000 </r>
       <r>   66.0051    0.0000 </r>
       <r>   69.5058    0.0000 </r>
       <r>   70.8525    0.0000 </r>
       <r>   70.8881    0.0000 </r>
       <r>   73.1988    0.0000 </r>
      </set>
      <set comment="kpoint 10">
       <r>    3.3437    1.0000 </r>
       <r>    3.7063    1.0000 </r>
       <r>    3.7274    1.0000 </r>
       <r>    6.0429    1.0000 </r>
       <r>    6.4544    1.0000 </r>
       <r>    6.8361    1.0000 </r>
       <r>    6.9896    1.0000 </r>
       <r>    9.3704   -0.0000 </r>
       <r>    9.7293   -0.0000 </r>
       <r>    9.8390   -0.0000 </r>
       <r>   11.1975   -0.0000 </r>
       <r>   16.9525    0.0000 </r>
       <r>   19.4949    0.0000 </r>
       <r>   21.6386    0.0000 </r>
       <r>   25.9544    0.0000 </r>
       <r>   26.0340    0.0000 </r>
       <r>   28.9854    0.0000 </r>
       <r>   32.5328    0.0000 </r>
       <r>   37.3066    0.0000 </r>
       <r>   38.8929    0.0000 </r>
       <r>   42.0545    0.0000 </r>
       <r>   45.7558    0.0000 </r>
       <r>   46.8617    0.0000 </r>
       <r>   47.8146    0.0000 </r>
       <r>   54.1166    0.0000 </r>
       <r>   54.6027    0.0000 </r>
       <r>   57.1978    0.0000 </r>
       <r>   58.4327    0.0000 </r>
       <r>   60.3731    0.0000 </r>
       <r>   61.6936    0.0000 </r>
       <r>   62.0577    0.0000 </r>
       <r>   63.2255    0.0000 </r>
       <r>   63.7656    0.0000 </r>
       <r>   66.1746    0.0000 </r>
       <r>   67.8148    0.0000 </r>
       <r>   68.0161    0.0000 </r>
       <r>   68.4667    0.0000 </r>
       <r>   71.4559    0.0000 </r>
       <r>   72.4870    0.0000 </r>
       <r>   72.9322    0.0000 </r>
      </set>
      <set comment="kpoint 11">
       <r>    3.3509    1.0000 </r>
       <r>    3.5577    1.0000 </r>
       <r>    3.6913    1.0000 </r>
       <r>    6.4543    1.0000 </r>
       <r>    6.4552    1.0000 </r>
       <r>    6.6244    1.0000 </r>
       <r>    7.1423    1.0000 </r>
       <r>    9.7268   -0.0000 </r>
       <r>    9.9478   -0.0000 </r>
       <r>    9.9639   -0.0000 </r>
       <r>   12.5554   -0.0000 </r>
       <r>   15.0593    0.0000 </r>
       <r>   21.1332    0.0000 </r>
       <r>   22.3191    0.0000 </r>
       <r>   24.2098    0.0000 </r>
       <r>   25.1979    0.0000 </r>
       <r>   27.4147    0.0000 </r>
       <r>   32.1722    0.0000 </r>
       <r>   36.8839    0.0000 </r>
       <r>   38.7161    0.0000 </r>
       <r>   42.2178    0.0000 </r>
       <r>   46.5982    0.0000 </r>
       <r>   46.8714    0.0000 </r>
       <r>   48.7260    0.0000 </r>
       <r>   51.9103    0.0000 </r>
       <r>   56.6248    0.0000 </r>
       <r>   57.3237    0.0000 </r>
       <r>   59.6941    0.0000 </r>
       <r>   61.1111    0.0000 </r>
       <r>   61.3730    0.0000 </r>
       <r>   63.6528    0.0000 </r>
       <r>   63.6782    0.0000 </r>
       <r>   64.1938    0.0000 </r>
       <r>   65.1059    0.0000 </r>
       <r>   68.8227    0.0000 </r>
       <r>   70.0451    0.0000 </r>
       <r>   70.3409    0.0000 </r>
       <r>   70.4974    0.0000 </r>
       <r>   71.3725    0.0000 </r>
       <r>   73.6301    0.0000 </r>
      </set>
      <set comment="kpoint 12">
       <r>    2.5637    1.0000 </r>
       <r>    4.4161    1.0000 </r>
       <r>    4.5841    1.0000 </r>
       <r>    4.8649    1.0000 </r>
       <r>    6.4779    1.0000 </r>
       <r>    6.5798    1.0000 </r>
       <r>    7.4410    1.0000 </r>
       <r>    7.7533    1.0000 </r>
       <r>    9.1536   -0.0014 </r>
       <r>    9.6196   -0.0000 </r>
       <r>    9.8531   -0.0000 </r>
       <r>   16.7716    0.0000 </r>
       <r>   18.5406    0.0000 </r>
       <r>   24.3629    0.0000 </r>
       <r>   25.4009    0.0000 </r>
       <r>   30.3593    0.0000 </r>
       <r>   32.3618    0.0000 </r>
       <r>   34.6356    0.0000 </r>
       <r>   35.5178    0.0000 </r>
       <r>   40.9926    0.0000 </r>
       <r>   42.0780    0.0000 </r>
       <r>   46.4928    0.0000 </r>
       <r>   46.8717    0.0000 </r>
       <r>   48.8571    0.0000 </r>
       <r>   49.5053    0.0000 </r>
       <r>   51.6563    0.0000 </r>
       <r>   53.3875    0.0000 </r>
       <r>   58.8540    0.0000 </r>
       <r>   58.9198    0.0000 </r>
       <r>   60.5233    0.0000 </r>
       <r>   60.6777    0.0000 </r>
       <r>   63.0600    0.0000 </r>
       <r>   63.2207    0.0000 </r>
       <r>   64.8490    0.0000 </r>
       <r>   65.7414    0.0000 </r>
       <r>   66.5324    0.0000 </r>
       <r>   66.8941    0.0000 </r>
       <r>   70.4682    0.0000 </r>
       <r>   70.8400    0.0000 </r>
       <r>   73.9953    0.0000 </r>
      </set>
      <set comment="kpoint 13">
       <r>    3.7539    1.0000 </r>
       <r>    3.9733    1.0000 </r>
       <r>    4.2638    1.0000 </r>
       <r>    5.1314    1.0000 </r>
       <r>    6.2117    1.0000 </r>
       <r>    6.9049    1.0000 </r>
       <r>    6.9930    1.0000 </r>
       <r>    8.4017    1.0346 </r>
       <r>    9.5392   -0.0000 </r>
       <r>    9.7899   -0.0000 </r>
       <r>   11.3312   -0.0000 </r>
       <r>   18.7256    0.0000 </r>
       <r>   19.1416    0.0000 </r>
       <r>   21.6247    0.0000 </r>
       <r>   23.6478    0.0000 </r>
       <r>   27.8708    0.0000 </r>
       <r>   30.5603    0.0000 </r>
       <r>   31.1735    0.0000 </r>
       <r>   34.1605    0.0000 </r>
       <r>   42.5987    0.0000 </r>
       <r>   43.0387    0.0000 </r>
       <r>   46.7933    0.0000 </r>
       <r>   48.6632    0.0000 </r>
       <r>   49.5912    0.0000 </r>
       <r>   51.3438    0.0000 </r>
       <r>   52.9291    0.0000 </r>
       <r>   54.6772    0.0000 </r>
       <r>   56.7011    0.0000 </r>
       <r>   59.5388    0.0000 </r>
       <r>   60.7237    0.0000 </r>
       <r>   62.0250    0.0000 </r>
       <r>   62.9377    0.0000 </r>
       <r>   63.9639    0.0000 </r>
       <r>   65.6728    0.0000 </r>
       <r>   67.4885    0.0000 </r>
       <r>   68.0713    0.0000 </r>
       <r>   69.8137    0.0000 </r>
       <r>   71.1580    0.0000 </r>
       <r>   72.5407    0.0000 </r>
       <r>   73.7659    0.0000 </r>
      </set>
      <set comment="kpoint 14">
       <r>    3.7487    1.0000 </r>
       <r>    3.9324    1.0000 </r>
       <r>    4.1710    1.0000 </r>
       <r>    5.7380    1.0000 </r>
       <r>    6.2387    1.0000 </r>
       <r>    6.5370    1.0000 </r>
       <r>    7.2143    1.0000 </r>
       <r>    9.2032   -0.0004 </r>
       <r>    9.4934   -0.0000 </r>
       <r>    9.8558   -0.0000 </r>
       <r>   13.1021   -0.0000 </r>
       <r>   16.5277    0.0000 </r>
       <r>   21.5269    0.0000 </r>
       <r>   21.8993    0.0000 </r>
       <r>   22.9686    0.0000 </r>
       <r>   25.2466    0.0000 </r>
       <r>   28.2215    0.0000 </r>
       <r>   29.8070    0.0000 </r>
       <r>   33.4820    0.0000 </r>
       <r>   42.4912    0.0000 </r>
       <r>   44.6260    0.0000 </r>
       <r>   47.2380    0.0000 </r>
       <r>   48.9534    0.0000 </r>
       <r>   49.6729    0.0000 </r>
       <r>   53.5552    0.0000 </r>
       <r>   53.9567    0.0000 </r>
       <r>   55.7430    0.0000 </r>
       <r>   56.0153    0.0000 </r>
       <r>   59.8122    0.0000 </r>
       <r>   60.7216    0.0000 </r>
       <r>   61.4627    0.0000 </r>
       <r>   63.6447    0.0000 </r>
       <r>   63.9543    0.0000 </r>
       <r>   64.3593    0.0000 </r>
       <r>   68.4988    0.0000 </r>
       <r>   69.5365    0.0000 </r>
       <r>   71.4210    0.0000 </r>
       <r>   71.5138    0.0000 </r>
       <r>   73.0084    0.0000 </r>
       <r>   73.9709    0.0000 </r>
      </set>
      <set comment="kpoint 15">
       <r>    3.8814    1.0000 </r>
       <r>    4.4285    1.0000 </r>
       <r>    4.7767    1.0000 </r>
       <r>    4.8499    1.0000 </r>
       <r>    6.0439    1.0000 </r>
       <r>    6.5674    1.0000 </r>
       <r>    7.2722    1.0000 </r>
       <r>    8.7177    0.2741 </r>
       <r>    9.3747   -0.0000 </r>
       <r>    9.8282   -0.0000 </r>
       <r>   13.2542   -0.0000 </r>
       <r>   18.7732    0.0000 </r>
       <r>   19.2525    0.0000 </r>
       <r>   21.5655    0.0000 </r>
       <r>   23.0045    0.0000 </r>
       <r>   27.0559    0.0000 </r>
       <r>   27.6283    0.0000 </r>
       <r>   29.9259    0.0000 </r>
       <r>   30.8889    0.0000 </r>
       <r>   44.6335    0.0000 </r>
       <r>   45.7022    0.0000 </r>
       <r>   48.9747    0.0000 </r>
       <r>   50.0369    0.0000 </r>
       <r>   51.3041    0.0000 </r>
       <r>   51.3898    0.0000 </r>
       <r>   51.5373    0.0000 </r>
       <r>   54.5257    0.0000 </r>
       <r>   57.1059    0.0000 </r>
       <r>   57.4285    0.0000 </r>
       <r>   59.8005    0.0000 </r>
       <r>   61.2069    0.0000 </r>
       <r>   63.9385    0.0000 </r>
       <r>   64.0469    0.0000 </r>
       <r>   64.2658    0.0000 </r>
       <r>   68.4955    0.0000 </r>
       <r>   69.6865    0.0000 </r>
       <r>   69.7265    0.0000 </r>
       <r>   71.8810    0.0000 </r>
       <r>   73.6907    0.0000 </r>
       <r>   74.2128    0.0000 </r>
      </set>
      <set comment="kpoint 16">
       <r>    3.8699    1.0000 </r>
       <r>    4.5459    1.0000 </r>
       <r>    4.6498    1.0000 </r>
       <r>    5.2204    1.0000 </r>
       <r>    6.1244    1.0000 </r>
       <r>    6.2463    1.0000 </r>
       <r>    7.4504    1.0000 </r>
       <r>    9.1454   -0.0017 </r>
       <r>    9.3120   -0.0000 </r>
       <r>    9.4947   -0.0000 </r>
       <r>   15.0937    0.0000 </r>
       <r>   16.6687    0.0000 </r>
       <r>   18.8684    0.0000 </r>
       <r>   23.6830    0.0000 </r>
       <r>   23.9616    0.0000 </r>
       <r>   25.0891    0.0000 </r>
       <r>   27.0539    0.0000 </r>
       <r>   28.3020    0.0000 </r>
       <r>   30.2504    0.0000 </r>
       <r>   45.0609    0.0000 </r>
       <r>   47.8149    0.0000 </r>
       <r>   49.3001    0.0000 </r>
       <r>   49.8404    0.0000 </r>
       <r>   50.7476    0.0000 </r>
       <r>   52.2556    0.0000 </r>
       <r>   52.7490    0.0000 </r>
       <r>   55.6719    0.0000 </r>
       <r>   56.0743    0.0000 </r>
       <r>   56.3600    0.0000 </r>
       <r>   59.6927    0.0000 </r>
       <r>   60.8691    0.0000 </r>
       <r>   61.4658    0.0000 </r>
       <r>   64.2503    0.0000 </r>
       <r>   64.4497    0.0000 </r>
       <r>   68.4913    0.0000 </r>
       <r>   69.8234    0.0000 </r>
       <r>   72.4561    0.0000 </r>
       <r>   72.6236    0.0000 </r>
       <r>   72.6247    0.0000 </r>
       <r>   73.2482    0.0000 </r>
      </set>
      <set comment="kpoint 17">
       <r>   -0.9702    1.0000 </r>
       <r>    2.8192    1.0000 </r>
       <r>    6.1865    1.0000 </r>
       <r>    6.6968    1.0000 </r>
       <r>    6.6968    1.0000 </r>
       <r>    7.1307    1.0000 </r>
       <r>    7.1308    1.0000 </r>
       <r>    8.0162    1.0000 </r>
       <r>    8.1719    1.0014 </r>
       <r>    8.1719    1.0014 </r>
       <r>    9.5836   -0.0000 </r>
       <r>    9.5836   -0.0000 </r>
       <r>   18.3618    0.0000 </r>
       <r>   32.7063    0.0000 </r>
       <r>   34.4540    0.0000 </r>
       <r>   36.3105    0.0000 </r>
       <r>   39.6537    0.0000 </r>
       <r>   39.6537    0.0000 </r>
       <r>   40.2973    0.0000 </r>
       <r>   40.2974    0.0000 </r>
       <r>   42.8992    0.0000 </r>
       <r>   42.8992    0.0000 </r>
       <r>   43.4076    0.0000 </r>
       <r>   44.4209    0.0000 </r>
       <r>   47.2705    0.0000 </r>
       <r>   47.2705    0.0000 </r>
       <r>   49.7382    0.0000 </r>
       <r>   52.3664    0.0000 </r>
       <r>   52.3666    0.0000 </r>
       <r>   54.2781    0.0000 </r>
       <r>   54.2782    0.0000 </r>
       <r>   57.3164    0.0000 </r>
       <r>   64.1950    0.0000 </r>
       <r>   64.9894    0.0000 </r>
       <r>   65.3754    0.0000 </r>
       <r>   65.3760    0.0000 </r>
       <r>   68.4698    0.0000 </r>
       <r>   68.5938    0.0000 </r>
       <r>   68.5942    0.0000 </r>
       <r>   72.7627    0.0000 </r>
      </set>
      <set comment="kpoint 18">
       <r>   -0.6089    1.0000 </r>
       <r>    3.0909    1.0000 </r>
       <r>    6.1139    1.0000 </r>
       <r>    6.6794    1.0000 </r>
       <r>    6.8077    1.0000 </r>
       <r>    6.9194    1.0000 </r>
       <r>    7.1801    1.0000 </r>
       <r>    7.3348    1.0000 </r>
       <r>    8.0405    1.0001 </r>
       <r>    8.0405    1.0001 </r>
       <r>    9.6313   -0.0000 </r>
       <r>   10.8446   -0.0000 </r>
       <r>   18.4101    0.0000 </r>
       <r>   31.9156    0.0000 </r>
       <r>   34.4372    0.0000 </r>
       <r>   35.0895    0.0000 </r>
       <r>   36.6626    0.0000 </r>
       <r>   37.9607    0.0000 </r>
       <r>   39.5496    0.0000 </r>
       <r>   42.2549    0.0000 </r>
       <r>   42.7471    0.0000 </r>
       <r>   43.5387    0.0000 </r>
       <r>   44.2021    0.0000 </r>
       <r>   45.0634    0.0000 </r>
       <r>   48.2885    0.0000 </r>
       <r>   48.6551    0.0000 </r>
       <r>   50.0349    0.0000 </r>
       <r>   50.2316    0.0000 </r>
       <r>   53.1138    0.0000 </r>
       <r>   55.8908    0.0000 </r>
       <r>   56.5757    0.0000 </r>
       <r>   58.7520    0.0000 </r>
       <r>   62.6291    0.0000 </r>
       <r>   64.5636    0.0000 </r>
       <r>   64.7806    0.0000 </r>
       <r>   65.5114    0.0000 </r>
       <r>   67.3688    0.0000 </r>
       <r>   68.9998    0.0000 </r>
       <r>   70.4274    0.0000 </r>
       <r>   72.5587    0.0000 </r>
      </set>
      <set comment="kpoint 19">
       <r>    0.3991    1.0000 </r>
       <r>    3.7189    1.0000 </r>
       <r>    5.6120    1.0000 </r>
       <r>    5.7783    1.0000 </r>
       <r>    6.5306    1.0000 </r>
       <r>    7.1571    1.0000 </r>
       <r>    7.4573    1.0000 </r>
       <r>    7.7667    1.0000 </r>
       <r>    7.7872    1.0000 </r>
       <r>    7.9568    1.0000 </r>
       <r>    9.7152   -0.0000 </r>
       <r>   12.7894   -0.0000 </r>
       <r>   18.5869    0.0000 </r>
       <r>   28.5367    0.0000 </r>
       <r>   33.2181    0.0000 </r>
       <r>   33.6165    0.0000 </r>
       <r>   34.6377    0.0000 </r>
       <r>   35.2486    0.0000 </r>
       <r>   39.7709    0.0000 </r>
       <r>   41.2750    0.0000 </r>
       <r>   41.4133    0.0000 </r>
       <r>   43.1078    0.0000 </r>
       <r>   45.1795    0.0000 </r>
       <r>   47.3665    0.0000 </r>
       <r>   49.1812    0.0000 </r>
       <r>   49.5740    0.0000 </r>
       <r>   51.0331    0.0000 </r>
       <r>   53.7469    0.0000 </r>
       <r>   56.3880    0.0000 </r>
       <r>   58.5371    0.0000 </r>
       <r>   59.2696    0.0000 </r>
       <r>   60.5322    0.0000 </r>
       <r>   61.4650    0.0000 </r>
       <r>   62.9595    0.0000 </r>
       <r>   64.0600    0.0000 </r>
       <r>   65.0024    0.0000 </r>
       <r>   67.0631    0.0000 </r>
       <r>   69.7376    0.0000 </r>
       <r>   71.8173    0.0000 </r>
       <r>   72.4564    0.0000 </r>
      </set>
      <set comment="kpoint 20">
       <r>    1.7697    1.0000 </r>
       <r>    3.9782    1.0000 </r>
       <r>    4.6114    1.0000 </r>
       <r>    5.6673    1.0000 </r>
       <r>    6.3382    1.0000 </r>
       <r>    7.1869    1.0000 </r>
       <r>    7.2815    1.0000 </r>
       <r>    8.2267    1.0043 </r>
       <r>    8.5074    0.9828 </r>
       <r>    8.7348    0.2131 </r>
       <r>    9.7750   -0.0000 </r>
       <r>   14.7866    0.0000 </r>
       <r>   19.0003    0.0000 </r>
       <r>   24.5396    0.0000 </r>
       <r>   30.1728    0.0000 </r>
       <r>   30.9843    0.0000 </r>
       <r>   32.6820    0.0000 </r>
       <r>   35.0759    0.0000 </r>
       <r>   38.4591    0.0000 </r>
       <r>   40.3772    0.0000 </r>
       <r>   41.1746    0.0000 </r>
       <r>   43.3830    0.0000 </r>
       <r>   43.6104    0.0000 </r>
       <r>   47.9562    0.0000 </r>
       <r>   52.3761    0.0000 </r>
       <r>   53.9232    0.0000 </r>
       <r>   54.4378    0.0000 </r>
       <r>   55.4383    0.0000 </r>
       <r>   58.7341    0.0000 </r>
       <r>   59.7682    0.0000 </r>
       <r>   61.0774    0.0000 </r>
       <r>   61.9236    0.0000 </r>
       <r>   62.2354    0.0000 </r>
       <r>   62.6634    0.0000 </r>
       <r>   64.3932    0.0000 </r>
       <r>   66.0473    0.0000 </r>
       <r>   67.0211    0.0000 </r>
       <r>   70.3901    0.0000 </r>
       <r>   71.3585    0.0000 </r>
       <r>   73.2211    0.0000 </r>
      </set>
      <set comment="kpoint 21">
       <r>    2.8282    1.0000 </r>
       <r>    3.6109    1.0000 </r>
       <r>    4.0463    1.0000 </r>
       <r>    5.7072    1.0000 </r>
       <r>    6.8004    1.0000 </r>
       <r>    6.9898    1.0000 </r>
       <r>    7.0580    1.0000 </r>
       <r>    9.4175   -0.0000 </r>
       <r>    9.5167   -0.0000 </r>
       <r>    9.5748   -0.0000 </r>
       <r>    9.8323   -0.0000 </r>
       <r>   16.2877    0.0000 </r>
       <r>   19.2962    0.0000 </r>
       <r>   21.8954    0.0000 </r>
       <r>   26.9285    0.0000 </r>
       <r>   28.9551    0.0000 </r>
       <r>   30.1889    0.0000 </r>
       <r>   34.1548    0.0000 </r>
       <r>   37.2100    0.0000 </r>
       <r>   39.1627    0.0000 </r>
       <r>   42.3251    0.0000 </r>
       <r>   42.4231    0.0000 </r>
       <r>   44.8616    0.0000 </r>
       <r>   48.6123    0.0000 </r>
       <r>   53.8555    0.0000 </r>
       <r>   55.8404    0.0000 </r>
       <r>   57.4935    0.0000 </r>
       <r>   58.1485    0.0000 </r>
       <r>   59.6309    0.0000 </r>
       <r>   61.1395    0.0000 </r>
       <r>   62.2598    0.0000 </r>
       <r>   63.0982    0.0000 </r>
       <r>   63.1003    0.0000 </r>
       <r>   64.3663    0.0000 </r>
       <r>   64.6771    0.0000 </r>
       <r>   66.4972    0.0000 </r>
       <r>   70.3255    0.0000 </r>
       <r>   70.8222    0.0000 </r>
       <r>   71.4105    0.0000 </r>
       <r>   72.6731    0.0000 </r>
      </set>
      <set comment="kpoint 22">
       <r>    3.0925    1.0000 </r>
       <r>    3.2482    1.0000 </r>
       <r>    3.9158    1.0000 </r>
       <r>    5.8168    1.0000 </r>
       <r>    6.8223    1.0000 </r>
       <r>    7.0751    1.0000 </r>
       <r>    7.3760    1.0000 </r>
       <r>    9.7484   -0.0000 </r>
       <r>    9.9914   -0.0000 </r>
       <r>   10.1555   -0.0000 </r>
       <r>   11.4163   -0.0000 </r>
       <r>   15.1865    0.0000 </r>
       <r>   20.0726    0.0000 </r>
       <r>   21.9006    0.0000 </r>
       <r>   24.8126    0.0000 </r>
       <r>   27.5649    0.0000 </r>
       <r>   27.8083    0.0000 </r>
       <r>   33.4832    0.0000 </r>
       <r>   36.7791    0.0000 </r>
       <r>   38.2415    0.0000 </r>
       <r>   41.9779    0.0000 </r>
       <r>   43.8850    0.0000 </r>
       <r>   45.1824    0.0000 </r>
       <r>   49.6555    0.0000 </r>
       <r>   51.9608    0.0000 </r>
       <r>   57.3333    0.0000 </r>
       <r>   58.1244    0.0000 </r>
       <r>   60.6173    0.0000 </r>
       <r>   60.9834    0.0000 </r>
       <r>   62.2490    0.0000 </r>
       <r>   63.2198    0.0000 </r>
       <r>   63.5808    0.0000 </r>
       <r>   64.6410    0.0000 </r>
       <r>   66.0032    0.0000 </r>
       <r>   67.7079    0.0000 </r>
       <r>   68.7868    0.0000 </r>
       <r>   69.3475    0.0000 </r>
       <r>   70.8609    0.0000 </r>
       <r>   71.9204    0.0000 </r>
       <r>   72.0974    0.0000 </r>
      </set>
      <set comment="kpoint 23">
       <r>    0.0796    1.0000 </r>
       <r>    3.5637    1.0000 </r>
       <r>    5.8305    1.0000 </r>
       <r>    5.9510    1.0000 </r>
       <r>    6.7808    1.0000 </r>
       <r>    6.8338    1.0000 </r>
       <r>    7.3587    1.0000 </r>
       <r>    7.5846    1.0000 </r>
       <r>    7.8511    1.0000 </r>
       <r>    8.0430    1.0001 </r>
       <r>    9.6636   -0.0000 </r>
       <r>   12.2639   -0.0000 </r>
       <r>   18.5271    0.0000 </r>
       <r>   30.1428    0.0000 </r>
       <r>   31.8728    0.0000 </r>
       <r>   34.7374    0.0000 </r>
       <r>   35.3685    0.0000 </r>
       <r>   37.6386    0.0000 </r>
       <r>   38.2630    0.0000 </r>
       <r>   39.7591    0.0000 </r>
       <r>   42.5467    0.0000 </r>
       <r>   45.9141    0.0000 </r>
       <r>   46.0936    0.0000 </r>
       <r>   46.6065    0.0000 </r>
       <r>   47.0372    0.0000 </r>
       <r>   48.8148    0.0000 </r>
       <r>   48.9900    0.0000 </r>
       <r>   53.8190    0.0000 </r>
       <r>   56.4227    0.0000 </r>
       <r>   57.5799    0.0000 </r>
       <r>   58.0157    0.0000 </r>
       <r>   60.4505    0.0000 </r>
       <r>   60.9217    0.0000 </r>
       <r>   64.3041    0.0000 </r>
       <r>   64.6178    0.0000 </r>
       <r>   64.7003    0.0000 </r>
       <r>   66.2841    0.0000 </r>
       <r>   70.1730    0.0000 </r>
       <r>   71.5919    0.0000 </r>
       <r>   72.2180    0.0000 </r>
      </set>
      <set comment="kpoint 24">
       <r>    1.3052    1.0000 </r>
       <r>    4.1487    1.0000 </r>
       <r>    4.9620    1.0000 </r>
       <r>    5.4291    1.0000 </r>
       <r>    6.4506    1.0000 </r>
       <r>    6.9277    1.0000 </r>
       <r>    7.5318    1.0000 </r>
       <r>    7.6758    1.0000 </r>
       <r>    8.3235    1.0189 </r>
       <r>    8.6440    0.5757 </r>
       <r>    9.6943   -0.0000 </r>
       <r>   14.1292    0.0000 </r>
       <r>   18.8685    0.0000 </r>
       <r>   26.5675    0.0000 </r>
       <r>   29.3288    0.0000 </r>
       <r>   32.0317    0.0000 </r>
       <r>   34.3510    0.0000 </r>
       <r>   35.7745    0.0000 </r>
       <r>   38.8848    0.0000 </r>
       <r>   39.0943    0.0000 </r>
       <r>   41.1254    0.0000 </r>
       <r>   44.7151    0.0000 </r>
       <r>   46.5450    0.0000 </r>
       <r>   47.2444    0.0000 </r>
       <r>   49.6089    0.0000 </r>
       <r>   50.3969    0.0000 </r>
       <r>   52.4837    0.0000 </r>
       <r>   56.7820    0.0000 </r>
       <r>   58.3715    0.0000 </r>
       <r>   60.0961    0.0000 </r>
       <r>   60.3472    0.0000 </r>
       <r>   61.3908    0.0000 </r>
       <r>   61.6402    0.0000 </r>
       <r>   63.3848    0.0000 </r>
       <r>   64.1292    0.0000 </r>
       <r>   64.7340    0.0000 </r>
       <r>   66.3868    0.0000 </r>
       <r>   70.9311    0.0000 </r>
       <r>   71.8330    0.0000 </r>
       <r>   72.4353    0.0000 </r>
      </set>
      <set comment="kpoint 25">
       <r>    2.6350    1.0000 </r>
       <r>    4.0260    1.0000 </r>
       <r>    4.2445    1.0000 </r>
       <r>    5.4821    1.0000 </r>
       <r>    6.4411    1.0000 </r>
       <r>    6.8448    1.0000 </r>
       <r>    7.2437    1.0000 </r>
       <r>    8.3465    1.0241 </r>
       <r>    9.2083   -0.0004 </r>
       <r>    9.5492   -0.0000 </r>
       <r>    9.8940   -0.0000 </r>
       <r>   15.9741    0.0000 </r>
       <r>   19.4783    0.0000 </r>
       <r>   22.9073    0.0000 </r>
       <r>   27.4628    0.0000 </r>
       <r>   28.7037    0.0000 </r>
       <r>   32.4919    0.0000 </r>
       <r>   33.4122    0.0000 </r>
       <r>   38.5478    0.0000 </r>
       <r>   39.2441    0.0000 </r>
       <r>   40.5847    0.0000 </r>
       <r>   44.4073    0.0000 </r>
       <r>   46.5287    0.0000 </r>
       <r>   48.6974    0.0000 </r>
       <r>   51.6996    0.0000 </r>
       <r>   53.4683    0.0000 </r>
       <r>   55.9276    0.0000 </r>
       <r>   57.5032    0.0000 </r>
       <r>   58.9795    0.0000 </r>
       <r>   60.2811    0.0000 </r>
       <r>   62.1313    0.0000 </r>
       <r>   62.7546    0.0000 </r>
       <r>   63.4303    0.0000 </r>
       <r>   63.9313    0.0000 </r>
       <r>   65.0335    0.0000 </r>
       <r>   66.0115    0.0000 </r>
       <r>   69.2650    0.0000 </r>
       <r>   70.5238    0.0000 </r>
       <r>   71.6089    0.0000 </r>
       <r>   72.2418    0.0000 </r>
      </set>
      <set comment="kpoint 26">
       <r>    3.2376    1.0000 </r>
       <r>    3.5799    1.0000 </r>
       <r>    4.0378    1.0000 </r>
       <r>    5.6642    1.0000 </r>
       <r>    6.6688    1.0000 </r>
       <r>    6.9826    1.0000 </r>
       <r>    7.0857    1.0000 </r>
       <r>    9.3504   -0.0000 </r>
       <r>    9.6451   -0.0000 </r>
       <r>    9.8603   -0.0000 </r>
       <r>   11.1766   -0.0000 </r>
       <r>   16.4585    0.0000 </r>
       <r>   19.6540    0.0000 </r>
       <r>   21.9940    0.0000 </r>
       <r>   25.5752    0.0000 </r>
       <r>   26.3078    0.0000 </r>
       <r>   29.4090    0.0000 </r>
       <r>   32.3522    0.0000 </r>
       <r>   37.4717    0.0000 </r>
       <r>   38.8605    0.0000 </r>
       <r>   41.5578    0.0000 </r>
       <r>   44.5934    0.0000 </r>
       <r>   47.1418    0.0000 </r>
       <r>   49.2725    0.0000 </r>
       <r>   53.0315    0.0000 </r>
       <r>   54.8877    0.0000 </r>
       <r>   56.8955    0.0000 </r>
       <r>   59.1948    0.0000 </r>
       <r>   60.7246    0.0000 </r>
       <r>   61.6210    0.0000 </r>
       <r>   61.9565    0.0000 </r>
       <r>   63.1964    0.0000 </r>
       <r>   63.7285    0.0000 </r>
       <r>   65.9547    0.0000 </r>
       <r>   67.5568    0.0000 </r>
       <r>   68.4688    0.0000 </r>
       <r>   68.8257    0.0000 </r>
       <r>   71.1441    0.0000 </r>
       <r>   71.6147    0.0000 </r>
       <r>   73.7374    0.0000 </r>
      </set>
      <set comment="kpoint 27">
       <r>    3.2779    1.0000 </r>
       <r>    3.3752    1.0000 </r>
       <r>    4.0410    1.0000 </r>
       <r>    5.7750    1.0000 </r>
       <r>    6.5991    1.0000 </r>
       <r>    7.1681    1.0000 </r>
       <r>    7.2144    1.0000 </r>
       <r>    9.6368   -0.0000 </r>
       <r>    9.9426   -0.0000 </r>
       <r>    9.9743   -0.0000 </r>
       <r>   12.4794   -0.0000 </r>
       <r>   14.9648    0.0000 </r>
       <r>   20.9517    0.0000 </r>
       <r>   21.8247    0.0000 </r>
       <r>   24.8780    0.0000 </r>
       <r>   25.3991    0.0000 </r>
       <r>   27.7132    0.0000 </r>
       <r>   31.9928    0.0000 </r>
       <r>   37.0220    0.0000 </r>
       <r>   38.7038    0.0000 </r>
       <r>   41.9708    0.0000 </r>
       <r>   44.9794    0.0000 </r>
       <r>   46.8740    0.0000 </r>
       <r>   50.7509    0.0000 </r>
       <r>   51.4438    0.0000 </r>
       <r>   55.7308    0.0000 </r>
       <r>   57.8828    0.0000 </r>
       <r>   59.9748    0.0000 </r>
       <r>   61.3330    0.0000 </r>
       <r>   61.4568    0.0000 </r>
       <r>   63.4370    0.0000 </r>
       <r>   63.5242    0.0000 </r>
       <r>   64.4857    0.0000 </r>
       <r>   65.3510    0.0000 </r>
       <r>   68.0121    0.0000 </r>
       <r>   69.7861    0.0000 </r>
       <r>   70.2159    0.0000 </r>
       <r>   70.9027    0.0000 </r>
       <r>   72.0460    0.0000 </r>
       <r>   73.5819    0.0000 </r>
      </set>
      <set comment="kpoint 28">
       <r>    2.5979    1.0000 </r>
       <r>    4.3512    1.0000 </r>
       <r>    4.6510    1.0000 </r>
       <r>    4.8896    1.0000 </r>
       <r>    6.4619    1.0000 </r>
       <r>    6.5749    1.0000 </r>
       <r>    7.3979    1.0000 </r>
       <r>    7.8183    1.0000 </r>
       <r>    9.2047   -0.0004 </r>
       <r>    9.4678   -0.0000 </r>
       <r>    9.9459   -0.0000 </r>
       <r>   15.8420    0.0000 </r>
       <r>   19.5888    0.0000 </r>
       <r>   24.4418    0.0000 </r>
       <r>   25.4940    0.0000 </r>
       <r>   30.0519    0.0000 </r>
       <r>   31.9283    0.0000 </r>
       <r>   35.0790    0.0000 </r>
       <r>   35.9283    0.0000 </r>
       <r>   39.8782    0.0000 </r>
       <r>   42.4114    0.0000 </r>
       <r>   46.4204    0.0000 </r>
       <r>   47.5521    0.0000 </r>
       <r>   48.8530    0.0000 </r>
       <r>   48.9471    0.0000 </r>
       <r>   52.3955    0.0000 </r>
       <r>   53.3397    0.0000 </r>
       <r>   57.9807    0.0000 </r>
       <r>   58.9533    0.0000 </r>
       <r>   60.1524    0.0000 </r>
       <r>   61.9919    0.0000 </r>
       <r>   62.9957    0.0000 </r>
       <r>   63.1462    0.0000 </r>
       <r>   64.6872    0.0000 </r>
       <r>   64.9867    0.0000 </r>
       <r>   66.9702    0.0000 </r>
       <r>   67.2932    0.0000 </r>
       <r>   70.9281    0.0000 </r>
       <r>   71.0001    0.0000 </r>
       <r>   72.9814    0.0000 </r>
      </set>
      <set comment="kpoint 29">
       <r>    3.6633    1.0000 </r>
       <r>    4.0469    1.0000 </r>
       <r>    4.3008    1.0000 </r>
       <r>    5.1280    1.0000 </r>
       <r>    6.2635    1.0000 </r>
       <r>    6.8441    1.0000 </r>
       <r>    7.0439    1.0000 </r>
       <r>    8.4251    1.0352 </r>
       <r>    9.4421   -0.0000 </r>
       <r>    9.8303   -0.0000 </r>
       <r>   11.3581   -0.0000 </r>
       <r>   17.4465    0.0000 </r>
       <r>   20.2979    0.0000 </r>
       <r>   21.8934    0.0000 </r>
       <r>   23.7409    0.0000 </r>
       <r>   27.5147    0.0000 </r>
       <r>   30.1352    0.0000 </r>
       <r>   31.6956    0.0000 </r>
       <r>   34.6467    0.0000 </r>
       <r>   41.4465    0.0000 </r>
       <r>   43.2224    0.0000 </r>
       <r>   46.7147    0.0000 </r>
       <r>   48.7788    0.0000 </r>
       <r>   49.8683    0.0000 </r>
       <r>   51.3186    0.0000 </r>
       <r>   52.2944    0.0000 </r>
       <r>   55.4785    0.0000 </r>
       <r>   56.8543    0.0000 </r>
       <r>   59.1498    0.0000 </r>
       <r>   61.3861    0.0000 </r>
       <r>   62.1039    0.0000 </r>
       <r>   62.9533    0.0000 </r>
       <r>   63.9024    0.0000 </r>
       <r>   65.6727    0.0000 </r>
       <r>   67.3463    0.0000 </r>
       <r>   68.3340    0.0000 </r>
       <r>   69.5058    0.0000 </r>
       <r>   71.4069    0.0000 </r>
       <r>   72.5968    0.0000 </r>
       <r>   73.7285    0.0000 </r>
      </set>
      <set comment="kpoint 30">
       <r>    3.6253    1.0000 </r>
       <r>    3.9669    1.0000 </r>
       <r>    4.3559    1.0000 </r>
       <r>    5.4925    1.0000 </r>
       <r>    6.2958    1.0000 </r>
       <r>    6.6417    1.0000 </r>
       <r>    7.2872    1.0000 </r>
       <r>    9.2061   -0.0004 </r>
       <r>    9.3956   -0.0000 </r>
       <r>    9.8815   -0.0000 </r>
       <r>   13.1238   -0.0000 </r>
       <r>   16.4236    0.0000 </r>
       <r>   20.8690    0.0000 </r>
       <r>   22.4699    0.0000 </r>
       <r>   22.8735    0.0000 </r>
       <r>   25.4687    0.0000 </r>
       <r>   28.6754    0.0000 </r>
       <r>   29.4180    0.0000 </r>
       <r>   33.9983    0.0000 </r>
       <r>   42.2260    0.0000 </r>
       <r>   43.9210    0.0000 </r>
       <r>   45.9914    0.0000 </r>
       <r>   49.7440    0.0000 </r>
       <r>   50.4903    0.0000 </r>
       <r>   52.9770    0.0000 </r>
       <r>   53.6675    0.0000 </r>
       <r>   55.5229    0.0000 </r>
       <r>   57.4536    0.0000 </r>
       <r>   60.1009    0.0000 </r>
       <r>   60.5188    0.0000 </r>
       <r>   61.7296    0.0000 </r>
       <r>   63.5212    0.0000 </r>
       <r>   63.8019    0.0000 </r>
       <r>   64.7340    0.0000 </r>
       <r>   68.4870    0.0000 </r>
       <r>   69.4159    0.0000 </r>
       <r>   71.2056    0.0000 </r>
       <r>   71.5623    0.0000 </r>
       <r>   72.4516    0.0000 </r>
       <r>   74.0119    0.0000 </r>
      </set>
      <set comment="kpoint 31">
       <r>    3.8803    1.0000 </r>
       <r>    4.4463    1.0000 </r>
       <r>    4.7784    1.0000 </r>
       <r>    4.8373    1.0000 </r>
       <r>    6.1267    1.0000 </r>
       <r>    6.4919    1.0000 </r>
       <r>    7.2862    1.0000 </r>
       <r>    8.7510    0.1614 </r>
       <r>    9.2727   -0.0001 </r>
       <r>    9.8613   -0.0000 </r>
       <r>   13.3057   -0.0000 </r>
       <r>   18.4296    0.0000 </r>
       <r>   19.3394    0.0000 </r>
       <r>   21.4224    0.0000 </r>
       <r>   23.5010    0.0000 </r>
       <r>   26.7928    0.0000 </r>
       <r>   27.1679    0.0000 </r>
       <r>   30.5046    0.0000 </r>
       <r>   31.4617    0.0000 </r>
       <r>   43.3098    0.0000 </r>
       <r>   46.0186    0.0000 </r>
       <r>   48.5520    0.0000 </r>
       <r>   48.9873    0.0000 </r>
       <r>   50.8215    0.0000 </r>
       <r>   51.6708    0.0000 </r>
       <r>   53.2305    0.0000 </r>
       <r>   55.2564    0.0000 </r>
       <r>   57.0123    0.0000 </r>
       <r>   57.4967    0.0000 </r>
       <r>   59.9233    0.0000 </r>
       <r>   61.5288    0.0000 </r>
       <r>   63.6999    0.0000 </r>
       <r>   63.9223    0.0000 </r>
       <r>   64.6923    0.0000 </r>
       <r>   68.5120    0.0000 </r>
       <r>   69.5810    0.0000 </r>
       <r>   69.6494    0.0000 </r>
       <r>   72.1020    0.0000 </r>
       <r>   73.7065    0.0000 </r>
       <r>   74.1005    0.0000 </r>
      </set>
      <set comment="kpoint 32">
       <r>    3.8843    1.0000 </r>
       <r>    4.5724    1.0000 </r>
       <r>    4.6814    1.0000 </r>
       <r>    5.1589    1.0000 </r>
       <r>    6.1075    1.0000 </r>
       <r>    6.2602    1.0000 </r>
       <r>    7.4595    1.0000 </r>
       <r>    9.1730   -0.0009 </r>
       <r>    9.2052   -0.0004 </r>
       <r>    9.5267   -0.0000 </r>
       <r>   15.1869    0.0000 </r>
       <r>   16.6600    0.0000 </r>
       <r>   18.8840    0.0000 </r>
       <r>   23.1738    0.0000 </r>
       <r>   23.4295    0.0000 </r>
       <r>   25.7353    0.0000 </r>
       <r>   26.8848    0.0000 </r>
       <r>   28.7743    0.0000 </r>
       <r>   30.8375    0.0000 </r>
       <r>   44.2132    0.0000 </r>
       <r>   46.6836    0.0000 </r>
       <r>   48.4647    0.0000 </r>
       <r>   49.5000    0.0000 </r>
       <r>   51.6393    0.0000 </r>
       <r>   52.7609    0.0000 </r>
       <r>   53.8734    0.0000 </r>
       <r>   55.6310    0.0000 </r>
       <r>   56.1644    0.0000 </r>
       <r>   57.0363    0.0000 </r>
       <r>   59.4732    0.0000 </r>
       <r>   60.7511    0.0000 </r>
       <r>   61.7763    0.0000 </r>
       <r>   64.2192    0.0000 </r>
       <r>   64.4271    0.0000 </r>
       <r>   68.4479    0.0000 </r>
       <r>   69.7691    0.0000 </r>
       <r>   72.0150    0.0000 </r>
       <r>   72.3603    0.0000 </r>
       <r>   73.0530    0.0000 </r>
       <r>   73.9290    0.0000 </r>
      </set>
      <set comment="kpoint 33">
       <r>   -0.6919    1.0000 </r>
       <r>    2.7622    1.0000 </r>
       <r>    6.0990    1.0000 </r>
       <r>    6.6593    1.0000 </r>
       <r>    6.6594    1.0000 </r>
       <r>    7.0561    1.0000 </r>
       <r>    7.0562    1.0000 </r>
       <r>    7.3779    1.0000 </r>
       <r>    8.3273    1.0197 </r>
       <r>    8.3274    1.0197 </r>
       <r>    9.5517   -0.0000 </r>
       <r>    9.5517   -0.0000 </r>
       <r>   19.4694    0.0000 </r>
       <r>   31.9700    0.0000 </r>
       <r>   33.9717    0.0000 </r>
       <r>   35.7838    0.0000 </r>
       <r>   39.7537    0.0000 </r>
       <r>   39.7537    0.0000 </r>
       <r>   40.3049    0.0000 </r>
       <r>   40.3050    0.0000 </r>
       <r>   42.8016    0.0000 </r>
[...]
       <r>   25.0494    0.0000 </r>
       <r>   25.8671    0.0000 </r>
       <r>   31.0097    0.0000 </r>
       <r>   32.2503    0.0000 </r>
       <r>   37.0717    0.0000 </r>
       <r>   38.1955    0.0000 </r>
       <r>   40.3010    0.0000 </r>
       <r>   41.9229    0.0000 </r>
       <r>   47.0521    0.0000 </r>
       <r>   47.4939    0.0000 </r>
       <r>   56.8713    0.0000 </r>
       <r>   57.4156    0.0000 </r>
       <r>   58.5209    0.0000 </r>
       <r>   60.2000    0.0000 </r>
       <r>   61.0850    0.0000 </r>
       <r>   61.5262    0.0000 </r>
       <r>   63.0466    0.0000 </r>
       <r>   63.6506    0.0000 </r>
       <r>   65.5532    0.0000 </r>
       <r>   65.9906    0.0000 </r>
       <r>   67.7404    0.0000 </r>
       <r>   68.5248    0.0000 </r>
       <r>   70.1450    0.0000 </r>
       <r>   70.8168    0.0000 </r>
       <r>   71.5192    0.0000 </r>
       <r>   72.8767    0.0000 </r>
      </set>
      <set comment="kpoint 95">
       <r>    3.9762    1.0000 </r>
       <r>    4.0569    1.0000 </r>
       <r>    5.1807    1.0000 </r>
       <r>    5.4397    1.0000 </r>
       <r>    5.9209    1.0000 </r>
       <r>    6.1885    1.0000 </r>
       <r>    7.6129    1.0000 </r>
       <r>    7.8579    1.0000 </r>
       <r>    9.6926   -0.0000 </r>
       <r>    9.9126   -0.0000 </r>
       <r>   14.3661    0.0000 </r>
       <r>   14.9505    0.0000 </r>
       <r>   21.0737    0.0000 </r>
       <r>   21.5710    0.0000 </r>
       <r>   23.3044    0.0000 </r>
       <r>   23.7634    0.0000 </r>
       <r>   31.2374    0.0000 </r>
       <r>   33.0327    0.0000 </r>
       <r>   37.0437    0.0000 </r>
       <r>   38.6627    0.0000 </r>
       <r>   40.1215    0.0000 </r>
       <r>   41.4282    0.0000 </r>
       <r>   48.8559    0.0000 </r>
       <r>   49.3009    0.0000 </r>
       <r>   54.1678    0.0000 </r>
       <r>   54.2089    0.0000 </r>
       <r>   60.8343    0.0000 </r>
       <r>   61.3912    0.0000 </r>
       <r>   61.4579    0.0000 </r>
       <r>   62.5315    0.0000 </r>
       <r>   63.6189    0.0000 </r>
       <r>   63.7564    0.0000 </r>
       <r>   64.2388    0.0000 </r>
       <r>   64.8798    0.0000 </r>
       <r>   67.9755    0.0000 </r>
       <r>   68.4934    0.0000 </r>
       <r>   69.2988    0.0000 </r>
       <r>   69.5627    0.0000 </r>
       <r>   70.4588    0.0000 </r>
       <r>   72.3959    0.0000 </r>
      </set>
      <set comment="kpoint 96">
       <r>    4.2042    1.0000 </r>
       <r>    4.3691    1.0000 </r>
       <r>    5.0554    1.0000 </r>
       <r>    5.1355    1.0000 </r>
       <r>    5.9797    1.0000 </r>
       <r>    6.1153    1.0000 </r>
       <r>    7.7044    1.0000 </r>
       <r>    7.8896    1.0000 </r>
       <r>    9.6538   -0.0000 </r>
       <r>    9.7362   -0.0000 </r>
       <r>   16.3027    0.0000 </r>
       <r>   16.4592    0.0000 </r>
       <r>   19.3454    0.0000 </r>
       <r>   19.7562    0.0000 </r>
       <r>   22.6539    0.0000 </r>
       <r>   23.1122    0.0000 </r>
       <r>   32.8970    0.0000 </r>
       <r>   33.9371    0.0000 </r>
       <r>   36.3100    0.0000 </r>
       <r>   36.4645    0.0000 </r>
       <r>   39.9431    0.0000 </r>
       <r>   40.8466    0.0000 </r>
       <r>   50.2564    0.0000 </r>
       <r>   50.9627    0.0000 </r>
       <r>   54.9747    0.0000 </r>
       <r>   55.3955    0.0000 </r>
       <r>   58.7226    0.0000 </r>
       <r>   59.0548    0.0000 </r>
       <r>   62.3337    0.0000 </r>
       <r>   63.4157    0.0000 </r>
       <r>   63.6590    0.0000 </r>
       <r>   63.8597    0.0000 </r>
       <r>   65.1102    0.0000 </r>
       <r>   65.5155    0.0000 </r>
       <r>   66.4072    0.0000 </r>
       <r>   67.6838    0.0000 </r>
       <r>   69.9159    0.0000 </r>
       <r>   72.2484    0.0000 </r>
       <r>   72.4045    0.0000 </r>
       <r>   73.1885    0.0000 </r>
      </set>
     </set>
    </set>
   </array>
  </eigenvalues>
  <separator name="orbital magnetization" >
   <v name="MAGDIPOLOUT">      0.00000000      0.00000000      0.00000000</v>
  </separator>
  <dos>
   <i name="efermi">      8.66195068 </i>
   <total>
    <array>
     <dimension dim="1">gridpoints</dimension>
     <dimension dim="2">spin</dimension>
     <field>energy</field>
     <field>total</field>
     <field>integrated</field>
     <set>
      <set comment="spin 1">
       <r>    -4.8610     0.0000     0.0000 </r>
       <r>    -4.5826     0.0000     0.0000 </r>
       <r>    -4.3042     0.0000     0.0000 </r>
       <r>    -4.0258     0.0000     0.0000 </r>
       <r>    -3.7474     0.0000     0.0000 </r>
       <r>    -3.4690     0.0000     0.0000 </r>
       <r>    -3.1906     0.0000     0.0000 </r>
       <r>    -2.9122    -0.0000    -0.0000 </r>
       <r>    -2.6338    -0.0000    -0.0000 </r>
       <r>    -2.3554    -0.0000    -0.0000 </r>
       <r>    -2.0770    -0.0000    -0.0000 </r>
       <r>    -1.7986    -0.0000    -0.0000 </r>
       <r>    -1.5202    -0.0000    -0.0000 </r>
       <r>    -1.2418    -0.0004    -0.0001 </r>
       <r>    -0.9635     0.0084     0.0022 </r>
       <r>    -0.6851     0.0446     0.0146 </r>
       <r>    -0.4067     0.0890     0.0394 </r>
       <r>    -0.1283     0.0572     0.0553 </r>
       <r>     0.1501     0.1264     0.0905 </r>
       <r>     0.4285     0.1673     0.1371 </r>
       <r>     0.7069     0.1601     0.1817 </r>
       <r>     0.9853     0.0990     0.2093 </r>
       <r>     1.2637     0.1763     0.2584 </r>
       <r>     1.5421     0.3255     0.3490 </r>
       <r>     1.8205     0.2464     0.4176 </r>
       <r>     2.0989     0.3100     0.5039 </r>
       <r>     2.3773     0.2053     0.5610 </r>
       <r>     2.6557     0.5434     0.7123 </r>
       <r>     2.9341     1.4925     1.1278 </r>
       <r>     3.2125     1.6583     1.5895 </r>
       <r>     3.4909     2.0407     2.1576 </r>
       <r>     3.7693     2.5842     2.8771 </r>
       <r>     4.0477     2.4570     3.5611 </r>
       <r>     4.3261     2.1125     4.1492 </r>
       <r>     4.6045     2.0177     4.7109 </r>
       <r>     4.8829     2.8308     5.4990 </r>
       <r>     5.1613     2.5858     6.2189 </r>
       <r>     5.4397     2.6007     6.9429 </r>
       <r>     5.7181     2.0036     7.5007 </r>
       <r>     5.9965     1.7920     7.9996 </r>
       <r>     6.2749     2.9515     8.8213 </r>
       <r>     6.5533     3.3491     9.7537 </r>
       <r>     6.8317     3.2645    10.6625 </r>
       <r>     7.1101     3.3508    11.5953 </r>
       <r>     7.3885     3.7172    12.6302 </r>
       <r>     7.6669     3.2129    13.5247 </r>
       <r>     7.9453     2.4090    14.1953 </r>
       <r>     8.2237     2.3090    14.8381 </r>
       <r>     8.5021     2.7608    15.6068 </r>
       <r>     8.7805     2.2450    16.2317 </r>
       <r>     9.0589     1.8013    16.7332 </r>
       <r>     9.3373     3.4248    17.6867 </r>
       <r>     9.6157     4.2666    18.8745 </r>
       <r>     9.8940     4.2534    20.0586 </r>
       <r>    10.1724     3.5549    21.0483 </r>
       <r>    10.4508     0.6542    21.2304 </r>
       <r>    10.7292     0.0960    21.2571 </r>
       <r>    11.0076     0.4127    21.3720 </r>
       <r>    11.2860     0.9879    21.6471 </r>
       <r>    11.5644     0.6354    21.8240 </r>
       <r>    11.8428     0.2524    21.8942 </r>
       <r>    12.1212     0.6460    22.0741 </r>
       <r>    12.3996     0.4589    22.2018 </r>
       <r>    12.6780     0.2669    22.2762 </r>
       <r>    12.9564     0.1692    22.3233 </r>
       <r>    13.2348     0.7579    22.5343 </r>
       <r>    13.5132     0.5906    22.6987 </r>
       <r>    13.7916     0.3980    22.8095 </r>
       <r>    14.0700     0.2225    22.8714 </r>
       <r>    14.3484     0.3626    22.9724 </r>
       <r>    14.6268     0.3837    23.0792 </r>
       <r>    14.9052     0.4607    23.2075 </r>
       <r>    15.1836     0.3130    23.2946 </r>
       <r>    15.4620     0.2480    23.3636 </r>
       <r>    15.7404     0.2830    23.4424 </r>
       <r>    16.0188     0.3150    23.5301 </r>
       <r>    16.2972     0.3417    23.6252 </r>
       <r>    16.5756     0.5156    23.7688 </r>
       <r>    16.8540     0.3271    23.8598 </r>
       <r>    17.1324     0.0989    23.8874 </r>
       <r>    17.4108     0.0601    23.9041 </r>
       <r>    17.6892     0.1593    23.9485 </r>
       <r>    17.9676     0.0798    23.9707 </r>
       <r>    18.2460     0.1811    24.0211 </r>
       <r>    18.5244     0.2416    24.0884 </r>
       <r>    18.8028     0.2475    24.1573 </r>
       <r>    19.0812     0.4059    24.2703 </r>
       <r>    19.3596     0.2751    24.3469 </r>
       <r>    19.6380     0.4572    24.4742 </r>
       <r>    19.9164     0.7877    24.6935 </r>
       <r>    20.1948     0.8196    24.9216 </r>
       <r>    20.4731     0.7463    25.1294 </r>
       <r>    20.7515     0.5156    25.2730 </r>
       <r>    21.0299     0.3655    25.3747 </r>
       <r>    21.3083     0.8098    25.6002 </r>
       <r>    21.5867     0.5376    25.7498 </r>
       <r>    21.8651     0.9097    26.0031 </r>
       <r>    22.1435     0.5621    26.1596 </r>
       <r>    22.4219     0.5499    26.3127 </r>
       <r>    22.7003     0.7222    26.5137 </r>
       <r>    22.9787     0.7749    26.7294 </r>
       <r>    23.2571     0.6348    26.9062 </r>
       <r>    23.5355     0.6031    27.0741 </r>
       <r>    23.8139     0.6859    27.2650 </r>
       <r>    24.0923     0.5871    27.4285 </r>
       <r>    24.3707     0.6758    27.6166 </r>
       <r>    24.6491     0.3714    27.7200 </r>
       <r>    24.9275     0.5223    27.8654 </r>
       <r>    25.2059     0.5770    28.0260 </r>
       <r>    25.4843     0.5880    28.1898 </r>
       <r>    25.7627     0.6903    28.3819 </r>
       <r>    26.0411     0.5805    28.5435 </r>
       <r>    26.3195     0.5943    28.7090 </r>
       <r>    26.5979     0.7561    28.9195 </r>
       <r>    26.8763     1.1122    29.2291 </r>
       <r>    27.1547     0.5145    29.3723 </r>
       <r>    27.4331     0.8148    29.5992 </r>
       <r>    27.7115     1.0669    29.8962 </r>
       <r>    27.9899     0.6538    30.0782 </r>
       <r>    28.2683     0.6867    30.2694 </r>
       <r>    28.5467     0.9023    30.5206 </r>
       <r>    28.8251     0.7298    30.7238 </r>
       <r>    29.1035     0.7690    30.9379 </r>
       <r>    29.3819     1.2367    31.2822 </r>
       <r>    29.6603     1.0346    31.5702 </r>
       <r>    29.9387     0.5805    31.7318 </r>
       <r>    30.2171     1.0155    32.0145 </r>
       <r>    30.4955     0.6396    32.1926 </r>
       <r>    30.7739     0.6114    32.3628 </r>
       <r>    31.0522     1.0609    32.6581 </r>
       <r>    31.3306     1.0609    32.9535 </r>
       <r>    31.6090     0.6563    33.1362 </r>
       <r>    31.8874     0.7969    33.3581 </r>
       <r>    32.1658     1.0283    33.6443 </r>
       <r>    32.4442     1.0286    33.9307 </r>
       <r>    32.7226     0.7391    34.1365 </r>
       <r>    33.0010     0.5056    34.2772 </r>
       <r>    33.2794     0.3383    34.3714 </r>
       <r>    33.5578     0.8218    34.6002 </r>
       <r>    33.8362     0.9582    34.8669 </r>
       <r>    34.1146     0.7570    35.0777 </r>
       <r>    34.3930     0.6493    35.2584 </r>
       <r>    34.6714     0.6114    35.4286 </r>
       <r>    34.9498     0.6884    35.6203 </r>
       <r>    35.2282     0.8489    35.8566 </r>
       <r>    35.5066     0.5124    35.9993 </r>
       <r>    35.7850     0.4043    36.1118 </r>
       <r>    36.0634     0.4643    36.2411 </r>
       <r>    36.3418     0.5336    36.3896 </r>
       <r>    36.6202     0.8808    36.6348 </r>
       <r>    36.8986     0.7253    36.8368 </r>
       <r>    37.1770     0.9237    37.0939 </r>
       <r>    37.4554     0.9757    37.3655 </r>
       <r>    37.7338     0.8324    37.5973 </r>
       <r>    38.0122     0.6419    37.7760 </r>
       <r>    38.2906     0.6995    37.9707 </r>
       <r>    38.5690     0.6979    38.1650 </r>
       <r>    38.8474     1.1015    38.4717 </r>
       <r>    39.1258     1.0527    38.7648 </r>
       <r>    39.4042     0.7517    38.9741 </r>
       <r>    39.6826     0.7024    39.1696 </r>
       <r>    39.9610     0.8796    39.4145 </r>
       <r>    40.2394     0.7165    39.6140 </r>
       <r>    40.5178     0.8999    39.8645 </r>
       <r>    40.7962     0.8680    40.1061 </r>
       <r>    41.0746     0.6689    40.2923 </r>
       <r>    41.3530     0.8856    40.5389 </r>
       <r>    41.6313     1.0130    40.8209 </r>
       <r>    41.9097     0.4899    40.9573 </r>
       <r>    42.1881     0.6975    41.1515 </r>
       <r>    42.4665     0.6740    41.3391 </r>
       <r>    42.7449     0.9958    41.6163 </r>
       <r>    43.0233     0.7680    41.8302 </r>
       <r>    43.3017     0.8829    42.0760 </r>
       <r>    43.5801     0.8732    42.3191 </r>
       <r>    43.8585     0.7284    42.5218 </r>
       <r>    44.1369     0.7225    42.7230 </r>
       <r>    44.4153     0.8184    42.9508 </r>
       <r>    44.6937     1.1742    43.2777 </r>
       <r>    44.9721     0.9945    43.5546 </r>
       <r>    45.2505     0.4689    43.6851 </r>
       <r>    45.5289     0.6012    43.8525 </r>
       <r>    45.8073     0.6060    44.0212 </r>
       <r>    46.0857     0.7476    44.2293 </r>
       <r>    46.3641     0.6410    44.4078 </r>
       <r>    46.6425     0.8938    44.6566 </r>
       <r>    46.9209     1.2372    45.0010 </r>
       <r>    47.1993     1.0710    45.2992 </r>
       <r>    47.4777     1.2830    45.6564 </r>
       <r>    47.7561     0.9612    45.9240 </r>
       <r>    48.0345     0.7740    46.1394 </r>
       <r>    48.3129     0.7625    46.3517 </r>
       <r>    48.5913     1.0575    46.6461 </r>
       <r>    48.8697     1.2664    46.9987 </r>
       <r>    49.1481     0.9674    47.2680 </r>
       <r>    49.4265     0.8659    47.5091 </r>
       <r>    49.7049     1.1837    47.8386 </r>
       <r>    49.9833     1.1577    48.1609 </r>
       <r>    50.2617     1.0319    48.4482 </r>
       <r>    50.5401     0.8618    48.6881 </r>
       <r>    50.8185     0.7486    48.8965 </r>
       <r>    51.0969     0.5377    49.0462 </r>
       <r>    51.3753     0.6924    49.2390 </r>
       <r>    51.6537     1.0034    49.5183 </r>
       <r>    51.9321     0.5961    49.6843 </r>
       <r>    52.2104     0.4097    49.7983 </r>
       <r>    52.4888     1.0776    50.0984 </r>
       <r>    52.7672     0.6754    50.2864 </r>
       <r>    53.0456     1.2778    50.6421 </r>
       <r>    53.3240     1.0858    50.9444 </r>
       <r>    53.6024     0.7518    51.1537 </r>
       <r>    53.8808     1.1192    51.4653 </r>
       <r>    54.1592     1.3555    51.8427 </r>
       <r>    54.4376     1.1552    52.1643 </r>
       <r>    54.7160     0.8951    52.4135 </r>
       <r>    54.9944     0.6970    52.6075 </r>
       <r>    55.2728     0.6228    52.7809 </r>
       <r>    55.5512     0.9975    53.0586 </r>
       <r>    55.8296     1.0911    53.3623 </r>
       <r>    56.1080     1.3397    53.7353 </r>
       <r>    56.3864     1.3185    54.1024 </r>
       <r>    56.6648     0.7996    54.3250 </r>
       <r>    56.9432     1.4140    54.7186 </r>
       <r>    57.2216     0.8808    54.9638 </r>
       <r>    57.5000     1.3803    55.3481 </r>
       <r>    57.7784     1.2116    55.6854 </r>
       <r>    58.0568     1.0944    55.9901 </r>
       <r>    58.3352     1.1091    56.2989 </r>
       <r>    58.6136     1.1068    56.6070 </r>
       <r>    58.8920     1.1884    56.9379 </r>
       <r>    59.1704     1.2589    57.2884 </r>
       <r>    59.4488     1.1249    57.6015 </r>
       <r>    59.7272     1.2175    57.9405 </r>
       <r>    60.0056     1.5150    58.3622 </r>
       <r>    60.2840     1.3560    58.7397 </r>
       <r>    60.5624     1.4093    59.1321 </r>
       <r>    60.8408     1.4142    59.5258 </r>
       <r>    61.1192     1.4293    59.9237 </r>
       <r>    61.3976     1.7379    60.4075 </r>
       <r>    61.6760     1.8713    60.9285 </r>
       <r>    61.9544     1.6116    61.3772 </r>
       <r>    62.2328     2.4683    62.0643 </r>
       <r>    62.5112     1.9007    62.5935 </r>
       <r>    62.7896     1.5467    63.0241 </r>
       <r>    63.0679     2.2884    63.6612 </r>
       <r>    63.3463     2.9249    64.4754 </r>
       <r>    63.6247     2.5595    65.1880 </r>
       <r>    63.9031     2.6682    65.9308 </r>
       <r>    64.1815     2.0950    66.5141 </r>
       <r>    64.4599     1.6827    66.9825 </r>
       <r>    64.7383     1.6279    67.4357 </r>
       <r>    65.0167     1.4605    67.8423 </r>
       <r>    65.2951     1.2296    68.1846 </r>
       <r>    65.5735     1.7866    68.6820 </r>
       <r>    65.8519     1.2642    69.0340 </r>
       <r>    66.1303     1.6115    69.4826 </r>
       <r>    66.4087     1.5075    69.9023 </r>
       <r>    66.6871     1.2355    70.2462 </r>
       <r>    66.9655     1.2207    70.5861 </r>
       <r>    67.2439     1.5111    71.0068 </r>
       <r>    67.5223     1.5102    71.4272 </r>
       <r>    67.8007     1.0787    71.7275 </r>
       <r>    68.0791     0.8712    71.9700 </r>
       <r>    68.3575     1.1435    72.2884 </r>
       <r>    68.6359     1.9502    72.8313 </r>
       <r>    68.9143     1.2343    73.1749 </r>
       <r>    69.1927     1.4701    73.5842 </r>
       <r>    69.4711     1.7678    74.0763 </r>
       <r>    69.7495     1.8829    74.6005 </r>
       <r>    70.0279     1.1197    74.9123 </r>
       <r>    70.3063     0.8290    75.1431 </r>
       <r>    70.5847     1.3824    75.5279 </r>
       <r>    70.8631     1.2027    75.8627 </r>
       <r>    71.1415     1.5322    76.2893 </r>
       <r>    71.4199     1.3111    76.6543 </r>
       <r>    71.6983     1.5220    77.0781 </r>
       <r>    71.9767     1.0439    77.3687 </r>
       <r>    72.2551     0.7551    77.5789 </r>
       <r>    72.5335     1.4812    77.9912 </r>
       <r>    72.8119     1.6835    78.4599 </r>
       <r>    73.0903     1.1102    78.7690 </r>
       <r>    73.3687     0.9581    79.0357 </r>
       <r>    73.6470     0.6444    79.2151 </r>
       <r>    73.9254     1.1691    79.5406 </r>
       <r>    74.2038     1.0038    79.8201 </r>
       <r>    74.4822     0.4192    79.9368 </r>
       <r>    74.7606     0.1443    79.9769 </r>
       <r>    75.0390     0.0857    80.0008 </r>
       <r>    75.3174    -0.0026    80.0001 </r>
       <r>    75.5958    -0.0002    80.0000 </r>
       <r>    75.8742    -0.0000    80.0000 </r>
       <r>    76.1526    -0.0000    80.0000 </r>
       <r>    76.4310     0.0000    80.0000 </r>
       <r>    76.7094     0.0000    80.0000 </r>
       <r>    76.9878     0.0000    80.0000 </r>
       <r>    77.2662     0.0000    80.0000 </r>
       <r>    77.5446     0.0000    80.0000 </r>
       <r>    77.8230     0.0000    80.0000 </r>
       <r>    78.1014     0.0000    80.0000 </r>
       <r>    78.3798     0.0000    80.0000 </r>
       <r>    78.6582     0.0000    80.0000 </r>
      </set>
     </set>
    </array>
   </total>
  </dos>
 </calculation>
 <structure name="finalpos" >
  <crystal>
   <varray name="basis" >
    <v>       2.28340000       0.00000000       0.00000000 </v>
    <v>      -1.14170000       1.97748241       0.00000000 </v>
    <v>       0.00000000       0.00000000       3.89746000 </v>
   </varray>
   <i name="volume">     17.59852591 </i>
   <varray name="rec_basis" >
    <v>       0.43794342       0.25284675       0.00000000 </v>
    <v>       0.00000000       0.50569350       0.00000000 </v>
    <v>       0.00000000       0.00000000       0.25657736 </v>
   </varray>
  </crystal>
  <varray name="positions" >
   <v>       0.00000000       0.00000000       0.00000000 </v>
   <v>       0.33333333       0.66666667       0.50000000 </v>
  </varray>
 </structure>
</modeling>
