unknown system                          
   1.00000000000000     
     3.635000    0.000000    0.000000
     0.000000    3.635000    0.000000
     0.000000    0.000000    3.635000
   Cu
     4
Direct
  0.000000  0.000000  0.000000
  0.500000  0.500000  0.000000
  0.500000  0.000000  0.500000
  0.000000  0.500000  0.500000
 
   20   20   20
 0.29726697054E+03 0.26631651873E+03 0.19310639040E+03 0.11952637579E+03 0.72843148197E+02
 0.48028915751E+02 0.28510092061E+02 0.15244055373E+02 0.12535799164E+02 0.16754131408E+02
 0.19597224940E+02 0.16754131408E+02 0.12535799164E+02 0.15244055373E+02 0.28510092061E+02
 0.48028915751E+02 0.72843148197E+02 0.11952637579E+03 0.19310639040E+03 0.26631651873E+03
 0.26631651873E+03 0.23986490201E+03 0.17701911198E+03 0.11320100828E+03 0.71527314463E+02
 0.47465003787E+02 0.27601450878E+02 0.14360811729E+02 0.11188894202E+02 0.14435421820E+02
 0.16754131408E+02 0.14435421820E+02 0.11188894202E+02 0.14360811729E+02 0.27601450878E+02
 0.47465003787E+02 0.71527314463E+02 0.11320100828E+03 0.17701911198E+03 0.23986490201E+03
 0.19310639040E+03 0.17701911198E+03 0.13808703732E+03 0.96734972885E+02 0.66340224586E+02
 0.43804474968E+02 0.24323933224E+02 0.12538444064E+02 0.94621494165E+01 0.11188894202E+02
 0.12535799164E+02 0.11188894202E+02 0.94621494165E+01 0.12538444064E+02 0.24323933224E+02
 0.43804474968E+02 0.66340224586E+02 0.96734972885E+02 0.13808703732E+03 0.17701911198E+03
 0.11952637579E+03 0.11320100828E+03 0.96734972885E+02 0.76091679138E+02 0.55391383676E+02
 0.34807672657E+02 0.19350824963E+02 0.12710033732E+02 0.12538444064E+02 0.14360811729E+02
 0.15244055373E+02 0.14360811729E+02 0.12538444064E+02 0.12710033732E+02 0.19350824963E+02
 0.34807672657E+02 0.55391383676E+02 0.76091679138E+02 0.96734972885E+02 0.11320100828E+03
 0.72843148197E+02 0.71527314463E+02 0.66340224586E+02 0.55391383676E+02 0.39052925814E+02
 0.23908525103E+02 0.17330052572E+02 0.19350824963E+02 0.24323933224E+02 0.27601450878E+02
 0.28510092061E+02 0.27601450878E+02 0.24323933224E+02 0.19350824963E+02 0.17330052572E+02
 0.23908525103E+02 0.39052925814E+02 0.55391383676E+02 0.66340224586E+02 0.71527314463E+02
 0.48028915751E+02 0.47465003787E+02 0.43804474968E+02 0.34807672657E+02 0.23908525103E+02
 0.18890717813E+02 0.23908525103E+02 0.34807672657E+02 0.43804474968E+02 0.47465003787E+02
 0.48028915751E+02 0.47465003787E+02 0.43804474968E+02 0.34807672657E+02 0.23908525103E+02
 0.18890717813E+02 0.23908525103E+02 0.34807672657E+02 0.43804474968E+02 0.47465003787E+02
 0.28510092061E+02 0.27601450878E+02 0.24323933224E+02 0.19350824963E+02 0.17330052572E+02
 0.23908525103E+02 0.39052925814E+02 0.55391383676E+02 0.66340224586E+02 0.71527314463E+02
 0.72843148197E+02 0.71527314463E+02 0.66340224586E+02 0.55391383676E+02 0.39052925814E+02
 0.23908525103E+02 0.17330052572E+02 0.19350824963E+02 0.24323933224E+02 0.27601450878E+02
 0.15244055373E+02 0.14360811729E+02 0.12538444064E+02 0.12710033732E+02 0.19350824963E+02
 0.34807672657E+02 0.55391383676E+02 0.76091679138E+02 0.96734972885E+02 0.11320100828E+03
 0.11952637579E+03 0.11320100828E+03 0.96734972885E+02 0.76091679138E+02 0.55391383676E+02
 0.34807672657E+02 0.19350824963E+02 0.12710033732E+02 0.12538444064E+02 0.14360811729E+02
 0.12535799164E+02 0.11188894202E+02 0.94621494165E+01 0.12538444064E+02 0.24323933224E+02
 0.43804474968E+02 0.66340224586E+02 0.96734972885E+02 0.13808703732E+03 0.17701911198E+03
 0.19310639040E+03 0.17701911198E+03 0.13808703732E+03 0.96734972885E+02 0.66340224586E+02
 0.43804474968E+02 0.24323933224E+02 0.12538444064E+02 0.94621494165E+01 0.11188894202E+02
 0.16754131408E+02 0.14435421820E+02 0.11188894202E+02 0.14360811729E+02 0.27601450878E+02
 0.47465003787E+02 0.71527314463E+02 0.11320100828E+03 0.17701911198E+03 0.23986490201E+03
 0.26631651873E+03 0.23986490201E+03 0.17701911198E+03 0.11320100828E+03 0.71527314463E+02
 0.47465003787E+02 0.27601450878E+02 0.14360811729E+02 0.11188894202E+02 0.14435421820E+02
 0.19597224940E+02 0.16754131408E+02 0.12535799164E+02 0.15244055373E+02 0.28510092061E+02
 0.48028915751E+02 0.72843148197E+02 0.11952637579E+03 0.19310639040E+03 0.26631651873E+03
 0.29726697054E+03 0.26631651873E+03 0.19310639040E+03 0.11952637579E+03 0.72843148197E+02
 0.48028915751E+02 0.28510092061E+02 0.15244055373E+02 0.12535799164E+02 0.16754131408E+02
 0.16754131408E+02 0.14435421820E+02 0.11188894202E+02 0.14360811729E+02 0.27601450878E+02
 0.47465003787E+02 0.71527314463E+02 0.11320100828E+03 0.17701911198E+03 0.23986490201E+03
 0.26631651873E+03 0.23986490201E+03 0.17701911198E+03 0.11320100828E+03 0.71527314463E+02
 0.47465003787E+02 0.27601450878E+02 0.14360811729E+02 0.11188894202E+02 0.14435421820E+02
 0.12535799164E+02 0.11188894202E+02 0.94621494165E+01 0.12538444064E+02 0.24323933224E+02
 0.43804474968E+02 0.66340224586E+02 0.96734972885E+02 0.13808703732E+03 0.17701911198E+03
 0.19310639040E+03 0.17701911198E+03 0.13808703732E+03 0.96734972885E+02 0.66340224586E+02
 0.43804474968E+02 0.24323933224E+02 0.12538444064E+02 0.94621494165E+01 0.11188894202E+02
 0.15244055373E+02 0.14360811729E+02 0.12538444064E+02 0.12710033732E+02 0.19350824963E+02
 0.34807672657E+02 0.55391383676E+02 0.76091679138E+02 0.96734972885E+02 0.11320100828E+03
 0.11952637579E+03 0.11320100828E+03 0.96734972885E+02 0.76091679138E+02 0.55391383676E+02
 0.34807672657E+02 0.19350824963E+02 0.12710033732E+02 0.12538444064E+02 0.14360811729E+02
 0.28510092061E+02 0.27601450878E+02 0.24323933224E+02 0.19350824963E+02 0.17330052572E+02
 0.23908525103E+02 0.39052925814E+02 0.55391383676E+02 0.66340224586E+02 0.71527314463E+02
 0.72843148197E+02 0.71527314463E+02 0.66340224586E+02 0.55391383676E+02 0.39052925814E+02
 0.23908525103E+02 0.17330052572E+02 0.19350824963E+02 0.24323933224E+02 0.27601450878E+02
 0.48028915751E+02 0.47465003787E+02 0.43804474968E+02 0.34807672657E+02 0.23908525103E+02
 0.18890717813E+02 0.23908525103E+02 0.34807672657E+02 0.43804474968E+02 0.47465003787E+02
 0.48028915751E+02 0.47465003787E+02 0.43804474968E+02 0.34807672657E+02 0.23908525103E+02
 0.18890717813E+02 0.23908525103E+02 0.34807672657E+02 0.43804474968E+02 0.47465003787E+02
 0.72843148197E+02 0.71527314463E+02 0.66340224586E+02 0.55391383676E+02 0.39052925814E+02
 0.23908525103E+02 0.17330052572E+02 0.19350824963E+02 0.24323933224E+02 0.27601450878E+02
 0.28510092061E+02 0.27601450878E+02 0.24323933224E+02 0.19350824963E+02 0.17330052572E+02
 0.23908525103E+02 0.39052925814E+02 0.55391383676E+02 0.66340224586E+02 0.71527314463E+02
 0.11952637579E+03 0.11320100828E+03 0.96734972885E+02 0.76091679138E+02 0.55391383676E+02
 0.34807672657E+02 0.19350824963E+02 0.12710033732E+02 0.12538444064E+02 0.14360811729E+02
 0.15244055373E+02 0.14360811729E+02 0.12538444064E+02 0.12710033732E+02 0.19350824963E+02
 0.34807672657E+02 0.55391383676E+02 0.76091679138E+02 0.96734972885E+02 0.11320100828E+03
 0.19310639040E+03 0.17701911198E+03 0.13808703732E+03 0.96734972885E+02 0.66340224586E+02
 0.43804474968E+02 0.24323933224E+02 0.12538444064E+02 0.94621494165E+01 0.11188894202E+02
 0.12535799164E+02 0.11188894202E+02 0.94621494165E+01 0.12538444064E+02 0.24323933224E+02
 0.43804474968E+02 0.66340224586E+02 0.96734972885E+02 0.13808703732E+03 0.17701911198E+03
 0.26631651873E+03 0.23986490201E+03 0.17701911198E+03 0.11320100828E+03 0.71527314463E+02
 0.47465003787E+02 0.27601450878E+02 0.14360811729E+02 0.11188894202E+02 0.14435421820E+02
 0.16754131408E+02 0.14435421820E+02 0.11188894202E+02 0.14360811729E+02 0.27601450878E+02
 0.47465003787E+02 0.71527314463E+02 0.11320100828E+03 0.17701911198E+03 0.23986490201E+03
 0.26631651873E+03 0.23986490201E+03 0.17701911198E+03 0.11320100828E+03 0.71527314463E+02
 0.47465003787E+02 0.27601450878E+02 0.14360811729E+02 0.11188894202E+02 0.14435421820E+02
 0.16754131408E+02 0.14435421820E+02 0.11188894202E+02 0.14360811729E+02 0.27601450878E+02
 0.47465003787E+02 0.71527314463E+02 0.11320100828E+03 0.17701911198E+03 0.23986490201E+03
 0.23986490201E+03 0.21712160901E+03 0.16285801266E+03 0.10720047830E+03 0.69826522387E+02
 0.46609892765E+02 0.26901109081E+02 0.13980640421E+02 0.10412949771E+02 0.12660435622E+02
 0.14435421820E+02 0.12660435622E+02 0.10412949771E+02 0.13980640421E+02 0.26901109081E+02
 0.46609892765E+02 0.69826522387E+02 0.10720047830E+03 0.16285801266E+03 0.21712160901E+03
 0.17701911198E+03 0.16285801266E+03 0.12846786468E+03 0.91604248657E+02 0.63838517647E+02
 0.42360587629E+02 0.24081911421E+02 0.13134765013E+02 0.97410670336E+01 0.10412949771E+02
 0.11188894202E+02 0.10412949771E+02 0.97410670336E+01 0.13134765013E+02 0.24081911421E+02
 0.42360587629E+02 0.63838517647E+02 0.91604248657E+02 0.12846786468E+03 0.16285801266E+03
 0.11320100828E+03 0.10720047830E+03 0.91604248657E+02 0.72034885965E+02 0.52318372594E+02
 0.33073643923E+02 0.19362401520E+02 0.13651554174E+02 0.13134765013E+02 0.13980640421E+02
 0.14360811729E+02 0.13980640421E+02 0.13134765013E+02 0.13651554174E+02 0.19362401520E+02
 0.33073643923E+02 0.52318372594E+02 0.72034885965E+02 0.91604248657E+02 0.10720047830E+03
 0.71527314463E+02 0.69826522387E+02 0.63838517647E+02 0.52318372594E+02 0.36227393064E+02
 0.22296358489E+02 0.16898496162E+02 0.19362401520E+02 0.24081911421E+02 0.26901109081E+02
 0.27601450878E+02 0.26901109081E+02 0.24081911421E+02 0.19362401520E+02 0.16898496162E+02
 0.22296358489E+02 0.36227393064E+02 0.52318372594E+02 0.63838517647E+02 0.69826522387E+02
 0.47465003787E+02 0.46609892765E+02 0.42360587629E+02 0.33073643923E+02 0.22296358489E+02
 0.17409278207E+02 0.22296358489E+02 0.33073643923E+02 0.42360587629E+02 0.46609892765E+02
 0.47465003787E+02 0.46609892765E+02 0.42360587629E+02 0.33073643923E+02 0.22296358489E+02
 0.17409278207E+02 0.22296358489E+02 0.33073643923E+02 0.42360587629E+02 0.46609892765E+02
 0.27601450878E+02 0.26901109081E+02 0.24081911421E+02 0.19362401520E+02 0.16898496162E+02
 0.22296358489E+02 0.36227393064E+02 0.52318372594E+02 0.63838517647E+02 0.69826522387E+02
 0.71527314463E+02 0.69826522387E+02 0.63838517647E+02 0.52318372594E+02 0.36227393064E+02
 0.22296358489E+02 0.16898496162E+02 0.19362401520E+02 0.24081911421E+02 0.26901109081E+02
 0.14360811729E+02 0.13980640421E+02 0.13134765013E+02 0.13651554174E+02 0.19362401520E+02
 0.33073643923E+02 0.52318372594E+02 0.72034885965E+02 0.91604248657E+02 0.10720047830E+03
 0.11320100828E+03 0.10720047830E+03 0.91604248657E+02 0.72034885965E+02 0.52318372594E+02
 0.33073643923E+02 0.19362401520E+02 0.13651554174E+02 0.13134765013E+02 0.13980640421E+02
 0.11188894202E+02 0.10412949771E+02 0.97410670336E+01 0.13134765013E+02 0.24081911421E+02
 0.42360587629E+02 0.63838517647E+02 0.91604248657E+02 0.12846786468E+03 0.16285801266E+03
 0.17701911198E+03 0.16285801266E+03 0.12846786468E+03 0.91604248657E+02 0.63838517647E+02
 0.42360587629E+02 0.24081911421E+02 0.13134765013E+02 0.97410670336E+01 0.10412949771E+02
 0.14435421820E+02 0.12660435622E+02 0.10412949771E+02 0.13980640421E+02 0.26901109081E+02
 0.46609892765E+02 0.69826522387E+02 0.10720047830E+03 0.16285801266E+03 0.21712160901E+03
 0.23986490201E+03 0.21712160901E+03 0.16285801266E+03 0.10720047830E+03 0.69826522387E+02
 0.46609892765E+02 0.26901109081E+02 0.13980640421E+02 0.10412949771E+02 0.12660435622E+02
 0.16754131408E+02 0.14435421820E+02 0.11188894202E+02 0.14360811729E+02 0.27601450878E+02
 0.47465003787E+02 0.71527314463E+02 0.11320100828E+03 0.17701911198E+03 0.23986490201E+03
 0.26631651873E+03 0.23986490201E+03 0.17701911198E+03 0.11320100828E+03 0.71527314463E+02
 0.47465003787E+02 0.27601450878E+02 0.14360811729E+02 0.11188894202E+02 0.14435421820E+02
 0.14435421820E+02 0.12660435622E+02 0.10412949771E+02 0.13980640421E+02 0.26901109081E+02
 0.46609892765E+02 0.69826522387E+02 0.10720047830E+03 0.16285801266E+03 0.21712160901E+03
 0.23986490201E+03 0.21712160901E+03 0.16285801266E+03 0.10720047830E+03 0.69826522387E+02
 0.46609892765E+02 0.26901109081E+02 0.13980640421E+02 0.10412949771E+02 0.12660435622E+02
 0.11188894202E+02 0.10412949771E+02 0.97410670336E+01 0.13134765013E+02 0.24081911421E+02
 0.42360587629E+02 0.63838517647E+02 0.91604248657E+02 0.12846786468E+03 0.16285801266E+03
 0.17701911198E+03 0.16285801266E+03 0.12846786468E+03 0.91604248657E+02 0.63838517647E+02
 0.42360587629E+02 0.24081911421E+02 0.13134765013E+02 0.97410670336E+01 0.10412949771E+02
 0.14360811729E+02 0.13980640421E+02 0.13134765013E+02 0.13651554174E+02 0.19362401520E+02
 0.33073643923E+02 0.52318372594E+02 0.72034885965E+02 0.91604248657E+02 0.10720047830E+03
 0.11320100828E+03 0.10720047830E+03 0.91604248657E+02 0.72034885965E+02 0.52318372594E+02
 0.33073643923E+02 0.19362401520E+02 0.13651554174E+02 0.13134765013E+02 0.13980640421E+02
 0.27601450878E+02 0.26901109081E+02 0.24081911421E+02 0.19362401520E+02 0.16898496162E+02
 0.22296358489E+02 0.36227393064E+02 0.52318372594E+02 0.63838517647E+02 0.69826522387E+02
 0.71527314463E+02 0.69826522387E+02 0.63838517647E+02 0.52318372594E+02 0.36227393064E+02
 0.22296358489E+02 0.16898496162E+02 0.19362401520E+02 0.24081911421E+02 0.26901109081E+02
 0.47465003787E+02 0.46609892765E+02 0.42360587629E+02 0.33073643923E+02 0.22296358489E+02
 0.17409278207E+02 0.22296358489E+02 0.33073643923E+02 0.42360587629E+02 0.46609892765E+02
 0.47465003787E+02 0.46609892765E+02 0.42360587629E+02 0.33073643923E+02 0.22296358489E+02
 0.17409278207E+02 0.22296358489E+02 0.33073643923E+02 0.42360587629E+02 0.46609892765E+02
 0.71527314463E+02 0.69826522387E+02 0.63838517647E+02 0.52318372594E+02 0.36227393064E+02
 0.22296358489E+02 0.16898496162E+02 0.19362401520E+02 0.24081911421E+02 0.26901109081E+02
 0.27601450878E+02 0.26901109081E+02 0.24081911421E+02 0.19362401520E+02 0.16898496162E+02
 0.22296358489E+02 0.36227393064E+02 0.52318372594E+02 0.63838517647E+02 0.69826522387E+02
 0.11320100828E+03 0.10720047830E+03 0.91604248657E+02 0.72034885965E+02 0.52318372594E+02
 0.33073643923E+02 0.19362401520E+02 0.13651554174E+02 0.13134765013E+02 0.13980640421E+02
 0.14360811729E+02 0.13980640421E+02 0.13134765013E+02 0.13651554174E+02 0.19362401520E+02
 0.33073643923E+02 0.52318372594E+02 0.72034885965E+02 0.91604248657E+02 0.10720047830E+03
 0.17701911198E+03 0.16285801266E+03 0.12846786468E+03 0.91604248657E+02 0.63838517647E+02
 0.42360587629E+02 0.24081911421E+02 0.13134765013E+02 0.97410670336E+01 0.10412949771E+02
 0.11188894202E+02 0.10412949771E+02 0.97410670336E+01 0.13134765013E+02 0.24081911421E+02
 0.42360587629E+02 0.63838517647E+02 0.91604248657E+02 0.12846786468E+03 0.16285801266E+03
 0.23986490201E+03 0.21712160901E+03 0.16285801266E+03 0.10720047830E+03 0.69826522387E+02
 0.46609892765E+02 0.26901109081E+02 0.13980640421E+02 0.10412949771E+02 0.12660435622E+02
 0.14435421820E+02 0.12660435622E+02 0.10412949771E+02 0.13980640421E+02 0.26901109081E+02
 0.46609892765E+02 0.69826522387E+02 0.10720047830E+03 0.16285801266E+03 0.21712160901E+03
 0.19310639040E+03 0.17701911198E+03 0.13808703732E+03 0.96734972885E+02 0.66340224586E+02
 0.43804474968E+02 0.24323933224E+02 0.12538444064E+02 0.94621494165E+01 0.11188894202E+02
 0.12535799164E+02 0.11188894202E+02 0.94621494165E+01 0.12538444064E+02 0.24323933224E+02
 0.43804474968E+02 0.66340224586E+02 0.96734972885E+02 0.13808703732E+03 0.17701911198E+03
 0.17701911198E+03 0.16285801266E+03 0.12846786468E+03 0.91604248657E+02 0.63838517647E+02
 0.42360587629E+02 0.24081911421E+02 0.13134765013E+02 0.97410670336E+01 0.10412949771E+02
 0.11188894202E+02 0.10412949771E+02 0.97410670336E+01 0.13134765013E+02 0.24081911421E+02
 0.42360587629E+02 0.63838517647E+02 0.91604248657E+02 0.12846786468E+03 0.16285801266E+03
 0.13808703732E+03 0.12846786468E+03 0.10476006367E+03 0.78298826461E+02 0.56315163787E+02
 0.37291704500E+02 0.22469256265E+02 0.14198947186E+02 0.10850538089E+02 0.97410670336E+01
 0.94621494165E+01 0.97410670336E+01 0.10850538089E+02 0.14198947186E+02 0.22469256265E+02
 0.37291704500E+02 0.56315163787E+02 0.78298826461E+02 0.10476006367E+03 0.12846786468E+03
 0.96734972885E+02 0.91604248657E+02 0.78298826461E+02 0.61451491141E+02 0.44069144239E+02
 0.28448746384E+02 0.18930518016E+02 0.15350174484E+02 0.14198947186E+02 0.13134765013E+02
 0.12538444064E+02 0.13134765013E+02 0.14198947186E+02 0.15350174484E+02 0.18930518016E+02
 0.28448746384E+02 0.44069144239E+02 0.61451491141E+02 0.78298826461E+02 0.91604248657E+02
 0.66340224586E+02 0.63838517647E+02 0.56315163787E+02 0.44069144239E+02 0.29717161202E+02
 0.19209422721E+02 0.16238717276E+02 0.18930518016E+02 0.22469256265E+02 0.24081911421E+02
 0.24323933224E+02 0.24081911421E+02 0.22469256265E+02 0.18930518016E+02 0.16238717276E+02
 0.19209422721E+02 0.29717161202E+02 0.44069144239E+02 0.56315163787E+02 0.63838517647E+02
 0.43804474968E+02 0.42360587629E+02 0.37291704500E+02 0.28448746384E+02 0.19209422721E+02
 0.15188061383E+02 0.19209422721E+02 0.28448746384E+02 0.37291704500E+02 0.42360587629E+02
 0.43804474968E+02 0.42360587629E+02 0.37291704500E+02 0.28448746384E+02 0.19209422721E+02
 0.15188061383E+02 0.19209422721E+02 0.28448746384E+02 0.37291704500E+02 0.42360587629E+02
 0.24323933224E+02 0.24081911421E+02 0.22469256265E+02 0.18930518016E+02 0.16238717276E+02
 0.19209422721E+02 0.29717161202E+02 0.44069144239E+02 0.56315163787E+02 0.63838517647E+02
 0.66340224586E+02 0.63838517647E+02 0.56315163787E+02 0.44069144239E+02 0.29717161202E+02
 0.19209422721E+02 0.16238717276E+02 0.18930518016E+02 0.22469256265E+02 0.24081911421E+02
 0.12538444064E+02 0.13134765013E+02 0.14198947186E+02 0.15350174484E+02 0.18930518016E+02
 0.28448746384E+02 0.44069144239E+02 0.61451491141E+02 0.78298826461E+02 0.91604248657E+02
 0.96734972885E+02 0.91604248657E+02 0.78298826461E+02 0.61451491141E+02 0.44069144239E+02
 0.28448746384E+02 0.18930518016E+02 0.15350174484E+02 0.14198947186E+02 0.13134765013E+02
 0.94621494165E+01 0.97410670336E+01 0.10850538089E+02 0.14198947186E+02 0.22469256265E+02
 0.37291704500E+02 0.56315163787E+02 0.78298826461E+02 0.10476006367E+03 0.12846786468E+03
 0.13808703732E+03 0.12846786468E+03 0.10476006367E+03 0.78298826461E+02 0.56315163787E+02
 0.37291704500E+02 0.22469256265E+02 0.14198947186E+02 0.10850538089E+02 0.97410670336E+01
 0.11188894202E+02 0.10412949771E+02 0.97410670336E+01 0.13134765013E+02 0.24081911421E+02
 0.42360587629E+02 0.63838517647E+02 0.91604248657E+02 0.12846786468E+03 0.16285801266E+03
 0.17701911198E+03 0.16285801266E+03 0.12846786468E+03 0.91604248657E+02 0.63838517647E+02
 0.42360587629E+02 0.24081911421E+02 0.13134765013E+02 0.97410670336E+01 0.10412949771E+02
 0.12535799164E+02 0.11188894202E+02 0.94621494165E+01 0.12538444064E+02 0.24323933224E+02
 0.43804474968E+02 0.66340224586E+02 0.96734972885E+02 0.13808703732E+03 0.17701911198E+03
 0.19310639040E+03 0.17701911198E+03 0.13808703732E+03 0.96734972885E+02 0.66340224586E+02
 0.43804474968E+02 0.24323933224E+02 0.12538444064E+02 0.94621494165E+01 0.11188894202E+02
 0.11188894202E+02 0.10412949771E+02 0.97410670336E+01 0.13134765013E+02 0.24081911421E+02
 0.42360587629E+02 0.63838517647E+02 0.91604248657E+02 0.12846786468E+03 0.16285801266E+03
 0.17701911198E+03 0.16285801266E+03 0.12846786468E+03 0.91604248657E+02 0.63838517647E+02
 0.42360587629E+02 0.24081911421E+02 0.13134765013E+02 0.97410670336E+01 0.10412949771E+02
 0.94621494165E+01 0.97410670336E+01 0.10850538089E+02 0.14198947186E+02 0.22469256265E+02
 0.37291704500E+02 0.56315163787E+02 0.78298826461E+02 0.10476006367E+03 0.12846786468E+03
 0.13808703732E+03 0.12846786468E+03 0.10476006367E+03 0.78298826461E+02 0.56315163787E+02
 0.37291704500E+02 0.22469256265E+02 0.14198947186E+02 0.10850538089E+02 0.97410670336E+01
 0.12538444064E+02 0.13134765013E+02 0.14198947186E+02 0.15350174484E+02 0.18930518016E+02
 0.28448746384E+02 0.44069144239E+02 0.61451491141E+02 0.78298826461E+02 0.91604248657E+02
 0.96734972885E+02 0.91604248657E+02 0.78298826461E+02 0.61451491141E+02 0.44069144239E+02
 0.28448746384E+02 0.18930518016E+02 0.15350174484E+02 0.14198947186E+02 0.13134765013E+02
 0.24323933224E+02 0.24081911421E+02 0.22469256265E+02 0.18930518016E+02 0.16238717276E+02
 0.19209422721E+02 0.29717161202E+02 0.44069144239E+02 0.56315163787E+02 0.63838517647E+02
 0.66340224586E+02 0.63838517647E+02 0.56315163787E+02 0.44069144239E+02 0.29717161202E+02
 0.19209422721E+02 0.16238717276E+02 0.18930518016E+02 0.22469256265E+02 0.24081911421E+02
 0.43804474968E+02 0.42360587629E+02 0.37291704500E+02 0.28448746384E+02 0.19209422721E+02
 0.15188061383E+02 0.19209422721E+02 0.28448746384E+02 0.37291704500E+02 0.42360587629E+02
 0.43804474968E+02 0.42360587629E+02 0.37291704500E+02 0.28448746384E+02 0.19209422721E+02
 0.15188061383E+02 0.19209422721E+02 0.28448746384E+02 0.37291704500E+02 0.42360587629E+02
 0.66340224586E+02 0.63838517647E+02 0.56315163787E+02 0.44069144239E+02 0.29717161202E+02
 0.19209422721E+02 0.16238717276E+02 0.18930518016E+02 0.22469256265E+02 0.24081911421E+02
 0.24323933224E+02 0.24081911421E+02 0.22469256265E+02 0.18930518016E+02 0.16238717276E+02
 0.19209422721E+02 0.29717161202E+02 0.44069144239E+02 0.56315163787E+02 0.63838517647E+02
 0.96734972885E+02 0.91604248657E+02 0.78298826461E+02 0.61451491141E+02 0.44069144239E+02
 0.28448746384E+02 0.18930518016E+02 0.15350174484E+02 0.14198947186E+02 0.13134765013E+02
 0.12538444064E+02 0.13134765013E+02 0.14198947186E+02 0.15350174484E+02 0.18930518016E+02
 0.28448746384E+02 0.44069144239E+02 0.61451491141E+02 0.78298826461E+02 0.91604248657E+02
 0.13808703732E+03 0.12846786468E+03 0.10476006367E+03 0.78298826461E+02 0.56315163787E+02
 0.37291704500E+02 0.22469256265E+02 0.14198947186E+02 0.10850538089E+02 0.97410670336E+01
 0.94621494165E+01 0.97410670336E+01 0.10850538089E+02 0.14198947186E+02 0.22469256265E+02
 0.37291704500E+02 0.56315163787E+02 0.78298826461E+02 0.10476006367E+03 0.12846786468E+03
 0.17701911198E+03 0.16285801266E+03 0.12846786468E+03 0.91604248657E+02 0.63838517647E+02
 0.42360587629E+02 0.24081911421E+02 0.13134765013E+02 0.97410670336E+01 0.10412949771E+02
 0.11188894202E+02 0.10412949771E+02 0.97410670336E+01 0.13134765013E+02 0.24081911421E+02
 0.42360587629E+02 0.63838517647E+02 0.91604248657E+02 0.12846786468E+03 0.16285801266E+03
 0.11952637579E+03 0.11320100828E+03 0.96734972885E+02 0.76091679138E+02 0.55391383676E+02
 0.34807672657E+02 0.19350824963E+02 0.12710033732E+02 0.12538444064E+02 0.14360811729E+02
 0.15244055373E+02 0.14360811729E+02 0.12538444064E+02 0.12710033732E+02 0.19350824963E+02
 0.34807672657E+02 0.55391383676E+02 0.76091679138E+02 0.96734972885E+02 0.11320100828E+03
 0.11320100828E+03 0.10720047830E+03 0.91604248657E+02 0.72034885965E+02 0.52318372594E+02
 0.33073643923E+02 0.19362401520E+02 0.13651554174E+02 0.13134765013E+02 0.13980640421E+02
 0.14360811729E+02 0.13980640421E+02 0.13134765013E+02 0.13651554174E+02 0.19362401520E+02
 0.33073643923E+02 0.52318372594E+02 0.72034885965E+02 0.91604248657E+02 0.10720047830E+03
 0.96734972885E+02 0.91604248657E+02 0.78298826461E+02 0.61451491141E+02 0.44069144239E+02
 0.28448746384E+02 0.18930518016E+02 0.15350174484E+02 0.14198947186E+02 0.13134765013E+02
 0.12538444064E+02 0.13134765013E+02 0.14198947186E+02 0.15350174484E+02 0.18930518016E+02
 0.28448746384E+02 0.44069144239E+02 0.61451491141E+02 0.78298826461E+02 0.91604248657E+02
 0.76091679138E+02 0.72034885965E+02 0.61451491141E+02 0.47588489397E+02 0.33246163793E+02
 0.22561755888E+02 0.17580050696E+02 0.16300088994E+02 0.15350174484E+02 0.13651554174E+02
 0.12710033732E+02 0.13651554174E+02 0.15350174484E+02 0.16300088994E+02 0.17580050696E+02
 0.22561755888E+02 0.33246163793E+02 0.47588489397E+02 0.61451491141E+02 0.72034885965E+02
 0.55391383676E+02 0.52318372594E+02 0.44069144239E+02 0.33246163793E+02 0.23469336385E+02
 0.17661302712E+02 0.16338240157E+02 0.17580050696E+02 0.18930518016E+02 0.19362401520E+02
 0.19350824963E+02 0.19362401520E+02 0.18930518016E+02 0.17580050696E+02 0.16338240157E+02
 0.17661302712E+02 0.23469336385E+02 0.33246163793E+02 0.44069144239E+02 0.52318372594E+02
 0.34807672657E+02 0.33073643923E+02 0.28448746384E+02 0.22561755888E+02 0.17661302712E+02
 0.15756971228E+02 0.17661302712E+02 0.22561755888E+02 0.28448746384E+02 0.33073643923E+02
 0.34807672657E+02 0.33073643923E+02 0.28448746384E+02 0.22561755888E+02 0.17661302712E+02
 0.15756971228E+02 0.17661302712E+02 0.22561755888E+02 0.28448746384E+02 0.33073643923E+02
 0.19350824963E+02 0.19362401520E+02 0.18930518016E+02 0.17580050696E+02 0.16338240157E+02
 0.17661302712E+02 0.23469336385E+02 0.33246163793E+02 0.44069144239E+02 0.52318372594E+02
 0.55391383676E+02 0.52318372594E+02 0.44069144239E+02 0.33246163793E+02 0.23469336385E+02
 0.17661302712E+02 0.16338240157E+02 0.17580050696E+02 0.18930518016E+02 0.19362401520E+02
 0.12710033732E+02 0.13651554174E+02 0.15350174484E+02 0.16300088994E+02 0.17580050696E+02
 0.22561755888E+02 0.33246163793E+02 0.47588489397E+02 0.61451491141E+02 0.72034885965E+02
 0.76091679138E+02 0.72034885965E+02 0.61451491141E+02 0.47588489397E+02 0.33246163793E+02
 0.22561755888E+02 0.17580050696E+02 0.16300088994E+02 0.15350174484E+02 0.13651554174E+02
 0.12538444064E+02 0.13134765013E+02 0.14198947186E+02 0.15350174484E+02 0.18930518016E+02
 0.28448746384E+02 0.44069144239E+02 0.61451491141E+02 0.78298826461E+02 0.91604248657E+02
 0.96734972885E+02 0.91604248657E+02 0.78298826461E+02 0.61451491141E+02 0.44069144239E+02
 0.28448746384E+02 0.18930518016E+02 0.15350174484E+02 0.14198947186E+02 0.13134765013E+02
 0.14360811729E+02 0.13980640421E+02 0.13134765013E+02 0.13651554174E+02 0.19362401520E+02
 0.33073643923E+02 0.52318372594E+02 0.72034885965E+02 0.91604248657E+02 0.10720047830E+03
 0.11320100828E+03 0.10720047830E+03 0.91604248657E+02 0.72034885965E+02 0.52318372594E+02
 0.33073643923E+02 0.19362401520E+02 0.13651554174E+02 0.13134765013E+02 0.13980640421E+02
 0.15244055373E+02 0.14360811729E+02 0.12538444064E+02 0.12710033732E+02 0.19350824963E+02
 0.34807672657E+02 0.55391383676E+02 0.76091679138E+02 0.96734972885E+02 0.11320100828E+03
 0.11952637579E+03 0.11320100828E+03 0.96734972885E+02 0.76091679138E+02 0.55391383676E+02
 0.34807672657E+02 0.19350824963E+02 0.12710033732E+02 0.12538444064E+02 0.14360811729E+02
 0.14360811729E+02 0.13980640421E+02 0.13134765013E+02 0.13651554174E+02 0.19362401520E+02
 0.33073643923E+02 0.52318372594E+02 0.72034885965E+02 0.91604248657E+02 0.10720047830E+03
 0.11320100828E+03 0.10720047830E+03 0.91604248657E+02 0.72034885965E+02 0.52318372594E+02
 0.33073643923E+02 0.19362401520E+02 0.13651554174E+02 0.13134765013E+02 0.13980640421E+02
 0.12538444064E+02 0.13134765013E+02 0.14198947186E+02 0.15350174484E+02 0.18930518016E+02
 0.28448746384E+02 0.44069144239E+02 0.61451491141E+02 0.78298826461E+02 0.91604248657E+02
 0.96734972885E+02 0.91604248657E+02 0.78298826461E+02 0.61451491141E+02 0.44069144239E+02
 0.28448746384E+02 0.18930518016E+02 0.15350174484E+02 0.14198947186E+02 0.13134765013E+02
 0.12710033732E+02 0.13651554174E+02 0.15350174484E+02 0.16300088994E+02 0.17580050696E+02
 0.22561755888E+02 0.33246163793E+02 0.47588489397E+02 0.61451491141E+02 0.72034885965E+02
 0.76091679138E+02 0.72034885965E+02 0.61451491141E+02 0.47588489397E+02 0.33246163793E+02
 0.22561755888E+02 0.17580050696E+02 0.16300088994E+02 0.15350174484E+02 0.13651554174E+02
 0.19350824963E+02 0.19362401520E+02 0.18930518016E+02 0.17580050696E+02 0.16338240157E+02
 0.17661302712E+02 0.23469336385E+02 0.33246163793E+02 0.44069144239E+02 0.52318372594E+02
 0.55391383676E+02 0.52318372594E+02 0.44069144239E+02 0.33246163793E+02 0.23469336385E+02
 0.17661302712E+02 0.16338240157E+02 0.17580050696E+02 0.18930518016E+02 0.19362401520E+02
 0.34807672657E+02 0.33073643923E+02 0.28448746384E+02 0.22561755888E+02 0.17661302712E+02
 0.15756971228E+02 0.17661302712E+02 0.22561755888E+02 0.28448746384E+02 0.33073643923E+02
 0.34807672657E+02 0.33073643923E+02 0.28448746384E+02 0.22561755888E+02 0.17661302712E+02
 0.15756971228E+02 0.17661302712E+02 0.22561755888E+02 0.28448746384E+02 0.33073643923E+02
 0.55391383676E+02 0.52318372594E+02 0.44069144239E+02 0.33246163793E+02 0.23469336385E+02
 0.17661302712E+02 0.16338240157E+02 0.17580050696E+02 0.18930518016E+02 0.19362401520E+02
 0.19350824963E+02 0.19362401520E+02 0.18930518016E+02 0.17580050696E+02 0.16338240157E+02
 0.17661302712E+02 0.23469336385E+02 0.33246163793E+02 0.44069144239E+02 0.52318372594E+02
 0.76091679138E+02 0.72034885965E+02 0.61451491141E+02 0.47588489397E+02 0.33246163793E+02
 0.22561755888E+02 0.17580050696E+02 0.16300088994E+02 0.15350174484E+02 0.13651554174E+02
 0.12710033732E+02 0.13651554174E+02 0.15350174484E+02 0.16300088994E+02 0.17580050696E+02
 0.22561755888E+02 0.33246163793E+02 0.47588489397E+02 0.61451491141E+02 0.72034885965E+02
 0.96734972885E+02 0.91604248657E+02 0.78298826461E+02 0.61451491141E+02 0.44069144239E+02
 0.28448746384E+02 0.18930518016E+02 0.15350174484E+02 0.14198947186E+02 0.13134765013E+02
 0.12538444064E+02 0.13134765013E+02 0.14198947186E+02 0.15350174484E+02 0.18930518016E+02
 0.28448746384E+02 0.44069144239E+02 0.61451491141E+02 0.78298826461E+02 0.91604248657E+02
 0.11320100828E+03 0.10720047830E+03 0.91604248657E+02 0.72034885965E+02 0.52318372594E+02
 0.33073643923E+02 0.19362401520E+02 0.13651554174E+02 0.13134765013E+02 0.13980640421E+02
 0.14360811729E+02 0.13980640421E+02 0.13134765013E+02 0.13651554174E+02 0.19362401520E+02
 0.33073643923E+02 0.52318372594E+02 0.72034885965E+02 0.91604248657E+02 0.10720047830E+03
 0.72843148197E+02 0.71527314463E+02 0.66340224586E+02 0.55391383676E+02 0.39052925814E+02
 0.23908525103E+02 0.17330052572E+02 0.19350824963E+02 0.24323933224E+02 0.27601450878E+02
 0.28510092061E+02 0.27601450878E+02 0.24323933224E+02 0.19350824963E+02 0.17330052572E+02
 0.23908525103E+02 0.39052925814E+02 0.55391383676E+02 0.66340224586E+02 0.71527314463E+02
 0.71527314463E+02 0.69826522387E+02 0.63838517647E+02 0.52318372594E+02 0.36227393064E+02