   4   4   0   0
  0.1200752E+02  0.3635000E-09  0.3635000E-09  0.3635000E-09  0.5000000E-15
  1.000000000000000E-004
  CAR 
 unknown system                          
     26.77322066    -13.05787600  301     12.36221262      1.00000000
    -13.058  0.0000E+00  0.0000E+00
    -12.925  0.0000E+00  0.0000E+00
    -12.792  0.0000E+00  0.0000E+00
    -12.660 -0.9154E-27 -0.1215E-27
    -12.527 -0.2241E-22 -0.2975E-23
    -12.394 -0.2253E-18 -0.2992E-19
    -12.261 -0.9293E-15 -0.1234E-15
    -12.128 -0.1514E-11 -0.2011E-12
    -11.996 -0.1030E-08 -0.1370E-09
    -11.863 -0.2825E-06 -0.3764E-07
    -11.730 -0.3078E-04 -0.4124E-05
    -11.597 -0.1293E-02 -0.1758E-03
    -11.465 -0.1938E-01 -0.2748E-02
    -11.332 -0.7420E-01 -0.1260E-01
    -11.199  0.2049E+00  0.1460E-01
    -11.066  0.1233E+01  0.1783E+00
    -10.934  0.1345E+01  0.3569E+00
    -10.801  0.3050E+00  0.3974E+00
    -10.668 -0.7390E-01  0.3876E+00
    -10.535 -0.2515E-01  0.3843E+00
    -10.402 -0.1937E-02  0.3840E+00
    -10.270 -0.5226E-04  0.3840E+00
    -10.137 -0.5402E-06  0.3840E+00
    -10.004 -0.2213E-08  0.3840E+00
     -9.871 -0.3651E-11  0.3840E+00
     -9.739 -0.2571E-11  0.3840E+00
     -9.606 -0.1357E-08  0.3840E+00
     -9.473 -0.2880E-06  0.3840E+00
     -9.340 -0.2414E-04  0.3840E+00
     -9.208 -0.7690E-03  0.3839E+00
     -9.075 -0.8353E-02  0.3828E+00
     -8.942 -0.1630E-01  0.3806E+00
     -8.809  0.1114E+00  0.3954E+00
     -8.676  0.3623E+00  0.4435E+00
     -8.544  0.2675E+00  0.4790E+00
     -8.411  0.6334E-02  0.4799E+00
     -8.278 -0.9196E-01  0.4677E+00
     -8.145  0.2150E+00  0.4962E+00
     -8.013  0.1200E+01  0.6555E+00
     -7.880  0.1191E+01  0.8137E+00
     -7.747  0.1007E+01  0.9473E+00
     -7.614  0.2654E+01  0.1300E+01
     -7.482  0.2318E+01  0.1607E+01
     -7.349  0.3642E+00  0.1656E+01
     -7.216 -0.1403E+00  0.1637E+01
     -7.083 -0.3630E-01  0.1632E+01
     -6.950 -0.2471E-02  0.1632E+01
     -6.818 -0.7855E-04  0.1632E+01
     -6.685 -0.8404E-03  0.1632E+01
     -6.552 -0.1452E-01  0.1630E+01
     -6.419 -0.7006E-01  0.1621E+01
     -6.287  0.1197E+00  0.1637E+01
     -6.154  0.1099E+01  0.1783E+01
     -6.021  0.1435E+01  0.1973E+01
     -5.888  0.4044E+00  0.2027E+01
     -5.756 -0.1435E+00  0.2008E+01
     -5.623  0.1726E+00  0.2031E+01
     -5.490  0.1261E+01  0.2198E+01
     -5.357  0.1403E+01  0.2384E+01
     -5.224  0.3094E+00  0.2426E+01
     -5.092 -0.5676E-01  0.2418E+01
     -4.959  0.3659E+00  0.2467E+01
     -4.826  0.7522E+00  0.2566E+01
     -4.693  0.4517E+00  0.2626E+01
     -4.561  0.5548E+00  0.2700E+01
     -4.428  0.1658E+01  0.2920E+01
     -4.295  0.1821E+01  0.3162E+01
     -4.162  0.8818E+00  0.3279E+01
     -4.029  0.3949E+00  0.3331E+01
     -3.897  0.7938E-02  0.3333E+01
     -3.764  0.5904E-02  0.3333E+01
     -3.631  0.1583E+01  0.3543E+01
     -3.498  0.3188E+01  0.3967E+01
     -3.366  0.1912E+01  0.4221E+01
     -3.233  0.1688E+01  0.4445E+01
     -3.100  0.3235E+01  0.4874E+01
     -2.967  0.3260E+01  0.5307E+01
     -2.835  0.2359E+01  0.5620E+01
     -2.702  0.1275E+01  0.5790E+01
     -2.569  0.1096E+01  0.5935E+01
     -2.436  0.3463E+01  0.6395E+01
     -2.303  0.4549E+01  0.6999E+01
     -2.171  0.3755E+01  0.7497E+01
     -2.038  0.3261E+01  0.7930E+01
     -1.905  0.2658E+01  0.8283E+01
     -1.772  0.2448E+01  0.8608E+01
     -1.640  0.3042E+01  0.9012E+01
     -1.507  0.2938E+01  0.9402E+01
     -1.374  0.1924E+01  0.9658E+01
     -1.241  0.1709E+01  0.9885E+01
     -1.109  0.1558E+01  0.1009E+02
     -0.976  0.1314E+01  0.1027E+02
     -0.843  0.2400E+01  0.1058E+02
     -0.710  0.2921E+01  0.1097E+02
     -0.577  0.2791E+01  0.1134E+02
     -0.445  0.4431E+01  0.1193E+02
     -0.312  0.5085E+01  0.1261E+02
     -0.179  0.2938E+01  0.1300E+02
     -0.046  0.1093E+01  0.1314E+02
      0.086  0.2065E+01  0.1342E+02
      0.219  0.2989E+01  0.1381E+02
      0.352  0.2504E+01  0.1415E+02
      0.485  0.3141E+01  0.1456E+02
      0.617  0.2247E+01  0.1486E+02
      0.750  0.4142E+00  0.1492E+02
      0.883  0.1503E+01  0.1511E+02
      1.016  0.3872E+01  0.1563E+02
      1.149  0.3132E+01  0.1604E+02
      1.281  0.1005E+01  0.1618E+02
      1.414  0.1560E+01  0.1639E+02
      1.547  0.3281E+01  0.1682E+02
      1.680  0.2893E+01  0.1721E+02
      1.812  0.2655E+01  0.1756E+02
      1.945  0.4129E+01  0.1811E+02
      2.078  0.5572E+01  0.1885E+02
      2.211  0.3371E+01  0.1929E+02
      2.343  0.6887E+00  0.1938E+02
      2.476  0.1223E+01  0.1955E+02
      2.609  0.1657E+01  0.1977E+02
      2.742  0.2186E+01  0.2006E+02
      2.875  0.4709E+01  0.2068E+02
      3.007  0.5171E+01  0.2137E+02
      3.140  0.4835E+01  0.2201E+02
      3.273  0.3294E+01  0.2245E+02
      3.406  0.5987E+00  0.2253E+02
      3.538 -0.2744E+00  0.2249E+02
      3.671  0.3186E-01  0.2250E+02
      3.804  0.1210E+01  0.2266E+02
      3.937  0.2414E+01  0.2298E+02
      4.069  0.2597E+01  0.2332E+02
      4.202  0.1903E+01  0.2357E+02
      4.335  0.7726E+00  0.2368E+02
      4.468  0.4144E+00  0.2373E+02
      4.601  0.1631E+01  0.2395E+02
      4.733  0.5447E+01  0.2467E+02
      4.866  0.7539E+01  0.2567E+02
      4.999  0.5135E+01  0.2635E+02
      5.132  0.1508E+01  0.2655E+02
      5.264  0.1252E+01  0.2672E+02
      5.397  0.4781E+01  0.2736E+02
      5.530  0.5310E+01  0.2806E+02
      5.663  0.2315E+01  0.2837E+02
      5.796  0.1268E+01  0.2854E+02
      5.928  0.8688E+00  0.2865E+02
      6.061  0.8207E+00  0.2876E+02
      6.194  0.3138E+01  0.2918E+02
      6.327  0.4745E+01  0.2981E+02
      6.459  0.3163E+01  0.3023E+02
      6.592  0.1809E+01  0.3047E+02
      6.725  0.2557E+01  0.3081E+02
      6.858  0.3010E+01  0.3121E+02
      6.990  0.3852E+01  0.3172E+02
      7.123  0.5092E+01  0.3239E+02
      7.256  0.3319E+01  0.3283E+02
      7.389  0.5455E+00  0.3291E+02
      7.522  0.2699E+00  0.3294E+02
      7.654  0.1932E+01  0.3320E+02
      7.787  0.5186E+01  0.3389E+02
      7.920  0.6576E+01  0.3476E+02
      8.053  0.2941E+01  0.3515E+02
      8.185  0.1454E+01  0.3534E+02
      8.318  0.1702E+01  0.3557E+02
      8.451  0.7446E+00  0.3567E+02
      8.584  0.1019E+01  0.3580E+02
      8.716  0.1268E+01  0.3597E+02
      8.849  0.4433E+00  0.3603E+02
      8.982  0.1594E+01  0.3624E+02
      9.115  0.2920E+01  0.3663E+02
      9.248  0.1920E+01  0.3689E+02
      9.380  0.2262E+01  0.3719E+02
      9.513  0.3008E+01  0.3759E+02
      9.646  0.2787E+01  0.3796E+02
      9.779  0.2134E+01  0.3824E+02
      9.911  0.1953E+01  0.3850E+02
     10.044  0.3691E+01  0.3899E+02
     10.177  0.2962E+01  0.3938E+02
     10.310  0.1563E+01  0.3959E+02
     10.442  0.2804E+01  0.3996E+02
     10.575  0.4727E+01  0.4059E+02
     10.708  0.4361E+01  0.4117E+02
     10.841  0.3938E+01  0.4169E+02
     10.974  0.4677E+01  0.4231E+02
     11.106  0.2946E+01  0.4270E+02
     11.239  0.3205E+00  0.4275E+02
     11.372  0.6541E-01  0.4275E+02
     11.505  0.6348E+00  0.4284E+02
     11.637  0.5621E+00  0.4291E+02
     11.770  0.1045E+01  0.4305E+02
     11.903  0.1388E+01  0.4324E+02
     12.036  0.3646E+00  0.4328E+02
     12.168  0.4016E+00  0.4334E+02
     12.301  0.2835E+01  0.4371E+02
     12.434  0.4665E+01  0.4433E+02
     12.567  0.3467E+01  0.4479E+02
     12.700  0.3010E+01  0.4519E+02
     12.832  0.1682E+01  0.4542E+02
     12.965 -0.4096E-01  0.4541E+02
     13.098 -0.1890E+00  0.4539E+02
     13.231  0.1372E+01  0.4557E+02
     13.363  0.3561E+01  0.4604E+02
     13.496  0.2882E+01  0.4642E+02
     13.629  0.9358E+00  0.4655E+02
     13.762 -0.1533E-02  0.4655E+02
     13.894  0.5060E+00  0.4662E+02
     14.027  0.2190E+01  0.4691E+02
     14.160  0.3552E+01  0.4738E+02
     14.293  0.4163E+01  0.4793E+02
     14.426  0.2459E+01  0.4826E+02
     14.558  0.5954E+00  0.4834E+02
     14.691  0.9004E+00  0.4846E+02
     14.824  0.2223E+01  0.4875E+02
     14.957  0.2465E+01  0.4908E+02
     15.089  0.1711E+01  0.4931E+02
     15.222  0.1558E+01  0.4951E+02
     15.355  0.1612E+01  0.4973E+02
     15.488  0.1222E+01  0.4989E+02
     15.621  0.1178E+00  0.4990E+02
     15.753  0.4210E+00  0.4996E+02
     15.886  0.3089E+01  0.5037E+02
     16.019  0.5242E+01  0.5107E+02
     16.152  0.4506E+01  0.5166E+02
     16.284  0.4285E+01  0.5223E+02
     16.417  0.4083E+01  0.5278E+02
     16.550  0.2297E+01  0.5308E+02
     16.683  0.2093E+01  0.5336E+02
     16.815  0.2031E+01  0.5363E+02
     16.948  0.1897E+01  0.5388E+02
     17.081  0.3713E+01  0.5437E+02
     17.214  0.5111E+01  0.5505E+02
     17.347  0.2659E+01  0.5540E+02
     17.479  0.1909E+01  0.5566E+02
     17.612  0.3878E+01  0.5617E+02
     17.745  0.3402E+01  0.5662E+02
     17.878  0.3203E+01  0.5705E+02
     18.010  0.2901E+01  0.5744E+02
     18.143  0.7403E+00  0.5753E+02
     18.276 -0.1516E+00  0.5751E+02
     18.409 -0.6366E-01  0.5750E+02
     18.541 -0.6161E-02  0.5750E+02
     18.674 -0.8840E-02  0.5750E+02
     18.807 -0.4656E-01  0.5750E+02
     18.940  0.3894E-01  0.5750E+02
     19.073  0.5954E+00  0.5758E+02
     19.205  0.1141E+01  0.5773E+02
     19.338  0.1920E+01  0.5799E+02
     19.471  0.2365E+01  0.5830E+02
     19.604  0.1199E+01  0.5846E+02
     19.736  0.6568E+00  0.5855E+02
     19.869  0.5717E+00  0.5862E+02
     20.002  0.4037E+00  0.5868E+02
     20.135  0.3640E+00  0.5873E+02
     20.267  0.1924E+00  0.5875E+02
     20.400  0.4676E+00  0.5881E+02
     20.533  0.7418E+00  0.5891E+02
     20.666  0.2911E+00  0.5895E+02
     20.799 -0.2363E-01  0.5895E+02
     20.931 -0.2094E-01  0.5894E+02
     21.064 -0.2277E-02  0.5894E+02
     21.197 -0.8199E-04  0.5894E+02
     21.330 -0.3772E-05  0.5894E+02
     21.462 -0.1108E-03  0.5894E+02
     21.595 -0.1647E-02  0.5894E+02
     21.728 -0.6388E-02  0.5894E+02
     21.861  0.1308E-01  0.5894E+02
     21.993  0.6954E-01  0.5895E+02
     22.126  0.9872E-01  0.5897E+02
     22.259  0.4916E+00  0.5903E+02
     22.392  0.1058E+01  0.5917E+02
     22.525  0.7945E+00  0.5928E+02
     22.657  0.3272E+00  0.5932E+02
     22.790  0.4312E+00  0.5938E+02
     22.923  0.7065E+00  0.5947E+02
     23.056  0.8704E+00  0.5959E+02
     23.188  0.7031E+00  0.5968E+02
     23.321  0.1633E+00  0.5970E+02
     23.454 -0.3898E-01  0.5970E+02
     23.587 -0.1478E-01  0.5970E+02
     23.720 -0.4779E-02  0.5970E+02
     23.852 -0.2418E-01  0.5969E+02
     23.985 -0.6729E-02  0.5969E+02
     24.118  0.3570E+00  0.5974E+02
     24.251  0.8023E+00  0.5985E+02
     24.383  0.4561E+00  0.5991E+02
     24.516 -0.3246E-02  0.5991E+02
     24.649  0.4514E-01  0.5991E+02
     24.782  0.3314E+00  0.5996E+02
     24.914  0.3080E+00  0.6000E+02
     25.047  0.5121E-01  0.6000E+02
     25.180 -0.1855E-01  0.6000E+02
     25.313 -0.4844E-02  0.6000E+02
     25.446 -0.3233E-03  0.6000E+02
     25.578 -0.7695E-05  0.6000E+02
     25.711 -0.7062E-07  0.6000E+02
     25.844 -0.2575E-09  0.6000E+02
     25.977 -0.3786E-12  0.6000E+02
     26.109 -0.1606E-15  0.6000E+02
     26.242  0.0000E+00  0.6000E+02
     26.375  0.0000E+00  0.6000E+02
     26.508  0.0000E+00  0.6000E+02
     26.640  0.0000E+00  0.6000E+02
     26.773  0.0000E+00  0.6000E+02
