<?xml version="1.0" encoding="ISO-8859-1"?>
<modeling>
 <generator>
  <i name="program" type="string">vasp </i>
  <i name="version" type="string">6.2.0  </i>
  <i name="subversion" type="string">18Jan21 (build Mar 17 2021 09:06:54) complex                          serial </i>
  <i name="platform" type="string">LinuxIFC </i>
  <i name="date" type="string">2021 08 03 </i>
  <i name="time" type="string">10:19:29 </i>
 </generator>
 <incar>
  <i type="string" name="PREC">normal</i>
  <i type="int" name="ICHARG">     1</i>
  <i type="int" name="IBRION">    -1</i>
  <i name="EDIFF">      0.00000100</i>
  <i type="int" name="NSW">     0</i>
  <i name="ENCUT">    100.00000000</i>
  <i type="int" name="NBANDS">    30</i>
  <i type="int" name="ISMEAR">     1</i>
  <i name="SIGMA">      0.20000000</i>
  <i type="logical" name="LCHARG"> T  </i>
  <i type="int" name="KPAR">     1</i>
  <i type="int" name="NCORE">     1</i>
  <i type="string" name="GGA">PE</i>
 </incar>
 <primitive_cell>
  <structure name="primitive_cell" >
   <crystal>
    <varray name="basis" >
     <v>       1.81750000      -1.81750000       0.00000000 </v>
     <v>       1.81750000       0.00000000       1.81750000 </v>
     <v>       0.00000000      -1.81750000       1.81750000 </v>
    </varray>
    <i name="volume">     12.00751822 </i>
    <varray name="rec_basis" >
     <v>       0.27510316      -0.27510316      -0.27510316 </v>
     <v>       0.27510316       0.27510316       0.27510316 </v>
     <v>      -0.27510316      -0.27510316       0.27510316 </v>
    </varray>
   </crystal>
   <varray name="positions" >
    <v>       0.00000000       0.00000000       0.00000000 </v>
   </varray>
  </structure>
  <varray name="primitive_index" >
   <v type="int" >        1 </v>
  </varray>
 </primitive_cell>
 <kpoints>
  <generation param="Monkhorst-Pack">
   <v type="int" name="divisions">       5        5        5 </v>
   <v name="usershift">      0.00000000       0.00000000       0.00000000 </v>
   <v name="genvec1">      0.20000000       0.00000000       0.00000000 </v>
   <v name="genvec2">      0.00000000       0.20000000       0.00000000 </v>
   <v name="genvec3">      0.00000000       0.00000000       0.20000000 </v>
   <v name="shift">      0.00000000       0.00000000       0.00000000 </v>
  </generation>
  <varray name="kpointlist" >
   <v>       0.00000000       0.00000000       0.00000000 </v>
   <v>       0.20000000       0.00000000       0.00000000 </v>
   <v>       0.40000000       0.00000000       0.00000000 </v>
   <v>       0.20000000       0.20000000       0.00000000 </v>
   <v>       0.40000000       0.20000000       0.00000000 </v>
   <v>       0.40000000       0.40000000       0.00000000 </v>
   <v>       0.20000000       0.20000000       0.20000000 </v>
   <v>       0.40000000       0.20000000       0.20000000 </v>
   <v>       0.40000000       0.40000000       0.20000000 </v>
   <v>       0.40000000       0.40000000       0.40000000 </v>
  </varray>
  <varray name="weights" >
   <v>       0.00800000 </v>
   <v>       0.04800000 </v>
   <v>       0.04800000 </v>
   <v>       0.09600000 </v>
   <v>       0.19200000 </v>
   <v>       0.09600000 </v>
   <v>       0.06400000 </v>
   <v>       0.19200000 </v>
   <v>       0.19200000 </v>
   <v>       0.06400000 </v>
  </varray>
 </kpoints>
 <parameters>
  <separator name="general" >
   <i type="string" name="SYSTEM">unknown system</i>
   <i type="logical" name="LCOMPAT"> F  </i>
  </separator>
  <separator name="electronic" >
   <i type="string" name="PREC">normal</i>
   <i name="ENMAX">    100.00000000</i>
   <i name="ENAUG">    586.98000000</i>
   <i name="EDIFF">      0.00000100</i>
   <i type="int" name="IALGO">    38</i>
   <i type="int" name="IWAVPR">     0</i>
   <i type="int" name="NBANDS">    30</i>
   <i type="int" name="NBANDSLOW">    -1</i>
   <i type="int" name="NBANDSHIGH">    -1</i>
   <i name="NELECT">     44.00000000</i>
   <i type="int" name="TURBO">     0</i>
   <i type="int" name="IRESTART">     0</i>
   <i type="int" name="NREBOOT">     0</i>
   <i type="int" name="NMIN">     0</i>
   <i name="EREF">      0.00000000</i>
   <separator name="electronic smearing" >
    <i type="int" name="ISMEAR">     1</i>
    <i name="SIGMA">      0.20000000</i>
    <i name="KSPACING">      0.50000000</i>
    <i type="logical" name="KGAMMA"> T  </i>
    <i type="logical" name="KBLOWUP"> T  </i>
   </separator>
   <separator name="electronic projectors" >
    <i type="logical" name="LREAL"> F  </i>
    <v name="ROPT">      0.00000000</v>
    <i type="int" name="LMAXPAW">  -100</i>
    <i type="int" name="LMAXMIX">     2</i>
    <i type="logical" name="NLSPLINE"> F  </i>
   </separator>
   <separator name="electronic startup" >
    <i type="int" name="ISTART">     0</i>
    <i type="int" name="ICHARG">     1</i>
    <i type="int" name="INIWAV">     1</i>
   </separator>
   <separator name="electronic spin" >
    <i type="int" name="ISPIN">     1</i>
    <i type="logical" name="LNONCOLLINEAR"> F  </i>
    <v name="MAGMOM">      1.00000000      1.00000000      1.00000000      1.00000000</v>
    <i name="NUPDOWN">     -1.00000000</i>
    <i type="logical" name="LSORBIT"> F  </i>
    <v name="SAXIS">      0.00000000      0.00000000      1.00000000</v>
    <i type="logical" name="LSPIRAL"> F  </i>
    <v name="QSPIRAL">      0.00000000      0.00000000      0.00000000</v>
    <i type="logical" name="LZEROZ"> F  </i>
   </separator>
   <separator name="electronic exchange-correlation" >
    <i type="logical" name="LASPH"> F  </i>
    <i type="logical" name="LMETAGGA"> F  </i>
   </separator>
   <separator name="electronic convergence" >
    <i type="int" name="NELM">    60</i>
    <i type="int" name="NELMDL">    -5</i>
    <i type="int" name="NELMIN">     2</i>
    <i name="ENINI">    100.00000000</i>
    <separator name="electronic convergence detail" >
     <i type="logical" name="LDIAG"> T  </i>
     <i type="logical" name="LSUBROT"> F  </i>
     <i name="WEIMIN">      0.00000000</i>
     <i name="EBREAK">      0.00000001</i>
     <i name="DEPER">      0.30000000</i>
     <i type="int" name="NRMM">     4</i>
     <i name="TIME">      0.40000000</i>
    </separator>
   </separator>
   <separator name="electronic mixer" >
    <i name="AMIX">      0.40000000</i>
    <i name="BMIX">      1.00000000</i>
    <i name="AMIN">      0.10000000</i>
    <i name="AMIX_MAG">      1.60000000</i>
    <i name="BMIX_MAG">      1.00000000</i>
    <separator name="electronic mixer details" >
     <i type="int" name="IMIX">     4</i>
     <i type="logical" name="MIXFIRST"> F  </i>
     <i type="int" name="MAXMIX">   -45</i>
     <i name="WC">    100.00000000</i>
     <i type="int" name="INIMIX">     1</i>
     <i type="int" name="MIXPRE">     1</i>
     <i type="int" name="MREMOVE">     5</i>
    </separator>
   </separator>
   <separator name="electronic dipolcorrection" >
    <i type="logical" name="LDIPOL"> F  </i>
    <i type="logical" name="LMONO"> F  </i>
    <i type="int" name="IDIPOL">     0</i>
    <i name="EPSILON">      1.00000000</i>
    <v name="DIPOL">   -100.00000000   -100.00000000   -100.00000000</v>
    <i name="EFIELD">      0.00000000</i>
   </separator>
  </separator>
  <separator name="grids" >
   <i type="int" name="NGX">    10</i>
   <i type="int" name="NGY">    10</i>
   <i type="int" name="NGZ">    10</i>
   <i type="int" name="NGXF">    20</i>
   <i type="int" name="NGYF">    20</i>
   <i type="int" name="NGZF">    20</i>
   <i type="logical" name="ADDGRID"> F  </i>
  </separator>
  <separator name="ionic" >
   <i type="int" name="NSW">     0</i>
   <i type="int" name="IBRION">    -1</i>
   <i type="int" name="MDALGO">     0</i>
   <i type="int" name="ISIF">     2</i>
   <i name="PSTRESS">      0.00000000</i>
   <i name="EDIFFG">      0.00001000</i>
   <i type="int" name="NFREE">     0</i>
   <i name="POTIM">      0.50000000</i>
   <i name="SMASS">     -3.00000000</i>
   <i name="SCALEE">      1.00000000</i>
  </separator>
  <separator name="ionic md" >
   <i name="TEBEG">      0.00010000</i>
   <i name="TEEND">      0.00010000</i>
   <i type="int" name="NBLOCK">     1</i>
   <i type="int" name="KBLOCK">     1</i>
   <i type="int" name="NPACO">   256</i>
   <i name="APACO">     16.00000000</i>
  </separator>
  <separator name="symmetry" >
   <i type="int" name="ISYM">     2</i>
   <i name="SYMPREC">      0.00001000</i>
  </separator>
  <separator name="dos" >
   <i type="int" name="LORBIT">     0</i>
   <v name="RWIGS">     -1.00000000</v>
   <i type="int" name="NEDOS">   301</i>
   <i name="EMIN">     10.00000000</i>
   <i name="EMAX">    -10.00000000</i>
   <i name="EFERMI">      0.00000000</i>
  </separator>
  <separator name="writing" >
   <i type="int" name="NWRITE">     2</i>
   <i type="logical" name="LWAVE"> T  </i>
   <i type="logical" name="LDOWNSAMPLE"> F  </i>
   <i type="logical" name="LCHARG"> T  </i>
   <i type="logical" name="LPARD"> F  </i>
   <i type="logical" name="LVTOT"> F  </i>
   <i type="logical" name="LVHAR"> F  </i>
   <i type="logical" name="LELF"> F  </i>
   <i type="logical" name="LOPTICS"> F  </i>
   <v name="STM">      0.00000000      0.00000000      0.00000000      0.00000000      0.00000000      0.00000000      0.00000000</v>
  </separator>
  <separator name="performance" >
   <i type="int" name="NPAR">     1</i>
   <i type="int" name="NSIM">     4</i>
   <i type="int" name="NBLK">    -1</i>
   <i type="logical" name="LPLANE"> T  </i>
   <i type="logical" name="LSCALAPACK"> F  </i>
   <i type="logical" name="LSCAAWARE"> F  </i>
   <i type="logical" name="LSCALU"> F  </i>
   <i type="logical" name="LASYNC"> F  </i>
   <i type="logical" name="LORBITALREAL"> F  </i>
  </separator>
  <separator name="miscellaneous" >
   <i type="int" name="IDIOT">     3</i>
   <i type="int" name="PHON_NSTRUCT">    -1</i>
   <i type="logical" name="LMUSIC"> F  </i>
   <v name="POMASS">     63.54600000</v>
   <v name="DARWINR">      0.00000000</v>
   <v name="DARWINV">      1.00000000</v>
   <i type="logical" name="LCORR"> T  </i>
  </separator>
  <i type="logical" name="GGA_COMPAT"> T  </i>
  <i type="logical" name="LBERRY"> F  </i>
  <i type="int" name="ICORELEVEL">     0</i>
  <i type="logical" name="LDAU"> F  </i>
  <i type="int" name="I_CONSTRAINED_M">     0</i>
  <separator name="electronic exchange-correlation" >
   <i type="string" name="GGA">PE</i>
   <i type="int" name="VOSKOWN">     0</i>
   <i type="logical" name="LHFCALC"> F  </i>
   <i type="string" name="PRECFOCK"></i>
   <i type="logical" name="LSYMGRAD"> F  </i>
   <i type="logical" name="LHFONE"> F  </i>
   <i type="logical" name="LRHFCALC"> F  </i>
   <i type="logical" name="LTHOMAS"> F  </i>
   <i type="logical" name="LMODELHF"> F  </i>
   <i type="logical" name="LFOCKACE"> F  </i>
   <i name="ENCUT4O">     -1.00000000</i>
   <i type="int" name="EXXOEP">     0</i>
   <i type="int" name="FOURORBIT">     0</i>
   <i name="AEXX">      0.00000000</i>
   <i name="HFALPHA">      0.00000000</i>
   <i name="MCALPHA">      0.00000000</i>
   <i name="ALDAX">      1.00000000</i>
   <i name="AGGAX">      1.00000000</i>
   <i name="ALDAC">      1.00000000</i>
   <i name="AGGAC">      1.00000000</i>
   <i type="int" name="NKREDX">     1</i>
   <i type="int" name="NKREDY">     1</i>
   <i type="int" name="NKREDZ">     1</i>
   <i type="logical" name="SHIFTRED"> F  </i>
   <i type="logical" name="ODDONLY"> F  </i>
   <i type="logical" name="EVENONLY"> F  </i>
   <i type="int" name="LMAXFOCK">     0</i>
   <i type="int" name="NMAXFOCKAE">     0</i>
   <i type="logical" name="LFOCKAEDFT"> F  </i>
   <i name="HFSCREEN">      0.00000000</i>
   <i name="HFSCREENC">      0.00000000</i>
   <i type="int" name="NBANDSGWLOW">     0</i>
  </separator>
  <separator name="vdW DFT" >
   <i type="logical" name="LUSE_VDW"> F  </i>
   <i name="Zab_VDW">     -0.84910000</i>
   <i name="PARAM1">      0.12340000</i>
   <i name="PARAM2">      1.00000000</i>
   <i name="PARAM3">      0.00000000</i>
  </separator>
  <separator name="model GW" >
   <i type="int" name="MODEL_GW">     0</i>
   <i name="MODEL_EPS0">      7.20451093</i>
   <i name="MODEL_ALPHA">      1.00000000</i>
  </separator>
  <separator name="linear response parameters" >
   <i type="logical" name="LEPSILON"> F  </i>
   <i type="logical" name="LRPA"> F  </i>
   <i type="logical" name="LNABLA"> F  </i>
   <i type="logical" name="LVEL"> F  </i>
   <i type="int" name="KINTER">     0</i>
   <i name="CSHIFT">      0.10000000</i>
   <i name="OMEGAMAX">     -1.00000000</i>
   <i name="DEG_THRESHOLD">      0.00200000</i>
   <i name="RTIME">     -0.10000000</i>
   <i name="WPLASMAI">      0.00000000</i>
   <v name="DFIELD">      0.00000000      0.00000000      0.00000000</v>
   <v name="WPLASMA">      0.00000000      0.00000000      0.00000000      0.00000000      0.00000000      0.00000000      0.00000000      0.00000000      0.00000000</v>
  </separator>
  <separator name="orbital magnetization" >
   <i type="logical" name="NUCIND"> F  </i>
   <v name="MAGPOS">      0.00000000      0.00000000      0.00000000</v>
   <i type="logical" name="LNICSALL"> T  </i>
   <i type="logical" name="ORBITALMAG"> F  </i>
   <i type="logical" name="LMAGBLOCH"> F  </i>
   <i type="logical" name="LCHIMAG"> F  </i>
   <i type="logical" name="LGAUGE"> T  </i>
   <i type="int" name="MAGATOM">     0</i>
   <v name="MAGDIPOL">      0.00000000      0.00000000      0.00000000</v>
   <v name="AVECCONST">      0.00000000      0.00000000      0.00000000</v>
  </separator>
  <separator name="response functions" >
   <i type="logical" name="LFINITE_TEMPERATURE"> F  </i>
   <i type="logical" name="LADDER"> F  </i>
   <i type="logical" name="LRPAFORCE"> F  </i>
   <i type="logical" name="LFXC"> F  </i>
   <i type="logical" name="LHARTREE"> T  </i>
   <i type="int" name="IBSE">     0</i>
   <v type="int" name="KPOINT">    -1     0     0     0</v>
   <i type="logical" name="LTCTC"> F  </i>
   <i type="logical" name="LTCTE"> F  </i>
   <i type="logical" name="LTETE"> F  </i>
   <i type="logical" name="LTRIPLET"> F  </i>
   <i type="logical" name="LFXCEPS"> F  </i>
   <i type="logical" name="LFXHEG"> F  </i>
   <i type="int" name="NATURALO">     2</i>
   <i type="logical" name="LHOLEGF"> F  </i>
   <i type="logical" name="L2ORDER"> F  </i>
   <i type="logical" name="LDMP1"> F  </i>
   <i type="logical" name="LMP2LT"> F  </i>
   <i type="logical" name="LSMP2LT"> F  </i>
   <i type="logical" name="LGWLF"> F  </i>
   <i name="ENCUTGW">     -2.00000000</i>
   <i name="ENCUTGWSOFT">     -2.00000000</i>
   <i name="ENCUTLF">     -1.00000000</i>
   <i type="logical" name="LESF_SPLINES"> F  </i>
   <i type="int" name="LMAXMP2">    -1</i>
   <i name="SCISSOR">      0.00000000</i>
   <i type="int" name="NOMEGA">     0</i>
   <i type="int" name="NOMEGAR">     0</i>
   <i type="int" name="NBANDSGW">    -1</i>
   <i type="int" name="NBANDSO">    -1</i>
   <i type="int" name="NBANDSV">    -1</i>
   <i type="int" name="NELM">     1</i>
   <i type="int" name="NELMHF">     1</i>
   <i type="int" name="DIM">     3</i>
   <i type="int" name="IESPILON">     4</i>
   <i type="int" name="ANTIRES">     0</i>
   <i name="OMEGAMAX">    -30.00000000</i>
   <i name="OMEGAMIN">    -30.00000000</i>
   <i name="OMEGATL">   -200.00000000</i>
   <i type="int" name="OMEGAGRID">     0</i>
   <i name="CSHIFT">     -0.10000000</i>
   <i type="logical" name="LSELFENERGY"> F  </i>
   <i type="logical" name="LSPECTRAL"> F  </i>
   <i type="logical" name="LSPECTRALGW"> F  </i>
   <i type="logical" name="LSINGLES"> F  </i>
   <i type="logical" name="LFERMIGW"> F  </i>
   <i type="logical" name="ODDONLYGW"> F  </i>
   <i type="logical" name="EVENONLYGW"> F  </i>
   <i type="int" name="NKREDLFX">     1</i>
   <i type="int" name="NKREDLFY">     1</i>
   <i type="int" name="NKREDLFZ">     1</i>
   <i type="int" name="MAXMEM">  2800</i>
   <i type="int" name="TELESCOPE">     0</i>
   <i type="int" name="NTAUPAR">    -1</i>
   <i type="int" name="NOMEGAPAR">    -1</i>
   <i name="DAMP_NEWTON">      0.80000001</i>
   <i name="LAMBDA">      1.00000000</i>
  </separator>
  <separator name="External order field" >
   <i name="OFIELD_KAPPA">      0.00000000</i>
   <v name="OFIELD_K">      0.00000000      0.00000000      0.00000000</v>
   <i name="OFIELD_Q6_NEAR">      0.00000000</i>
   <i name="OFIELD_Q6_FAR">      0.00000000</i>
   <i name="OFIELD_A">      0.00000000</i>
  </separator>
 </parameters>
 <atominfo>
  <atoms>       4 </atoms>
  <types>       1 </types>
  <array name="atoms" >
   <dimension dim="1">ion</dimension>
   <field type="string">element</field>
   <field type="int">atomtype</field>
   <set>
    <rc><c>Cu</c><c>   1</c></rc>
    <rc><c>Cu</c><c>   1</c></rc>
    <rc><c>Cu</c><c>   1</c></rc>
    <rc><c>Cu</c><c>   1</c></rc>
   </set>
  </array>
  <array name="atomtypes" >
   <dimension dim="1">type</dimension>
   <field type="int">atomspertype</field>
   <field type="string">element</field>
   <field>mass</field>
   <field>valence</field>
   <field type="string">pseudopotential</field>
   <set>
    <rc><c>   4</c><c>Cu</c><c>     63.54600000</c><c>     11.00000000</c><c>  PAW_PBE Cu 22Jun2005                  </c></rc>
   </set>
  </array>
 </atominfo>
 <structure name="initialpos" >
  <crystal>
   <varray name="basis" >
    <v>       3.63500000       0.00000000       0.00000000 </v>
    <v>       0.00000000       3.63500000       0.00000000 </v>
    <v>       0.00000000       0.00000000       3.63500000 </v>
   </varray>
   <i name="volume">     48.03007287 </i>
   <varray name="rec_basis" >
    <v>       0.27510316       0.00000000       0.00000000 </v>
    <v>       0.00000000       0.27510316       0.00000000 </v>
    <v>       0.00000000       0.00000000       0.27510316 </v>
   </varray>
  </crystal>
  <varray name="positions" >
   <v>       0.00000000       0.00000000       0.00000000 </v>
   <v>       0.50000000       0.50000000       0.00000000 </v>
   <v>       0.50000000       0.00000000       0.50000000 </v>
   <v>       0.00000000       0.50000000       0.50000000 </v>
  </varray>
 </structure>
 <calculation>
  <scstep>
   <time name="dav">    0.06    0.08</time>
   <time name="total">    0.07    0.09</time>
   <energy>
    <i name="alphaZ">    243.62337785 </i>
    <i name="ewald">  -4395.34838493 </i>
    <i name="hartreedc">  -1460.68390639 </i>
    <i name="XCdc">    182.95256956 </i>
    <i name="pawpsdc">   4912.82663951 </i>
    <i name="pawaedc">  -5336.19386850 </i>
    <i name="eentropy">     -0.01560653 </i>
    <i name="bandstr">    839.06277831 </i>
    <i name="atom">   5423.73341339 </i>
    <i name="e_fr_energy">    409.95701225 </i>
    <i name="e_wo_entrp">    409.97261878 </i>
    <i name="e_0_energy">    409.96221443 </i>
   </energy>
  </scstep>
  <scstep>
   <time name="dav">    0.05    0.05</time>
   <time name="total">    0.05    0.05</time>
   <energy>
    <i name="e_fr_energy">    352.72700115 </i>
    <i name="e_wo_entrp">    352.71005684 </i>
    <i name="e_0_energy">    352.72135305 </i>
   </energy>
  </scstep>
  <scstep>
   <time name="dav">    0.04    0.04</time>
   <time name="total">    0.04    0.04</time>
   <energy>
    <i name="e_fr_energy">    351.10745666 </i>
    <i name="e_wo_entrp">    351.08896382 </i>
    <i name="e_0_energy">    351.10129238 </i>
   </energy>
  </scstep>
  <scstep>
   <time name="dav">    0.04    0.04</time>
   <time name="total">    0.04    0.04</time>
   <energy>
    <i name="e_fr_energy">    351.07912719 </i>
    <i name="e_wo_entrp">    351.06015551 </i>
    <i name="e_0_energy">    351.07280330 </i>
   </energy>
  </scstep>
  <scstep>
   <time name="dav">    0.04    0.04</time>
   <time name="total">    0.05    0.05</time>
   <energy>
    <i name="e_fr_energy">    351.07851732 </i>
    <i name="e_wo_entrp">    351.05953728 </i>
    <i name="e_0_energy">    351.07219064 </i>
   </energy>
  </scstep>
  <scstep>
   <time name="dav">    0.04    0.04</time>
   <time name="total">    0.05    0.05</time>
   <energy>
    <i name="e_fr_energy">   1026.70914917 </i>
    <i name="e_wo_entrp">   1026.72555112 </i>
    <i name="e_0_energy">   1026.71461648 </i>
   </energy>
  </scstep>
  <scstep>
   <time name="dav">    0.04    0.04</time>
   <time name="total">    0.05    0.05</time>
   <energy>
    <i name="e_fr_energy">   1078.03420831 </i>
    <i name="e_wo_entrp">   1078.03484118 </i>
    <i name="e_0_energy">   1078.03441927 </i>
   </energy>
  </scstep>
  <scstep>
   <time name="dav">    0.04    0.04</time>
   <time name="total">    0.05    0.05</time>
   <energy>
    <i name="e_fr_energy">   1077.50380341 </i>
    <i name="e_wo_entrp">   1077.50198252 </i>
    <i name="e_0_energy">   1077.50319645 </i>
   </energy>
  </scstep>
  <scstep>
   <time name="dav">    0.04    0.04</time>
   <time name="total">    0.05    0.05</time>
   <energy>
    <i name="e_fr_energy">   1062.31851208 </i>
    <i name="e_wo_entrp">   1062.32061941 </i>
    <i name="e_0_energy">   1062.31921452 </i>
   </energy>
  </scstep>
  <scstep>
   <time name="dav">    0.04    0.04</time>
   <time name="total">    0.05    0.05</time>
   <energy>
    <i name="e_fr_energy">   1079.44926099 </i>
    <i name="e_wo_entrp">   1079.47356838 </i>
    <i name="e_0_energy">   1079.45736346 </i>
   </energy>
  </scstep>
  <scstep>
   <time name="dav">    0.04    0.04</time>
   <time name="total">    0.05    0.05</time>
   <energy>
    <i name="e_fr_energy">   1079.06964924 </i>
    <i name="e_wo_entrp">   1079.07814686 </i>
    <i name="e_0_energy">   1079.07248178 </i>
   </energy>
  </scstep>
  <scstep>
   <time name="dav">    0.04    0.04</time>
   <time name="total">    0.05    0.05</time>
   <energy>
    <i name="e_fr_energy">   1079.22102505 </i>
    <i name="e_wo_entrp">   1079.24219410 </i>
    <i name="e_0_energy">   1079.22808140 </i>
   </energy>
  </scstep>
  <scstep>
   <time name="dav">    0.04    0.04</time>
   <time name="total">    0.05    0.05</time>
   <energy>
    <i name="e_fr_energy">   1079.21877767 </i>
    <i name="e_wo_entrp">   1079.24104848 </i>
    <i name="e_0_energy">   1079.22620128 </i>
   </energy>
  </scstep>
  <scstep>
   <time name="dav">    0.04    0.04</time>
   <time name="total">    0.05    0.05</time>
   <energy>
    <i name="e_fr_energy">   1079.21910824 </i>
    <i name="e_wo_entrp">   1079.24117639 </i>
    <i name="e_0_energy">   1079.22646429 </i>
   </energy>
  </scstep>
  <scstep>
   <time name="dav">    0.04    0.04</time>
   <time name="total">    0.05    0.05</time>
   <energy>
    <i name="e_fr_energy">   1079.21886210 </i>
    <i name="e_wo_entrp">   1079.24087138 </i>
    <i name="e_0_energy">   1079.22619853 </i>
   </energy>
  </scstep>
  <scstep>
   <time name="dav">    0.03    0.03</time>
   <time name="total">    0.04    0.04</time>
   <energy>
    <i name="e_fr_energy">   1079.21885929 </i>
    <i name="e_wo_entrp">   1079.24085428 </i>
    <i name="e_0_energy">   1079.22619095 </i>
   </energy>
  </scstep>
  <scstep>
   <time name="dav">    0.03    0.03</time>
   <time name="total">    0.04    0.04</time>
   <energy>
    <i name="e_fr_energy">   1079.21885786 </i>
    <i name="e_wo_entrp">   1079.24086998 </i>
    <i name="e_0_energy">   1079.22619524 </i>
   </energy>
  </scstep>
  <scstep>
   <time name="dav">    0.02    0.02</time>
   <time name="total">    0.03    0.03</time>
   <energy>
    <i name="alphaZ">    243.62337785 </i>
    <i name="ewald">  -4395.34838493 </i>
    <i name="hartreedc">   -336.45778319 </i>
    <i name="XCdc">    125.98739114 </i>
    <i name="pawpsdc">  62774.95808430 </i>
    <i name="pawaedc"> -62899.42024274 </i>
    <i name="eentropy">     -0.02201398 </i>
    <i name="bandstr">    142.16501515 </i>
    <i name="atom">   5423.73341339 </i>
    <i name="e_fr_energy">   1079.21885698 </i>
    <i name="e_wo_entrp">   1079.24087096 </i>
    <i name="e_0_energy">   1079.22619497 </i>
   </energy>
  </scstep>
  <structure>
   <crystal>
    <varray name="basis" >
     <v>       3.63500000       0.00000000       0.00000000 </v>
     <v>       0.00000000       3.63500000       0.00000000 </v>
     <v>       0.00000000       0.00000000       3.63500000 </v>
    </varray>
    <i name="volume">     48.03007287 </i>
    <varray name="rec_basis" >
     <v>       0.27510316       0.00000000       0.00000000 </v>
     <v>       0.00000000       0.27510316       0.00000000 </v>
     <v>       0.00000000       0.00000000       0.27510316 </v>
    </varray>
   </crystal>
   <varray name="positions" >
    <v>       0.00000000       0.00000000       0.00000000 </v>
    <v>       0.50000000       0.50000000       0.00000000 </v>
    <v>       0.50000000       0.00000000       0.50000000 </v>
    <v>       0.00000000       0.50000000       0.50000000 </v>
   </varray>
  </structure>
  <varray name="forces" >
   <v>      -0.00000000      -0.00000000       0.00000000 </v>
   <v>      -0.00000000       0.00000000       0.00000000 </v>
   <v>      -0.00000000      -0.00000000      -0.00000000 </v>
   <v>       0.00000000      -0.00000000      -0.00000000 </v>
  </varray>
  <varray name="stress" >
   <v> -104982.55660068       0.00000000      -0.00000000 </v>
   <v>      -0.00000000 -104982.55660068      -0.00000000 </v>
   <v>      -0.00000000       0.00000000 -104982.55660068 </v>
  </varray>
  <energy>
   <i name="e_fr_energy">   1079.21885698 </i>
   <i name="e_wo_entrp">   1079.24087096 </i>
   <i name="e_0_energy">   1079.22619497 </i>
  </energy>
  <time name="totalsc">    0.90    0.92</time>
  <eigenvalues>
   <array>
    <dimension dim="1">band</dimension>
    <dimension dim="2">kpoint</dimension>
    <dimension dim="3">spin</dimension>
    <field>eigene</field>
    <field>occ</field>
    <set>
     <set comment="spin 1">
      <set comment="kpoint 1">
       <r>   -5.4224    1.0000 </r>
       <r>    0.7493    1.0000 </r>
       <r>    0.7493    1.0000 </r>
       <r>    0.7493    1.0000 </r>
       <r>    4.6536    1.0000 </r>
       <r>    4.6536    1.0000 </r>
       <r>    4.6536    1.0000 </r>
       <r>    6.2206    1.0000 </r>
       <r>    6.2206    1.0000 </r>
       <r>    6.2206    1.0000 </r>
       <r>   15.7805   -0.0000 </r>
       <r>   15.7805   -0.0000 </r>
       <r>   15.7805   -0.0000 </r>
       <r>   15.7805   -0.0000 </r>
       <r>   15.7805   -0.0000 </r>
       <r>   15.7805   -0.0000 </r>
       <r>   20.0057    0.0000 </r>
       <r>   20.0057    0.0000 </r>
       <r>   20.0057    0.0000 </r>
       <r>   20.0057    0.0000 </r>
       <r>   20.0057    0.0000 </r>
       <r>   20.0057    0.0000 </r>
       <r>   20.1432    0.0000 </r>
       <r>   20.1432    0.0000 </r>
       <r>   22.0008    0.0000 </r>
       <r>   22.0008    0.0000 </r>
       <r>   22.3124    0.0000 </r>
       <r>   22.3124    0.0000 </r>
       <r>   22.3124    0.0000 </r>
       <r>   24.0978    0.0000 </r>
      </set>
      <set comment="kpoint 2">
       <r>   -4.9437    1.0000 </r>
       <r>   -3.1076    1.0000 </r>
       <r>    0.5536    1.0000 </r>
       <r>    1.2073    1.0000 </r>
       <r>    2.5876    1.0000 </r>
       <r>    2.5876    1.0000 </r>
       <r>    2.8872    1.0000 </r>
       <r>    4.7547    1.0000 </r>
       <r>    4.7547    1.0000 </r>
       <r>    6.6843    1.0000 </r>
       <r>    6.6843    1.0000 </r>
       <r>    6.8749    1.0000 </r>
       <r>    6.8749    1.0000 </r>
       <r>    7.7458    1.0000 </r>
       <r>    7.7458    1.0000 </r>
       <r>    9.2984    1.0000 </r>
       <r>    9.2984    1.0000 </r>
       <r>    9.9757    1.0000 </r>
       <r>   13.5348   -0.0000 </r>
       <r>   13.5348   -0.0000 </r>
       <r>   13.9756   -0.0000 </r>
       <r>   13.9756   -0.0000 </r>
       <r>   16.2549   -0.0000 </r>
       <r>   16.2549   -0.0000 </r>
       <r>   22.3257    0.0000 </r>
       <r>   22.3257    0.0000 </r>
       <r>   22.4927    0.0000 </r>
       <r>   22.7681    0.0000 </r>
       <r>   22.8893    0.0000 </r>
       <r>   24.7732    0.0000 </r>
      </set>
      <set comment="kpoint 3">
       <r>   -8.7051    1.0000 </r>
       <r>   -3.6604    1.0000 </r>
       <r>   -2.5534    1.0000 </r>
       <r>   -1.9884    1.0000 </r>
       <r>   -1.6933    1.0000 </r>
       <r>   -1.3585    1.0000 </r>
       <r>   -1.3585    1.0000 </r>
       <r>   -0.9789    1.0000 </r>
       <r>    4.4273    1.0000 </r>
       <r>    4.4273    1.0000 </r>
       <r>    4.7110    1.0000 </r>
       <r>    4.7110    1.0000 </r>
       <r>    6.1803    1.0000 </r>
       <r>    6.1803    1.0000 </r>
       <r>    6.9680    1.0000 </r>
       <r>    6.9680    1.0000 </r>
       <r>    7.0914    1.0000 </r>
       <r>    7.0914    1.0000 </r>
       <r>    8.1353    1.0000 </r>
       <r>    8.1353    1.0000 </r>
       <r>    9.3517    1.0000 </r>
       <r>    9.3517    1.0000 </r>
       <r>   10.4618    1.0000 </r>
       <r>   10.4618    1.0000 </r>
       <r>   12.2106    0.9785 </r>
       <r>   12.2106    0.9785 </r>
       <r>   14.8387   -0.0000 </r>
       <r>   17.4444   -0.0000 </r>
       <r>   17.4444   -0.0000 </r>
       <r>   19.3181    0.0000 </r>
      </set>
      <set comment="kpoint 4">
       <r>   -4.5127    1.0000 </r>
       <r>    0.1796    1.0000 </r>
       <r>    0.1796    1.0000 </r>
       <r>    0.1809    1.0000 </r>
       <r>    1.6541    1.0000 </r>
       <r>    1.6541    1.0000 </r>
       <r>    5.3427    1.0000 </r>
       <r>    5.5078    1.0000 </r>
       <r>    5.5078    1.0000 </r>
       <r>    6.3212    1.0000 </r>
       <r>    6.8041    1.0000 </r>
       <r>    6.8041    1.0000 </r>
       <r>    7.1970    1.0000 </r>
       <r>    7.8430    1.0000 </r>
       <r>    7.8430    1.0000 </r>
       <r>    9.6846    1.0000 </r>
       <r>    9.9844    1.0000 </r>
       <r>    9.9844    1.0000 </r>
       <r>   10.5669    1.0000 </r>
       <r>   11.4631    1.0000 </r>
       <r>   14.0062   -0.0000 </r>
       <r>   14.0062   -0.0000 </r>
       <r>   14.8215   -0.0000 </r>
       <r>   14.8215   -0.0000 </r>
       <r>   16.6640   -0.0000 </r>
       <r>   19.4504    0.0000 </r>
       <r>   19.7219    0.0000 </r>
       <r>   20.4470    0.0000 </r>
       <r>   23.0735    0.0000 </r>
       <r>   24.2027    0.0000 </r>
      </set>
      <set comment="kpoint 5">
       <r>   -5.4816    1.0000 </r>
       <r>   -3.2318    1.0000 </r>
       <r>   -2.4695    1.0000 </r>
       <r>   -1.8983    1.0000 </r>
       <r>   -1.1965    1.0000 </r>
       <r>    1.4689    1.0000 </r>
       <r>    1.8253    1.0000 </r>
       <r>    2.4658    1.0000 </r>
       <r>    2.8373    1.0000 </r>
       <r>    3.1295    1.0000 </r>
       <r>    3.9706    1.0000 </r>
       <r>    4.9048    1.0000 </r>
       <r>    6.3615    1.0000 </r>
       <r>    6.6142    1.0000 </r>
       <r>    7.5951    1.0000 </r>
       <r>    8.6085    1.0000 </r>
       <r>    9.0303    1.0000 </r>
       <r>    9.4358    1.0000 </r>
       <r>    9.6794    1.0000 </r>
       <r>   10.9328    1.0000 </r>
       <r>   13.3483   -0.0000 </r>
       <r>   14.1914   -0.0000 </r>
       <r>   14.2172   -0.0000 </r>
       <r>   15.3644   -0.0000 </r>
       <r>   15.9021   -0.0000 </r>
       <r>   16.4195   -0.0000 </r>
       <r>   17.5754   -0.0000 </r>
       <r>   17.5813   -0.0000 </r>
       <r>   17.9176    0.0000 </r>
       <r>   19.3671    0.0000 </r>
      </set>
      <set comment="kpoint 6">
       <r>   -7.6082    1.0000 </r>
       <r>   -7.6082    1.0000 </r>
       <r>   -6.1281    1.0000 </r>
       <r>   -6.1281    1.0000 </r>
       <r>   -2.0005    1.0000 </r>
       <r>   -1.4683    1.0000 </r>
       <r>   -0.7967    1.0000 </r>
       <r>   -0.5403    1.0000 </r>
       <r>    0.0436    1.0000 </r>
       <r>    0.0436    1.0000 </r>
       <r>    1.0728    1.0000 </r>
       <r>    1.0728    1.0000 </r>
       <r>    1.8454    1.0000 </r>
       <r>    3.0197    1.0000 </r>
       <r>    5.4533    1.0000 </r>
       <r>    5.4533    1.0000 </r>
       <r>    7.7661    1.0000 </r>
       <r>    9.5213    1.0000 </r>
       <r>   10.0195    1.0000 </r>
       <r>   10.9834    1.0000 </r>
       <r>   10.9834    1.0000 </r>
       <r>   12.3364    0.6084 </r>
       <r>   12.3364    0.6084 </r>
       <r>   13.3637   -0.0000 </r>
       <r>   14.6286   -0.0000 </r>
       <r>   14.8988   -0.0000 </r>
       <r>   17.2001   -0.0000 </r>
       <r>   17.2001   -0.0000 </r>
       <r>   17.5850   -0.0000 </r>
       <r>   17.7884   -0.0000 </r>
      </set>
      <set comment="kpoint 7">
       <r>   -7.6508    1.0000 </r>
       <r>   -7.6508    1.0000 </r>
       <r>   -7.6508    1.0000 </r>
       <r>   -4.1310    1.0000 </r>
       <r>   -0.2545    1.0000 </r>
       <r>   -0.2545    1.0000 </r>
       <r>   -0.2545    1.0000 </r>
       <r>    2.1061    1.0000 </r>
       <r>    2.1061    1.0000 </r>
       <r>    2.1061    1.0000 </r>
       <r>    4.1305    1.0000 </r>
       <r>    4.1305    1.0000 </r>
       <r>    4.1305    1.0000 </r>
       <r>    5.7786    1.0000 </r>
       <r>    5.7786    1.0000 </r>
       <r>    5.7786    1.0000 </r>
       <r>    7.8429    1.0000 </r>
       <r>    7.8429    1.0000 </r>
       <r>    9.0420    1.0000 </r>
       <r>    9.0420    1.0000 </r>
       <r>    9.0420    1.0000 </r>
       <r>   11.8052    1.0003 </r>
       <r>   11.8052    1.0003 </r>
       <r>   11.8052    1.0003 </r>
       <r>   12.3918    0.3762 </r>
       <r>   12.3918    0.3762 </r>
       <r>   12.3918    0.3762 </r>
       <r>   15.9734   -0.0000 </r>
       <r>   17.0678   -0.0000 </r>
       <r>   17.0678   -0.0000 </r>
      </set>
      <set comment="kpoint 8">
       <r>  -11.0579    1.0000 </r>
       <r>   -2.9878    1.0000 </r>
       <r>   -2.8177    1.0000 </r>
       <r>   -2.3925    1.0000 </r>
       <r>   -2.3925    1.0000 </r>
       <r>   -2.1719    1.0000 </r>
       <r>   -2.1719    1.0000 </r>
       <r>   -0.7171    1.0000 </r>
       <r>    0.9507    1.0000 </r>
       <r>    0.9507    1.0000 </r>
       <r>    2.8384    1.0000 </r>
       <r>    2.8384    1.0000 </r>
       <r>    3.8189    1.0000 </r>
       <r>    4.8305    1.0000 </r>
       <r>    4.8305    1.0000 </r>
       <r>    4.9941    1.0000 </r>
       <r>    6.1411    1.0000 </r>
       <r>    7.0628    1.0000 </r>
       <r>    7.0628    1.0000 </r>
       <r>   10.6996    1.0000 </r>
       <r>   10.7982    1.0000 </r>
       <r>   12.6535   -0.0296 </r>
       <r>   12.6535   -0.0296 </r>
       <r>   13.2741   -0.0000 </r>
       <r>   15.1184   -0.0000 </r>
       <r>   16.2845   -0.0000 </r>
       <r>   16.2845   -0.0000 </r>
       <r>   16.8994   -0.0000 </r>
       <r>   17.1367   -0.0000 </r>
       <r>   17.1367   -0.0000 </r>
      </set>
      <set comment="kpoint 9">
       <r>   -8.0075    1.0000 </r>
       <r>   -4.3851    1.0000 </r>
       <r>   -3.5501    1.0000 </r>
       <r>   -3.5501    1.0000 </r>
       <r>   -3.1202    1.0000 </r>
       <r>   -1.6997    1.0000 </r>
       <r>   -1.5943    1.0000 </r>
       <r>   -0.8838    1.0000 </r>
       <r>   -0.4695    1.0000 </r>
       <r>   -0.4695    1.0000 </r>
       <r>    0.4500    1.0000 </r>
       <r>    0.4500    1.0000 </r>
       <r>    2.0017    1.0000 </r>
       <r>    3.0600    1.0000 </r>
       <r>    4.6959    1.0000 </r>
       <r>    4.6959    1.0000 </r>
       <r>    5.3662    1.0000 </r>
       <r>    6.2709    1.0000 </r>
       <r>    7.8509    1.0000 </r>
       <r>    7.8509    1.0000 </r>
       <r>   10.0480    1.0000 </r>
       <r>   10.3044    1.0000 </r>
       <r>   10.5319    1.0000 </r>
       <r>   10.5319    1.0000 </r>
       <r>   14.3244   -0.0000 </r>
       <r>   15.8921   -0.0000 </r>
       <r>   16.0495   -0.0000 </r>
       <r>   16.0495   -0.0000 </r>
       <r>   16.6652   -0.0000 </r>
       <r>   17.8797    0.0000 </r>
      </set>
      <set comment="kpoint 10">
       <r>   -4.8351    1.0000 </r>
       <r>   -0.3912    1.0000 </r>
       <r>   -0.3362    1.0000 </r>
       <r>   -0.3362    1.0000 </r>
       <r>   -0.3362    1.0000 </r>
       <r>    1.4792    1.0000 </r>
       <r>    1.4792    1.0000 </r>
       <r>    1.4792    1.0000 </r>
       <r>    2.0060    1.0000 </r>
       <r>    2.0060    1.0000 </r>
       <r>    2.0395    1.0000 </r>
       <r>    2.0395    1.0000 </r>
       <r>    2.0395    1.0000 </r>
       <r>    3.1812    1.0000 </r>
       <r>    3.1812    1.0000 </r>
       <r>    3.1812    1.0000 </r>
       <r>    5.3572    1.0000 </r>
       <r>    5.3572    1.0000 </r>
       <r>    5.3572    1.0000 </r>
       <r>    7.1846    1.0000 </r>
       <r>    8.2373    1.0000 </r>
       <r>    8.2373    1.0000 </r>
       <r>    8.2373    1.0000 </r>
       <r>   10.9400    1.0000 </r>
       <r>   10.9400    1.0000 </r>
       <r>   12.3816    0.4183 </r>
       <r>   12.3816    0.4183 </r>
       <r>   12.3816    0.4183 </r>
       <r>   19.1049    0.0000 </r>
       <r>   19.1049    0.0000 </r>
      </set>
     </set>
    </set>
   </array>
  </eigenvalues>
  <separator name="orbital magnetization" >
   <v name="MAGDIPOLOUT">      0.00000000      0.00000000      0.00000000</v>
  </separator>
  <dos>
   <i name="efermi">     12.36221262 </i>
   <total>
    <array>
     <dimension dim="1">gridpoints</dimension>
     <dimension dim="2">spin</dimension>
     <field>energy</field>
     <field>total</field>
     <field>integrated</field>
     <set>
      <set comment="spin 1">
       <r>   -13.0579     0.0000     0.0000 </r>
       <r>   -12.9251     0.0000     0.0000 </r>
       <r>   -12.7923     0.0000     0.0000 </r>
       <r>   -12.6596    -0.0000    -0.0000 </r>
       <r>   -12.5268    -0.0000    -0.0000 </r>
       <r>   -12.3940    -0.0000    -0.0000 </r>
       <r>   -12.2613    -0.0000    -0.0000 </r>
       <r>   -12.1285    -0.0000    -0.0000 </r>
       <r>   -11.9957    -0.0000    -0.0000 </r>
       <r>   -11.8629    -0.0000    -0.0000 </r>
       <r>   -11.7302    -0.0000    -0.0000 </r>
       <r>   -11.5974    -0.0013    -0.0002 </r>
       <r>   -11.4646    -0.0194    -0.0027 </r>
       <r>   -11.3319    -0.0742    -0.0126 </r>
       <r>   -11.1991     0.2049     0.0146 </r>
       <r>   -11.0663     1.2329     0.1783 </r>
       <r>   -10.9336     1.3454     0.3569 </r>
       <r>   -10.8008     0.3050     0.3974 </r>
       <r>   -10.6680    -0.0739     0.3876 </r>
       <r>   -10.5352    -0.0252     0.3843 </r>
       <r>   -10.4025    -0.0019     0.3840 </r>
       <r>   -10.2697    -0.0001     0.3840 </r>
       <r>   -10.1369    -0.0000     0.3840 </r>
       <r>   -10.0042    -0.0000     0.3840 </r>
       <r>    -9.8714    -0.0000     0.3840 </r>
       <r>    -9.7386    -0.0000     0.3840 </r>
       <r>    -9.6058    -0.0000     0.3840 </r>
       <r>    -9.4731    -0.0000     0.3840 </r>
       <r>    -9.3403    -0.0000     0.3840 </r>
       <r>    -9.2075    -0.0008     0.3839 </r>
       <r>    -9.0748    -0.0084     0.3828 </r>
       <r>    -8.9420    -0.0163     0.3806 </r>
       <r>    -8.8092     0.1114     0.3954 </r>
       <r>    -8.6765     0.3623     0.4435 </r>
       <r>    -8.5437     0.2675     0.4790 </r>
       <r>    -8.4109     0.0063     0.4799 </r>
       <r>    -8.2781    -0.0920     0.4677 </r>
       <r>    -8.1454     0.2150     0.4962 </r>
       <r>    -8.0126     1.1996     0.6555 </r>
       <r>    -7.8798     1.1915     0.8137 </r>
       <r>    -7.7471     1.0065     0.9473 </r>
       <r>    -7.6143     2.6541     1.2997 </r>
       <r>    -7.4815     2.3177     1.6074 </r>
       <r>    -7.3488     0.3642     1.6558 </r>
       <r>    -7.2160    -0.1403     1.6372 </r>
       <r>    -7.0832    -0.0363     1.6323 </r>
       <r>    -6.9504    -0.0025     1.6320 </r>
       <r>    -6.8177    -0.0001     1.6320 </r>
       <r>    -6.6849    -0.0008     1.6319 </r>
       <r>    -6.5521    -0.0145     1.6300 </r>
       <r>    -6.4194    -0.0701     1.6207 </r>
       <r>    -6.2866     0.1197     1.6366 </r>
       <r>    -6.1538     1.0994     1.7825 </r>
       <r>    -6.0210     1.4354     1.9731 </r>
       <r>    -5.8883     0.4044     2.0268 </r>
       <r>    -5.7555    -0.1435     2.0077 </r>
       <r>    -5.6227     0.1726     2.0307 </r>
       <r>    -5.4900     1.2614     2.1981 </r>
       <r>    -5.3572     1.4035     2.3845 </r>
       <r>    -5.2244     0.3094     2.4255 </r>
       <r>    -5.0917    -0.0568     2.4180 </r>
       <r>    -4.9589     0.3659     2.4666 </r>
       <r>    -4.8261     0.7522     2.5665 </r>
       <r>    -4.6933     0.4517     2.6264 </r>
       <r>    -4.5606     0.5548     2.7001 </r>
       <r>    -4.4278     1.6578     2.9202 </r>
       <r>    -4.2950     1.8209     3.1620 </r>
       <r>    -4.1623     0.8818     3.2790 </r>
       <r>    -4.0295     0.3949     3.3315 </r>
       <r>    -3.8967     0.0079     3.3325 </r>
       <r>    -3.7640     0.0059     3.3333 </r>
       <r>    -3.6312     1.5827     3.5434 </r>
       <r>    -3.4984     3.1883     3.9667 </r>
       <r>    -3.3656     1.9122     4.2206 </r>
       <r>    -3.2329     1.6885     4.4448 </r>
       <r>    -3.1001     3.2355     4.8744 </r>
       <r>    -2.9673     3.2596     5.3072 </r>
       <r>    -2.8346     2.3592     5.6204 </r>
       <r>    -2.7018     1.2754     5.7897 </r>
       <r>    -2.5690     1.0955     5.9352 </r>
       <r>    -2.4363     3.4626     6.3949 </r>
       <r>    -2.3035     4.5493     6.9989 </r>
       <r>    -2.1707     3.7550     7.4975 </r>
       <r>    -2.0379     3.2608     7.9304 </r>
       <r>    -1.9052     2.6579     8.2833 </r>
       <r>    -1.7724     2.4482     8.6084 </r>
       <r>    -1.6396     3.0416     9.0122 </r>
       <r>    -1.5069     2.9380     9.4023 </r>
       <r>    -1.3741     1.9239     9.6577 </r>
       <r>    -1.2413     1.7087     9.8846 </r>
       <r>    -1.1085     1.5576    10.0914 </r>
       <r>    -0.9758     1.3137    10.2658 </r>
       <r>    -0.8430     2.4005    10.5845 </r>
       <r>    -0.7102     2.9213    10.9724 </r>
       <r>    -0.5775     2.7910    11.3429 </r>
       <r>    -0.4447     4.4311    11.9313 </r>
       <r>    -0.3119     5.0847    12.6064 </r>
       <r>    -0.1792     2.9382    12.9965 </r>
       <r>    -0.0464     1.0931    13.1416 </r>
       <r>     0.0864     2.0655    13.4158 </r>
       <r>     0.2192     2.9887    13.8126 </r>
       <r>     0.3519     2.5037    14.1450 </r>
       <r>     0.4847     3.1407    14.5620 </r>
       <r>     0.6175     2.2470    14.8604 </r>
       <r>     0.7502     0.4142    14.9153 </r>
       <r>     0.8830     1.5029    15.1149 </r>
       <r>     1.0158     3.8719    15.6290 </r>
       <r>     1.1485     3.1318    16.0448 </r>
       <r>     1.2813     1.0048    16.1782 </r>
       <r>     1.4141     1.5600    16.3853 </r>
       <r>     1.5469     3.2808    16.8209 </r>
       <r>     1.6796     2.8934    17.2051 </r>
       <r>     1.8124     2.6550    17.5576 </r>
       <r>     1.9452     4.1285    18.1057 </r>
       <r>     2.0779     5.5721    18.8455 </r>
       <r>     2.2107     3.3711    19.2931 </r>
       <r>     2.3435     0.6887    19.3846 </r>
       <r>     2.4763     1.2233    19.5470 </r>
       <r>     2.6090     1.6571    19.7670 </r>
       <r>     2.7418     2.1863    20.0573 </r>
       <r>     2.8746     4.7092    20.6825 </r>
       <r>     3.0073     5.1706    21.3690 </r>
       <r>     3.1401     4.8348    22.0109 </r>
       <r>     3.2729     3.2938    22.4482 </r>
       <r>     3.4056     0.5987    22.5277 </r>
       <r>     3.5384    -0.2744    22.4913 </r>
       <r>     3.6712     0.0319    22.4955 </r>
       <r>     3.8040     1.2104    22.6562 </r>
       <r>     3.9367     2.4137    22.9767 </r>
       <r>     4.0695     2.5973    23.3215 </r>
       <r>     4.2023     1.9027    23.5741 </r>
       <r>     4.3350     0.7726    23.6767 </r>
       <r>     4.4678     0.4144    23.7317 </r>
       <r>     4.6006     1.6314    23.9483 </r>
       <r>     4.7333     5.4465    24.6715 </r>
       <r>     4.8661     7.5388    25.6724 </r>
       <r>     4.9989     5.1349    26.3542 </r>
       <r>     5.1317     1.5081    26.5544 </r>
       <r>     5.2644     1.2517    26.7206 </r>
       <r>     5.3972     4.7809    27.3554 </r>
       <r>     5.5300     5.3103    28.0604 </r>
       <r>     5.6627     2.3152    28.3678 </r>
       <r>     5.7955     1.2683    28.5362 </r>
       <r>     5.9283     0.8688    28.6515 </r>
       <r>     6.0611     0.8207    28.7605 </r>
       <r>     6.1938     3.1382    29.1772 </r>
       <r>     6.3266     4.7455    29.8072 </r>
       <r>     6.4594     3.1627    30.2271 </r>
       <r>     6.5921     1.8088    30.4673 </r>
       <r>     6.7249     2.5573    30.8068 </r>
       <r>     6.8577     3.0099    31.2064 </r>
       <r>     6.9904     3.8516    31.7178 </r>
       <r>     7.1232     5.0921    32.3939 </r>
       <r>     7.2560     3.3188    32.8345 </r>
       <r>     7.3888     0.5455    32.9070 </r>
       <r>     7.5215     0.2699    32.9428 </r>
       <r>     7.6543     1.9320    33.1993 </r>
       <r>     7.7871     5.1865    33.8879 </r>
       <r>     7.9198     6.5761    34.7610 </r>
       <r>     8.0526     2.9413    35.1516 </r>
       <r>     8.1854     1.4538    35.3446 </r>
       <r>     8.3181     1.7025    35.5706 </r>
       <r>     8.4509     0.7446    35.6695 </r>
       <r>     8.5837     1.0190    35.8048 </r>
       <r>     8.7165     1.2676    35.9731 </r>
       <r>     8.8492     0.4433    36.0319 </r>
       <r>     8.9820     1.5937    36.2435 </r>
       <r>     9.1148     2.9200    36.6312 </r>
       <r>     9.2475     1.9198    36.8861 </r>
       <r>     9.3803     2.2619    37.1864 </r>
       <r>     9.5131     3.0081    37.5858 </r>
       <r>     9.6458     2.7869    37.9558 </r>
       <r>     9.7786     2.1342    38.2392 </r>
       <r>     9.9114     1.9534    38.4986 </r>
       <r>    10.0442     3.6910    38.9886 </r>
       <r>    10.1769     2.9623    39.3819 </r>
       <r>    10.3097     1.5634    39.5895 </r>
       <r>    10.4425     2.8038    39.9618 </r>
       <r>    10.5752     4.7271    40.5894 </r>
       <r>    10.7080     4.3611    41.1684 </r>
       <r>    10.8408     3.9378    41.6912 </r>
       <r>    10.9736     4.6767    42.3121 </r>
       <r>    11.1063     2.9458    42.7033 </r>
       <r>    11.2391     0.3205    42.7458 </r>
       <r>    11.3719     0.0654    42.7545 </r>
       <r>    11.5046     0.6348    42.8388 </r>
       <r>    11.6374     0.5621    42.9134 </r>
       <r>    11.7702     1.0454    43.0522 </r>
       <r>    11.9029     1.3884    43.2365 </r>
       <r>    12.0357     0.3646    43.2849 </r>
       <r>    12.1685     0.4016    43.3383 </r>
       <r>    12.3013     2.8350    43.7147 </r>
       <r>    12.4340     4.6647    44.3340 </r>
       <r>    12.5668     3.4672    44.7943 </r>
       <r>    12.6996     3.0101    45.1940 </r>
       <r>    12.8323     1.6823    45.4174 </r>
       <r>    12.9651    -0.0410    45.4119 </r>
       <r>    13.0979    -0.1890    45.3868 </r>
       <r>    13.2306     1.3724    45.5690 </r>
       <r>    13.3634     3.5610    46.0418 </r>
       <r>    13.4962     2.8822    46.4245 </r>
       <r>    13.6290     0.9358    46.5487 </r>
       <r>    13.7617    -0.0015    46.5485 </r>
       <r>    13.8945     0.5060    46.6157 </r>
       <r>    14.0273     2.1903    46.9065 </r>
       <r>    14.1600     3.5525    47.3782 </r>
       <r>    14.2928     4.1628    47.9309 </r>
       <r>    14.4256     2.4588    48.2573 </r>
       <r>    14.5584     0.5954    48.3364 </r>
       <r>    14.6911     0.9004    48.4559 </r>
       <r>    14.8239     2.2231    48.7511 </r>
       <r>    14.9567     2.4650    49.0784 </r>
       <r>    15.0894     1.7106    49.3055 </r>
       <r>    15.2222     1.5577    49.5123 </r>
       <r>    15.3550     1.6116    49.7263 </r>
       <r>    15.4877     1.2224    49.8886 </r>
       <r>    15.6205     0.1178    49.9042 </r>
       <r>    15.7533     0.4210    49.9601 </r>
       <r>    15.8861     3.0886    50.3702 </r>
       <r>    16.0188     5.2422    51.0662 </r>
       <r>    16.1516     4.5060    51.6645 </r>
       <r>    16.2844     4.2855    52.2334 </r>
       <r>    16.4171     4.0834    52.7756 </r>
       <r>    16.5499     2.2967    53.0805 </r>
       <r>    16.6827     2.0927    53.3584 </r>
       <r>    16.8154     2.0313    53.6281 </r>
       <r>    16.9482     1.8968    53.8799 </r>
       <r>    17.0810     3.7132    54.3729 </r>
       <r>    17.2138     5.1112    55.0515 </r>
       <r>    17.3465     2.6585    55.4045 </r>
       <r>    17.4793     1.9094    55.6580 </r>
       <r>    17.6121     3.8783    56.1729 </r>
       <r>    17.7448     3.4015    56.6246 </r>
       <r>    17.8776     3.2035    57.0499 </r>
       <r>    18.0104     2.9011    57.4351 </r>
       <r>    18.1431     0.7403    57.5334 </r>
       <r>    18.2759    -0.1516    57.5132 </r>
       <r>    18.4087    -0.0637    57.5048 </r>
       <r>    18.5415    -0.0062    57.5040 </r>
       <r>    18.6742    -0.0088    57.5028 </r>
       <r>    18.8070    -0.0466    57.4966 </r>
       <r>    18.9398     0.0389    57.5018 </r>
       <r>    19.0725     0.5954    57.5808 </r>
       <r>    19.2053     1.1413    57.7324 </r>
       <r>    19.3381     1.9201    57.9873 </r>
       <r>    19.4709     2.3646    58.3012 </r>
       <r>    19.6036     1.1991    58.4604 </r>
       <r>    19.7364     0.6568    58.5476 </r>
       <r>    19.8692     0.5717    58.6236 </r>
       <r>    20.0019     0.4037    58.6771 </r>
       <r>    20.1347     0.3640    58.7255 </r>
       <r>    20.2675     0.1924    58.7510 </r>
       <r>    20.4002     0.4676    58.8131 </r>
       <r>    20.5330     0.7418    58.9116 </r>
       <r>    20.6658     0.2911    58.9502 </r>
       <r>    20.7986    -0.0236    58.9471 </r>
       <r>    20.9313    -0.0209    58.9443 </r>
       <r>    21.0641    -0.0023    58.9440 </r>
       <r>    21.1969    -0.0001    58.9440 </r>
       <r>    21.3296    -0.0000    58.9440 </r>
       <r>    21.4624    -0.0001    58.9440 </r>
       <r>    21.5952    -0.0016    58.9438 </r>
       <r>    21.7279    -0.0064    58.9429 </r>
       <r>    21.8607     0.0131    58.9447 </r>
       <r>    21.9935     0.0695    58.9539 </r>
       <r>    22.1263     0.0987    58.9670 </r>
       <r>    22.2590     0.4916    59.0323 </r>
       <r>    22.3918     1.0576    59.1727 </r>
       <r>    22.5246     0.7945    59.2782 </r>
       <r>    22.6573     0.3272    59.3216 </r>
       <r>    22.7901     0.4312    59.3789 </r>
       <r>    22.9229     0.7065    59.4727 </r>
       <r>    23.0557     0.8704    59.5882 </r>
       <r>    23.1884     0.7031    59.6816 </r>
       <r>    23.3212     0.1633    59.7033 </r>
       <r>    23.4540    -0.0390    59.6981 </r>
       <r>    23.5867    -0.0148    59.6961 </r>
       <r>    23.7195    -0.0048    59.6955 </r>
       <r>    23.8523    -0.0242    59.6923 </r>
       <r>    23.9850    -0.0067    59.6914 </r>
       <r>    24.1178     0.3570    59.7388 </r>
       <r>    24.2506     0.8023    59.8453 </r>
       <r>    24.3834     0.4561    59.9059 </r>
       <r>    24.5161    -0.0032    59.9055 </r>
       <r>    24.6489     0.0451    59.9115 </r>
       <r>    24.7817     0.3314    59.9555 </r>
       <r>    24.9144     0.3080    59.9964 </r>
       <r>    25.0472     0.0512    60.0032 </r>
       <r>    25.1800    -0.0186    60.0007 </r>
       <r>    25.3127    -0.0048    60.0000 </r>
       <r>    25.4455    -0.0003    60.0000 </r>
       <r>    25.5783    -0.0000    60.0000 </r>
       <r>    25.7111    -0.0000    60.0000 </r>
       <r>    25.8438    -0.0000    60.0000 </r>
       <r>    25.9766    -0.0000    60.0000 </r>
       <r>    26.1094    -0.0000    60.0000 </r>
       <r>    26.2421     0.0000    60.0000 </r>
       <r>    26.3749     0.0000    60.0000 </r>
       <r>    26.5077     0.0000    60.0000 </r>
       <r>    26.6405     0.0000    60.0000 </r>
       <r>    26.7732     0.0000    60.0000 </r>
      </set>
     </set>
    </array>
   </total>
  </dos>
 </calculation>
 <structure name="finalpos" >
  <crystal>
   <varray name="basis" >
    <v>       3.63500000       0.00000000       0.00000000 </v>
    <v>       0.00000000       3.63500000       0.00000000 </v>
    <v>       0.00000000       0.00000000       3.63500000 </v>
   </varray>
   <i name="volume">     48.03007287 </i>
   <varray name="rec_basis" >
    <v>       0.27510316       0.00000000       0.00000000 </v>
    <v>       0.00000000       0.27510316       0.00000000 </v>
    <v>       0.00000000       0.00000000       0.27510316 </v>
   </varray>
  </crystal>
  <varray name="positions" >
   <v>       0.00000000       0.00000000       0.00000000 </v>
   <v>       0.50000000       0.50000000       0.00000000 </v>
   <v>       0.50000000       0.00000000       0.50000000 </v>
   <v>       0.00000000       0.50000000       0.50000000 </v>
  </varray>
 </structure>
</modeling>
