 vasp.6.2.0 18Jan21 (build Mar 17 2021 09:06:54) complex                        
  
 POSCAR found type information on POSCAR Cu
 POSCAR found :  1 types and       4 ions
 LDA part: xc-table for Pade appr. of Perdew
 POSCAR, INCAR and KPOINTS ok, starting setup
 FFT: planning ...
 WAVECAR not read
 WARNING: chargedensity file is incomplete
 entering main loop
       N       E                     dE             d eps       ncg     rms          rms(c)
DAV:   1     0.409957012250E+03    0.40996E+03   -0.51012E+03   630   0.302E+02
DAV:   2     0.352727001154E+03   -0.57230E+02   -0.53858E+02   828   0.878E+01
DAV:   3     0.351107456661E+03   -0.16195E+01   -0.15684E+01   766   0.126E+01
DAV:   4     0.351079127191E+03   -0.28329E-01   -0.28231E-01   776   0.116E+00
DAV:   5     0.351078517324E+03   -0.60987E-03   -0.60979E-03   740   0.132E-01    0.143E+02
DAV:   6     0.102670914917E+04    0.67563E+03   -0.13092E+03   728   0.125E+02BRMIX: very serious problems
 the old and the new charge density differ
 old charge density:    44.00002 new   44.00051
    0.543E+01
DAV:   7     0.107803420831E+04    0.51325E+02   -0.13339E+02   658   0.481E+01    0.529E+01
DAV:   8     0.107750380341E+04   -0.53040E+00   -0.25203E+00   724   0.546E+00    0.542E+01
DAV:   9     0.106231851208E+04   -0.15185E+02   -0.78750E+01   650   0.399E+01    0.161E+02
DAV:  10     0.107944926099E+04    0.17131E+02   -0.36739E+01   636   0.274E+01    0.672E+01
DAV:  11     0.107906964924E+04   -0.37961E+00   -0.82617E-01   638   0.379E+00    0.309E+01
DAV:  12     0.107922102505E+04    0.15138E+00   -0.30742E-01   630   0.243E+00    0.384E+00
DAV:  13     0.107921877767E+04   -0.22474E-02   -0.90246E-03   658   0.343E-01    0.216E+00
DAV:  14     0.107921910824E+04    0.33057E-03   -0.72625E-04   664   0.115E-01    0.192E+00
DAV:  15     0.107921886210E+04   -0.24614E-03   -0.58114E-05   626   0.357E-02    0.377E-02
DAV:  16     0.107921885929E+04   -0.28118E-05   -0.96439E-07   476   0.400E-03    0.200E-02
DAV:  17     0.107921885786E+04   -0.14283E-05   -0.62767E-07   332   0.344E-03    0.140E-03
DAV:  18     0.107921885698E+04   -0.88294E-06   -0.90314E-08   318   0.113E-03
   1 F= 0.10792189E+04 E0= 0.10792262E+04  d E =-.220140E-01
 writing wavefunctions
