unknown system                          
   1.00000000000000     
     2.330000    0.000000    0.000000
    -1.165000    2.017839    0.000000
     0.000000    0.000000    4.100000
   Fe
     2
Direct
  0.000000  0.000000  0.000000
  0.333333  0.666667  0.500000
 
   20   20   36
  161.78      153.30      130.49      99.843      68.657      42.473      24.148      13.942      9.9348      8.8431    
  8.5073      8.8433      9.9350      13.942      24.148      42.473      68.657      99.843      130.49      153.30    
  153.30      153.30      137.69      111.14      80.640      52.561      31.020      17.504      11.118      9.1402    
  8.5009      8.5005      9.1398      11.118      17.504      31.019      52.560      80.644      111.16      137.70    
  130.49      137.66      130.49      111.14      85.074      58.479      36.218      20.852      12.557      9.4583    
  8.5239      8.2086      8.5231      9.4582      12.558      20.851      36.215      58.477      85.078      111.15    
  99.839      111.08      111.08      99.843      80.640      58.479      38.155      22.881      13.758      9.8111    
  8.5634      8.0002      7.9998      8.5630      9.8118      13.759      22.881      38.151      58.474      80.634    
  68.645      80.540      84.940      80.549      68.657      52.561      36.218      22.881      14.225      10.056    
  8.5997      7.8781      7.6300      7.8781      8.5998      10.057      14.228      22.885      36.218      52.554    
  42.472      52.482      58.341      58.344      52.488      42.473      31.020      20.852      13.758      10.056    
  8.6144      7.8253      7.4212      7.4215      7.8252      8.6131      10.056      13.761      20.859      31.026    
  24.157      31.001      36.150      38.061      36.146      30.994      24.148      17.504      12.557      9.8110    
  8.5998      7.8253      7.3551      7.2029      7.3558      7.8243      8.5962      9.8076      12.558      17.510    
  13.942      17.527      20.870      22.883      22.879      20.862      17.521      13.942      11.118      9.4583    
  8.5634      7.8781      7.4211      7.2029      7.2036      7.4224      7.8777      8.5595      9.4515      11.112    
  9.9255      11.151      12.623      13.837      14.306      13.835      12.623      11.157      9.9348      9.1402    
  8.5239      8.0002      7.6299      7.4214      7.3559      7.4224      7.6328      8.0037      8.5239      9.1340    
  8.8429      9.1788      9.5366      9.9228      10.187      10.188      9.9269      9.5433      9.1845      8.8432    
  8.5009      8.2087      7.9998      7.8781      7.8254      7.8245      7.8777      8.0036      8.2162      8.5068    
  8.5159      8.5529      8.6145      8.6888      8.7523      8.7789      8.7557      8.6922      8.6139      8.5468    
  8.5073      8.5005      8.5231      8.5630      8.5998      8.6132      8.5961      8.5595      8.5239      8.5068    
  8.8427      8.5529      8.3090      8.1405      8.0501      8.0170      8.0179      8.0505      8.1368      8.3016    
  8.5472      8.8432      9.1398      9.4582      9.8117      10.057      10.056      9.8076      9.4515      9.1340    
  9.9254      9.1787      8.6147      8.1406      7.8114      7.6312      7.5758      7.6304      7.8088      8.1371    
  8.6146      9.1849      9.9349      11.118      12.558      13.759      14.228      13.761      12.558      11.112    
  13.942      11.151      9.5367      8.6888      8.0501      7.6312      7.4338      7.4332      7.6301      8.0505    
  8.6926      9.5432      11.157      13.942      17.504      20.851      22.881      22.885      20.859      17.510    
  24.157      17.527      12.623      9.9228      8.7522      8.0170      7.5759      7.4332      7.5750      8.0178    
  8.7557      9.9262      12.622      17.521      24.148      31.019      36.215      38.151      36.218      31.026    
  42.472      31.001      20.870      13.837      10.187      8.7790      8.0179      7.6303      7.6300      8.0178    
  8.7802      10.187      13.833      20.863      30.996      42.473      52.560      58.477      58.474      52.554    
  68.645      52.482      36.149      22.883      14.306      10.188      8.7558      8.0504      7.8087      8.0505    
  8.7558      10.187      14.304      22.880      36.150      52.490      68.657      80.644      85.078      80.634    
  99.839      80.540      58.341      38.061      22.879      13.835      9.9269      8.6923      8.1367      8.1370    
  8.6926      9.9262      13.834      22.880      38.065      58.347      80.545      99.843      111.16      111.15    
  130.49      111.08      84.940      58.344      36.146      20.862      12.623      9.5434      8.6139      8.3015    
  8.6145      9.5433      12.622      20.863      36.150      58.347      84.936      111.07      130.49      137.70    
  153.30      137.66      111.08      80.549      52.488      30.994      17.521      11.157      9.1846      8.5467    
  8.5471      9.1850      11.157      17.521      30.995      52.490      80.545      111.07      137.65      153.30    
  153.61      145.57      123.91      94.797      65.150      40.290      22.974      13.426      9.7387      8.7089    
  8.3810      8.7091      9.7389      13.426      22.974      40.290      65.150      94.797      123.91      145.57    
  145.57      145.57      130.75      105.53      76.532      49.848      29.440      16.730      10.808      8.9919    
  8.3679      8.3675      8.9916      10.809      16.730      29.439      49.847      76.535      105.54      130.76    
  123.92      130.73      123.91      105.53      80.744      55.461      34.345      19.853      12.121      9.2785    
  8.3856      8.0791      8.3847      9.2784      12.122      19.852      34.341      55.459      80.747      105.54    
  94.794      105.48      105.48      94.797      76.532      55.461      36.174      21.752      13.223      9.5907    
  8.4211      7.8745      7.8741      8.4208      9.5913      13.224      21.752      36.171      55.456      76.526    
  65.138      76.455      80.642      76.464      65.150      49.848      34.345      21.752      13.653      9.8085    
  8.4551      7.7551      7.5158      7.7552      8.4551      9.8092      13.655      21.755      34.345      49.841    
  40.289      49.797      55.366      55.369      49.802      40.290      29.440      19.853      13.223      9.8084    
  8.4690      7.7036      7.3143      7.3147      7.7036      8.4678      9.8081      13.226      19.860      29.445    
  22.982      29.446      34.323      36.136      34.319      29.440      22.974      16.730      12.121      9.5906    
  8.4551      7.7036      7.2507      7.1046      7.2514      7.7027      8.4518      9.5875      12.122      16.735    
  13.425      16.775      19.914      21.809      21.805      19.906      16.769      13.426      10.808      9.2785    
  8.4212      7.7551      7.3142      7.1046      7.1053      7.3154      7.7548      8.4176      9.2722      10.803    
  9.7300      10.860      12.223      13.351      13.788      13.349      12.222      10.866      9.7388      8.9919    
  8.3856      7.8745      7.5157      7.3146      7.2515      7.3155      7.5183      7.8777      8.3855      8.9861    
  8.7087      9.0465      9.3877      9.7450      9.9881      9.9892      9.7487      9.3938      9.0518      8.7090    
  8.3679      8.0792      7.8741      7.7551      7.7037      7.7029      7.7547      7.8777      8.0862      8.3734    
  8.3891      8.4339      8.5036      8.5844      8.6521      8.6800      8.6553      8.5876      8.5029      8.4283    
  8.3811      8.3675      8.3848      8.4207      8.4551      8.4679      8.4518      8.4175      8.3856      8.3734    
  8.7085      8.4339      8.2053      8.0496      7.9677      7.9386      7.9394      7.9681      8.0461      8.1985    
  8.4287      8.7090      8.9916      9.2784      9.5912      9.8092      9.8081      9.5874      9.2722      8.9861    
  9.7299      9.0464      8.5037      8.0496      7.7361      7.5651      7.5127      7.5645      7.7337      8.0464    
  8.5037      9.0522      9.7388      10.809      12.122      13.224      13.656      13.226      12.122      10.803    
  13.426      10.860      9.3878      8.5845      7.9676      7.5651      7.3760      7.3754      7.5641      7.9680    
  8.5879      9.3938      10.866      13.426      16.730      19.852      21.752      21.755      19.860      16.735    
  22.982      16.775      12.222      9.7449      8.6520      7.9386      7.5128      7.3753      7.5119      7.9393    
  8.6553      9.7481      12.222      16.769      22.974      29.439      34.341      36.171      34.345      29.445    
  40.289      29.446      19.914      13.351      9.9882      8.6801      7.9395      7.5644      7.5640      7.9393    
  8.6811      9.9885      13.348      19.907      29.441      40.291      49.847      55.459      55.456      49.841    
  65.138      49.797      34.322      21.809      13.788      9.9893      8.6553      7.9680      7.7336      7.9680    
  8.6553      9.9885      13.786      21.806      34.323      49.803      65.150      76.535      80.747      76.526    
  94.793      76.455      55.366      36.136      21.805      13.349      9.7487      8.5877      8.0461      8.0464    
  8.5879      9.7481      13.348      21.806      36.139      55.372      76.460      94.797      105.54      105.54    
  123.92      105.48      80.642      55.369      34.319      19.906      12.222      9.3940      8.5029      8.1983    
  8.5036      9.3939      12.222      19.907      34.323      55.372      80.638      105.47      123.91      130.76    
  145.57      130.73      105.48      76.464      49.802      29.439      16.769      10.866      9.0519      8.4281    
  8.4285      9.0523      10.866      16.769      29.441      49.803      76.460      105.47      130.72      145.57    
  131.57      124.69      106.13      81.125      55.658      34.420      19.860      12.090      9.2316      8.3416    
  8.0378      8.3418      9.2317      12.090      19.860      34.419      55.658      81.125      106.13      124.68    
  124.69      124.68      111.99      90.334      65.402      42.525      25.219      14.702      10.014      8.5846    
  8.0044      8.0040      8.5843      10.015      14.702      25.218      42.524      65.405      90.343      112.00    
  106.14      111.98      106.13      90.334      69.011      47.303      29.320      17.217      10.994      8.8034    
  8.0050      7.7246      8.0042      8.8033      10.995      17.217      29.317      47.301      69.014      90.342    
  81.122      90.321      90.322      81.125      65.402      47.303      30.856      18.762      11.833      9.0171    
  8.0273      7.5289      7.5286      8.0269      9.0175      11.834      18.761      30.853      47.298      65.398    
  55.649      65.390      68.997      65.397      55.658      42.525      29.320      18.762      12.165      9.1659    
  8.0527      7.4153      7.2008      7.4155      8.0527      9.1664      12.166      18.764      29.320      42.520    
  34.419      42.549      47.330      47.332      42.553      34.420      25.219      17.217      11.833      9.1658    
  8.0636      7.3664      7.0185      7.0189      7.3665      8.0627      9.1655      11.836      17.223      25.223    
  19.866      25.294      29.426      30.969      29.424      25.289      19.860      14.702      10.994      9.0170    
  8.0527      7.3664      6.9613      6.8318      6.9619      7.3658      8.0502      9.0146      10.995      14.706    
  12.090      14.807      17.394      18.970      18.967      17.388      14.802      12.090      10.014      8.8033    
  8.0273      7.4154      7.0184      6.8318      6.8323      7.0193      7.4151      8.0245      8.7983      10.010    
  9.2244      10.119      11.197      12.100      12.452      12.098      11.197      10.123      9.2316      8.5847    
  8.0050      7.5289      7.2007      7.0188      6.9620      7.0194      7.2026      7.5314      8.0049      8.5799    
  8.3415      8.6856      9.0020      9.2948      9.4878      9.4886      9.2976      9.0069      8.6899      8.3418    
  8.0044      7.7247      7.5286      7.4154      7.3666      7.3659      7.4150      7.5314      7.7303      8.0088    
  8.0444      8.1120      8.2042      8.3035      8.3827      8.4142      8.3852      8.3060      8.2035      8.1074    
  8.0380      8.0041      8.0042      8.0269      8.0527      8.0628      8.0501      8.0244      8.0050      8.0088    
  8.3413      8.1119      7.9281      7.8095      7.7526      7.7355      7.7362      7.7530      7.8067      7.9226    
  8.1077      8.3418      8.5843      8.8032      9.0174      9.1664      9.1656      9.0145      8.7983      8.5799    
  9.2243      8.6856      8.2043      7.8096      7.5420      7.3985      7.3551      7.3982      7.5403      7.8071    
  8.2043      8.6903      9.2316      10.015      10.995      11.834      12.166      11.836      10.995      10.010    
  12.090      10.119      9.0021      8.3036      7.7526      7.3985      7.2338      7.2334      7.3978      7.7530    
  8.3063      9.0069      10.123      12.090      14.702      17.217      18.761      18.764      17.223      14.706    
  19.866      14.807      11.197      9.2948      8.3827      7.7355      7.3552      7.2333      7.3544      7.7360    
  8.3852      9.2972      11.196      14.802      19.860      25.218      29.317      30.853      29.320      25.223    
  34.419      25.294      17.394      12.100      9.4878      8.4143      7.7363      7.3981      7.3977      7.7360    
  8.4151      9.4881      12.097      17.388      25.290      34.420      42.525      47.301      47.298      42.520    
  55.649      42.549      29.426      18.970      12.452      9.4886      8.3853      7.7530      7.5402      7.7530    
  8.3853      9.4881      12.450      18.968      29.426      42.554      55.658      65.405      69.014      65.398    
  81.122      65.390      47.330      30.969      18.967      12.098      9.2977      8.3060      7.8067      7.8070    
  8.3063      9.2973      12.097      18.968      30.971      47.334      65.395      81.125      90.343      90.342    
  106.14      90.321      68.997      47.332      29.424      17.388      11.197      9.0071      8.2036      7.9224    
  8.2042      9.0070      11.196      17.388      29.426      47.334      68.995      90.313      106.13      112.00    
  124.69      111.98      90.322      65.397      42.553      25.289      14.802      10.123      8.6900      8.1072    
  8.1076      8.6903      10.123      14.802      25.290      42.554      65.395      90.313      111.97      124.68    
  101.71      96.371      81.967      62.535      42.814      26.601      15.846      10.452      8.5859      7.8302    
  7.5659      7.8303      8.5861      10.452      15.846      26.600      42.814      62.536      81.967      96.371    
  96.374      96.370      86.506      69.664      50.298      32.690      19.685      12.153      9.0451      8.0079    
  7.5004      7.5001      8.0076      9.0455      12.154      19.684      32.690      50.300      69.670      86.513    
  81.971      86.524      81.967      69.664      53.077      36.308      22.675      13.851      9.6139      8.1655    
  7.4713      7.2318      7.4706      8.1654      9.6145      13.851      22.673      36.306      53.079      69.670    
  62.534      69.707      69.708      62.536      50.299      36.308      23.804      14.914      10.118      8.2838    
  7.4687      7.0446      7.0444      7.4684      8.2839      10.118      14.913      23.802      36.305      50.296    
  42.808      50.376      53.186      50.381      42.815      32.690      22.675      14.914      10.320      8.3575    
  7.4770      6.9350      6.7566      6.9352      7.4771      8.3576      10.321      14.915      22.675      32.687    
  26.600      32.816      36.502      36.504      32.819      26.601      19.685      13.851      10.117      8.3574    
  7.4817      6.8868      6.5983      6.5986      6.8872      7.4813      8.3572      10.119      13.855      19.688    
  15.851      19.856      22.957      24.124      22.956      19.852      15.846      12.153      9.6138      8.2836    
  7.4770      6.8869      6.5487      6.4422      6.5493      6.8866      7.4754      8.2821      9.6145      12.156    
  10.451      12.341      14.190      15.333      15.331      14.185      12.338      10.452      9.0450      8.1654    
  7.4687      6.9350      6.5982      6.4422      6.4424      6.5987      6.9348      7.4668      8.1621      9.0421    
  8.5809      9.2242      9.9607      10.580      10.823      10.578      9.9605      9.2274      8.5859      8.0079    
  7.4713      7.0447      6.7565      6.5986      6.5494      6.5987      6.7576      7.0463      7.4713      8.0046    
  7.8300      8.1774      8.4961      8.7429      8.8883      8.8888      8.7446      8.4992      8.1804      7.8303    
  7.5005      7.2319      7.0444      6.9351      6.8873      6.8867      6.9347      7.0463      7.2357      7.5034    
  7.5704      7.6707      7.7933      7.9166      8.0103      8.0461      8.0119      7.9181      7.7928      7.6675    
  7.5660      7.5002      7.4707      7.4683      7.4770      7.4813      7.4754      7.4668      7.4713      7.5034    
  7.8299      7.6706      7.5535      7.4891      7.4684      7.4684      7.4690      7.4688      7.4873      7.5498    
  7.6678      7.8303      8.0076      8.1653      8.2838      8.3576      8.3572      8.2821      8.1621      8.0046    
  8.5808      8.1774      7.7935      7.4892      7.2904      7.1878      7.1578      7.1879      7.2895      7.4876    
  7.7934      8.1807      8.5859      9.0454      9.6144      10.118      10.321      10.119      9.6145      9.0420    
  10.451      9.2242      8.4962      7.9167      7.4683      7.1878      7.0599      7.0596      7.1875      7.4686    
  7.9185      8.4993      9.2270      10.452      12.154      13.851      14.913      14.915      13.855      12.156    
  15.851      12.341      9.9606      8.7429      8.0103      7.4684      7.1579      7.0596      7.1572      7.4686    
  8.0119      8.7445      9.9598      12.338      15.846      19.684      22.673      23.802      22.675      19.688    
  26.600      19.856      14.189      10.580      8.8884      8.0462      7.4690      7.1878      7.1874      7.4686    
  8.0466      8.8886      10.578      14.186      19.853      26.601      32.690      36.306      36.304      32.687    
  42.808      32.816      22.957      15.333      10.823      8.8888      8.0119      7.4687      7.2893      7.4686    
  8.0119      8.8886      10.822      15.332      22.958      32.820      42.815      50.300      53.079      50.295    
  62.534      50.376      36.502      24.124      15.331      10.578      8.7447      7.9182      7.4873      7.4875    
  7.9185      8.7446      10.578      15.332      24.127      36.505      50.379      62.536      69.670      69.669    
  81.971      69.708      53.186      36.504      22.956      14.185      9.9606      8.4994      7.7928      7.5496    
  7.7933      8.4994      9.9600      14.186      22.957      36.505      53.184      69.702      81.967      86.512    
  96.374      86.524      69.708      50.381      32.819      19.852      12.339      9.2276      8.1805      7.6673    
  7.6677      8.1808      9.2272      12.338      19.852      32.819      50.379      69.702      86.517      96.370    
  70.882      67.131      57.009      43.409      29.785      18.919      12.128      9.0342      7.9105      7.2784    
  7.0648      7.2785      7.9106      9.0342      12.128      18.919      29.785      43.409      57.009      67.131    
  67.132      67.131      60.184      48.352      34.865      22.870      14.405      9.8859      8.1681      7.3742    
  6.9618      6.9616      7.3740      8.1684      9.8865      14.405      22.870      34.866      48.355      60.188    
  57.012      60.223      57.009      48.352      36.763      25.254      16.236      10.783      8.4082      7.4628    
  6.8937      6.7040      6.8932      7.4626      8.4087      10.783      16.235      25.253      36.764      48.355    
  43.408      48.452      48.452      43.409      34.865      25.254      16.938      11.363      8.6181      7.5266    
  6.8556      6.5208      6.5206      6.8553      7.5265      8.6181      11.363      16.936      25.252      34.864    
  29.781      35.032      36.994      35.035      29.785      22.870      16.236      11.363      8.7044      7.5587    
  6.8385      6.4092      6.2714      6.4094      6.8386      7.5586      8.7046      11.364      16.236      22.868    
  18.918      23.098      25.614      25.615      23.099      18.919      14.405      10.783      8.6180      7.5587    
  6.8339      6.3579      6.1343      6.1346      6.3583      6.8338      7.5585      8.6190      10.785      14.407    
  12.131      14.671      16.693      17.464      16.693      14.669      12.128      9.8859      8.4081      7.5264    
  6.8385      6.3579      6.0911      6.0082      6.0915      6.3580      6.8378      7.5258      8.4087      9.8880    
  9.0339      10.159      11.284      11.994      11.993      11.282      10.157      9.0341      8.1680      7.4626    
  6.8556      6.4092      6.1342      6.0082      6.0083      6.1343      6.4090      6.8547      7.4609      8.1664    
  7.9076      8.4257      8.9043      9.2821      9.4284      9.2811      8.9041      8.4275      7.9105      7.3742    
  6.8937      6.5209      6.2714      6.1346      6.0916      6.1344      6.2717      6.5216      6.8937      7.3723    
  7.2783      7.6179      7.9354      8.1807      8.3137      8.3138      8.1813      7.9370      7.6195      7.2785    
  6.9619      6.7041      6.5206      6.4093      6.3584      6.3580      6.4089      6.5216      6.7062      6.9635    
  7.0674      7.2010      7.3508      7.4928      7.5964      7.6349      7.5972      7.4934      7.3504      7.1993    
  7.0650      6.9617      6.8932      6.8553      6.8385      6.8338      6.8377      6.8546      6.8937      6.9635    
  7.2782      7.2010      7.1570      7.1489      7.1639      7.1804      7.1808      7.1643      7.1479      7.1550    
  7.1995      7.2785      7.3740      7.4625      7.5264      7.5586      7.5585      7.5258      7.4609      7.3723    
  7.9075      7.6179      7.3509      7.1489      7.0246      6.9652      6.9491      6.9655      7.0244      7.1481    
  7.3509      7.6197      7.9105      8.1683      8.4086      8.6181      8.7047      8.6191      8.4087      8.1664    
  9.0339      8.4257      7.9355      7.4928      7.1639      6.9652      6.8772      6.8771      6.9652      7.1641    
  7.4938      7.9371      8.4272      9.0341      9.8865      10.783      11.363      11.364      10.785      9.8880    
  12.131      10.159      8.9042      8.1807      7.5964      7.1804      6.9491      6.8771      6.9486      7.1803    
  7.5972      8.1814      8.9036      10.157      12.128      14.405      16.235      16.936      16.236      14.407    
  18.919      14.671      11.284      9.2820      8.3138      7.6350      7.1808      6.9654      6.9651      7.1803    
  7.6351      8.3139      9.2810      11.281      14.669      18.919      22.870      25.253      25.252      22.869    
  29.781      23.098      16.693      11.994      9.4285      8.3139      7.5972      7.1642      7.0243      7.1641    
  7.5972      8.3140      9.4282      11.993      16.693      23.100      29.785      34.866      36.764      34.864    
  43.408      35.032      25.614      17.464      11.993      9.2811      8.1814      7.4935      7.1479      7.1481    
  7.4938      8.1815      9.2811      11.993      17.465      25.616      35.034      43.409      48.355      48.355    
  57.012      48.452      36.995      25.615      16.692      11.282      8.9042      7.9372      7.3505      7.1548    
  7.3508      7.9372      8.9038      11.281      16.693      25.615      36.994      48.449      57.009      60.187    
  67.132      60.223      48.453      35.035      23.099      14.669      10.157      8.4278      7.6196      7.1991    
  7.1993      7.6198      8.4274      10.157      14.669      23.099      35.034      48.449      60.219      67.131    
  44.434      42.072      35.734      27.337      19.172      13.020      9.5261      8.0554      7.2622      6.7738    
  6.6143      6.7738      7.2623      8.0554      9.5260      13.020      19.172      27.337      35.734      42.072    
  42.073      42.072      37.701      30.328      22.110      15.114      10.546      8.3624      7.4119      6.7845    
  6.4749      6.4748      6.7843      7.4122      8.3630      10.546      15.114      22.110      30.330      37.702    
  35.735      37.755      35.734      30.328      23.221      16.412      11.411      8.6802      7.5163      6.7967    
  6.3653      6.2261      6.3649      6.7965      7.5166      8.6806      11.411      16.411      23.222      30.329    
  27.336      30.470      30.470      27.337      22.110      16.412      11.751      8.8951      7.5727      6.8037    
  6.2873      6.0412      6.0411      6.2871      6.8036      7.5725      8.8948      11.751      16.411      22.109    
  19.171      22.341      23.541      22.343      19.172      15.114      11.411      8.8952      7.5916      6.8058    
  6.2408      5.9217      5.8218      5.9219      6.2409      6.8056      7.5914      8.8951      11.411      15.113    
  13.020      15.415      16.892      16.893      15.415      13.020      10.546      8.6802      7.5726      6.8058    
  6.2254      5.8638      5.6985      5.6987      5.8642      6.2255      6.8057      7.5730      8.6813      10.547    
  9.5270      10.882      11.997      12.429      11.997      10.882      9.5261      8.3624      7.5162      6.8036    
  6.2408      5.8638      5.6591      5.5959      5.6593      5.8639      6.2407      6.8035      7.5166      8.3634    
  8.0551      8.7014      9.3064      9.6867      9.6864      9.3057      8.7009      8.0553      7.4118      6.7966    
  6.2873      5.9218      5.6985      5.5960      5.5959      5.6984      5.9216      6.2870      6.7960      7.4112    
  7.2609      7.7357      8.1358      8.4012      8.4957      8.4007      8.1356      7.7365      7.2622      6.7844    
  6.3653      6.0413      5.8219      5.6988      5.6594      5.6984      5.8217      6.0414      6.3652      6.7837    
  6.7737      7.0934      7.3936      7.6275      7.7553      7.7552      7.6274      7.3940      7.0940      6.7739    
  6.4750      6.2262      6.0411      5.9219      5.8642      5.8640      5.9216      6.0414      6.2270      6.4756    
  6.6153      6.7767      6.9445      7.0955      7.2018      7.2403      7.2019      7.0955      6.9443      6.7760    
  6.6144      6.4749      6.3650      6.2870      6.2408      6.2255      6.2407      6.2869      6.3653      6.4756    
  6.7736      6.7767      6.7995      6.8392      6.8825      6.9111      6.9113      6.8828      6.8389      6.7987    
  6.7761      6.7739      6.7843      6.7964      6.8034      6.8056      6.8057      6.8035      6.7960      6.7837    
  7.2609      7.0934      6.9446      6.8392      6.7815      6.7590      6.7543      6.7594      6.7818      6.8390    
  6.9446      7.0942      7.2622      7.4120      7.5165      7.5725      7.5915      7.5730      7.5166      7.4112    
  8.0552      7.7357      7.3937      7.0955      6.8825      6.7590      6.7063      6.7064      6.7591      6.8826    
  7.0958      7.3941      7.7362      8.0553      8.3630      8.6806      8.8949      8.8952      8.6812      8.3634    
  9.5271      8.7014      8.1357      7.6274      7.2018      6.9111      6.7543      6.7064      6.7540      6.9109    
  7.2019      7.6276      8.1352      8.7004      9.5261      10.546      11.411      11.751      11.411      10.547    
  13.020      10.882      9.3063      8.4012      7.7554      7.2403      6.9113      6.7593      6.7591      6.9109    
  7.2402      7.7554      8.4008      9.3054      10.882      13.020      15.114      16.411      16.411      15.113    
  19.171      15.415      11.997      9.6866      8.4957      7.7553      7.2019      6.8827      6.7817      6.8826    
  7.2019      7.7555      8.4959      9.6867      11.997      15.415      19.172      22.110      23.221      22.109    
  27.336      22.342      16.892      12.429      9.6863      8.4007      7.6275      7.0956      6.8389      6.8390    
  7.0958      7.6276      8.4009      9.6867      12.430      16.893      22.342      27.337      30.329      30.329    
  35.735      30.470      23.541      16.893      11.997      9.3056      8.1357      7.3941      6.9443      6.7986    
  6.9445      7.3942      8.1354      9.3054      11.997      16.893      23.541      30.469      35.734      37.702    
  42.073      37.756      30.470      22.343      15.415      10.882      8.7010      7.7366      7.0941      6.7758    
  6.7760      7.0942      7.7364      8.7004      10.881      15.415      22.342      30.469      37.754      42.072    
  25.306      24.030      20.648      16.302      12.308      9.5604      8.1358      7.3219      6.7219      6.3745    
  6.2642      6.3746      6.7219      7.3219      8.1357      9.5604      12.308      16.303      20.648      24.030    
  24.030      24.030      21.674      17.786      13.637      10.358      8.4285      7.4589      6.7640      6.3067    
  6.0909      6.0908      6.3067      6.7642      7.4593      8.4289      10.358      13.637      17.787      21.674    
  20.648      21.735      20.648      17.786      14.151      10.876      8.6849      7.5386      6.7883      6.2481    