unknown system                          
   1.00000000000000     
     2.330000    0.000000    0.000000
    -1.165000    2.017839    0.000000
     0.000000    0.000000    4.100000
   Fe
     2
Direct
  0.000000  0.000000  0.000000
  0.333333  0.666667  0.500000
 
   20   20   36
 0.16177736865E+03 0.15329542495E+03 0.13048522970E+03 0.99843163689E+02 0.68656835426E+02
 0.42473339667E+02 0.24148404264E+02 0.13942073603E+02 0.99348144746E+01 0.88430765916E+01
 0.85072534045E+01 0.88432777656E+01 0.99349836460E+01 0.13942019348E+02 0.24148187343E+02
 0.42473175439E+02 0.68656837615E+02 0.99843252749E+02 0.13048528111E+03 0.15329542280E+03
 0.15330127628E+03 0.15329528965E+03 0.13768669826E+03 0.11114493385E+03 0.80640137442E+02
 0.52561097534E+02 0.31020369420E+02 0.17503592517E+02 0.11117529286E+02 0.91401735208E+01
 0.85008834206E+01 0.85005064137E+01 0.91398159758E+01 0.11117950906E+02 0.17503656270E+02
 0.31018732926E+02 0.52559752088E+02 0.80643999464E+02 0.11115612298E+03 0.13769996464E+03
 0.13049395422E+03 0.13766389806E+03 0.13048514694E+03 0.11114499740E+03 0.85074243275E+02
 0.58479447333E+02 0.36218174721E+02 0.20851602371E+02 0.12557141444E+02 0.94583191368E+01
 0.85239464894E+01 0.82086170442E+01 0.85230543537E+01 0.94582421380E+01 0.12557969133E+02
 0.20850850303E+02 0.36214686288E+02 0.58476836310E+02 0.85077842297E+02 0.11115483520E+03
 0.99839384262E+02 0.11107599996E+03 0.11107730407E+03 0.99843284929E+02 0.80640127220E+02
 0.58479395699E+02 0.38154901165E+02 0.22881088670E+02 0.13757554659E+02 0.98111036082E+01
 0.85633796849E+01 0.80001586962E+01 0.79997915975E+01 0.85630232693E+01 0.98118170827E+01
 0.13758797720E+02 0.22880749777E+02 0.38151443004E+02 0.58473563540E+02 0.80634277501E+02
 0.68644598305E+02 0.80539550219E+02 0.84939807434E+02 0.80549325227E+02 0.68656901581E+02
 0.52561008160E+02 0.36218247617E+02 0.22881153620E+02 0.14225131058E+02 0.10056421114E+02
 0.85997080087E+01 0.78780674524E+01 0.76300176604E+01 0.78781189189E+01 0.85997537085E+01
 0.10057271765E+02 0.14227861218E+02 0.22884618264E+02 0.36218252491E+02 0.52553898611E+02
 0.42471935142E+02 0.52482456816E+02 0.58340666763E+02 0.58343992329E+02 0.52488445782E+02
 0.42473328787E+02 0.31020400229E+02 0.20851728079E+02 0.13757515979E+02 0.10056391358E+02
 0.86144222070E+01 0.78252951192E+01 0.74211911839E+01 0.74215166852E+01 0.78252423124E+01
 0.86131211417E+01 0.10056031468E+02 0.13761425909E+02 0.20859231858E+02 0.31025826701E+02
 0.24156860451E+02 0.31000946795E+02 0.36149621006E+02 0.38061476712E+02 0.36146169486E+02
 0.30994016816E+02 0.24148312444E+02 0.17503638849E+02 0.12557123703E+02 0.98110389517E+01
 0.85997591852E+01 0.78252911961E+01 0.73550913522E+01 0.72029195596E+01 0.73557707286E+01
 0.78243216059E+01 0.85961875061E+01 0.98076290051E+01 0.12557969133E+02 0.17509829338E+02
 0.13941628307E+02 0.17527250461E+02 0.20870290664E+02 0.22882994256E+02 0.22879123867E+02
 0.20861884987E+02 0.17521016033E+02 0.13941963121E+02 0.11117559852E+02 0.94582777437E+01
 0.85634207974E+01 0.78780677601E+01 0.74210575619E+01 0.72028905925E+01 0.72036301916E+01
 0.74223659417E+01 0.78777278779E+01 0.85595458235E+01 0.94514919216E+01 0.11111706388E+02
 0.99254928850E+01 0.11151029261E+02 0.12622974366E+02 0.13837425376E+02 0.14306225082E+02
 0.13834705939E+02 0.12622789364E+02 0.11157052223E+02 0.99348422656E+01 0.91402081425E+01
 0.85239453957E+01 0.80001804510E+01 0.76298847435E+01 0.74214486029E+01 0.73559090056E+01
 0.74224314814E+01 0.76327662094E+01 0.80036600843E+01 0.85238720071E+01 0.91339624986E+01
 0.88428727817E+01 0.91787755604E+01 0.95366156848E+01 0.99228062156E+01 0.10186959804E+02
 0.10188160296E+02 0.99268983687E+01 0.95432594890E+01 0.91845370133E+01 0.88431956617E+01
 0.85008879552E+01 0.82086514985E+01 0.79997754671E+01 0.78780538172E+01 0.78253765891E+01
 0.78244598056E+01 0.78776624685E+01 0.80036221990E+01 0.82161632855E+01 0.85067648748E+01
 0.85159265120E+01 0.85529198494E+01 0.86145479614E+01 0.86887672269E+01 0.87522609468E+01
 0.87789074932E+01 0.87557448332E+01 0.86922283360E+01 0.86138677387E+01 0.85468495232E+01
 0.85073262775E+01 0.85005188736E+01 0.85231277423E+01 0.85629938541E+01 0.85997591852E+01
 0.86132178117E+01 0.85961418063E+01 0.85594752959E+01 0.85239464895E+01 0.85067728000E+01
 0.88427177714E+01 0.85528866444E+01 0.83089725988E+01 0.81405218367E+01 0.80501127982E+01
 0.80169764924E+01 0.80178762387E+01 0.80504947187E+01 0.81367502531E+01 0.83016445437E+01
 0.85472442457E+01 0.88432418253E+01 0.91398493223E+01 0.94582455229E+01 0.98117173629E+01
 0.10057272836E+02 0.10056062294E+02 0.98075939417E+01 0.94515366997E+01 0.91339612235E+01
 0.99253708301E+01 0.91787306863E+01 0.86146916512E+01 0.81405648728E+01 0.78114467384E+01
 0.76311705913E+01 0.75757863957E+01 0.76304454341E+01 0.78088139336E+01 0.81371090733E+01
 0.86146382756E+01 0.91849419972E+01 0.99348893820E+01 0.11117950893E+02 0.12557894239E+02
 0.13758756277E+02 0.14227926723E+02 0.13761423145E+02 0.12557911981E+02 0.11111675809E+02
 0.13941697527E+02 0.11151052955E+02 0.95367206548E+01 0.86888283967E+01 0.80500518554E+01
 0.76311828461E+01 0.74338421000E+01 0.74332013979E+01 0.76300693576E+01 0.80504774624E+01
 0.86925685103E+01 0.95432305816E+01 0.11156676146E+02 0.13941978085E+02 0.17503695335E+02
 0.20850863858E+02 0.22880777544E+02 0.22884581080E+02 0.20859119705E+02 0.17509822071E+02
 0.24157077371E+02 0.17527323147E+02 0.12622896307E+02 0.99227748567E+01 0.87522336033E+01
 0.80170258842E+01 0.75758516527E+01 0.74331535074E+01 0.75750158588E+01 0.80178299345E+01
 0.87557448332E+01 0.99261808687E+01 0.12621971711E+02 0.17520937508E+02 0.24148312444E+02
 0.31018847415E+02 0.36214681414E+02 0.38151345194E+02 0.36218174721E+02 0.31025910381E+02
 0.42472121753E+02 0.31000976894E+02 0.20870093747E+02 0.13837299563E+02 0.10187012550E+02
 0.87789951837E+01 0.80179312817E+01 0.76303410092E+01 0.76299526778E+01 0.80178355857E+01
 0.87801613090E+01 0.10187347366E+02 0.13833488025E+02 0.20862711859E+02 0.30995554320E+02
 0.42473351170E+02 0.52559790246E+02 0.58476745125E+02 0.58473523989E+02 0.52554026143E+02
 0.68644643603E+02 0.52482433152E+02 0.36149499570E+02 0.22882883083E+02 0.14306273204E+02
 0.10188230464E+02 0.87557523181E+01 0.80504279319E+01 0.78086985606E+01 0.80504716184E+01
 0.87557796615E+01 0.10187364788E+02 0.14303524020E+02 0.22879514908E+02 0.36149688200E+02
 0.52489686080E+02 0.68656949068E+02 0.80643995707E+02 0.85077761989E+02 0.80634283965E+02
 0.99839331570E+02 0.80539593283E+02 0.58340730658E+02 0.38061452222E+02 0.22879050964E+02
 0.13834685358E+02 0.99269194920E+01 0.86922844393E+01 0.81367327536E+01 0.81370485377E+01
 0.86925634439E+01 0.99262333509E+01 0.13833593257E+02 0.22879553177E+02 0.38064989240E+02
 0.58346584151E+02 0.80545493108E+02 0.99843321297E+02 0.11115597077E+03 0.11115461945E+03
 0.13049390281E+03 0.11107620930E+03 0.84939990507E+02 0.58343996819E+02 0.36145980855E+02
 0.20861777554E+02 0.12622896307E+02 0.95434428585E+01 0.86139211142E+01 0.83015154984E+01
 0.86145479614E+01 0.95433089811E+01 0.12622156712E+02 0.20862801343E+02 0.36149621006E+02
 0.58346524746E+02 0.84936241232E+02 0.11106633730E+03 0.13048514694E+03 0.13769965002E+03
 0.15330126121E+03 0.13766418320E+03 0.11107747132E+03 0.80549261664E+02 0.52488269413E+02
 0.30993922719E+02 0.17521174370E+02 0.11157265293E+02 0.91845669477E+01 0.85466915627E+01
 0.85471194901E+01 0.91850168058E+01 0.11156865523E+02 0.17521023158E+02 0.30995430124E+02
 0.52489533375E+02 0.80545386481E+02 0.11106629521E+03 0.13765092054E+03 0.15329527243E+03
 0.15361241077E+03 0.14556619595E+03 0.12391316348E+03 0.94797033718E+02 0.65149661084E+02
 0.40290470035E+02 0.22973707900E+02 0.13425906191E+02 0.97387401613E+01 0.87088628624E+01
 0.83809802554E+01 0.87090551392E+01 0.97389016381E+01 0.13425854120E+02 0.22973501112E+02
 0.40290314790E+02 0.65149665360E+02 0.94797120150E+02 0.12391321253E+03 0.14556619328E+03
 0.14557165746E+03 0.14556605656E+03 0.13074944698E+03 0.10553356520E+03 0.76531805215E+02
 0.49848070475E+02 0.29440153927E+02 0.16729560008E+02 0.10808393727E+02 0.89918979997E+01
 0.83678651663E+01 0.83674998903E+01 0.89915520848E+01 0.10808822059E+02 0.16729701417E+02
 0.29438705093E+02 0.49846848217E+02 0.76535409604E+02 0.10554401361E+03 0.13076185091E+03
 0.12392131220E+03 0.13073189353E+03 0.12391306707E+03 0.10553362401E+03 0.80743999375E+02
 0.55461052958E+02 0.34344556381E+02 0.19853070422E+02 0.12120923403E+02 0.92785269862E+01
 0.83855754640E+01 0.80791334136E+01 0.83847078847E+01 0.92784379031E+01 0.12121732216E+02
 0.19852430697E+02 0.34341333999E+02 0.55458607552E+02 0.80747345731E+02 0.10554282041E+03
 0.94793523985E+02 0.10547921592E+03 0.10548042225E+03 0.94797144377E+02 0.76531803398E+02
 0.55461010959E+02 0.36174110248E+02 0.21752222357E+02 0.13222550639E+02 0.95906639638E+01
 0.84211288886E+01 0.78744704382E+01 0.78741181228E+01 0.84207713353E+01 0.95912968859E+01
 0.13223672248E+02 0.21751862538E+02 0.36170842443E+02 0.55455546341E+02 0.76526349263E+02
 0.65138270653E+02 0.76454679232E+02 0.80641512705E+02 0.76463798024E+02 0.65149738433E+02
 0.49848003975E+02 0.34344638783E+02 0.21752285736E+02 0.13653002701E+02 0.98084583945E+01
 0.84550616643E+01 0.77550883320E+01 0.75157983956E+01 0.77551606697E+01 0.84551090269E+01
 0.98092048413E+01 0.13655471249E+02 0.21755458703E+02 0.34344629038E+02 0.49841384041E+02
 0.40289187996E+02 0.49796531304E+02 0.55366336323E+02 0.55369455149E+02 0.49802143039E+02
 0.40290482120E+02 0.29440199233E+02 0.19853191807E+02 0.13222502929E+02 0.98084230566E+01
 0.84689528570E+01 0.77035976197E+01 0.73143356696E+01 0.73146695816E+01 0.77036067156E+01
 0.84677693563E+01 0.98080780474E+01 0.13226141619E+02 0.19860214866E+02 0.29445296063E+02
 0.22981600781E+02 0.29445953047E+02 0.34322518301E+02 0.36135552232E+02 0.34319341972E+02
 0.29439531366E+02 0.22973628024E+02 0.16729600029E+02 0.12120889811E+02 0.95905860124E+01
 0.84551061990E+01 0.77035952960E+01 0.72507054848E+01 0.71046308278E+01 0.72513672972E+01
 0.77027300779E+01 0.84518139885E+01 0.95874505653E+01 0.12121732216E+02 0.16735415750E+02
 0.13425457028E+02 0.16774691737E+02 0.19913720009E+02 0.21808948804E+02 0.21805350347E+02
 0.19905910722E+02 0.16768912948E+02 0.13425788002E+02 0.10808406665E+02 0.92784725670E+01
 0.84211649537E+01 0.77550941176E+01 0.73142133803E+01 0.71046063167E+01 0.71052780752E+01
 0.73153992842E+01 0.77547635783E+01 0.84175722620E+01 0.92721776187E+01 0.10802960791E+02
 0.97300034908E+01 0.10860312670E+02 0.12222560101E+02 0.13351355820E+02 0.13788062941E+02
 0.13348792452E+02 0.12222371255E+02 0.10865948160E+02 0.97387549375E+01 0.89919269820E+01
 0.83855792236E+01 0.78745025110E+01 0.75156801923E+01 0.73146104716E+01 0.72515039634E+01
 0.73154624635E+01 0.75182949553E+01 0.78777142875E+01 0.83855063634E+01 0.89860879086E+01
 0.87086635229E+01 0.90464520405E+01 0.93876854993E+01 0.97449696688E+01 0.99881095197E+01
 0.99891951994E+01 0.97487165780E+01 0.93938361992E+01 0.90518265651E+01 0.87089853992E+01
 0.83678848534E+01 0.80791820995E+01 0.78741108947E+01 0.77550995926E+01 0.77037367562E+01
 0.77028624421E+01 0.77546967157E+01 0.78776749866E+01 0.80861824056E+01 0.83733556827E+01
 0.83890799241E+01 0.84339295227E+01 0.85035595527E+01 0.85844167579E+01 0.86520714431E+01
 0.86799969600E+01 0.86552840431E+01 0.85875976220E+01 0.85028974189E+01 0.84282687888E+01
 0.83810708974E+01 0.83675266700E+01 0.83847807450E+01 0.84207344295E+01 0.84551061990E+01
 0.84678594960E+01 0.84517666259E+01 0.84174992911E+01 0.83855754641E+01 0.83733627754E+01
 0.87085142772E+01 0.84338993620E+01 0.82052880688E+01 0.80495791897E+01 0.79676944293E+01
 0.79385834740E+01 0.79394392118E+01 0.79680821854E+01 0.80460793970E+01 0.81984577563E+01
 0.84286508069E+01 0.87090284303E+01 0.89915783967E+01 0.92784240609E+01 0.95911847537E+01
 0.98092012653E+01 0.98081098094E+01 0.95874163844E+01 0.92722181958E+01 0.89860852384E+01
 0.97298861159E+01 0.90464128536E+01 0.85037036516E+01 0.80496223910E+01 0.77360810471E+01
 0.75650725848E+01 0.75127032984E+01 0.75644641340E+01 0.77336989787E+01 0.80464279822E+01
 0.85036517957E+01 0.90522181814E+01 0.97387990394E+01 0.10808803756E+02 0.12121644187E+02
 0.13223629723E+02 0.13655543363E+02 0.13226146804E+02 0.12121677779E+02 0.10802929551E+02
 0.13425523358E+02 0.10860338405E+02 0.93877920507E+01 0.85844787081E+01 0.79676341558E+01
 0.75650827541E+01 0.73759528327E+01 0.73753742544E+01 0.75640813012E+01 0.79680479378E+01
 0.85879470219E+01 0.93938274158E+01 0.10865565327E+02 0.13425802261E+02 0.16729732706E+02
 0.19852447846E+02 0.21751902904E+02 0.21755435689E+02 0.19860110631E+02 0.16735407017E+02
 0.22981807569E+02 0.16774761051E+02 0.12222484684E+02 0.97449396559E+01 0.86520434307E+01
 0.79386282489E+01 0.75127633122E+01 0.73753257361E+01 0.75119489217E+01 0.79393348904E+01
 0.86552840431E+01 0.97480806979E+01 0.12221572777E+02 0.16768760120E+02 0.22973628024E+02
 0.29438828175E+02 0.34341343745E+02 0.36170758348E+02 0.34344556381E+02 0.29445373839E+02
 0.40289363463E+02 0.29445979302E+02 0.19913525798E+02 0.13351230652E+02 0.99881592204E+01
 0.86800812371E+01 0.79394905571E+01 0.75643590149E+01 0.75639660127E+01 0.79393414609E+01
 0.86811369649E+01 0.99884802436E+01 0.13347685880E+02 0.19906620203E+02 0.29440888094E+02
 0.40290502342E+02 0.49846897403E+02 0.55458521366E+02 0.55455502155E+02 0.49841499727E+02
 0.65138309640E+02 0.49796509827E+02 0.34322400299E+02 0.21808836639E+02 0.13788107005E+02
 0.99892657924E+01 0.86552952057E+01 0.79680169887E+01 0.77335836488E+01 0.79680430145E+01
 0.86553232181E+01 0.99885011360E+01 0.13785609645E+02 0.21805747439E+02 0.34322593747E+02
 0.49803269833E+02 0.65149781696E+02 0.76535399563E+02 0.80747251150E+02 0.76526341039E+02
 0.94793470785E+02 0.76454732222E+02 0.55366407924E+02 0.36135526971E+02 0.21805273706E+02
 0.13348774291E+02 0.97487468528E+01 0.85876588084E+01 0.80460594578E+01 0.80463648418E+01
 0.85879462581E+01 0.97481409856E+01 0.13347792887E+02 0.21805782962E+02 0.36138865009E+02
 0.55371891288E+02 0.76460235091E+02 0.94797177609E+02 0.10554384432E+03 0.10554259231E+03
 0.12392126315E+03 0.10547943876E+03 0.80641710631E+02 0.55369463041E+02 0.34319148524E+02
 0.19905801176E+02 0.12222484684E+02 0.93940272684E+01 0.85029492749E+01 0.81983214330E+01
 0.85035595526E+01 0.93939119335E+01 0.12221761623E+02 0.19906704867E+02 0.34322518301E+02
 0.55371827579E+02 0.80638217667E+02 0.10547020804E+03 0.12391306707E+03 0.13076152921E+03
 0.14557164436E+03 0.13073218959E+03 0.10548060839E+03 0.76463743568E+02 0.49801958240E+02
 0.29439424317E+02 0.16769068374E+02 0.10866169651E+02 0.90518612669E+01 0.84281023636E+01
 0.84285145424E+01 0.90522920701E+01 0.10865761083E+02 0.16768846232E+02 0.29440754790E+02
 0.49803106511E+02 0.76460127645E+02 0.10547017134E+03 0.13071978774E+03 0.14556604080E+03
 0.13156848767E+03 0.12468500301E+03 0.10612999954E+03 0.81125090643E+02 0.55657745926E+02
 0.34419572854E+02 0.19859765096E+02 0.12090195423E+02 0.92315851803E+01 0.83416401764E+01
 0.80378468679E+01 0.83418093911E+01 0.92317270288E+01 0.12090149647E+02 0.19859584942E+02
 0.34419440446E+02 0.55657754569E+02 0.81125169454E+02 0.10613004238E+03 0.12468499924E+03
 0.12468942065E+03 0.12468485508E+03 0.11198656793E+03 0.90334378016E+02 0.65402348951E+02
 0.42525385854E+02 0.25218749253E+02 0.14701571973E+02 0.10014377908E+02 0.85846378318E+01
 0.80043755388E+01 0.80040446401E+01 0.85843254712E+01 0.10014815412E+02 0.14701901225E+02
 0.25217783336E+02 0.42524484601E+02 0.65405263397E+02 0.90342842793E+02 0.11199665878E+03
 0.10613660520E+03 0.11198374333E+03 0.10612987072E+03 0.90334424664E+02 0.69011263729E+02
 0.47302887134E+02 0.29319921995E+02 0.17216938778E+02 0.10994036550E+02 0.88033899097E+01
 0.80049627056E+01 0.77246294271E+01 0.80041672663E+01 0.88032702724E+01 0.10994785058E+02
 0.17216585319E+02 0.29317404820E+02 0.47300887832E+02 0.69013937089E+02 0.90341900813E+02
 0.81122299193E+02 0.90320625506E+02 0.90321572887E+02 0.81125174369E+02 0.65402367880E+02
 0.47302869114E+02 0.30855855198E+02 0.18761551349E+02 0.11833302436E+02 0.90170951872E+01
 0.80273047978E+01 0.75288837479E+01 0.75285726938E+01 0.80269487084E+01 0.90175191301E+01
 0.11834108016E+02 0.18761147012E+02 0.30853108207E+02 0.47298394710E+02 0.65397971733E+02
 0.55648615138E+02 0.65390104190E+02 0.68997267648E+02 0.65397467544E+02 0.55657850025E+02
 0.42525375946E+02 0.29320026390E+02 0.18761610015E+02 0.12164604649E+02 0.91658913432E+01
 0.80526785148E+01 0.74153446450E+01 0.72007830452E+01 0.74154674222E+01 0.80527297682E+01
 0.91663707730E+01 0.12166392473E+02 0.18764017274E+02 0.29319981433E+02 0.42520063198E+02
 0.34418610531E+02 0.42548537511E+02 0.47329741224E+02 0.47332303277E+02 0.42553134875E+02
 0.34419640956E+02 0.25218829168E+02 0.17217047901E+02 0.11833233173E+02 0.91658428448E+01
 0.80635634249E+01 0.73663693414E+01 0.70185233162E+01 0.70188730788E+01 0.73665315407E+01
 0.80626888014E+01 0.91655408583E+01 0.11836148363E+02 0.17222778617E+02 0.25223034654E+02
 0.19866147760E+02 0.25294161953E+02 0.29426182843E+02 0.30968619397E+02 0.29423733102E+02
 0.25289091203E+02 0.19859715303E+02 0.14701595940E+02 0.10993964465E+02 0.90169856769E+01
 0.80527064064E+01 0.73663710815E+01 0.69612584696E+01 0.68318310462E+01 0.69618673418E+01
 0.73657767778E+01 0.80501531553E+01 0.90145737168E+01 0.10994785058E+02 0.14706397780E+02
 0.12089743543E+02 0.14806539248E+02 0.17394126238E+02 0.18970350712E+02 0.18967476792E+02
 0.17387904632E+02 0.14801970432E+02 0.12090059916E+02 0.10014347371E+02 0.88033039611E+01
 0.80273281217E+01 0.74153641004E+01 0.70184304978E+01 0.68318176934E+01 0.68323123017E+01
 0.70192968900E+01 0.74150613186E+01 0.80244845505E+01 0.87983129927E+01 0.10009987905E+02
 0.92244247757E+01 0.10118585203E+02 0.11196856220E+02 0.12100073772E+02 0.12451703708E+02
 0.12097933301E+02 0.11196659173E+02 0.10123177920E+02 0.92315678400E+01 0.85846519999E+01
 0.80049779580E+01 0.75289410709E+01 0.72007027819E+01 0.70188366014E+01 0.69619979046E+01
 0.70193532310E+01 0.72026202230E+01 0.75314429552E+01 0.80049067013E+01 0.85799040677E+01
 0.83414563102E+01 0.86855821598E+01 0.90020398927E+01 0.92948015142E+01 0.94877691603E+01
 0.94885554187E+01 0.92976404144E+01 0.90068808881E+01 0.86899197222E+01 0.83417691166E+01
 0.80044312946E+01 0.77247124693E+01 0.75285879900E+01 0.74154171232E+01 0.73666490105E+01
 0.73658925075E+01 0.74149915641E+01 0.75314009284E+01 0.77303458914E+01 0.80088191245E+01
 0.80444096859E+01 0.81119650373E+01 0.82041547219E+01 0.83035184426E+01 0.83827348588E+01
 0.84142288062E+01 0.83852302918E+01 0.83059609605E+01 0.82035481399E+01 0.81074002728E+01
 0.80379789846E+01 0.80041056934E+01 0.80042385229E+01 0.80268945384E+01 0.80527064064E+01
 0.80627609899E+01 0.80501019019E+01 0.80244070566E+01 0.80049627056E+01 0.80088244221E+01
 0.83413226115E+01 0.81119421299E+01 0.79280824709E+01 0.78095221154E+01 0.77526472356E+01
 0.77354746182E+01 0.77362089703E+01 0.77530440384E+01 0.78067467833E+01 0.79225845819E+01
 0.81077453174E+01 0.83418046326E+01 0.85843344350E+01 0.88032154224E+01 0.90173783937E+01
 0.91663551947E+01 0.91655737784E+01 0.90145424906E+01 0.87983440913E+01 0.85798988635E+01
 0.92243199583E+01 0.86855560550E+01 0.82042973580E+01 0.78095652043E+01 0.75419928579E+01
 0.73984975916E+01 0.73551276583E+01 0.73981865678E+01 0.75402657906E+01 0.78070643482E+01
 0.82042505438E+01 0.86902728031E+01 0.92316048711E+01 0.10014753475E+02 0.10994666869E+02
 0.11834063087E+02 0.12166478858E+02 0.11836172697E+02 0.10994738954E+02 0.10009956505E+02
 0.12089802158E+02 0.10118614349E+02 0.90021478193E+01 0.83035814926E+01 0.77525898461E+01
 0.73985029237E+01 0.72337720692E+01 0.72333556562E+01 0.73977933021E+01 0.77529683375E+01
 0.83063267465E+01 0.90069210729E+01 0.10122784654E+02 0.12090072754E+02 0.14701914054E+02
 0.17216611252E+02 0.18761216749E+02 0.18764028345E+02 0.17222695427E+02 0.14706386642E+02
 0.19866327914E+02 0.14806598794E+02 0.11196786907E+02 0.92947749287E+01 0.83827063985E+01
 0.77355085597E+01 0.73551745858E+01 0.72333060875E+01 0.73544252544E+01 0.77359641213E+01
 0.83852302918E+01 0.92972146175E+01 0.11195919738E+02 0.14801637044E+02 0.19859715303E+02
 0.25217926538E+02 0.29317449777E+02 0.30853057652E+02 0.29319921995E+02 0.25223097941E+02
 0.34418757408E+02 0.25294178435E+02 0.17393940103E+02 0.12099951369E+02 0.94878116861E+01
 0.84143049156E+01 0.77362512904E+01 0.73980807427E+01 0.73976821448E+01 0.77359725000E+01
 0.84150717327E+01 0.94880930529E+01 0.12097117855E+02 0.17388313975E+02 0.25289981801E+02
 0.34419655424E+02 0.42524560499E+02 0.47300814299E+02 0.47298339198E+02 0.42520149004E+02
 0.55648638742E+02 0.42548521970E+02 0.29426074394E+02 0.18970237250E+02 0.12451737911E+02
 0.94886271328E+01 0.83852507648E+01 0.77529831118E+01 0.75401508956E+01 0.77529648005E+01
 0.83852792251E+01 0.94881222412E+01 0.12449898777E+02 0.18967882896E+02 0.29426277468E+02
 0.42553964789E+02 0.55657882272E+02 0.65405238142E+02 0.69013808095E+02 0.65397927547E+02
 0.81122245501E+02 0.65390181330E+02 0.47329831057E+02 0.30968592515E+02 0.18967392108E+02
 0.12097921673E+02 0.92976927867E+01 0.83060333690E+01 0.78067200622E+01 0.78069945382E+01
 0.83063361049E+01 0.92972935754E+01 0.12097228630E+02 0.18967911673E+02 0.30971389388E+02
 0.47334318505E+02 0.65394622402E+02 0.81125199489E+02 0.90342633189E+02 0.90341644561E+02
 0.10613656236E+03 0.90320879261E+02 0.68997499970E+02 0.47332319382E+02 0.29423530028E+02
 0.17387791188E+02 0.11196786907E+02 0.90070880214E+01 0.82035949541E+01 0.79224314383E+01
 0.82041547219E+01 0.90070202795E+01 0.11196116785E+02 0.17388386666E+02 0.29426182843E+02
 0.47334244776E+02 0.68994691035E+02 0.90313369157E+02 0.10612987072E+03 0.11199632280E+03
 0.12468941239E+03 0.11198406306E+03 0.90321803352E+02 0.65397435848E+02 0.42552931346E+02
 0.25288953612E+02 0.14802116702E+02 0.10123416991E+02 0.86899654318E+01 0.81072151883E+01
 0.81075831404E+01 0.86903446174E+01 0.10122994580E+02 0.14801723768E+02 0.25289827729E+02
 0.42553776803E+02 0.65394513567E+02 0.90313345868E+02 0.11197397057E+03 0.12468484306E+03
 0.10170594114E+03 0.96370586403E+02 0.81966708338E+02 0.62535460510E+02 0.42814441013E+02
 0.26600524748E+02 0.15846280660E+02 0.10451782796E+02 0.85859367588E+01 0.78301567696E+01
 0.75658747124E+01 0.78302966419E+01 0.85860542019E+01 0.10451746095E+02 0.15846134783E+02
 0.26600420093E+02 0.42814452821E+02 0.62535527915E+02 0.81966743196E+02 0.96370581890E+02
 0.96373625396E+02 0.96370434299E+02 0.86505703332E+02 0.69664322001E+02 0.50298495884E+02
 0.32690144518E+02 0.19684508705E+02 0.12153043763E+02 0.90450772393E+01 0.80078964645E+01
 0.75003801957E+01 0.75001029811E+01 0.80076351094E+01 0.90455021549E+01 0.12153564862E+02
 0.19684125931E+02 0.32689642606E+02 0.50300498798E+02 0.69670165992E+02 0.86512728409E+02
 0.81971272791E+02 0.86523716997E+02 0.81966548882E+02 0.69664354115E+02 0.53077171096E+02
 0.36307648767E+02 0.22674951601E+02 0.13850813506E+02 0.96138929802E+01 0.81655169145E+01
 0.74712936570E+01 0.72317743295E+01 0.74706123530E+01 0.81653632486E+01 0.96145352849E+01
 0.13850797317E+02 0.22673344959E+02 0.36306245096E+02 0.53078964755E+02 0.69669549920E+02
 0.62533606791E+02 0.69707270396E+02 0.69707883767E+02 0.62535512710E+02 0.50298537109E+02
 0.36307657187E+02 0.23803836056E+02 0.14913826599E+02 0.10117521405E+02 0.82837592932E+01
 0.74687080878E+01 0.70446293364E+01 0.70443779086E+01 0.74683676214E+01 0.82839271060E+01
 0.10117935792E+02 0.14913395393E+02 0.23801807159E+02 0.36304506641E+02 0.50295534169E+02
 0.42808273422E+02 0.50375917273E+02 0.53185763466E+02 0.50380966714E+02 0.42814571001E+02
 0.32690195912E+02 0.22675075017E+02 0.14913877555E+02 0.10320189950E+02 0.83574535583E+01
 0.74770017687E+01 0.69350033767E+01 0.67565839470E+01 0.69351772957E+01 0.74770563144E+01
 0.83576138093E+01 0.10321134158E+02 0.14915316516E+02 0.22674994764E+02 0.32686599100E+02
 0.26599962111E+02 0.32815861922E+02 0.36501762060E+02 0.36503579584E+02 0.32819106859E+02
 0.26600650896E+02 0.19684622165E+02 0.13850904443E+02 0.10117431343E+02 0.83573928558E+01
 0.74817385934E+01 0.68868453196E+01 0.65982722902E+01 0.65986238229E+01 0.68871730975E+01
 0.74812540262E+01 0.83571558273E+01 0.10119398934E+02 0.13854914877E+02 0.19687627420E+02
 0.15850664377E+02 0.19855617889E+02 0.22957460462E+02 0.24124480479E+02 0.22955941122E+02
 0.19852302196E+02 0.15846265176E+02 0.12153049056E+02 0.96137816201E+01 0.82836198700E+01
 0.74770108820E+01 0.68868517359E+01 0.65487286981E+01 0.64421693303E+01 0.65492505230E+01
 0.68865903448E+01 0.74754065093E+01 0.82821307537E+01 0.96145352849E+01 0.12156483597E+02
 0.10451348671E+02 0.12341415414E+02 0.14189641284E+02 0.15333195520E+02 0.15331268468E+02
 0.14185490855E+02 0.12338416807E+02 0.10451634188E+02 0.90450002713E+01 0.81653992156E+01
 0.74687167717E+01 0.69350378439E+01 0.65982158760E+01 0.64421685352E+01 0.64424419840E+01
 0.65986843806E+01 0.69347798714E+01 0.74668439227E+01 0.81621010954E+01 0.90420612245E+01
 0.85808853435E+01 0.92241981299E+01 0.99606550915E+01 0.10579835523E+02 0.10822528036E+02
 0.10578268090E+02 0.99604541522E+01 0.92274003936E+01 0.85858850898E+01 0.80078921930E+01
 0.74713198723E+01 0.70447129519E+01 0.67565494687E+01 0.65986133003E+01 0.65493679621E+01
 0.65987302722E+01 0.67575944881E+01 0.70462990317E+01 0.74712516170E+01 0.80045916034E+01
 0.78300025555E+01 0.81774490705E+01 0.84960715203E+01 0.87429408385E+01 0.88883427615E+01
 0.88887562131E+01 0.87446271489E+01 0.84992134666E+01 0.81804154095E+01 0.78302860440E+01
 0.75004708733E+01 0.72318918262E+01 0.70444188655E+01 0.69351411818E+01 0.68872705930E+01
 0.68866814240E+01 0.69347092904E+01 0.70462563731E+01 0.72357279935E+01 0.75034405736E+01
 0.75704043069E+01 0.76706653937E+01 0.77933192583E+01 0.79165911094E+01 0.80102802005E+01
 0.80461429782E+01 0.80118544599E+01 0.79180921551E+01 0.77928054562E+01 0.76675451075E+01
 0.75660442776E+01 0.75001977014E+01 0.74706806084E+01 0.74682984328E+01 0.74770108820E+01
 0.74813015259E+01 0.74753519637E+01 0.74667660502E+01 0.74712936570E+01 0.75034446163E+01
 0.78298899574E+01 0.76706497453E+01 0.75535082058E+01 0.74891208327E+01 0.74683627171E+01
 0.74683939068E+01 0.74689579559E+01 0.74687527337E+01 0.74872922558E+01 0.75497678194E+01
 0.76678328343E+01 0.78303133181E+01 0.80076253807E+01 0.81652686035E+01 0.82837619115E+01
 0.83575840256E+01 0.83571867460E+01 0.82821049823E+01 0.81621241491E+01 0.80045861462E+01
 0.85807973770E+01 0.81774346767E+01 0.77934528857E+01 0.74891621510E+01 0.72903612541E+01
 0.71878294739E+01 0.71578432219E+01 0.71878687362E+01 0.72894529075E+01 0.74875590680E+01
 0.77934152435E+01 0.81807094959E+01 0.85859145664E+01 0.90453976956E+01 0.96143914074E+01
 0.10117889325E+02 0.10321229968E+02 0.10119442528E+02 0.96145027676E+01 0.90420337332E+01
 0.10451396991E+02 0.92242264422E+01 0.84961735817E+01 0.79166527614E+01 0.74683119503E+01
 0.71878303024E+01 0.70598598367E+01 0.70596456963E+01 0.71874829309E+01 0.74686337407E+01
 0.79184570458E+01 0.84993051855E+01 0.92270145883E+01 0.10451645807E+02 0.12153559632E+02
 0.13850832267E+02 0.14913491750E+02 0.14915361917E+02 0.13854858889E+02 0.12156473075E+02
 0.15850810255E+02 0.12341460181E+02 0.99605917303E+01 0.87429184192E+01 0.80102544914E+01
 0.74684172474E+01 0.71578753149E+01 0.70595966778E+01 0.71572334346E+01 0.74685684973E+01
 0.80118544599E+01 0.87444557088E+01 0.99598148883E+01 0.12337896736E+02 0.15846265176E+02
 0.19684286830E+02 0.22673425212E+02 0.23801792286E+02 0.22674951601E+02 0.19687674857E+02
 0.26600074219E+02 0.19855622842E+02 0.14189468754E+02 0.10579720070E+02 0.88883781428E+01
 0.80462102531E+01 0.74689904226E+01 0.71877655788E+01 0.71873789450E+01 0.74685776234E+01
 0.80466144216E+01 0.88885997706E+01 0.10577817561E+02 0.14185543959E+02 0.19852627954E+02
 0.26600658349E+02 0.32689745383E+02 0.36306186593E+02 0.36304439719E+02 0.32686650483E+02
 0.42808280680E+02 0.32815854093E+02 0.22957365831E+02 0.15333084597E+02 0.10822551902E+02
 0.88888286716E+01 0.80118852295E+01 0.74686977556E+01 0.72893403032E+01 0.74686295293E+01
 0.80119109387E+01 0.88886368478E+01 0.10821536562E+02 0.15331665892E+02 0.22957571860E+02
 0.32819564841E+02 0.42814590068E+02 0.50300458232E+02 0.53078801834E+02 0.50295452378E+02
 0.62533554877E+02 0.50376018841E+02 0.36501868824E+02 0.24124452918E+02 0.15331178964E+02
 0.10578264966E+02 0.87447014052E+01 0.79181725886E+01 0.74872565186E+01 0.74874820125E+01
 0.79184758273E+01 0.87445523845E+01 0.10577929891E+02 0.15331687312E+02 0.24126510882E+02
 0.36505027235E+02 0.50379061082E+02 0.62535528200E+02 0.69669919325E+02 0.69669271139E+02
 0.81971237932E+02 0.69707549454E+02 0.53186025281E+02 0.36503603979E+02 0.22955735093E+02
 0.14185377438E+02 0.99605917302E+01 0.84994285639E+01 0.77928430984E+01 0.75496006061E+01
 0.77933192583E+01 0.84994182213E+01 0.99600158275E+01 0.14185603073E+02 0.22957460462E+02
 0.36504944866E+02 0.53184113661E+02 0.69702321856E+02 0.81966548882E+02 0.86512387625E+02
 0.96373622292E+02 0.86524051517E+02 0.69708154353E+02 0.50380960362E+02 0.32818889981E+02
 0.19852136425E+02 0.12338546939E+02 0.92276481360E+01 0.81804705652E+01 0.76673470445E+01
 0.76676504196E+01 0.81807790454E+01 0.92272340184E+01 0.12337982101E+02 0.19852457230E+02
 0.32819355793E+02 0.50378953161E+02 0.69702313385E+02 0.86517021530E+02 0.96370426682E+02
 0.70881972855E+02 0.67130691059E+02 0.57009287708E+02 0.43409426052E+02 0.29784715848E+02
 0.18918680211E+02 0.12128093038E+02 0.90342375920E+01 0.79105219467E+01 0.72784045041E+01
 0.70648196834E+01 0.72785145393E+01 0.79106144327E+01 0.90342094961E+01 0.12127980576E+02
 0.18918601693E+02 0.29784728980E+02 0.43409481050E+02 0.57009314808E+02 0.67130686444E+02
 0.67132389118E+02 0.67130547461E+02 0.60183587794E+02 0.48352034094E+02 0.34865364640E+02
 0.22870334155E+02 0.14404757106E+02 0.98859077647E+01 0.81680676020E+01 0.73742114595E+01