   2   2   0   0
  0.9638209E+01  0.2330000E-09  0.2330000E-09  0.4100000E-09  0.5000000E-15
  1.000000000000000E-004
  CAR 
 unknown system                          
     74.57364403     -5.30541996  301      7.53904377      1.00000000
     -5.305  0.0000E+00  0.0000E+00
     -5.039  0.0000E+00  0.0000E+00
     -4.773  0.0000E+00  0.0000E+00
     -4.507  0.0000E+00  0.0000E+00
     -4.240  0.0000E+00  0.0000E+00
     -3.974  0.0000E+00  0.0000E+00
     -3.708  0.0000E+00  0.0000E+00
     -3.442 -0.1770E-35 -0.4713E-36
     -3.175 -0.4216E-26 -0.1123E-26
     -2.909 -0.2822E-18 -0.7513E-19
     -2.643 -0.5054E-12 -0.1346E-12
     -2.377 -0.2535E-07 -0.6750E-08
     -2.110 -0.3271E-04 -0.8717E-05
     -1.844 -0.4198E-03 -0.1205E-03
     -1.578  0.8572E-02  0.2162E-02
     -1.311  0.5064E-01  0.1565E-01
     -1.045  0.9792E-01  0.4172E-01
     -0.779  0.5652E-01  0.5677E-01
     -0.513  0.1443E+00  0.9520E-01
     -0.246  0.1698E+00  0.1404E+00
      0.020  0.1897E+00  0.1909E+00
      0.286  0.8267E-01  0.2129E+00
      0.552  0.2206E+00  0.2717E+00
      0.819  0.3058E+00  0.3531E+00
      1.085  0.2770E+00  0.4268E+00
      1.351  0.3172E+00  0.5113E+00
      1.617  0.2119E+00  0.5677E+00
      1.884  0.4230E+00  0.6803E+00
      2.150  0.8285E+00  0.9009E+00
      2.416  0.1324E+01  0.1253E+01
      2.682  0.1696E+01  0.1705E+01
      2.949  0.2428E+01  0.2351E+01
      3.215  0.2415E+01  0.2994E+01
      3.481  0.2761E+01  0.3730E+01
      3.748  0.2173E+01  0.4308E+01
      4.014  0.2616E+01  0.5005E+01
      4.280  0.3020E+01  0.5809E+01
      4.546  0.3059E+01  0.6623E+01
      4.813  0.2585E+01  0.7312E+01
      5.079  0.2102E+01  0.7871E+01
      5.345  0.2765E+01  0.8607E+01
      5.611  0.3879E+01  0.9640E+01
      5.878  0.3490E+01  0.1057E+02
      6.144  0.3743E+01  0.1157E+02
      6.410  0.3375E+01  0.1246E+02
      6.676  0.3606E+01  0.1342E+02
      6.943  0.2939E+01  0.1421E+02
      7.209  0.2998E+01  0.1501E+02
      7.475  0.3102E+01  0.1583E+02
      7.741  0.2400E+01  0.1647E+02
      8.008  0.3229E+01  0.1733E+02
      8.274  0.4600E+01  0.1856E+02
      8.540  0.4497E+01  0.1975E+02
      8.807  0.4167E+01  0.2086E+02
      9.073  0.1437E+01  0.2124E+02
      9.339  0.8968E-01  0.2127E+02
      9.605  0.5304E+00  0.2141E+02
      9.872  0.7998E+00  0.2162E+02
     10.138  0.7072E+00  0.2181E+02
     10.404  0.5690E+00  0.2196E+02
     10.670  0.5702E+00  0.2211E+02
     10.937  0.3588E+00  0.2221E+02
     11.203  0.3489E+00  0.2230E+02
     11.469  0.3712E+00  0.2240E+02
     11.735  0.6200E+00  0.2257E+02
     12.002  0.6123E+00  0.2273E+02
     12.268  0.3893E+00  0.2283E+02
     12.534  0.3368E+00  0.2292E+02
     12.801  0.4979E+00  0.2306E+02
     13.067  0.4556E+00  0.2318E+02
     13.333  0.2123E+00  0.2323E+02
     13.599  0.3102E+00  0.2332E+02
     13.866  0.3277E+00  0.2340E+02
     14.132  0.4354E+00  0.2352E+02
     14.398  0.2505E+00  0.2359E+02
     14.664  0.3035E+00  0.2367E+02
     14.931  0.5293E+00  0.2381E+02
     15.197  0.3077E+00  0.2389E+02
     15.463  0.1556E+00  0.2393E+02
     15.729  0.2368E+00  0.2399E+02
     15.996  0.2825E+00  0.2407E+02
     16.262  0.1463E+00  0.2411E+02
     16.528  0.1606E+00  0.2415E+02
     16.794  0.1644E+00  0.2420E+02
     17.061  0.2088E+00  0.2425E+02
     17.327  0.6238E+00  0.2442E+02
     17.593  0.3271E+00  0.2450E+02
     17.860  0.7984E+00  0.2472E+02
     18.126  0.9138E+00  0.2496E+02
     18.392  0.7261E+00  0.2515E+02
     18.658  0.5576E+00  0.2530E+02
     18.925  0.6136E+00  0.2547E+02
     19.191  0.5769E+00  0.2562E+02
     19.457  0.5740E+00  0.2577E+02
     19.723  0.9715E+00  0.2603E+02
     19.990  0.6151E+00  0.2619E+02
     20.256  0.6043E+00  0.2635E+02
     20.522  0.8444E+00  0.2658E+02
     20.788  0.5549E+00  0.2673E+02
     21.055  0.7178E+00  0.2692E+02
     21.321  0.5948E+00  0.2708E+02
     21.587  0.6335E+00  0.2725E+02
     21.853  0.7327E+00  0.2744E+02
     22.120  0.4158E+00  0.2755E+02
     22.386  0.6164E+00  0.2772E+02
     22.652  0.5507E+00  0.2786E+02
     22.919  0.5116E+00  0.2800E+02
     23.185  0.6946E+00  0.2818E+02
     23.451  0.6040E+00  0.2834E+02
     23.717  0.7090E+00  0.2853E+02
     23.984  0.5881E+00  0.2869E+02
     24.250  0.6241E+00  0.2886E+02
     24.516  0.6469E+00  0.2903E+02
     24.782  0.1267E+01  0.2937E+02
     25.049  0.8672E+00  0.2960E+02
     25.315  0.7287E+00  0.2979E+02
     25.581  0.1072E+01  0.3008E+02
     25.847  0.4277E+00  0.3019E+02
     26.114  0.9291E+00  0.3044E+02
     26.380  0.6993E+00  0.3062E+02
     26.646  0.9863E+00  0.3089E+02
     26.912  0.1137E+01  0.3119E+02
     27.179  0.1081E+01  0.3148E+02
     27.445  0.7037E+00  0.3166E+02
     27.711  0.8590E+00  0.3189E+02
     27.978  0.9952E+00  0.3216E+02
     28.244  0.9304E+00  0.3240E+02
     28.510  0.1072E+01  0.3269E+02
     28.776  0.6396E+00  0.3286E+02
     29.043  0.6217E+00  0.3303E+02
     29.309  0.1121E+01  0.3332E+02
     29.575  0.6907E+00  0.3351E+02
     29.841  0.7588E+00  0.3371E+02
     30.108  0.1394E+01  0.3408E+02
     30.374  0.5674E+00  0.3423E+02
     30.640  0.2976E+00  0.3431E+02
     30.906  0.7695E+00  0.3452E+02
     31.173  0.8512E+00  0.3474E+02
     31.439  0.6378E+00  0.3491E+02
     31.705  0.5582E+00  0.3506E+02
     31.971  0.8009E+00  0.3528E+02
     32.238  0.8261E+00  0.3550E+02
     32.504  0.7041E+00  0.3568E+02
     32.770  0.6242E+00  0.3585E+02
     33.037  0.7119E+00  0.3604E+02
     33.303  0.4636E+00  0.3616E+02
     33.569  0.9887E+00  0.3643E+02
     33.835  0.7587E+00  0.3663E+02
     34.102  0.7481E+00  0.3683E+02
     34.368  0.7845E+00  0.3704E+02
     34.634  0.7965E+00  0.3725E+02
     34.900  0.5927E+00  0.3741E+02
     35.167  0.7836E+00  0.3761E+02
     35.433  0.9878E+00  0.3788E+02
     35.699  0.1033E+01  0.3815E+02
     35.965  0.7173E+00  0.3834E+02
     36.232  0.8725E+00  0.3858E+02
     36.498  0.9591E+00  0.3883E+02
     36.764  0.1260E+01  0.3917E+02
     37.030  0.5199E+00  0.3930E+02
     37.297  0.8199E+00  0.3952E+02
     37.563  0.1478E+01  0.3992E+02
     37.829  0.1032E+01  0.4019E+02
     38.096  0.8900E+00  0.4043E+02
     38.362  0.8808E+00  0.4066E+02
     38.628  0.7974E+00  0.4088E+02
     38.894  0.7789E+00  0.4108E+02
     39.161  0.7575E+00  0.4128E+02
     39.427  0.5701E+00  0.4144E+02
     39.693  0.5588E+00  0.4158E+02
     39.959  0.9189E+00  0.4183E+02
     40.226  0.9028E+00  0.4207E+02
     40.492  0.5332E+00  0.4221E+02
     40.758  0.7654E+00  0.4242E+02
     41.024  0.9578E+00  0.4267E+02
     41.291  0.1378E+01  0.4304E+02
     41.557  0.6383E+00  0.4321E+02
     41.823  0.7953E+00  0.4342E+02
     42.089  0.9215E+00  0.4366E+02
     42.356  0.6495E+00  0.4384E+02
     42.622  0.5595E+00  0.4399E+02
     42.888  0.8007E+00  0.4420E+02
     43.155  0.8725E+00  0.4443E+02
     43.421  0.1159E+01  0.4474E+02
     43.687  0.1181E+01  0.4506E+02
     43.953  0.1071E+01  0.4534E+02
     44.220  0.9649E+00  0.4560E+02
     44.486  0.1034E+01  0.4587E+02
     44.752  0.7474E+00  0.4607E+02
     45.018  0.9038E+00  0.4631E+02
     45.285  0.1122E+01  0.4661E+02
     45.551  0.1263E+01  0.4695E+02
     45.817  0.1290E+01  0.4729E+02
     46.083  0.1068E+01  0.4757E+02
     46.350  0.9130E+00  0.4782E+02
     46.616  0.1125E+01  0.4812E+02
     46.882  0.1171E+01  0.4843E+02
     47.148  0.7725E+00  0.4863E+02
     47.415  0.8223E+00  0.4885E+02
     47.681  0.9363E+00  0.4910E+02
     47.947  0.8508E+00  0.4933E+02
     48.214  0.4757E+00  0.4946E+02
     48.480  0.6547E+00  0.4963E+02
     48.746  0.7787E+00  0.4984E+02
     49.012  0.1178E+01  0.5015E+02
     49.279  0.1112E+01  0.5045E+02
     49.545  0.8923E+00  0.5069E+02
     49.811  0.1212E+01  0.5101E+02
     50.077  0.8491E+00  0.5123E+02
     50.344  0.1021E+01  0.5151E+02
     50.610  0.7785E+00  0.5171E+02
     50.876  0.1497E+01  0.5211E+02
     51.142  0.1013E+01  0.5238E+02
     51.409  0.1007E+01  0.5265E+02
     51.675  0.4500E+00  0.5277E+02
     51.941  0.6015E+00  0.5293E+02
     52.208  0.1654E+01  0.5337E+02
     52.474  0.1608E+01  0.5380E+02
     52.740  0.1222E+01  0.5412E+02
     53.006  0.9823E+00  0.5439E+02
     53.273  0.1465E+01  0.5478E+02
     53.539  0.7930E+00  0.5499E+02
     53.805  0.7864E+00  0.5520E+02
     54.071  0.1242E+01  0.5553E+02
     54.338  0.1222E+01  0.5585E+02
     54.604  0.1011E+01  0.5612E+02
     54.870  0.7428E+00  0.5632E+02
     55.136  0.1080E+01  0.5661E+02
     55.403  0.1588E+01  0.5703E+02
     55.669  0.1239E+01  0.5736E+02
     55.935  0.1230E+01  0.5769E+02
     56.201  0.1053E+01  0.5797E+02
     56.468  0.1205E+01  0.5829E+02
     56.734  0.1105E+01  0.5858E+02
     57.000  0.1577E+01  0.5900E+02
     57.267  0.1421E+01  0.5938E+02
     57.533  0.1321E+01  0.5973E+02
     57.799  0.1052E+01  0.6001E+02
     58.065  0.8307E+00  0.6023E+02
     58.332  0.1340E+01  0.6059E+02
     58.598  0.2154E+01  0.6116E+02
     58.864  0.2446E+01  0.6182E+02
     59.130  0.1484E+01  0.6221E+02
     59.397  0.1158E+01  0.6252E+02
     59.663  0.1286E+01  0.6286E+02
     59.929  0.1472E+01  0.6325E+02
     60.195  0.1894E+01  0.6376E+02
     60.462  0.2194E+01  0.6434E+02
     60.728  0.1992E+01  0.6487E+02
     60.994  0.2250E+01  0.6547E+02
     61.260  0.2146E+01  0.6604E+02
     61.527  0.1961E+01  0.6656E+02
     61.793  0.1713E+01  0.6702E+02
     62.059  0.1771E+01  0.6749E+02
     62.326  0.1311E+01  0.6784E+02
     62.592  0.1077E+01  0.6813E+02
     62.858  0.1758E+01  0.6860E+02
     63.124  0.1365E+01  0.6896E+02
     63.391  0.1691E+01  0.6941E+02
     63.657  0.2149E+01  0.6998E+02
     63.923  0.1824E+01  0.7047E+02
     64.189  0.1492E+01  0.7087E+02
     64.456  0.1255E+01  0.7120E+02
     64.722  0.1833E+01  0.7169E+02
     64.988  0.1651E+01  0.7213E+02
     65.254  0.1487E+01  0.7252E+02
     65.521  0.1275E+01  0.7286E+02
     65.787  0.1135E+01  0.7316E+02
     66.053  0.1180E+01  0.7348E+02
     66.319  0.1870E+01  0.7398E+02
     66.586  0.2368E+01  0.7461E+02
     66.852  0.1747E+01  0.7507E+02
     67.118  0.2251E+01  0.7567E+02
     67.385  0.1825E+01  0.7616E+02
     67.651  0.1259E+01  0.7649E+02
     67.917  0.1715E+01  0.7695E+02
     68.183  0.1550E+01  0.7736E+02
     68.450  0.1441E+01  0.7775E+02
     68.716  0.1208E+01  0.7807E+02
     68.982  0.1614E+01  0.7850E+02
     69.248  0.1423E+01  0.7888E+02
     69.515  0.1502E+01  0.7928E+02
     69.781  0.1056E+01  0.7956E+02
     70.047  0.9960E+00  0.7982E+02
     70.313  0.4349E+00  0.7994E+02
     70.580  0.1633E+00  0.7998E+02
     70.846  0.8908E-02  0.7998E+02
     71.112  0.5757E-01  0.8000E+02
     71.378  0.2100E-03  0.8000E+02
     71.645 -0.2914E-03  0.8000E+02
     71.911 -0.2760E-06  0.8000E+02
     72.177 -0.5876E-11  0.8000E+02
     72.444  0.0000E+00  0.8000E+02
     72.710  0.0000E+00  0.8000E+02
     72.976  0.0000E+00  0.8000E+02
     73.242  0.0000E+00  0.8000E+02
     73.509  0.0000E+00  0.8000E+02
     73.775  0.0000E+00  0.8000E+02
     74.041  0.0000E+00  0.8000E+02
     74.307  0.0000E+00  0.8000E+02
     74.574  0.0000E+00  0.8000E+02
