    2    2    1    1
  0.9638209E+01  0.2330000E-09  0.2330000E-09  0.4100000E-09  0.5000000E-15
  1.000000000000000E-004
  CAR 
 unknown system                          
     16     96     40
 
  0.0000000E+00  0.0000000E+00  0.0000000E+00  0.7513148E-03
    1       -1.674553   1.000000
    2        2.226881   1.000000
    3        5.171927   1.000000
    4        5.839426   1.000000
    5        5.839507   1.000000
    6        6.174934   1.000000
    7        6.175030   1.000000
    8        6.801706   1.000001
    9        7.195778   1.017841
   10        7.195800   1.017846
   11        8.351671  -0.000000
   12        8.351695  -0.000000
   13       15.373811   0.000000
   14       31.438842   0.000000
   15       31.647123   0.000000
   16       34.564247   0.000000
   17       37.236712   0.000000
   18       37.236765   0.000000
   19       38.012241   0.000000
   20       38.012421   0.000000
   21       38.827809   0.000000
   22       40.696223   0.000000
   23       40.696237   0.000000
   24       41.745426   0.000000
   25       44.565041   0.000000
   26       44.565057   0.000000
   27       45.502540   0.000000
   28       48.641282   0.000000
   29       48.641689   0.000000
   30       50.573037   0.000000
   31       50.573174   0.000000
   32       53.180320   0.000000
   33       60.966546   0.000000
   34       62.970873   0.000000
   35       62.971770   0.000000
   36       63.025365   0.000000
   37       64.150558   0.000000
   38       65.600060   0.000000
   39       65.601154   0.000000
   40       67.180166   0.000000
 
  0.9090909E-01  0.2246612E-17  0.0000000E+00  0.4507889E-02
    1       -1.329525   1.000000
    2        2.486141   1.000000
    3        5.180123   1.000000
    4        5.776808   1.000000
    5        5.903824   1.000000
    6        6.047272   1.000000
    7        6.053725   1.000000
    8        6.369556   1.000000
    9        7.035558   1.001071
   10        7.074861   1.002482
   11        8.388141  -0.000000
   12        9.520741  -0.000000
   13       15.394854   0.000000
   14       30.268419   0.000000
   15       32.005039   0.000000
   16       32.980102   0.000000
   17       34.372260   0.000000
   18       36.558616   0.000000
   19       36.603513   0.000000
   20       38.684512   0.000000
   21       40.131390   0.000000
   22       41.030884   0.000000
   23       41.203682   0.000000
   24       41.715342   0.000000
   25       45.750457   0.000000
   26       46.007637   0.000000
   27       46.094669   0.000000
   28       46.344475   0.000000
   29       49.812225   0.000000
   30       51.972625   0.000000
   31       53.072198   0.000000
   32       55.047746   0.000000
   33       59.967883   0.000000
   34       61.924085   0.000000
   35       62.128844   0.000000
   36       62.664421   0.000000
   37       62.773033   0.000000
   38       66.386500   0.000000
   39       67.148081   0.000000
   40       67.729096   0.000000
 
  0.1818182E+00  0.8656561E-17  0.0000000E+00  0.4507889E-02
    1       -0.356785   1.000000
    2        3.092416   1.000000
    3        4.767709   1.000000
    4        4.976999   1.000000
    5        5.585447   1.000000
    6        6.193753   1.000000
    7        6.624406   1.000000
    8        6.651386   1.000000
    9        6.787119   1.000001
   10        6.901012   1.000031
   11        8.445100  -0.000000
   12       11.428064  -0.000000
   13       15.487773   0.000000
   14       26.559716   0.000000
   15       31.431688   0.000000
   16       31.700706   0.000000
   17       32.026641   0.000000
   18       33.034898   0.000000
   19       37.253598   0.000000
   20       38.188650   0.000000
   21       38.781474   0.000000
   22       39.242723   0.000000
   23       42.133183   0.000000
   24       43.142869   0.000000
   25       45.896911   0.000000
   26       46.909542   0.000000
   27       48.422594   0.000000
   28       50.717553   0.000000
   29       52.817417   0.000000
   30       55.163633   0.000000
   31       55.801928   0.000000
   32       58.401333   0.000000
   33       58.426709   0.000000
   34       59.329650   0.000000
   35       60.212051   0.000000
   36       61.602494   0.000000
   37       63.618165   0.000000
   38       67.011306   0.000000
   39       67.346529   0.000000
   40       68.180324   0.000000
 
  0.2727273E+00  0.1898699E-16  0.0000000E+00  0.4507889E-02
    1        1.010814   1.000000
    2        3.368742   1.000000
    3        3.882395   1.000000
    4        4.932745   1.000000
    5        5.403829   1.000000
    6        6.173480   1.000000
    7        6.462196   1.000000
    8        6.998713   1.000449
    9        7.445719   0.851221
   10        7.648309   0.105526
   11        8.479675  -0.000000
   12       13.577221   0.000000
   13       15.701202   0.000000
   14       22.513466   0.000000
   15       28.373429   0.000000
   16       28.927557   0.000000
   17       30.107227   0.000000
   18       32.938476   0.000000
   19       35.456089   0.000000
   20       38.576859   0.000000
   21       38.596118   0.000000
   22       39.134385   0.000000
   23       39.704130   0.000000
   24       43.387448   0.000000
   25       49.488475   0.000000
   26       51.012692   0.000000
   27       51.991382   0.000000
   28       53.334941   0.000000
   29       54.403888   0.000000
   30       55.572978   0.000000
   31       57.102877   0.000000
   32       58.673262   0.000000
   33       59.868691   0.000000
   34       60.175705   0.000000
   35       61.170069   0.000000
   36       63.166748   0.000000
   37       64.280047   0.000000
   38       66.889409   0.000000
   39       68.035453   0.000000
   40       68.353515   0.000000
 
  0.3636364E+00  0.1314979E-16  0.0000000E+00  0.4507889E-02
    1        2.201917   1.000000
    2        3.081487   1.000000
    3        3.291463   1.000000
    4        5.129393   1.000000
    5        5.747843   1.000000
    6        5.829267   1.000000
    7        6.193040   1.000000
    8        8.274320  -0.000001
    9        8.312964  -0.000000
   10        8.401814  -0.000000
   11        8.485764  -0.000000
   12       15.568929   0.000000
   13       15.866229   0.000000
   14       19.584553   0.000000
   15       25.038719   0.000000
   16       27.006212   0.000000
   17       27.280381   0.000000
   18       32.067796   0.000000
   19       34.353578   0.000000
   20       37.601393   0.000000
   21       38.188081   0.000000
   22       40.019574   0.000000
   23       40.618913   0.000000
   24       43.610905   0.000000
   25       51.087713   0.000000
   26       52.364976   0.000000
   27       53.010218   0.000000
   28       56.213172   0.000000
   29       56.359322   0.000000
   30       56.835283   0.000000
   31       58.966323   0.000000
   32       60.006374   0.000000
   33       60.592529   0.000000
   34       61.159449   0.000000
   35       62.960813   0.000000
   36       64.550602   0.000000
   37       66.519080   0.000000
   38       67.234891   0.000000
   39       67.913863   0.000000
   40       68.315941   0.000000
 
  0.4545455E+00 -0.1120294E-18  0.0000000E+00  0.4507889E-02
    1        2.623225   1.000000
    2        2.856114   1.000000
    3        2.998342   1.000000
    4        5.500846   1.000000
    5        5.710106   1.000000
    6        6.042152   1.000000
    7        6.083871   1.000000
    8        8.483104  -0.000000
    9        8.787531  -0.000000
   10        8.910991  -0.000000
   11       10.083724  -0.000000
   12       13.661187   0.000000
   13       18.025705   0.000000
   14       19.557474   0.000000
   15       22.378551   0.000000
   16       24.563563   0.000000
   17       25.930685   0.000000
   18       31.432261   0.000000
   19       34.017080   0.000000
   20       36.428904   0.000000
   21       37.977903   0.000000
   22       40.944704   0.000000
   23       42.913252   0.000000
   24       43.443661   0.000000
   25       47.703753   0.000000
   26       52.977573   0.000000
   27       54.285460   0.000000
   28       58.339178   0.000000
   29       58.424277   0.000000
   30       59.382804   0.000000
   31       60.590086   0.000000
   32       61.538456   0.000000
   33       61.578519   0.000000
   34       63.415412   0.000000
   35       64.000331   0.000000
   36       65.407987   0.000000
   37       66.676596   0.000000
   38       66.877811   0.000000
   39       68.289101   0.000000
   40       68.820264   0.000000
 
  0.9090909E-01  0.9090909E-01  0.0000000E+00  0.4507889E-02
    1       -0.667646   1.000000
    2        2.939401   1.000000
    3        5.014773   1.000000
    4        5.066905   1.000000
    5        5.820286   1.000000
    6        5.855948   1.000000
    7        6.469530   1.000000
    8        6.613903   1.000000
    9        6.781940   1.000001
   10        7.035782   1.001076
   11        8.399024  -0.000000
   12       10.897536  -0.000000
   13       15.455841   0.000000
   14       28.274024   0.000000
   15       29.693097   0.000000
   16       32.509088   0.000000
   17       33.702505   0.000000
   18       35.312508   0.000000
   19       35.568014   0.000000
   20       37.222715   0.000000
   21       38.300675   0.000000
   22       42.900337   0.000000
   23       42.906941   0.000000
   24       43.881876   0.000000
   25       44.668318   0.000000
   26       44.986785   0.000000
   27       45.196234   0.000000
   28       51.232746   0.000000
   29       53.412652   0.000000
   30       53.793396   0.000000
   31       53.933303   0.000000
   32       57.676881   0.000000
   33       58.835825   0.000000
   34       60.053472   0.000000
   35       60.876359   0.000000
   36       61.661943   0.000000
   37       62.906313   0.000000
   38       67.040365   0.000000
   39       67.521670   0.000000
   40       68.676897   0.000000
 
  0.1818182E+00  0.9090909E-01  0.0000000E+00  0.9015778E-02
    1        0.530764   1.000000
    2        3.510883   1.000000
    3        4.204361   1.000000
    4        4.689675   1.000000
    5        5.505540   1.000000
    6        6.148493   1.000000
    7        6.324633   1.000000
    8        6.764006   1.000000
    9        7.225699   1.024606
   10        7.554392   0.435267
   11        8.398649  -0.000000
   12       12.824684  -0.000000
   13       15.656646   0.000000
   14       24.580577   0.000000
   15       27.253350   0.000000
   16       30.192861   0.000000
   17       32.399900   0.000000
   18       32.980939   0.000000
   19       36.186312   0.000000
   20       36.436085   0.000000
   21       37.504476   0.000000
   22       42.122800   0.000000
   23       42.298863   0.000000
   24       43.540331   0.000000
   25       46.611165   0.000000
   26       47.479960   0.000000
   27       49.522107   0.000000
   28       53.669214   0.000000
   29       55.798533   0.000000
   30       56.071576   0.000000
   31       56.600329   0.000000
   32       58.655450   0.000000
   33       59.266377   0.000000
   34       59.815202   0.000000
   35       60.657894   0.000000
   36       61.136851   0.000000
   37       63.620601   0.000000
   38       67.019620   0.000000
   39       68.032124   0.000000
   40       68.938241   0.000000
 
  0.2727273E+00  0.9090909E-01  0.0000000E+00  0.9015778E-02
    1        1.907938   1.000000
    2        3.431872   1.000000
    3        3.554305   1.000000
    4        4.781607   1.000000
    5        5.581638   1.000000
    6        5.767871   1.000000
    7        6.372520   1.000000
    8        7.150750   1.009614
    9        8.056239  -0.000782
   10        8.389682  -0.000000
   11        8.560179  -0.000000
   12       15.016937   0.000000
   13       15.982242   0.000000
   14       20.841230   0.000000
   15       25.494409   0.000000
   16       26.782654   0.000000
   17       29.642892   0.000000
   18       31.251546   0.000000
   19       35.455295   0.000000
   20       36.663144   0.000000
   21       37.895115   0.000000
   22       41.601405   0.000000
   23       41.820741   0.000000
   24       44.699124   0.000000
   25       48.637778   0.000000
   26       51.303719   0.000000
   27       52.742946   0.000000
   28       53.224018   0.000000
   29       54.833219   0.000000
   30       57.241426   0.000000
   31       58.285960   0.000000
   32       60.031039   0.000000
   33       60.912069   0.000000
   34       60.983605   0.000000
   35       62.351090   0.000000
   36       64.037631   0.000000
   37       66.290428   0.000000
   38       66.849960   0.000000
   39       67.326827   0.000000
   40       69.159457   0.000000
 
  0.3636364E+00  0.9090909E-01  0.0000000E+00  0.9015778E-02
    1        2.731382   1.000000
    2        3.110217   1.000000
    3        3.163495   1.000000
    4        5.228425   1.000000
    5        5.535687   1.000000
    6        5.976096   1.000000
    7        6.030926   1.000000
    8        8.132161  -0.000113
    9        8.372553  -0.000000
   10        8.631384  -0.000000
   11        9.836182  -0.000000
   12       15.112701   0.000000
   13       17.318171   0.000000
   14       19.355084   0.000000
   15       23.750911   0.000000
   16       24.108132   0.000000
   17       26.387805   0.000000
   18       30.329943   0.000000
   19       34.488309   0.000000
   20       36.146354   0.000000
   21       39.103507   0.000000
   22       41.958020   0.000000
   23       42.805258   0.000000
   24       44.255020   0.000000
   25       49.681485   0.000000
   26       51.403781   0.000000
   27       53.218358   0.000000
   28       55.013267   0.000000
   29       56.656075   0.000000
   30       58.576682   0.000000
   31       59.483570   0.000000
   32       60.981088   0.000000
   33       61.699018   0.000000
   34       63.919517   0.000000
   35       64.644432   0.000000
   36       65.527642   0.000000
   37       65.599891   0.000000
   38       67.560543   0.000000
   39       68.256966   0.000000
   40       69.105788   0.000000
 
  0.4545455E+00  0.9090909E-01  0.0000000E+00  0.4507889E-02
    1        2.834055   1.000000
    2        3.034347   1.000000
    3        3.034868   1.000000
    4        5.465219   1.000000
    5        5.637083   1.000000
    6        5.892655   1.000000
    7        6.093323   1.000000
    8        8.365311  -0.000000
    9        8.692682  -0.000000
   10        8.718767  -0.000000
   11       11.109012  -0.000000
   12       13.372631   0.000000
   13       18.880753   0.000000
   14       20.004729   0.000000
   15       21.952339   0.000000
   16       23.250021   0.000000
   17       24.915436   0.000000
   18       30.009404   0.000000
   19       34.084872   0.000000
   20       36.002286   0.000000
   21       39.341603   0.000000
   22       42.839923   0.000000
   23       43.133752   0.000000
   24       44.494848   0.000000
   25       47.435741   0.000000
   26       52.927666   0.000000
   27       53.236697   0.000000
   28       55.823517   0.000000
   29       58.453683   0.000000
   30       58.650820   0.000000
   31       61.764007   0.000000
   32       61.880462   0.000000
   33       61.885790   0.000000
   34       62.185530   0.000000
   35       64.455766   0.000000
   36       67.037249   0.000000
   37       67.449927   0.000000
   38       67.513285   0.000000
   39       67.772080   0.000000
   40       70.244455   0.000000
 
  0.1818182E+00  0.1818182E+00  0.0000000E+00  0.4507889E-02
    1        1.822360   1.000000
    2        3.709754   1.000000
    3        3.976923   1.000000
    4        4.211513   1.000000
    5        5.572772   1.000000
    6        5.675247   1.000000
    7        6.522164   1.000000
    8        6.587411   1.000000
    9        8.030756  -0.001391
   10        8.283336  -0.000001
   11        8.632124  -0.000000
   12       14.749308   0.000000
   13       16.140258   0.000000
   14       22.546227   0.000000
   15       23.388924   0.000000
   16       28.282246   0.000000
   17       29.824809   0.000000
   18       32.017543   0.000000
   19       32.738872   0.000000
   20       37.437543   0.000000
   21       39.176738   0.000000
   22       43.183322   0.000000
   23       43.471718   0.000000
   24       45.717958   0.000000
   25       46.506318   0.000000
   26       48.588808   0.000000
   27       49.847083   0.000000
   28       54.658606   0.000000
   29       55.675672   0.000000
   30       56.864643   0.000000
   31       56.994354   0.000000
   32       60.402074   0.000000
   33       60.453491   0.000000
   34       62.940720   0.000000
   35       63.299354   0.000000
   36       63.405162   0.000000
   37       63.724704   0.000000
   38       66.925403   0.000000
   39       67.332111   0.000000
   40       70.097068   0.000000
 
  0.2727273E+00  0.1818182E+00  0.0000000E+00  0.9015778E-02
    1        3.034964   1.000000
    2        3.387482   1.000000
    3        3.672224   1.000000
    4        4.445430   1.000000
    5        5.404547   1.000000
    6        5.872220   1.000000
    7        6.097936   1.000000
    8        7.195335   1.017747
    9        8.183803  -0.000025
   10        8.563598  -0.000000
   11        9.989454  -0.000000
   12       16.652983   0.000000
   13       16.980446   0.000000
   14       19.640384   0.000000
   15       21.715923   0.000000
   16       25.662931   0.000000
   17       28.169018   0.000000
   18       28.503550   0.000000
   19       31.406004   0.000000
   20       39.615513   0.000000
   21       39.679236   0.000000
   22       43.128400   0.000000
   23       45.283575   0.000000
   24       46.630396   0.000000
   25       47.737421   0.000000
   26       49.692294   0.000000
   27       51.063096   0.000000
   28       52.522178   0.000000
   29       55.734457   0.000000
   30       56.676061   0.000000
   31       58.843121   0.000000
   32       60.982704   0.000000
   33       62.089352   0.000000
   34       63.432454   0.000000
   35       65.313636   0.000000
   36       65.574338   0.000000
   37       66.877548   0.000000
   38       67.571620   0.000000
   39       68.780522   0.000000
   40       70.302021   0.000000
 
  0.3636364E+00  0.1818182E+00  0.0000000E+00  0.9015778E-02
    1        3.238021   1.000000
    2        3.360129   1.000000
    3        3.507779   1.000000
    4        4.984334   1.000000
    5        5.390275   1.000000
    6        5.685400   1.000000
    7        6.158301   1.000000
    8        7.949421  -0.006736
    9        8.127730  -0.000128
   10        8.574861  -0.000000
   11       11.659437  -0.000000
   12       14.830745   0.000000
   13       19.260837   0.000000
   14       19.927104   0.000000
   15       20.868079   0.000000
   16       22.969965   0.000000
   17       25.520814   0.000000
   18       27.537704   0.000000
   19       30.744719   0.000000
   20       39.639583   0.000000
   21       41.581097   0.000000
   22       43.461868   0.000000
   23       44.983865   0.000000
   24       45.971560   0.000000
   25       49.807661   0.000000
   26       50.193391   0.000000
   27       52.014298   0.000000
   28       52.630419   0.000000
   29       56.474932   0.000000
   30       57.547197   0.000000
   31       58.206244   0.000000
   32       61.192300   0.000000
   33       61.865020   0.000000
   34       62.153554   0.000000
   35       66.495932   0.000000
   36       66.838811   0.000000
   37       68.570937   0.000000
   38       68.624320   0.000000
   39       68.963989   0.000000
   40       69.260908   0.000000
 
  0.2727273E+00  0.2727273E+00  0.0000000E+00  0.4507889E-02
    1        3.379820   1.000000
    2        3.791358   1.000000
    3        4.134041   1.000000
    4        4.146058   1.000000
    5        5.238162   1.000000
    6        5.679506   1.000000
    7        6.200998   1.000000
    8        7.477963   0.745575
    9        8.003590  -0.002464
   10        8.538531  -0.000000
   11       11.803425  -0.000000
   12       16.989420   0.000000
   13       17.568964   0.000000
   14       19.297944   0.000000
   15       20.690941   0.000000
   16       24.954417   0.000000
   17       25.136015   0.000000
   18       27.264116   0.000000
   19       28.146782   0.000000
   20       41.274787   0.000000
   21       42.212970   0.000000
   22       45.859330   0.000000
   23       46.865734   0.000000
   24       47.447295   0.000000
   25       47.639061   0.000000
   26       48.183222   0.000000
   27       50.817822   0.000000
   28       53.347917   0.000000
   29       53.636589   0.000000
   30       57.300865   0.000000
   31       57.832913   0.000000
   32       60.408998   0.000000
   33       61.761035   0.000000
   34       62.310745   0.000000
   35       66.320103   0.000000
   36       67.268187   0.000000
   37       67.363529   0.000000
   38       68.760218   0.000000
   39       69.420118   0.000000
   40       70.513563   0.000000
 
  0.3636364E+00  0.2727273E+00  0.0000000E+00  0.4507889E-02
    1        3.408189   1.000000
    2        3.923435   1.000000
    3        3.994668   1.000000
    4        4.518577   1.000000
    5        5.310987   1.000000
    6        5.358087   1.000000
    7        6.355176   1.000000
    8        7.876665  -0.019069
    9        7.934345  -0.008619
   10        8.203113  -0.000014
   11       13.607971   0.000000
   12       14.987657   0.000000
   13       17.183825   0.000000
   14       21.313310   0.000000
   15       21.660541   0.000000
   16       22.788455   0.000000
   17       24.799026   0.000000
   18       25.566839   0.000000
   19       27.529369   0.000000
   20       41.667319   0.000000
   21       44.574193   0.000000
   22       45.722415   0.000000
   23       46.041084   0.000000
   24       46.893165   0.000000
   25       48.502290   0.000000
   26       49.263451   0.000000
   27       52.508270   0.000000
   28       52.682696   0.000000
   29       53.033559   0.000000
   30       56.468252   0.000000
   31       57.798580   0.000000
   32       58.414763   0.000000
   33       61.429394   0.000000
   34       61.771565   0.000000
   35       66.444895   0.000000
   36       67.470947   0.000000
   37       69.045930   0.000000
   38       69.185046   0.000000
   39       69.493320   0.000000
   40       69.668233   0.000000
 
  0.0000000E+00  0.0000000E+00  0.9090909E-01  0.1502630E-02
    1       -1.591060   1.000000
    2        2.198921   1.000000
    3        5.148630   1.000000
    4        5.830190   1.000000
    5        5.830270   1.000000
    6        6.156528   1.000000
    7        6.156623   1.000000
    8        6.576273   1.000000
    9        7.236597   1.027103
   10        7.236620   1.027108
   11        8.341924  -0.000000
   12        8.341949  -0.000000
   13       15.757520   0.000000
   14       30.757388   0.000000
   15       31.775286   0.000000
   16       34.388670   0.000000
   17       37.283611   0.000000
   18       37.283657   0.000000
   19       38.020843   0.000000
   20       38.021016   0.000000
   21       39.290442   0.000000
   22       40.628081   0.000000
   23       40.628103   0.000000
   24       42.013102   0.000000
   25       44.235146   0.000000
   26       44.235158   0.000000
   27       45.747363   0.000000
   28       48.895104   0.000000
   29       48.895492   0.000000
   30       50.980655   0.000000
   31       50.980783   0.000000
   32       53.022071   0.000000
   33       60.126673   0.000000
   34       62.759159   0.000000
   35       62.760016   0.000000
   36       63.182352   0.000000
   37       64.212258   0.000000
   38       64.212842   0.000000
   39       65.090502   0.000000
   40       66.389116   0.000000
 
  0.9090909E-01  0.2246612E-17  0.9090909E-01  0.9015778E-02
    1       -1.248057   1.000000
    2        2.462567   1.000000
    3        5.169378   1.000000
    4        5.725286   1.000000
    5        5.743850   1.000000
    6        6.032996   1.000000
    7        6.101634   1.000000
    8        6.347593   1.000000
    9        7.084875   1.003030
   10        7.122835   1.006099
   11        8.373153  -0.000000
   12        9.363137  -0.000000
   13       15.812949   0.000000
   14       30.213500   0.000000
   15       31.458643   0.000000
   16       32.969703   0.000000
   17       34.422983   0.000000
   18       35.852185   0.000000
   19       37.259220   0.000000
   20       38.954157   0.000000
   21       39.839675   0.000000
   22       41.108642   0.000000
   23       41.301532   0.000000
   24       41.968435   0.000000
   25       45.392256   0.000000
   26       45.675729   0.000000
   27       46.768427   0.000000
   28       46.836783   0.000000
   29       49.692491   0.000000
   30       52.240351   0.000000
   31       53.290343   0.000000
   32       54.971891   0.000000
   33       58.783762   0.000000
   34       61.453402   0.000000
   35       62.283515   0.000000
   36       62.782804   0.000000
   37       63.489137   0.000000
   38       65.253808   0.000000
   39       66.433821   0.000000
   40       66.553366   0.000000
 
  0.1818182E+00  0.8656561E-17  0.9090909E-01  0.9015778E-02
    1       -0.283528   1.000000
    2        3.083250   1.000000
    3        4.681535   1.000000
    4        4.995618   1.000000
    5        5.551570   1.000000
    6        6.111173   1.000000
    7        6.565027   1.000000
    8        6.776522   1.000000
    9        6.819023   1.000002
   10        6.948144   1.000120
   11        8.425829  -0.000000
   12       11.071490  -0.000000
   13       16.032800   0.000000
   14       26.617383   0.000000
   15       31.089733   0.000000
   16       31.525581   0.000000
   17       32.448562   0.000000
   18       32.486409   0.000000
   19       36.894996   0.000000
   20       38.349901   0.000000
   21       38.781095   0.000000
   22       39.422868   0.000000
   23       42.490380   0.000000
   24       43.703147   0.000000
   25       46.156904   0.000000
   26       46.872594   0.000000
   27       48.215864   0.000000
   28       50.772282   0.000000
   29       52.612916   0.000000
   30       55.283526   0.000000
   31       56.112436   0.000000
   32       57.104944   0.000000
   33       58.094932   0.000000
   34       59.734836   0.000000
   35       60.609074   0.000000
   36       61.863338   0.000000
   37       63.615834   0.000000
   38       66.301817   0.000000
   39       66.908944   0.000000
   40       68.330809   0.000000
 
  0.2727273E+00  0.1898699E-16  0.9090909E-01  0.9015778E-02
    1        1.059997   1.000000
    2        3.369407   1.000000
    3        3.857653   1.000000
    4        4.938150   1.000000
    5        5.357659   1.000000
    6        6.194651   1.000000
    7        6.485336   1.000000
    8        7.040970   1.001209
    9        7.456571   0.818245
   10        7.631667   0.150826
   11        8.457411  -0.000000
   12       12.867593  -0.000000
   13       16.543817   0.000000
   14       22.580290   0.000000
   15       27.943812   0.000000
   16       29.036953   0.000000
   17       30.406944   0.000000
   18       32.726310   0.000000
   19       35.327307   0.000000
   20       37.626654   0.000000
   21       37.638309   0.000000
   22       40.127839   0.000000
   23       40.704293   0.000000
   24       44.111215   0.000000
   25       49.596213   0.000000
   26       50.753047   0.000000
   27       51.633927   0.000000
   28       51.808099   0.000000
   29       55.583569   0.000000
   30       55.810496   0.000000
   31       57.385081   0.000000
   32       58.911477   0.000000
   33       59.413838   0.000000
   34       59.607606   0.000000
   35       61.721297   0.000000
   36       62.810905   0.000000
   37       64.565541   0.000000
   38       66.815326   0.000000
   39       66.908308   0.000000
   40       68.433121   0.000000
 
  0.3636364E+00  0.1314979E-16  0.9090909E-01  0.9015778E-02
    1        2.185822   1.000000
    2        3.043558   1.000000
    3        3.392982   1.000000
    4        4.900933   1.000000
    5        5.830950   1.000000
    6        6.042278   1.000000
    7        6.229780   1.000000
    8        8.274695  -0.000001
    9        8.275171  -0.000001
   10        8.321781  -0.000000
   11        8.516937  -0.000000
   12       14.293928   0.000000
   13       17.148499   0.000000
   14       19.701821   0.000000
   15       24.658718   0.000000
   16       27.132430   0.000000
   17       27.705192   0.000000
   18       32.038680   0.000000
   19       34.330112   0.000000
   20       36.361656   0.000000
   21       38.578133   0.000000
   22       39.467940   0.000000
   23       41.454555   0.000000
   24       44.469746   0.000000
   25       49.673500   0.000000
   26       52.844802   0.000000
   27       53.716098   0.000000
   28       55.218403   0.000000
   29       56.063867   0.000000
   30       57.850461   0.000000
   31       58.853749   0.000000
   32       59.900691   0.000000
   33       61.092341   0.000000
   34       61.097270   0.000000
   35       63.041869   0.000000
   36       64.508967   0.000000
   37       66.241787   0.000000
   38       66.714140   0.000000
   39       68.338073   0.000000
   40       68.482996   0.000000
 
  0.4545455E+00 -0.1120294E-18  0.9090909E-01  0.9015778E-02
    1        2.549625   1.000000
    2        2.726521   1.000000
    3        3.263179   1.000000
    4        4.973368   1.000000
    5        6.034902   1.000000
    6        6.083697   1.000000
    7        6.379979   1.000000
    8        8.417216  -0.000000
    9        8.793774  -0.000000
   10        8.912131  -0.000000
   11        9.987900  -0.000000
   12       13.464742   0.000000
   13       17.897740   0.000000
   14       19.602885   0.000000
   15       22.484750   0.000000
   16       24.946915   0.000000
   17       26.064664   0.000000
   18       31.438828   0.000000
   19       33.994691   0.000000
   20       35.483255   0.000000
   21       38.976794   0.000000