unknown system                          
   1.00000000000000     
     3.866000    0.000000    0.000000
     0.000000    3.866000    0.000000
     0.000000    0.000000    3.866000
   Pd   Ir   Pt   Cu
     1     1     1     1
Direct
  0.000000  0.000000  0.000000
  0.500000  0.500000  0.000000
  0.500000  0.000000  0.500000
  0.000000  0.500000  0.500000
 
   24   24   24
  332.80      307.48      246.38      178.29      120.97      77.300      46.084      25.618      13.478      10.083    
  9.5998      7.7244      6.3591      7.7244      9.5998      10.083      13.478      25.618      46.084      77.300    
  120.97      178.29      246.38      307.48      307.51      284.15      227.81      165.13      112.45      72.380    
  43.744      24.727      13.454      10.463      10.183      8.5946      7.3958      8.5946      10.183      10.463    
  13.454      24.727      43.744      72.380      112.45      165.13      227.81      284.15      245.14      226.70    
  182.31      133.03      91.706      60.376      37.960      22.393      13.313      11.167      11.204      10.211    
  9.3886      10.211      11.204      11.167      13.313      22.393      37.960      60.376      91.706      133.03    
  182.31      226.70      173.97      161.32      130.87      96.966      68.405      46.796      31.171      19.575    
  13.311      12.073      12.367      12.024      11.637      12.024      12.367      12.073      13.311      19.575    
  31.171      46.796      68.405      96.966      130.87      161.32      114.90      107.18      88.448      67.263    
  49.130      35.353      24.984      17.623      14.582      14.781      15.941      16.643      16.806      16.643    
  15.941      14.781      14.582      17.623      24.984      35.353      49.130      67.263      88.448      107.18    
  72.898      68.629      58.115      45.892      35.123      26.654      20.511      17.819      18.492      21.243    
  24.615      27.309      28.335      27.309      24.615      21.243      18.492      17.819      20.511      26.654    
  35.123      45.892      58.115      68.629      44.385      42.317      37.102      30.752      24.766      20.391    
  18.944      20.770      25.380      32.023      39.262      45.015      47.227      45.015      39.262      32.023    
  25.380      20.770      18.944      20.391      24.766      30.752      37.102      42.317      25.219      24.383    
  22.161      19.410      17.436      17.579      20.559      26.421      35.114      45.798      56.684      65.074    
  68.261      65.074      56.684      45.798      35.114      26.421      20.559      17.579      17.436      19.410    
  22.161      24.383      13.336      13.299      13.137      13.116      14.323      18.088      24.821      34.553    
  46.582      59.802      72.619      82.384      86.096      82.384      72.619      59.802      46.582      34.553    
  24.821      18.088      14.323      13.116      13.137      13.299      9.4332      9.8088      10.560      11.599    
  14.366      20.617      30.861      44.182      58.611      73.143      87.094      98.065      102.35      98.065    
  87.094      73.143      58.611      44.182      30.861      20.617      14.366      11.599      10.560      9.8088    
  8.3133      8.9348      10.145      11.646      15.394      23.699      37.255      53.747      70.186      86.223    
  102.33      115.83      121.28      115.83      102.33      86.223      70.186      53.747      37.255      23.699    
  15.394      11.646      10.145      8.9348      6.1457      7.0832      8.9768      11.238      16.044      26.110    
  42.220      61.063      79.219      97.179      116.27      133.02      139.93      133.02      116.27      97.179    
  79.219      61.063      42.220      26.110      16.044      11.238      8.9768      7.0832      4.7382      5.8496    
  8.1425      10.862      16.200      27.014      44.108      63.845      82.730      101.64      122.20      140.50    
  148.10      140.50      122.20      101.64      82.730      63.845      44.108      27.014      16.200      10.862    
  8.1425      5.8496      6.1457      7.0832      8.9768      11.238      16.044      26.110      42.220      61.063    
  79.219      97.179      116.27      133.02      139.93      133.02      116.27      97.179      79.219      61.063    
  42.220      26.110      16.044      11.238      8.9768      7.0832      8.3133      8.9348      10.145      11.646    
  15.394      23.699      37.255      53.747      70.186      86.223      102.33      115.83      121.28      115.83    
  102.33      86.223      70.186      53.747      37.255      23.699      15.394      11.646      10.145      8.9348    
  9.4332      9.8088      10.560      11.599      14.366      20.617      30.861      44.182      58.611      73.143    
  87.094      98.065      102.35      98.065      87.094      73.143      58.611      44.182      30.861      20.617    
  14.366      11.599      10.560      9.8088      13.336      13.299      13.137      13.116      14.323      18.088    
  24.821      34.553      46.582      59.802      72.619      82.384      86.096      82.384      72.619      59.802    
  46.582      34.553      24.821      18.088      14.323      13.116      13.137      13.299      25.219      24.383    
  22.161      19.410      17.436      17.579      20.559      26.421      35.114      45.798      56.684      65.074    
  68.261      65.074      56.684      45.798      35.114      26.421      20.559      17.579      17.436      19.410    
  22.161      24.383      44.385      42.317      37.102      30.752      24.766      20.391      18.944      20.770    
  25.380      32.023      39.262      45.015      47.227      45.015      39.262      32.023      25.380      20.770    
  18.944      20.391      24.766      30.752      37.102      42.317      72.898      68.629      58.115      45.892    
  35.123      26.654      20.511      17.819      18.492      21.243      24.615      27.309      28.335      27.309    
  24.615      21.243      18.492      17.819      20.511      26.654      35.123      45.892      58.115      68.629    
  114.90      107.18      88.448      67.263      49.130      35.353      24.984      17.623      14.582      14.781    
  15.941      16.643      16.806      16.643      15.941      14.781      14.582      17.623      24.984      35.353    
  49.130      67.263      88.448      107.18      173.97      161.32      130.87      96.966      68.405      46.796    
  31.171      19.575      13.311      12.073      12.367      12.024      11.637      12.024      12.367      12.073    
  13.311      19.575      31.171      46.796      68.405      96.966      130.87      161.32      245.14      226.70    
  182.31      133.03      91.706      60.376      37.960      22.393      13.313      11.167      11.204      10.211    
  9.3886      10.211      11.204      11.167      13.313      22.393      37.960      60.376      91.706      133.03    
  182.31      226.70      307.51      284.15      227.81      165.13      112.45      72.380      43.744      24.727    
  13.454      10.463      10.183      8.5946      7.3958      8.5946      10.183      10.463      13.454      24.727    
  43.744      72.380      112.45      165.13      227.81      284.15      308.08      284.85      228.75      166.04    
  113.03      72.586      43.752      24.701      13.459      10.532      10.333      8.8187      7.6508      8.8187    
  10.333      10.532      13.459      24.701      43.752      72.586      113.03      166.04      228.75      284.85    
  285.80      264.28      212.31      154.31      105.37      68.141      41.628      23.869      13.425      10.844    
  10.812      9.5576      8.5432      9.5576      10.812      10.844      13.425      23.869      41.628      68.141    
  105.37      154.31      212.31      264.28      230.31      213.11      171.64      125.45      86.597      57.231    
  36.333      21.683      13.267      11.408      11.619      10.888      10.215      10.888      11.619      11.408    
  13.267      21.683      36.333      57.231      86.597      125.45      171.64      213.11      165.62      153.65    
  124.74      92.434      65.205      44.735      30.001      19.031      13.241      12.174      12.563      12.382    
  12.089      12.382      12.563      12.174      13.241      19.031      30.001      44.735      65.205      92.434    
  124.74      153.65      110.33      102.93      84.962      64.594      47.186      34.029      24.099      17.187    
  14.421      14.678      15.830      16.559      16.745      16.559      15.830      14.678      14.421      17.187    
  24.099      34.029      47.186      64.594      84.962      102.93      70.018      65.940      55.891      44.203    
  33.898      25.728      19.866      17.388      18.114      20.770      23.947      26.457      27.407      26.457    
  23.947      20.770      18.114      17.388      19.866      25.728      33.898      44.203      55.891      65.940    
  42.542      40.590      35.666      29.650      23.930      19.787      18.456      20.252      24.660      30.932    
  37.696      43.025      45.064      43.025      37.696      30.932      24.660      20.252      18.456      19.787    
  23.930      29.650      35.666      40.590      24.131      23.332      21.235      18.693      16.934      17.179    
  20.099      25.714      33.991      44.107      54.313      62.103      65.044      62.103      54.313      44.107    
  33.991      25.714      20.099      17.179      16.934      18.693      21.235      23.332      12.935      12.876    
  12.694      12.708      13.961      17.682      24.227      33.628      45.244      57.883      69.901      78.886    
  82.265      78.886      69.901      57.883      45.244      33.628      24.227      17.682      13.961      12.708    
  12.694      12.876      9.6385      9.9096      10.447      11.314      13.959      20.059      30.044      43.135    
  57.359      71.383      84.306      94.112      97.869      94.112      84.306      71.383      57.359      43.135    
  30.044      20.059      13.959      11.314      10.447      9.9096      9.1672      9.5996      10.395      11.502    
  14.943      22.965      36.245      52.710      69.213      84.725      99.322      110.97      115.58      110.97    
  99.322      84.725      69.213      52.710      36.245      22.965      14.943      11.502      10.395      9.5996    
  7.7229      8.3954      9.6860      11.331      15.636      25.273      41.101      60.101      78.512      95.823    
  112.83      127.01      132.74      127.01      112.83      95.823      78.512      60.101      41.101      25.273    
  15.636      11.331      9.6860      8.3954      6.6619      7.4753      9.0822      11.084      15.832      26.148    
  42.957      62.922      82.128      100.32      118.53      133.94      140.22      133.94      118.53      100.32    
  82.128      62.922      42.957      26.148      15.832      11.084      9.0822      7.4753      7.7229      8.3954    
  9.6860      11.331      15.636      25.273      41.101      60.101      78.512      95.823      112.83      127.01    
  132.74      127.01      112.83      95.823      78.512      60.101      41.101      25.273      15.636      11.331    
  9.6860      8.3954      9.1672      9.5996      10.395      11.502      14.943      22.965      36.245      52.710    
  69.213      84.725      99.322      110.97      115.58      110.97      99.322      84.725      69.213      52.710    
  36.245      22.965      14.943      11.502      10.395      9.5996      9.6385      9.9096      10.447      11.314    
  13.959      20.059      30.044      43.135      57.359      71.383      84.306      94.112      97.869      94.112    
  84.306      71.383      57.359      43.135      30.044      20.059      13.959      11.314      10.447      9.9096    
  12.935      12.876      12.694      12.708      13.961      17.682      24.227      33.628      45.244      57.883    
  69.901      78.886      82.265      78.886      69.901      57.883      45.244      33.628      24.227      17.682    
  13.961      12.708      12.694      12.876      24.131      23.332      21.235      18.693      16.934      17.179    
  20.099      25.714      33.991      44.107      54.313      62.103      65.044      62.103      54.313      44.107    
  33.991      25.714      20.099      17.179      16.934      18.693      21.235      23.332      42.542      40.590    
  35.666      29.650      23.930      19.787      18.456      20.252      24.660      30.932      37.696      43.025    
  45.064      43.025      37.696      30.932      24.660      20.252      18.456      19.787      23.930      29.650    
  35.666      40.590      70.018      65.940      55.891      44.203      33.898      25.728      19.866      17.388    
  18.114      20.770      23.947      26.457      27.407      26.457      23.947      20.770      18.114      17.388    
  19.866      25.728      33.898      44.203      55.891      65.940      110.33      102.93      84.962      64.594    
  47.186      34.029      24.099      17.187      14.421      14.678      15.830      16.559      16.745      16.559    
  15.830      14.678      14.421      17.187      24.099      34.029      47.186      64.594      84.962      102.93    
  165.62      153.65      124.74      92.434      65.205      44.735      30.001      19.031      13.241      12.174    
  12.563      12.382      12.089      12.382      12.563      12.174      13.241      19.031      30.001      44.735    
  65.205      92.434      124.74      153.65      230.31      213.11      171.64      125.45      86.597      57.231    
  36.333      21.683      13.267      11.408      11.619      10.888      10.215      10.888      11.619      11.408    
  13.267      21.683      36.333      57.231      86.597      125.45      171.64      213.11      285.80      264.28    
  212.31      154.31      105.37      68.141      41.628      23.869      13.425      10.844      10.812      9.5576    
  8.5432      9.5576      10.812      10.844      13.425      23.869      41.628      68.141      105.37      154.31    
  212.31      264.28      246.55      228.52      184.79      135.43      93.175      60.834      37.916      22.266    
  13.254      11.236      11.429      10.581      9.8220      10.581      11.429      11.236      13.254      22.266    
  37.916      60.834      93.175      135.43      184.79      228.52      231.21      214.29      173.26      127.01    
  87.539      57.508      36.288      21.586      13.212      11.426      11.724      11.075      10.437      11.075    
  11.724      11.426      13.212      21.586      36.288      57.508      87.539      127.01      173.26      214.29    
  191.62      177.65      143.80      105.71      73.426      49.202      32.124      19.786      13.052      11.759    
  12.183      11.916      11.537      11.916      12.183      11.759      13.052      19.786      32.124      49.202    
  73.426      105.71      143.80      177.65      142.34      132.24      107.71      80.065      56.701      39.365    
  26.866      17.582      13.005      12.298      12.800      12.897      12.785      12.897      12.800      12.298    
  13.005      17.582      26.866      39.365      56.701      80.065      107.71      132.24      96.717      90.341    
  74.778      57.054      41.925      30.518      21.758      16.048      13.974      14.349      15.436      16.177    
  16.397      16.177      15.436      14.349      13.974      16.048      21.758      30.518      41.925      57.054    
  74.778      90.341      61.553      58.073      49.483      39.460      30.532      23.229      18.200      16.277    
  17.103      19.497      22.193      24.254      25.024      24.254      22.193      19.497      17.103      16.277    
  18.200      23.229      30.532      39.460      49.483      58.073      37.475      35.844      31.706      26.547    
  21.589      18.142      17.166      18.883      22.761      28.054      33.609      37.893      39.513      37.893    
  33.609      28.054      22.761      18.883      17.166      18.142      21.589      26.547      31.706      35.844    
  21.264      20.581      18.831      16.810      15.554      16.029      18.791      23.792      30.954      39.552    
  48.020      54.329      56.677      54.329      48.020      39.552      30.954      23.792      18.791      16.029    
  15.554      16.810      18.831      20.581      11.876      11.806      11.648      11.760      13.038      16.517    
  22.497      30.947      41.383      52.484      62.545      69.695      72.303      69.695      62.545      52.484    
  41.383      30.947      22.497      16.517      13.038      11.760      11.648      11.806      9.6052      9.7349    
  9.9995      10.644      12.992      18.550      27.629      39.821      53.297      66.054      76.666      83.892    
  86.491      83.892      76.666      66.054      53.297      39.821      27.629      18.550      12.992      10.644    
  9.9995      9.7349      9.8941      10.073      10.346      10.966      13.841      21.024      33.181      49.043    
  65.391      79.734      91.100      98.757      101.53      98.757      91.100      79.734      65.391      49.043    
  33.181      21.024      13.841      10.966      10.346      10.073      9.4470      9.7540      10.259      11.109    
  14.546      23.033      37.613      56.312      74.997      90.956      103.55      112.18      115.36      112.18    
  103.55      90.956      74.997      56.312      37.613      23.033      14.546      11.109      10.259      9.7540    
  8.9203      9.3153      10.006      11.057      14.786      23.810      39.325      59.113      78.737      95.435    
  108.68      117.86      121.26      117.86      108.68      95.435      78.737      59.113      39.325      23.810    
  14.786      11.057      10.006      9.3153      9.4470      9.7540      10.259      11.109      14.546      23.033    
  37.613      56.312      74.997      90.956      103.55      112.18      115.36      112.18      103.55      90.956    
  74.997      56.312      37.613      23.033      14.546      11.109      10.259      9.7540      9.8941      10.073    
  10.346      10.966      13.841      21.024      33.181      49.043      65.391      79.734      91.100      98.757    
  101.53      98.757      91.100      79.734      65.391      49.043      33.181      21.024      13.841      10.966    
  10.346      10.073      9.6052      9.7349      9.9995      10.644      12.992      18.550      27.629      39.821    
  53.297      66.054      76.666      83.892      86.491      83.892      76.666      66.054      53.297      39.821    
  27.629      18.550      12.992      10.644      9.9995      9.7349      11.876      11.806      11.648      11.760    
  13.038      16.517      22.497      30.947      41.383      52.484      62.545      69.695      72.303      69.695    
  62.545      52.484      41.383      30.947      22.497      16.517      13.038      11.760      11.648      11.806    
  21.264      20.581      18.831      16.810      15.554      16.029      18.791      23.792      30.954      39.552    
  48.020      54.329      56.677      54.329      48.020      39.552      30.954      23.792      18.791      16.029    
  15.554      16.810      18.831      20.581      37.475      35.844      31.706      26.547      21.589      18.142    
  17.166      18.883      22.761      28.054      33.609      37.893      39.513      37.893      33.609      28.054    
  22.761      18.883      17.166      18.142      21.589      26.547      31.706      35.844      61.553      58.073    
  49.483      39.460      30.532      23.229      18.200      16.277      17.103      19.497      22.193      24.254    
  25.024      24.254      22.193      19.497      17.103      16.277      18.200      23.229      30.532      39.460    
  49.483      58.073      96.717      90.341      74.778      57.054      41.925      30.518      21.758      16.048    
  13.974      14.349      15.436      16.177      16.397      16.177      15.436      14.349      13.974      16.048    
  21.758      30.518      41.925      57.054      74.778      90.341      142.34      132.24      107.71      80.065    
  56.701      39.365      26.866      17.582      13.005      12.298      12.800      12.897      12.785      12.897    
  12.800      12.298      13.005      17.582      26.866      39.365      56.701      80.065      107.71      132.24    
  191.62      177.65      143.80      105.71      73.426      49.202      32.124      19.786      13.052      11.759    
  12.183      11.916      11.537      11.916      12.183      11.759      13.052      19.786      32.124      49.202    
  73.426      105.71      143.80      177.65      231.21      214.29      173.26      127.01      87.539      57.508    
  36.288      21.586      13.212      11.426      11.724      11.075      10.437      11.075      11.724      11.426    
  13.212      21.586      36.288      57.508      87.539      127.01      173.26      214.29      175.28      163.18    
  133.56      99.525      69.819      47.060      30.933      19.258      13.052      11.888      12.260      12.003    
  11.658      12.003      12.260      11.888      13.052      19.258      30.933      47.060      69.819      99.525    
  133.56      163.18      166.58      155.03      126.78      94.377      66.249      44.893      29.782      18.753    
  13.009      11.986      12.411      12.273      12.003      12.273      12.411      11.986      13.009      18.753    
  29.782      44.893      66.249      94.377      126.78      155.03      142.66      132.74      108.50      80.798    
  57.054      39.362      26.720      17.417      12.860      12.156      12.643      12.730      12.616      12.730    
  12.643      12.156      12.860      17.417      26.720      39.362      57.054      80.798      108.50      132.74    
  109.66      102.21      84.004      63.242      45.592      32.496      22.643      15.782      12.785      12.510    
  13.061      13.360      13.396      13.360      13.061      12.510      12.785      15.782      22.643      32.496    
  45.592      63.242      84.004      102.21      76.077      71.328      59.683      46.325      34.804      25.756    
  18.741      14.671      13.464      13.997      15.000      15.719      15.958      15.719      15.000      13.997    
  13.464      14.671      18.741      25.756      34.804      46.325      59.683      71.328      49.009      46.469    
  40.166      32.693      25.709      19.851      16.132      14.934      15.821      17.854      20.042      21.646    
  22.234      21.646      20.042      17.854      15.821      14.934      16.132      19.851      25.709      32.693    
  40.166      46.469      30.410      29.200      26.051      22.001      18.273      15.899      15.481      17.097    
  20.295      24.354      28.465      31.571      32.732      31.571      28.465      24.354      20.295      17.097    
  15.481      15.899      18.273      22.001      26.051      29.200      17.435      16.949      15.721      14.358    
  13.651      14.341      16.867      21.133      26.826      33.427      39.763      44.380      46.075      44.380    
  39.763      33.427      26.826      21.133      16.867      14.341      13.651      14.358      15.721      16.949    
  10.394      10.398      10.425      10.697      11.862      14.787      19.873      26.911      35.568      44.610    
  52.433      57.682      59.523      57.682      52.433      44.610      35.568      26.911      19.873      14.787    
  11.862      10.697      10.425      10.398      8.4949      8.6644      9.0692      9.8279      11.856      16.423    
  23.921      34.263      46.172      57.307      65.735      70.703      72.305      70.703      65.735      57.307    
  46.172      34.263      23.921      16.423      11.856      9.8279      9.0692      8.6644      8.2830      8.5153    
  9.0198      9.9067      12.464      18.384      28.327      42.154      57.352      70.428      79.209      83.678    
  84.958      83.678      79.209      70.428      57.352      42.154      28.327      18.384      12.464      9.9067    
  9.0198      8.5153      7.7385      8.0765      8.7961      9.9278      12.982      19.941      31.887      48.515    
  66.362      81.078      90.316      94.572      95.675      94.572      90.316      81.078      66.362      48.515    
  31.887      19.941      12.982      9.9278      8.7961      8.0765      7.3285      7.7307      8.5910      9.8802    
  13.166      20.538      33.274      50.991      69.881      85.277      94.761      99.002      100.07      99.002    
  94.761      85.277      69.881      50.991      33.274      20.538      13.166      9.8802      8.5910      7.7307    
  7.7385      8.0765      8.7961      9.9278      12.982      19.941      31.887      48.515      66.362      81.078    
  90.316      94.572      95.675      94.572      90.316      81.078      66.362      48.515      31.887      19.941    
  12.982      9.9278      8.7961      8.0765      8.2830      8.5153      9.0198      9.9067      12.464      18.384    
  28.327      42.154      57.352      70.428      79.209      83.678      84.958      83.678      79.209      70.428    
  57.352      42.154      28.327      18.384      12.464      9.9067      9.0198      8.5153      8.4949      8.6644    
  9.0692      9.8279      11.856      16.423      23.921      34.263      46.172      57.307      65.735      70.703    
  72.305      70.703      65.735      57.307      46.172      34.263      23.921      16.423      11.856      9.8279    
  9.0692      8.6644      10.394      10.398      10.425      10.697      11.862      14.787      19.873      26.911    
  35.568      44.610      52.433      57.682      59.523      57.682      52.433      44.610      35.568      26.911    
  19.873      14.787      11.862      10.697      10.425      10.398      17.435      16.949      15.721      14.358    
  13.651      14.341      16.867      21.133      26.826      33.427      39.763      44.380      46.075      44.380    
  39.763      33.427      26.826      21.133      16.867      14.341      13.651      14.358      15.721      16.949    
  30.410      29.200      26.051      22.001      18.273      15.899      15.481      17.097      20.295      24.354    
  28.465      31.571      32.732      31.571      28.465      24.354      20.295      17.097      15.481      15.899    
  18.273      22.001      26.051      29.200      49.009      46.469      40.166      32.693      25.709      19.851    
  16.132      14.934      15.821      17.854      20.042      21.646      22.234      21.646      20.042      17.854    
  15.821      14.934      16.132      19.851      25.709      32.693      40.166      46.469      76.077      71.328    
  59.683      46.325      34.804      25.756      18.741      14.671      13.464      13.997      15.000      15.719    
  15.958      15.719      15.000      13.997      13.464      14.671      18.741      25.756      34.804      46.325    
  59.683      71.328      109.66      102.21      84.004      63.242      45.592      32.496      22.643      15.782    
  12.785      12.510      13.061      13.360      13.396      13.360      13.061      12.510      12.785      15.782    
  22.643      32.496      45.592      63.242      84.004      102.21      142.66      132.74      108.50      80.798    
  57.054      39.362      26.720      17.417      12.860      12.156      12.643      12.730      12.616      12.730    
  12.643      12.156      12.860      17.417      26.720      39.362      57.054      80.798      108.50      132.74    
  166.58      155.03      126.78      94.377      66.249      44.893      29.782      18.753      13.009      11.986    
  12.411      12.273      12.003      12.273      12.411      11.986      13.009      18.753      29.782      44.893    
  66.249      94.377      126.78      155.03      115.31      108.00      89.870      68.544      49.592      35.112    
  24.491      17.154      14.253      14.597      15.903      16.747      16.974      16.747      15.903      14.597    
  14.253      17.154      24.491      35.112      49.592      68.544      89.870      108.00      110.59      103.54    
  86.055      65.565      47.491      33.772      23.642      16.758      14.120      14.503      15.774      16.613    
  16.849      16.613      15.774      14.503      14.120      16.758      23.642      33.772      47.491      65.565    
  86.055      103.54      96.731      90.532      75.221      57.422      41.948      30.265      21.405      15.729    
  13.750      14.216      15.377      16.179      16.426      16.179      15.377      14.216      13.750      15.729    
  21.405      30.265      41.948      57.422      75.221      90.532      75.999      71.297      59.716      46.328    
  34.713      25.592      18.550      14.506      13.356      13.950      15.010      15.775      16.032      15.775    
  15.010      13.950      13.356      14.506      18.550      25.592      34.713      46.328      59.716      71.297    
  53.822      50.872      43.586      35.057      27.284      20.635      15.946      13.691      13.479      14.427    
  15.649      16.558      16.884      16.558      15.649      14.427      13.479      13.691      15.946      20.635    
  27.284      35.057      43.586      50.872      35.697      34.139      30.182      25.182      20.241      16.400    
  14.253      13.853      14.834      16.597      18.474      19.873      20.388      19.873      18.474      16.597    