unknown system                          
   1.00000000000000     
     3.866000    0.000000    0.000000
     0.000000    3.866000    0.000000
     0.000000    0.000000    3.866000
   Pd   Ir   Pt   Cu
     1     1     1     1
Direct
  0.000000  0.000000  0.000000
  0.500000  0.500000  0.000000
  0.500000  0.000000  0.500000
  0.000000  0.500000  0.500000
 
   24   24   24
 0.33279935212E+03 0.30748275924E+03 0.24638401988E+03 0.17829014076E+03 0.12096941300E+03
 0.77299810730E+02 0.46084041477E+02 0.25617997419E+02 0.13477787092E+02 0.10083242461E+02
 0.95998418694E+01 0.77243978282E+01 0.63591368840E+01 0.77243978282E+01 0.95998418694E+01
 0.10083242461E+02 0.13477787092E+02 0.25617997419E+02 0.46084041477E+02 0.77299810730E+02
 0.12096941300E+03 0.17829014076E+03 0.24638401988E+03 0.30748275924E+03 0.30750980182E+03
 0.28414611442E+03 0.22781486696E+03 0.16513255675E+03 0.11245106523E+03 0.72379792588E+02
 0.43743758541E+02 0.24726941042E+02 0.13454060144E+02 0.10463037280E+02 0.10182767699E+02
 0.85945832695E+01 0.73958132357E+01 0.85945832695E+01 0.10182767699E+02 0.10463037280E+02
 0.13454060144E+02 0.24726941042E+02 0.43743758541E+02 0.72379792588E+02 0.11245106523E+03
 0.16513255675E+03 0.22781486696E+03 0.28414611442E+03 0.24514109958E+03 0.22669727278E+03
 0.18230730654E+03 0.13303269224E+03 0.91705609588E+02 0.60376350904E+02 0.37959928186E+02
 0.22392944049E+02 0.13312759383E+02 0.11167289655E+02 0.11204319715E+02 0.10210762367E+02
 0.93886091320E+01 0.10210762367E+02 0.11204319715E+02 0.11167289655E+02 0.13312759383E+02
 0.22392944049E+02 0.37959928186E+02 0.60376350904E+02 0.91705609588E+02 0.13303269224E+03
 0.18230730654E+03 0.22669727278E+03 0.17396653319E+03 0.16132370182E+03 0.13087327147E+03
 0.96965982492E+02 0.68405010625E+02 0.46795935285E+02 0.31170508021E+02 0.19574778825E+02
 0.13310848962E+02 0.12073083868E+02 0.12366868532E+02 0.12024156011E+02 0.11637069754E+02
 0.12024156011E+02 0.12366868532E+02 0.12073083868E+02 0.13310848962E+02 0.19574778825E+02
 0.31170508021E+02 0.46795935285E+02 0.68405010625E+02 0.96965982492E+02 0.13087327147E+03
 0.16132370182E+03 0.11489983314E+03 0.10718000059E+03 0.88448345229E+02 0.67263367293E+02
 0.49130442452E+02 0.35353011568E+02 0.24983942823E+02 0.17623397869E+02 0.14582136743E+02
 0.14780803934E+02 0.15940930686E+02 0.16642962635E+02 0.16806042136E+02 0.16642962635E+02
 0.15940930686E+02 0.14780803934E+02 0.14582136743E+02 0.17623397869E+02 0.24983942823E+02
 0.35353011568E+02 0.49130442452E+02 0.67263367293E+02 0.88448345229E+02 0.10718000059E+03
 0.72897811797E+02 0.68628889431E+02 0.58115319056E+02 0.45892216487E+02 0.35123394705E+02
 0.26653765048E+02 0.20510831652E+02 0.17819089510E+02 0.18491789854E+02 0.21242572564E+02
 0.24615303125E+02 0.27309498239E+02 0.28334807805E+02 0.27309498239E+02 0.24615303125E+02
 0.21242572564E+02 0.18491789854E+02 0.17819089510E+02 0.20510831652E+02 0.26653765048E+02
 0.35123394705E+02 0.45892216487E+02 0.58115319056E+02 0.68628889431E+02 0.44385198239E+02
 0.42316758210E+02 0.37101851216E+02 0.30752091806E+02 0.24766461266E+02 0.20390707839E+02
 0.18944274849E+02 0.20770480700E+02 0.25380260536E+02 0.32023112765E+02 0.39261905340E+02
 0.45014605182E+02 0.47226747641E+02 0.45014605182E+02 0.39261905340E+02 0.32023112765E+02
 0.25380260536E+02 0.20770480700E+02 0.18944274849E+02 0.20390707839E+02 0.24766461266E+02
 0.30752091806E+02 0.37101851216E+02 0.42316758210E+02 0.25219364583E+02 0.24383262065E+02
 0.22161104021E+02 0.19409751273E+02 0.17436178841E+02 0.17578598733E+02 0.20559070204E+02
 0.26421474040E+02 0.35113771838E+02 0.45797868020E+02 0.56683915692E+02 0.65074150453E+02
 0.68260684049E+02 0.65074150453E+02 0.56683915692E+02 0.45797868020E+02 0.35113771838E+02
 0.26421474040E+02 0.20559070204E+02 0.17578598733E+02 0.17436178841E+02 0.19409751273E+02
 0.22161104021E+02 0.24383262065E+02 0.13336046018E+02 0.13299148057E+02 0.13137017378E+02
 0.13116313966E+02 0.14323292481E+02 0.18087967244E+02 0.24820577733E+02 0.34552888663E+02
 0.46581600346E+02 0.59802140969E+02 0.72619497145E+02 0.82384233633E+02 0.86096240163E+02
 0.82384233633E+02 0.72619497145E+02 0.59802140969E+02 0.46581600346E+02 0.34552888663E+02
 0.24820577733E+02 0.18087967244E+02 0.14323292481E+02 0.13116313966E+02 0.13137017378E+02
 0.13299148057E+02 0.94331639262E+01 0.98088096023E+01 0.10560336793E+02 0.11599290854E+02
 0.14365637446E+02 0.20617084498E+02 0.30861285781E+02 0.44182267277E+02 0.58611432670E+02
 0.73142933100E+02 0.87093781282E+02 0.98065176945E+02 0.10234665287E+03 0.98065176945E+02
 0.87093781282E+02 0.73142933100E+02 0.58611432670E+02 0.44182267277E+02 0.30861285781E+02
 0.20617084498E+02 0.14365637446E+02 0.11599290854E+02 0.10560336793E+02 0.98088096023E+01
 0.83132799873E+01 0.89347660505E+01 0.10145109600E+02 0.11646193843E+02 0.15393501929E+02
 0.23698744855E+02 0.37254789687E+02 0.53747005514E+02 0.70186355629E+02 0.86222770301E+02
 0.10233418224E+03 0.11582586922E+03 0.12128189152E+03 0.11582586922E+03 0.10233418224E+03
 0.86222770301E+02 0.70186355629E+02 0.53747005514E+02 0.37254789687E+02 0.23698744855E+02
 0.15393501929E+02 0.11646193843E+02 0.10145109600E+02 0.89347660505E+01 0.61456853789E+01
 0.70831723042E+01 0.89768044884E+01 0.11237809217E+02 0.16043567051E+02 0.26109500463E+02
 0.42219806708E+02 0.61063315200E+02 0.79219093922E+02 0.97178615699E+02 0.11627337511E+03
 0.13301850783E+03 0.13993302937E+03 0.13301850783E+03 0.11627337511E+03 0.97178615699E+02
 0.79219093922E+02 0.61063315200E+02 0.42219806708E+02 0.26109500463E+02 0.16043567051E+02
 0.11237809217E+02 0.89768044884E+01 0.70831723042E+01 0.47382334188E+01 0.58496224435E+01
 0.81424967949E+01 0.10861524049E+02 0.16200397383E+02 0.27013570506E+02 0.44107715895E+02
 0.63844516835E+02 0.82729879038E+02 0.10164055575E+03 0.12220416613E+03 0.14050025150E+03
 0.14809858487E+03 0.14050025150E+03 0.12220416613E+03 0.10164055575E+03 0.82729879038E+02
 0.63844516835E+02 0.44107715895E+02 0.27013570506E+02 0.16200397383E+02 0.10861524049E+02
 0.81424967949E+01 0.58496224435E+01 0.61456853789E+01 0.70831723042E+01 0.89768044884E+01
 0.11237809217E+02 0.16043567051E+02 0.26109500463E+02 0.42219806708E+02 0.61063315200E+02
 0.79219093922E+02 0.97178615699E+02 0.11627337511E+03 0.13301850783E+03 0.13993302937E+03
 0.13301850783E+03 0.11627337511E+03 0.97178615699E+02 0.79219093922E+02 0.61063315200E+02
 0.42219806708E+02 0.26109500463E+02 0.16043567051E+02 0.11237809217E+02 0.89768044884E+01
 0.70831723042E+01 0.83132799873E+01 0.89347660505E+01 0.10145109600E+02 0.11646193843E+02
 0.15393501929E+02 0.23698744855E+02 0.37254789687E+02 0.53747005514E+02 0.70186355629E+02
 0.86222770301E+02 0.10233418224E+03 0.11582586922E+03 0.12128189152E+03 0.11582586922E+03
 0.10233418224E+03 0.86222770301E+02 0.70186355629E+02 0.53747005514E+02 0.37254789687E+02
 0.23698744855E+02 0.15393501929E+02 0.11646193843E+02 0.10145109600E+02 0.89347660505E+01
 0.94331639262E+01 0.98088096023E+01 0.10560336793E+02 0.11599290854E+02 0.14365637446E+02
 0.20617084498E+02 0.30861285781E+02 0.44182267277E+02 0.58611432670E+02 0.73142933100E+02
 0.87093781282E+02 0.98065176945E+02 0.10234665287E+03 0.98065176945E+02 0.87093781282E+02
 0.73142933100E+02 0.58611432670E+02 0.44182267277E+02 0.30861285781E+02 0.20617084498E+02
 0.14365637446E+02 0.11599290854E+02 0.10560336793E+02 0.98088096023E+01 0.13336046018E+02
 0.13299148057E+02 0.13137017378E+02 0.13116313966E+02 0.14323292481E+02 0.18087967244E+02
 0.24820577733E+02 0.34552888663E+02 0.46581600346E+02 0.59802140969E+02 0.72619497145E+02
 0.82384233633E+02 0.86096240163E+02 0.82384233633E+02 0.72619497145E+02 0.59802140969E+02
 0.46581600346E+02 0.34552888663E+02 0.24820577733E+02 0.18087967244E+02 0.14323292481E+02
 0.13116313966E+02 0.13137017378E+02 0.13299148057E+02 0.25219364583E+02 0.24383262065E+02
 0.22161104021E+02 0.19409751273E+02 0.17436178841E+02 0.17578598733E+02 0.20559070204E+02
 0.26421474040E+02 0.35113771838E+02 0.45797868020E+02 0.56683915692E+02 0.65074150453E+02
 0.68260684049E+02 0.65074150453E+02 0.56683915692E+02 0.45797868020E+02 0.35113771838E+02
 0.26421474040E+02 0.20559070204E+02 0.17578598733E+02 0.17436178841E+02 0.19409751273E+02
 0.22161104021E+02 0.24383262065E+02 0.44385198239E+02 0.42316758210E+02 0.37101851216E+02
 0.30752091806E+02 0.24766461266E+02 0.20390707839E+02 0.18944274849E+02 0.20770480700E+02
 0.25380260536E+02 0.32023112765E+02 0.39261905340E+02 0.45014605182E+02 0.47226747641E+02
 0.45014605182E+02 0.39261905340E+02 0.32023112765E+02 0.25380260536E+02 0.20770480700E+02
 0.18944274849E+02 0.20390707839E+02 0.24766461266E+02 0.30752091806E+02 0.37101851216E+02
 0.42316758210E+02 0.72897811797E+02 0.68628889431E+02 0.58115319056E+02 0.45892216487E+02
 0.35123394705E+02 0.26653765048E+02 0.20510831652E+02 0.17819089510E+02 0.18491789854E+02
 0.21242572564E+02 0.24615303125E+02 0.27309498239E+02 0.28334807805E+02 0.27309498239E+02
 0.24615303125E+02 0.21242572564E+02 0.18491789854E+02 0.17819089510E+02 0.20510831652E+02
 0.26653765048E+02 0.35123394705E+02 0.45892216487E+02 0.58115319056E+02 0.68628889431E+02
 0.11489983314E+03 0.10718000059E+03 0.88448345229E+02 0.67263367293E+02 0.49130442452E+02
 0.35353011568E+02 0.24983942823E+02 0.17623397869E+02 0.14582136743E+02 0.14780803934E+02
 0.15940930686E+02 0.16642962635E+02 0.16806042136E+02 0.16642962635E+02 0.15940930686E+02
 0.14780803934E+02 0.14582136743E+02 0.17623397869E+02 0.24983942823E+02 0.35353011568E+02
 0.49130442452E+02 0.67263367293E+02 0.88448345229E+02 0.10718000059E+03 0.17396653319E+03
 0.16132370182E+03 0.13087327147E+03 0.96965982492E+02 0.68405010625E+02 0.46795935285E+02
 0.31170508021E+02 0.19574778825E+02 0.13310848962E+02 0.12073083868E+02 0.12366868532E+02
 0.12024156011E+02 0.11637069754E+02 0.12024156011E+02 0.12366868532E+02 0.12073083868E+02
 0.13310848962E+02 0.19574778825E+02 0.31170508021E+02 0.46795935285E+02 0.68405010625E+02
 0.96965982492E+02 0.13087327147E+03 0.16132370182E+03 0.24514109958E+03 0.22669727278E+03
 0.18230730654E+03 0.13303269224E+03 0.91705609588E+02 0.60376350904E+02 0.37959928186E+02
 0.22392944049E+02 0.13312759383E+02 0.11167289655E+02 0.11204319715E+02 0.10210762367E+02
 0.93886091320E+01 0.10210762367E+02 0.11204319715E+02 0.11167289655E+02 0.13312759383E+02
 0.22392944049E+02 0.37959928186E+02 0.60376350904E+02 0.91705609588E+02 0.13303269224E+03
 0.18230730654E+03 0.22669727278E+03 0.30750980182E+03 0.28414611442E+03 0.22781486696E+03
 0.16513255675E+03 0.11245106523E+03 0.72379792588E+02 0.43743758541E+02 0.24726941042E+02
 0.13454060144E+02 0.10463037280E+02 0.10182767699E+02 0.85945832695E+01 0.73958132357E+01
 0.85945832695E+01 0.10182767699E+02 0.10463037280E+02 0.13454060144E+02 0.24726941042E+02
 0.43743758541E+02 0.72379792588E+02 0.11245106523E+03 0.16513255675E+03 0.22781486696E+03
 0.28414611442E+03 0.30807588115E+03 0.28485358139E+03 0.22874663064E+03 0.16603691995E+03
 0.11302846958E+03 0.72585715512E+02 0.43752403219E+02 0.24700865639E+02 0.13459302763E+02
 0.10532151573E+02 0.10332910967E+02 0.88187120825E+01 0.76508453910E+01 0.88187120825E+01
 0.10332910967E+02 0.10532151573E+02 0.13459302763E+02 0.24700865639E+02 0.43752403219E+02
 0.72585715512E+02 0.11302846958E+03 0.16603691995E+03 0.22874663064E+03 0.28485358139E+03
 0.28580243649E+03 0.26427694659E+03 0.21231010593E+03 0.15430824806E+03 0.10537342069E+03
 0.68141266173E+02 0.41628433101E+02 0.23868969976E+02 0.13425236323E+02 0.10843714817E+02
 0.10812376630E+02 0.95575671226E+01 0.85431805387E+01 0.95575671226E+01 0.10812376630E+02
 0.10843714817E+02 0.13425236323E+02 0.23868969976E+02 0.41628433101E+02 0.68141266173E+02
 0.10537342069E+03 0.15430824806E+03 0.21231010593E+03 0.26427694659E+03 0.23030742523E+03
 0.21310770244E+03 0.17163788033E+03 0.12544588852E+03 0.86596908506E+02 0.57230821321E+02
 0.36333206387E+02 0.21683038562E+02 0.13266768726E+02 0.11407623727E+02 0.11618796143E+02
 0.10888118739E+02 0.10214768310E+02 0.10888118739E+02 0.11618796143E+02 0.11407623727E+02
 0.13266768726E+02 0.21683038562E+02 0.36333206387E+02 0.57230821321E+02 0.86596908506E+02
 0.12544588852E+03 0.17163788033E+03 0.21310770244E+03 0.16562198440E+03 0.15364538803E+03
 0.12473595301E+03 0.92433976875E+02 0.65204611004E+02 0.44734603519E+02 0.30000904262E+02
 0.19030681865E+02 0.13240832041E+02 0.12174217047E+02 0.12562994038E+02 0.12382241801E+02
 0.12089334093E+02 0.12382241801E+02 0.12562994038E+02 0.12174217047E+02 0.13240832041E+02
 0.19030681865E+02 0.30000904262E+02 0.44734603519E+02 0.65204611004E+02 0.92433976875E+02
 0.12473595301E+03 0.15364538803E+03 0.11032807227E+03 0.10293447008E+03 0.84961906599E+02
 0.64593990621E+02 0.47185878961E+02 0.34029403025E+02 0.24099311285E+02 0.17187200134E+02
 0.14421063434E+02 0.14677937824E+02 0.15830293351E+02 0.16558526686E+02 0.16745210309E+02
 0.16558526686E+02 0.15830293351E+02 0.14677937824E+02 0.14421063434E+02 0.17187200134E+02
 0.24099311285E+02 0.34029403025E+02 0.47185878961E+02 0.64593990621E+02 0.84961906599E+02
 0.10293447008E+03 0.70017680573E+02 0.65939825710E+02 0.55890879217E+02 0.44202920009E+02
 0.33898377692E+02 0.25727837010E+02 0.19865812540E+02 0.17387780679E+02 0.18114327436E+02
 0.20769675233E+02 0.23946912612E+02 0.26456569761E+02 0.27407061130E+02 0.26456569761E+02
 0.23946912612E+02 0.20769675233E+02 0.18114327436E+02 0.17387780679E+02 0.19865812540E+02
 0.25727837010E+02 0.33898377692E+02 0.44202920009E+02 0.55890879217E+02 0.65939825710E+02
 0.42541936926E+02 0.40589929877E+02 0.35666348697E+02 0.29650192854E+02 0.23929827007E+02
 0.19787105572E+02 0.18456458685E+02 0.20251818453E+02 0.24660225961E+02 0.30931958902E+02
 0.37695689394E+02 0.43024595473E+02 0.45063811862E+02 0.43024595473E+02 0.37695689394E+02
 0.30931958902E+02 0.24660225961E+02 0.20251818453E+02 0.18456458685E+02 0.19787105572E+02
 0.23929827007E+02 0.29650192854E+02 0.35666348697E+02 0.40589929877E+02 0.24131007557E+02
 0.23332352363E+02 0.21235229357E+02 0.18692503598E+02 0.16933536971E+02 0.17179028595E+02
 0.20099156077E+02 0.25714494934E+02 0.33991031968E+02 0.44106625711E+02 0.54313455982E+02
 0.62102843485E+02 0.65043759120E+02 0.62102843485E+02 0.54313455982E+02 0.44106625711E+02
 0.33991031968E+02 0.25714494934E+02 0.20099156077E+02 0.17179028595E+02 0.16933536971E+02
 0.18692503598E+02 0.21235229357E+02 0.23332352363E+02 0.12934983903E+02 0.12876313834E+02
 0.12693653249E+02 0.12708391581E+02 0.13960922926E+02 0.17682215262E+02 0.24226804481E+02
 0.33627967682E+02 0.45243668475E+02 0.57882817377E+02 0.69901244069E+02 0.78885938712E+02
 0.82264817659E+02 0.78885938712E+02 0.69901244069E+02 0.57882817377E+02 0.45243668475E+02
 0.33627967682E+02 0.24226804481E+02 0.17682215262E+02 0.13960922926E+02 0.12708391581E+02
 0.12693653249E+02 0.12876313834E+02 0.96385324160E+01 0.99095801481E+01 0.10446665709E+02
 0.11314331228E+02 0.13958589441E+02 0.20059470656E+02 0.30044465935E+02 0.43135330124E+02
 0.57359208709E+02 0.71382614717E+02 0.84306139809E+02 0.94111738249E+02 0.97869159765E+02
 0.94111738249E+02 0.84306139809E+02 0.71382614717E+02 0.57359208709E+02 0.43135330124E+02
 0.30044465935E+02 0.20059470656E+02 0.13958589441E+02 0.11314331228E+02 0.10446665709E+02
 0.99095801481E+01 0.91672052486E+01 0.95995969489E+01 0.10394667301E+02 0.11502395536E+02
 0.14943125514E+02 0.22965280392E+02 0.36244551831E+02 0.52709914345E+02 0.69212817149E+02
 0.84724714892E+02 0.99321591708E+02 0.11096733245E+03 0.11557833002E+03 0.11096733245E+03
 0.99321591708E+02 0.84724714892E+02 0.69212817149E+02 0.52709914345E+02 0.36244551831E+02
 0.22965280392E+02 0.14943125514E+02 0.11502395536E+02 0.10394667301E+02 0.95995969489E+01
 0.77229440899E+01 0.83953644669E+01 0.96860133085E+01 0.11331398186E+02 0.15636028853E+02
 0.25272685408E+02 0.41101014610E+02 0.60100676901E+02 0.78512068559E+02 0.95823267731E+02
 0.11282919503E+03 0.12700607452E+03 0.13274477121E+03 0.12700607452E+03 0.11282919503E+03
 0.95823267731E+02 0.78512068559E+02 0.60100676901E+02 0.41101014610E+02 0.25272685408E+02
 0.15636028853E+02 0.11331398186E+02 0.96860133085E+01 0.83953644669E+01 0.66619159108E+01
 0.74753208406E+01 0.90822408495E+01 0.11084433092E+02 0.15831991554E+02 0.26148063972E+02
 0.42957335340E+02 0.62921734453E+02 0.82127571475E+02 0.10031500205E+03 0.11852759836E+03
 0.13393937670E+03 0.14021904332E+03 0.13393937670E+03 0.11852759836E+03 0.10031500205E+03
 0.82127571475E+02 0.62921734453E+02 0.42957335340E+02 0.26148063972E+02 0.15831991554E+02
 0.11084433092E+02 0.90822408495E+01 0.74753208406E+01 0.77229440899E+01 0.83953644669E+01
 0.96860133085E+01 0.11331398186E+02 0.15636028853E+02 0.25272685408E+02 0.41101014610E+02
 0.60100676901E+02 0.78512068559E+02 0.95823267731E+02 0.11282919503E+03 0.12700607452E+03
 0.13274477121E+03 0.12700607452E+03 0.11282919503E+03 0.95823267731E+02 0.78512068559E+02
 0.60100676901E+02 0.41101014610E+02 0.25272685408E+02 0.15636028853E+02 0.11331398186E+02
 0.96860133085E+01 0.83953644669E+01 0.91672052486E+01 0.95995969489E+01 0.10394667301E+02
 0.11502395536E+02 0.14943125514E+02 0.22965280392E+02 0.36244551831E+02 0.52709914345E+02
 0.69212817149E+02 0.84724714892E+02 0.99321591708E+02 0.11096733245E+03 0.11557833002E+03
 0.11096733245E+03 0.99321591708E+02 0.84724714892E+02 0.69212817149E+02 0.52709914345E+02
 0.36244551831E+02 0.22965280392E+02 0.14943125514E+02 0.11502395536E+02 0.10394667301E+02
 0.95995969489E+01 0.96385324160E+01 0.99095801481E+01 0.10446665709E+02 0.11314331228E+02
 0.13958589441E+02 0.20059470656E+02 0.30044465935E+02 0.43135330124E+02 0.57359208709E+02
 0.71382614717E+02 0.84306139809E+02 0.94111738249E+02 0.97869159765E+02 0.94111738249E+02
 0.84306139809E+02 0.71382614717E+02 0.57359208709E+02 0.43135330124E+02 0.30044465935E+02
 0.20059470656E+02 0.13958589441E+02 0.11314331228E+02 0.10446665709E+02 0.99095801481E+01
 0.12934983903E+02 0.12876313834E+02 0.12693653249E+02 0.12708391581E+02 0.13960922926E+02
 0.17682215262E+02 0.24226804481E+02 0.33627967682E+02 0.45243668475E+02 0.57882817377E+02
 0.69901244069E+02 0.78885938712E+02 0.82264817659E+02 0.78885938712E+02 0.69901244069E+02
 0.57882817377E+02 0.45243668475E+02 0.33627967682E+02 0.24226804481E+02 0.17682215262E+02
 0.13960922926E+02 0.12708391581E+02 0.12693653249E+02 0.12876313834E+02 0.24131007557E+02
 0.23332352363E+02 0.21235229357E+02 0.18692503598E+02 0.16933536971E+02 0.17179028595E+02
 0.20099156077E+02 0.25714494934E+02 0.33991031968E+02 0.44106625711E+02 0.54313455982E+02
 0.62102843485E+02 0.65043759120E+02 0.62102843485E+02 0.54313455982E+02 0.44106625711E+02
 0.33991031968E+02 0.25714494934E+02 0.20099156077E+02 0.17179028595E+02 0.16933536971E+02
 0.18692503598E+02 0.21235229357E+02 0.23332352363E+02 0.42541936926E+02 0.40589929877E+02
 0.35666348697E+02 0.29650192854E+02 0.23929827007E+02 0.19787105572E+02 0.18456458685E+02
 0.20251818453E+02 0.24660225961E+02 0.30931958902E+02 0.37695689394E+02 0.43024595473E+02
 0.45063811862E+02 0.43024595473E+02 0.37695689394E+02 0.30931958902E+02 0.24660225961E+02
 0.20251818453E+02 0.18456458685E+02 0.19787105572E+02 0.23929827007E+02 0.29650192854E+02
 0.35666348697E+02 0.40589929877E+02 0.70017680573E+02 0.65939825710E+02 0.55890879217E+02
 0.44202920009E+02 0.33898377692E+02 0.25727837010E+02 0.19865812540E+02 0.17387780679E+02
 0.18114327436E+02 0.20769675233E+02 0.23946912612E+02 0.26456569761E+02 0.27407061130E+02
 0.26456569761E+02 0.23946912612E+02 0.20769675233E+02 0.18114327436E+02 0.17387780679E+02
 0.19865812540E+02 0.25727837010E+02 0.33898377692E+02 0.44202920009E+02 0.55890879217E+02
 0.65939825710E+02 0.11032807227E+03 0.10293447008E+03 0.84961906599E+02 0.64593990621E+02
 0.47185878961E+02 0.34029403025E+02 0.24099311285E+02 0.17187200134E+02 0.14421063434E+02
 0.14677937824E+02 0.15830293351E+02 0.16558526686E+02 0.16745210309E+02 0.16558526686E+02
 0.15830293351E+02 0.14677937824E+02 0.14421063434E+02 0.17187200134E+02 0.24099311285E+02
 0.34029403025E+02 0.47185878961E+02 0.64593990621E+02 0.84961906599E+02 0.10293447008E+03
 0.16562198440E+03 0.15364538803E+03 0.12473595301E+03 0.92433976875E+02 0.65204611004E+02
 0.44734603519E+02 0.30000904262E+02 0.19030681865E+02 0.13240832041E+02 0.12174217047E+02
 0.12562994038E+02 0.12382241801E+02 0.12089334093E+02 0.12382241801E+02 0.12562994038E+02
 0.12174217047E+02 0.13240832041E+02 0.19030681865E+02 0.30000904262E+02 0.44734603519E+02
 0.65204611004E+02 0.92433976875E+02 0.12473595301E+03 0.15364538803E+03 0.23030742523E+03
 0.21310770244E+03 0.17163788033E+03 0.12544588852E+03 0.86596908506E+02 0.57230821321E+02
 0.36333206387E+02 0.21683038562E+02 0.13266768726E+02 0.11407623727E+02 0.11618796143E+02
 0.10888118739E+02 0.10214768310E+02 0.10888118739E+02 0.11618796143E+02 0.11407623727E+02
 0.13266768726E+02 0.21683038562E+02 0.36333206387E+02 0.57230821321E+02 0.86596908506E+02
 0.12544588852E+03 0.17163788033E+03 0.21310770244E+03 0.28580243649E+03 0.26427694659E+03
 0.21231010593E+03 0.15430824806E+03 0.10537342069E+03 0.68141266173E+02 0.41628433101E+02
 0.23868969976E+02 0.13425236323E+02 0.10843714817E+02 0.10812376630E+02 0.95575671226E+01
 0.85431805387E+01 0.95575671226E+01 0.10812376630E+02 0.10843714817E+02 0.13425236323E+02
 0.23868969976E+02 0.41628433101E+02 0.68141266173E+02 0.10537342069E+03 0.15430824806E+03
 0.21231010593E+03 0.26427694659E+03 0.24655259602E+03 0.22852402206E+03 0.18478762522E+03
 0.13542960458E+03 0.93174897854E+02 0.60834005869E+02 0.37916068496E+02 0.22265954607E+02
 0.13253812492E+02 0.11235864673E+02 0.11428763970E+02 0.10581435705E+02 0.98220487516E+01
 0.10581435705E+02 0.11428763970E+02 0.11235864673E+02 0.13253812492E+02 0.22265954607E+02
 0.37916068496E+02 0.60834005869E+02 0.93174897854E+02 0.13542960458E+03 0.18478762522E+03
 0.22852402206E+03 0.23120541188E+03 0.21428583870E+03 0.17325565903E+03 0.12700646074E+03
 0.87538735281E+02 0.57507566386E+02 0.36288177023E+02 0.21585896780E+02 0.13211837050E+02
 0.11426334020E+02 0.11723829029E+02 0.11074525476E+02 0.10436520061E+02 0.11074525476E+02
 0.11723829029E+02 0.11426334020E+02 0.13211837050E+02 0.21585896780E+02 0.36288177023E+02
 0.57507566386E+02 0.87538735281E+02 0.12700646074E+03 0.17325565903E+03 0.21428583870E+03
 0.19161884742E+03 0.17765359635E+03 0.14380140657E+03 0.10571215462E+03 0.73425605550E+02
 0.49201915099E+02 0.32124342656E+02 0.19786491669E+02 0.13051980723E+02 0.11758572995E+02
 0.12182741534E+02 0.11915548237E+02 0.11537092870E+02 0.11915548237E+02 0.12182741534E+02
 0.11758572995E+02 0.13051980723E+02 0.19786491669E+02 0.32124342656E+02 0.49201915099E+02
 0.73425605550E+02 0.10571215462E+03 0.14380140657E+03 0.17765359635E+03 0.14234093221E+03
 0.13223808836E+03 0.10771219288E+03 0.80064655111E+02 0.56701249699E+02 0.39365190747E+02
 0.26866085067E+02 0.17582235720E+02 0.13005293662E+02 0.12298224683E+02 0.12799598392E+02
 0.12896871454E+02 0.12784594565E+02 0.12896871454E+02 0.12799598392E+02 0.12298224683E+02
 0.13005293662E+02 0.17582235720E+02 0.26866085067E+02 0.39365190747E+02 0.56701249699E+02
 0.80064655111E+02 0.10771219288E+03 0.13223808836E+03 0.96716595849E+02 0.90340583197E+02
 0.74777576012E+02 0.57054072463E+02 0.41925375662E+02 0.30517512363E+02 0.21758243540E+02
 0.16048436784E+02 0.13973547739E+02 0.14349455966E+02 0.15435960974E+02 0.16176530793E+02
 0.16397491022E+02 0.16176530793E+02 0.15435960974E+02 0.14349455966E+02 0.13973547739E+02
 0.16048436784E+02 0.21758243540E+02 0.30517512363E+02 0.41925375662E+02 0.57054072463E+02
 0.74777576012E+02 0.90340583197E+02 0.61553304029E+02 0.58073375639E+02 0.49482744670E+02
 0.39459511199E+02 0.30531695889E+02 0.23228595444E+02 0.18200167885E+02 0.16277398301E+02
 0.17103111093E+02 0.19497440905E+02 0.22193300047E+02 0.24254229395E+02 0.25023616121E+02
 0.24254229395E+02 0.22193300047E+02 0.19497440905E+02 0.17103111093E+02 0.16277398301E+02
 0.18200167885E+02 0.23228595444E+02 0.30531695889E+02 0.39459511199E+02 0.49482744670E+02
 0.58073375639E+02 0.37475469924E+02 0.35844079890E+02 0.31705603132E+02 0.26547308263E+02
 0.21589284598E+02 0.18142069280E+02 0.17166024640E+02 0.18883169779E+02 0.22761366298E+02
 0.28054038908E+02 0.33609108397E+02 0.37893278247E+02 0.39512998242E+02 0.37893278247E+02
 0.33609108397E+02 0.28054038908E+02 0.22761366298E+02 0.18883169779E+02 0.17166024640E+02
 0.18142069280E+02 0.21589284598E+02 0.26547308263E+02 0.31705603132E+02 0.35844079890E+02
 0.21264151522E+02 0.20581013187E+02 0.18831435728E+02 0.16810168741E+02 0.15553621236E+02
 0.16029330113E+02 0.18790878408E+02 0.23791826533E+02 0.30953718308E+02 0.39551812269E+02
 0.48020437561E+02 0.54329341530E+02 0.56676668532E+02 0.54329341530E+02 0.48020437561E+02
 0.39551812269E+02 0.30953718308E+02 0.23791826533E+02 0.18790878408E+02 0.16029330113E+02
 0.15553621236E+02 0.16810168741E+02 0.18831435728E+02 0.20581013187E+02 0.11876296959E+02
 0.11806486420E+02 0.11647689164E+02 0.11760108834E+02 0.13038433523E+02 0.16516897488E+02
 0.22497208913E+02 0.30947147147E+02 0.41383014922E+02 0.52483545102E+02 0.62544967110E+02
 0.69695163432E+02 0.72302888328E+02 0.69695163432E+02 0.62544967110E+02 0.52483545102E+02
 0.41383014922E+02 0.30947147147E+02 0.22497208913E+02 0.16516897488E+02 0.13038433523E+02
 0.11760108834E+02 0.11647689164E+02 0.11806486420E+02 0.96051909474E+01 0.97348919850E+01
 0.99995388446E+01 0.10644219723E+02 0.12991502536E+02 0.18549553705E+02 0.27628903954E+02
 0.39820514861E+02 0.53296826846E+02 0.66053534526E+02 0.76666294636E+02 0.83891568910E+02
 0.86491248109E+02 0.83891568910E+02 0.76666294636E+02 0.66053534526E+02 0.53296826846E+02
 0.39820514861E+02 0.27628903954E+02 0.18549553705E+02 0.12991502536E+02 0.10644219723E+02
 0.99995388446E+01 0.97348919850E+01 0.98941251770E+01 0.10072701562E+02 0.10345803938E+02
 0.10965952509E+02 0.13840832747E+02 0.21024446639E+02 0.33181007988E+02 0.49043165670E+02
 0.65391184049E+02 0.79734082157E+02 0.91099761979E+02 0.98756649545E+02 0.10152757250E+03
 0.98756649545E+02 0.91099761979E+02 0.79734082157E+02 0.65391184049E+02 0.49043165670E+02
 0.33181007988E+02 0.21024446639E+02 0.13840832747E+02 0.10965952509E+02 0.10345803938E+02
 0.10072701562E+02 0.94469728330E+01 0.97540294851E+01 0.10258616437E+02 0.11109083220E+02
 0.14545602693E+02 0.23033284047E+02 0.37612542367E+02 0.56312428600E+02 0.74997171092E+02
 0.90955628440E+02 0.10355150805E+03 0.11218394456E+03 0.11535836203E+03 0.11218394456E+03
 0.10355150805E+03 0.90955628440E+02 0.74997171092E+02 0.56312428600E+02 0.37612542367E+02
 0.23033284047E+02 0.14545602693E+02 0.11109083220E+02 0.10258616437E+02 0.97540294851E+01
 0.89203040635E+01 0.93153012789E+01 0.10006292845E+02 0.11056886863E+02 0.14786112546E+02
 0.23810075065E+02 0.39325355925E+02 0.59113471782E+02 0.78737409889E+02 0.95435261452E+02
 0.10868341376E+03 0.11785882091E+03 0.12125745195E+03 0.11785882091E+03 0.10868341376E+03
 0.95435261452E+02 0.78737409889E+02 0.59113471782E+02 0.39325355925E+02 0.23810075065E+02
 0.14786112546E+02 0.11056886863E+02 0.10006292845E+02 0.93153012789E+01 0.94469728330E+01
 0.97540294851E+01 0.10258616437E+02 0.11109083220E+02 0.14545602693E+02 0.23033284047E+02
 0.37612542367E+02 0.56312428600E+02 0.74997171092E+02 0.90955628440E+02 0.10355150805E+03
 0.11218394456E+03 0.11535836203E+03 0.11218394456E+03 0.10355150805E+03 0.90955628440E+02
 0.74997171092E+02 0.56312428600E+02 0.37612542367E+02 0.23033284047E+02 0.14545602693E+02
 0.11109083220E+02 0.10258616437E+02 0.97540294851E+01 0.98941251770E+01 0.10072701562E+02
 0.10345803938E+02 0.10965952509E+02 0.13840832747E+02 0.21024446639E+02 0.33181007988E+02
 0.49043165670E+02 0.65391184049E+02 0.79734082157E+02 0.91099761979E+02 0.98756649545E+02
 0.10152757250E+03 0.98756649545E+02 0.91099761979E+02 0.79734082157E+02 0.65391184049E+02
 0.49043165670E+02 0.33181007988E+02 0.21024446639E+02 0.13840832747E+02 0.10965952509E+02
 0.10345803938E+02 0.10072701562E+02 0.96051909474E+01 0.97348919850E+01 0.99995388446E+01
 0.10644219723E+02 0.12991502536E+02 0.18549553705E+02 0.27628903954E+02 0.39820514861E+02
 0.53296826846E+02 0.66053534526E+02 0.76666294636E+02 0.83891568910E+02 0.86491248109E+02
 0.83891568910E+02 0.76666294636E+02 0.66053534526E+02 0.53296826846E+02 0.39820514861E+02
 0.27628903954E+02 0.18549553705E+02 0.12991502536E+02 0.10644219723E+02 0.99995388446E+01
 0.97348919850E+01 0.11876296959E+02 0.11806486420E+02 0.11647689164E+02 0.11760108834E+02
 0.13038433523E+02 0.16516897488E+02 0.22497208913E+02 0.30947147147E+02 0.41383014922E+02
 0.52483545102E+02 0.62544967110E+02 0.69695163432E+02 0.72302888328E+02 0.69695163432E+02
 0.62544967110E+02 0.52483545102E+02 0.41383014922E+02 0.30947147147E+02 0.22497208913E+02
 0.16516897488E+02 0.13038433523E+02 0.11760108834E+02 0.11647689164E+02 0.11806486420E+02
 0.21264151522E+02 0.20581013187E+02 0.18831435728E+02 0.16810168741E+02 0.15553621236E+02
 0.16029330113E+02 0.18790878408E+02 0.23791826533E+02 0.30953718308E+02 0.39551812269E+02
 0.48020437561E+02 0.54329341530E+02 0.56676668532E+02 0.54329341530E+02 0.48020437561E+02
 0.39551812269E+02 0.30953718308E+02 0.23791826533E+02 0.18790878408E+02 0.16029330113E+02
 0.15553621236E+02 0.16810168741E+02 0.18831435728E+02 0.20581013187E+02 0.37475469924E+02
 0.35844079890E+02 0.31705603132E+02 0.26547308263E+02 0.21589284598E+02 0.18142069280E+02
 0.17166024640E+02 0.18883169779E+02 0.22761366298E+02 0.28054038908E+02 0.33609108397E+02
 0.37893278247E+02 0.39512998242E+02 0.37893278247E+02 0.33609108397E+02 0.28054038908E+02
 0.22761366298E+02 0.18883169779E+02 0.17166024640E+02 0.18142069280E+02 0.21589284598E+02
 0.26547308263E+02 0.31705603132E+02 0.35844079890E+02 0.61553304029E+02 0.58073375639E+02
 0.49482744670E+02 0.39459511199E+02 0.30531695889E+02 0.23228595444E+02 0.18200167885E+02
 0.16277398301E+02 0.17103111093E+02 0.19497440905E+02 0.22193300047E+02 0.24254229395E+02
 0.25023616121E+02 0.24254229395E+02 0.22193300047E+02 0.19497440905E+02 0.17103111093E+02