   4   4   0   0
  0.1444527E+02  0.3866000E-09  0.3866000E-09  0.3866000E-09  0.5000000E-15
  1.000000000000000E-004
  CAR 
 unknown system                          
     27.67864674     -1.82221174  301      8.95360726      1.00000000
     -1.822  0.0000E+00  0.0000E+00
     -1.724  0.0000E+00  0.0000E+00
     -1.626  0.0000E+00  0.0000E+00
     -1.527  0.0000E+00  0.0000E+00
     -1.429 -0.3468E-28 -0.3411E-29
     -1.331 -0.6891E-25 -0.6779E-26
     -1.232 -0.8407E-22 -0.8274E-23
     -1.134 -0.6292E-19 -0.6196E-20
     -1.036 -0.2887E-16 -0.2845E-17
     -0.937 -0.7847E-14 -0.7745E-15
     -0.839 -0.1339E-11 -0.1325E-12
     -0.741 -0.1390E-09 -0.1381E-10
     -0.642 -0.8748E-08 -0.8740E-09
     -0.544 -0.3313E-06 -0.3345E-07
     -0.446 -0.7467E-05 -0.7677E-06
     -0.347 -0.9816E-04 -0.1042E-04
     -0.249 -0.7206E-03 -0.8128E-04
     -0.150 -0.2617E-02 -0.3386E-03
     -0.052 -0.2173E-02 -0.5523E-03
      0.046  0.1461E-01  0.8843E-03
      0.145  0.4908E-01  0.5711E-02
      0.243  0.6046E-01  0.1166E-01
      0.341  0.2353E-01  0.1397E-01
      0.440 -0.3376E-02  0.1364E-01
      0.538  0.8173E-01  0.2167E-01
      0.636  0.2776E+00  0.4897E-01
      0.735  0.3645E+00  0.8481E-01
      0.833  0.2032E+00  0.1048E+00
      0.931  0.5385E-01  0.1101E+00
      1.030  0.2544E+00  0.1351E+00
      1.128  0.6596E+00  0.2000E+00
      1.226  0.7015E+00  0.2690E+00
      1.325  0.3499E+00  0.3034E+00
      1.423  0.2211E+00  0.3251E+00
      1.521  0.4421E+00  0.3686E+00
      1.620  0.5309E+00  0.4208E+00
      1.718  0.3215E+00  0.4524E+00
      1.816  0.8122E-01  0.4604E+00
      1.915  0.3794E-01  0.4641E+00
      2.013  0.2701E+00  0.4907E+00
      2.111  0.5795E+00  0.5476E+00
      2.210  0.7171E+00  0.6182E+00
      2.308  0.9964E+00  0.7161E+00
      2.406  0.1568E+01  0.8703E+00
      2.505  0.1798E+01  0.1047E+01
      2.603  0.1501E+01  0.1195E+01
      2.701  0.1050E+01  0.1298E+01
      2.800  0.8117E+00  0.1378E+01
      2.898  0.1151E+01  0.1491E+01
      2.996  0.2095E+01  0.1697E+01
      3.095  0.3032E+01  0.1995E+01
      3.193  0.3091E+01  0.2299E+01
      3.291  0.2521E+01  0.2547E+01
      3.390  0.2731E+01  0.2816E+01
      3.488  0.4101E+01  0.3219E+01
      3.586  0.5353E+01  0.3745E+01
      3.685  0.5704E+01  0.4306E+01
      3.783  0.5658E+01  0.4863E+01
      3.881  0.6027E+01  0.5455E+01
      3.980  0.6969E+01  0.6141E+01
      4.078  0.7477E+01  0.6876E+01
      4.176  0.6612E+01  0.7526E+01
      4.275  0.4916E+01  0.8009E+01
      4.373  0.4174E+01  0.8420E+01
      4.471  0.4907E+01  0.8902E+01
      4.570  0.5620E+01  0.9455E+01
      4.668  0.5702E+01  0.1002E+02
      4.766  0.5559E+01  0.1056E+02
      4.865  0.5470E+01  0.1110E+02
      4.963  0.5945E+01  0.1168E+02
      5.061  0.6766E+01  0.1235E+02
      5.160  0.6934E+01  0.1303E+02
      5.258  0.6625E+01  0.1368E+02
      5.356  0.7362E+01  0.1441E+02
      5.455  0.9334E+01  0.1533E+02
      5.553  0.1107E+02  0.1641E+02
      5.651  0.1220E+02  0.1761E+02
      5.750  0.1321E+02  0.1891E+02
      5.848  0.1325E+02  0.2022E+02
      5.946  0.1132E+02  0.2133E+02
      6.045  0.8703E+01  0.2219E+02
      6.143  0.7196E+01  0.2289E+02
      6.241  0.6457E+01  0.2353E+02
      6.340  0.6307E+01  0.2415E+02
      6.438  0.7474E+01  0.2488E+02
      6.536  0.8763E+01  0.2575E+02
      6.635  0.8274E+01  0.2656E+02
      6.733  0.6703E+01  0.2722E+02
      6.831  0.5800E+01  0.2779E+02
      6.930  0.5711E+01  0.2835E+02
      7.028  0.5779E+01  0.2892E+02
      7.126  0.5641E+01  0.2947E+02
      7.225  0.5616E+01  0.3002E+02
      7.323  0.5876E+01  0.3060E+02
      7.421  0.5727E+01  0.3117E+02
      7.520  0.4998E+01  0.3166E+02
      7.618  0.4556E+01  0.3211E+02
      7.716  0.5237E+01  0.3262E+02
      7.815  0.6553E+01  0.3326E+02
      7.913  0.7090E+01  0.3396E+02
      8.011  0.6732E+01  0.3462E+02
      8.110  0.6495E+01  0.3526E+02
      8.208  0.6233E+01  0.3588E+02
      8.306  0.5603E+01  0.3643E+02
      8.405  0.5394E+01  0.3696E+02
      8.503  0.5814E+01  0.3753E+02
      8.601  0.5948E+01  0.3811E+02
      8.700  0.5460E+01  0.3865E+02
      8.798  0.5118E+01  0.3915E+02
      8.896  0.5363E+01  0.3968E+02
      8.995  0.5540E+01  0.4023E+02
      9.093  0.5141E+01  0.4073E+02
      9.191  0.4590E+01  0.4118E+02
      9.290  0.3815E+01  0.4156E+02
      9.388  0.2670E+01  0.4182E+02
      9.486  0.2026E+01  0.4202E+02
      9.585  0.2260E+01  0.4224E+02
      9.683  0.2751E+01  0.4251E+02
      9.781  0.2768E+01  0.4279E+02
      9.880  0.2152E+01  0.4300E+02
      9.978  0.1386E+01  0.4313E+02
     10.076  0.7263E+00  0.4320E+02
     10.175  0.4039E+00  0.4324E+02
     10.273  0.7901E+00  0.4332E+02
     10.371  0.1346E+01  0.4345E+02
     10.470  0.1178E+01  0.4357E+02
     10.568  0.5361E+00  0.4362E+02
     10.666  0.2243E+00  0.4364E+02
     10.765  0.4785E+00  0.4369E+02
     10.863  0.9559E+00  0.4379E+02
     10.961  0.1257E+01  0.4391E+02
     11.060  0.1355E+01  0.4404E+02
     11.158  0.1270E+01  0.4417E+02
     11.257  0.8692E+00  0.4425E+02
     11.355  0.4543E+00  0.4430E+02
     11.453  0.5927E+00  0.4436E+02
     11.552  0.1165E+01  0.4447E+02
     11.650  0.1389E+01  0.4461E+02
     11.748  0.1005E+01  0.4471E+02
     11.847  0.5639E+00  0.4476E+02
     11.945  0.4923E+00  0.4481E+02
     12.043  0.5896E+00  0.4487E+02
     12.142  0.5532E+00  0.4492E+02
     12.240  0.4704E+00  0.4497E+02
     12.338  0.4259E+00  0.4501E+02
     12.437  0.4385E+00  0.4505E+02
     12.535  0.7731E+00  0.4513E+02
     12.633  0.1367E+01  0.4526E+02
     12.732  0.1839E+01  0.4544E+02
     12.830  0.2117E+01  0.4565E+02
     12.928  0.2036E+01  0.4585E+02
     13.027  0.1313E+01  0.4598E+02
     13.125  0.4287E+00  0.4602E+02
     13.223  0.1856E+00  0.4604E+02
     13.322  0.5954E+00  0.4610E+02
     13.420  0.1106E+01  0.4621E+02
     13.518  0.1304E+01  0.4634E+02
     13.617  0.1361E+01  0.4647E+02
     13.715  0.1684E+01  0.4664E+02
     13.813  0.1873E+01  0.4682E+02
     13.912  0.1508E+01  0.4697E+02
     14.010  0.1154E+01  0.4708E+02
     14.108  0.9609E+00  0.4718E+02
     14.207  0.5225E+00  0.4723E+02
     14.305  0.7034E-01  0.4724E+02
     14.403 -0.1909E-01  0.4723E+02
     14.502  0.2189E+00  0.4726E+02
     14.600  0.5561E+00  0.4731E+02
     14.698  0.7446E+00  0.4738E+02
     14.797  0.7670E+00  0.4746E+02
     14.895  0.8181E+00  0.4754E+02
     14.993  0.1006E+01  0.4764E+02
     15.092  0.1230E+01  0.4776E+02
     15.190  0.1233E+01  0.4788E+02
     15.288  0.1019E+01  0.4798E+02
     15.387  0.1066E+01  0.4809E+02
     15.485  0.1651E+01  0.4825E+02
     15.583  0.2145E+01  0.4846E+02
     15.682  0.2007E+01  0.4866E+02
     15.780  0.1484E+01  0.4880E+02
     15.878  0.9489E+00  0.4890E+02
     15.977  0.9622E+00  0.4899E+02
     16.075  0.1622E+01  0.4915E+02
     16.173  0.2049E+01  0.4935E+02
     16.272  0.1589E+01  0.4951E+02
     16.370  0.6610E+00  0.4957E+02
     16.468  0.7056E-01  0.4958E+02
     16.567  0.1350E+00  0.4959E+02
     16.665  0.9137E+00  0.4968E+02
     16.763  0.2084E+01  0.4989E+02
     16.862  0.2555E+01  0.5014E+02
     16.960  0.1778E+01  0.5031E+02
     17.058  0.6121E+00  0.5037E+02
     17.157  0.4539E-02  0.5037E+02
     17.255  0.9383E-01  0.5038E+02
     17.353  0.5773E+00  0.5044E+02
     17.452  0.1008E+01  0.5054E+02
     17.550  0.1214E+01  0.5066E+02
     17.648  0.1607E+01  0.5082E+02
     17.747  0.2399E+01  0.5105E+02
     17.845  0.3069E+01  0.5135E+02
     17.943  0.2813E+01  0.5163E+02
     18.042  0.1606E+01  0.5179E+02
     18.140  0.5935E+00  0.5185E+02
     18.238  0.4428E+00  0.5189E+02
     18.337  0.5901E+00  0.5195E+02
     18.435  0.6982E+00  0.5202E+02
     18.533  0.1059E+01  0.5212E+02
     18.632  0.1453E+01  0.5226E+02
     18.730  0.1378E+01  0.5240E+02
     18.828  0.1089E+01  0.5251E+02
     18.927  0.9281E+00  0.5260E+02
     19.025  0.9282E+00  0.5269E+02
     19.123  0.1095E+01  0.5280E+02
     19.222  0.1162E+01  0.5291E+02
     19.320  0.1149E+01  0.5302E+02
     19.418  0.1355E+01  0.5316E+02
     19.517  0.1550E+01  0.5331E+02
     19.615  0.1434E+01  0.5345E+02
     19.713  0.1205E+01  0.5357E+02
     19.812  0.1370E+01  0.5370E+02
     19.910  0.2143E+01  0.5392E+02
     20.008  0.2956E+01  0.5421E+02
     20.107  0.2943E+01  0.5450E+02
     20.205  0.2048E+01  0.5470E+02
     20.303  0.1251E+01  0.5482E+02
     20.402  0.1314E+01  0.5495E+02
     20.500  0.1729E+01  0.5512E+02
     20.598  0.1686E+01  0.5529E+02
     20.697  0.1235E+01  0.5541E+02
     20.795  0.7729E+00  0.5548E+02
     20.893  0.5541E+00  0.5554E+02
     20.992  0.7464E+00  0.5561E+02
     21.090  0.1204E+01  0.5573E+02
     21.188  0.1538E+01  0.5588E+02
     21.287  0.1628E+01  0.5604E+02
     21.385  0.1727E+01  0.5621E+02
     21.483  0.1863E+01  0.5639E+02
     21.582  0.1847E+01  0.5657E+02
     21.680  0.1772E+01  0.5675E+02
     21.778  0.1656E+01  0.5691E+02
     21.877  0.1668E+01  0.5708E+02
     21.975  0.2162E+01  0.5729E+02
     22.073  0.2455E+01  0.5753E+02
     22.172  0.1822E+01  0.5771E+02
     22.270  0.1295E+01  0.5784E+02
     22.368  0.1761E+01  0.5801E+02
     22.467  0.2301E+01  0.5824E+02
     22.565  0.2023E+01  0.5843E+02
     22.664  0.1226E+01  0.5856E+02
     22.762  0.6929E+00  0.5862E+02
     22.860  0.8469E+00  0.5871E+02
     22.959  0.1406E+01  0.5885E+02
     23.057  0.1740E+01  0.5902E+02
     23.155  0.1428E+01  0.5916E+02
     23.254  0.7028E+00  0.5923E+02
     23.352  0.2692E+00  0.5925E+02
     23.450  0.3627E+00  0.5929E+02
     23.549  0.4695E+00  0.5933E+02
     23.647  0.2695E+00  0.5936E+02
     23.745  0.3871E-01  0.5936E+02
     23.844 -0.2643E-01  0.5936E+02
     23.942 -0.1376E-01  0.5936E+02
     24.040 -0.2857E-02  0.5936E+02
     24.139 -0.9588E-03  0.5936E+02
     24.237 -0.5392E-02  0.5936E+02
     24.335 -0.2389E-01  0.5936E+02
     24.434 -0.4477E-01  0.5935E+02
     24.532  0.4702E-01  0.5936E+02
     24.630  0.4247E+00  0.5940E+02
     24.729  0.9951E+00  0.5950E+02
     24.827  0.1284E+01  0.5962E+02
     24.925  0.9564E+00  0.5972E+02
     25.024  0.3473E+00  0.5975E+02
     25.122 -0.6946E-02  0.5975E+02
     25.220 -0.7152E-01  0.5974E+02
     25.319 -0.5718E-01  0.5974E+02
     25.417  0.5226E-01  0.5974E+02
     25.515  0.4041E+00  0.5978E+02
     25.614  0.8291E+00  0.5986E+02
     25.712  0.8722E+00  0.5995E+02
     25.810  0.4807E+00  0.6000E+02
     25.909  0.9420E-01  0.6001E+02
     26.007 -0.3544E-01  0.6000E+02
     26.105 -0.2531E-01  0.6000E+02
     26.204 -0.6306E-02  0.6000E+02
     26.302 -0.8230E-03  0.6000E+02
     26.400 -0.6127E-04  0.6000E+02
     26.499 -0.2688E-05  0.6000E+02
     26.597 -0.7053E-07  0.6000E+02
     26.695 -0.1117E-08  0.6000E+02
     26.794 -0.1074E-10  0.6000E+02
     26.892 -0.6272E-13  0.6000E+02
     26.990 -0.2890E-15  0.6000E+02
     27.089  0.0000E+00  0.6000E+02
     27.187  0.0000E+00  0.6000E+02
     27.285  0.0000E+00  0.6000E+02
     27.384  0.0000E+00  0.6000E+02
     27.482  0.0000E+00  0.6000E+02
     27.580  0.0000E+00  0.6000E+02
     27.679  0.0000E+00  0.6000E+02
