    4    4    1    1
  0.1444527E+02  0.3866000E-09  0.3866000E-09  0.3866000E-09  0.5000000E-15
  1.000000000000000E-004
  CAR 
 unknown system                          
     40     27     30
 
  0.0000000E+00  0.0000000E+00  0.0000000E+00  0.8000000E-02
    1        0.177788   1.000000
    2        2.440457   1.000000
    3        3.238023   1.000000
    4        3.244035   1.000000
    5        3.354569   1.000000
    6        3.632401   1.000000
    7        3.838920   1.000000
    8        5.186100   1.000000
    9        5.203632   1.000000
   10        5.254515   1.000000
   11        6.729266   1.000000
   12        7.038018   1.000000
   13        7.187071   1.000000
   14        7.266651   1.000000
   15        7.838861   1.000000
   16        8.291222   1.000015
   17        8.896118   0.732474
   18        8.996274   0.323937
   19        9.424595  -0.002160
   20        9.756342  -0.000000
   21       10.430340  -0.000000
   22       11.492763  -0.000000
   23       11.510992  -0.000000
   24       11.519490  -0.000000
   25       17.743707   0.000000
   26       17.976200   0.000000
   27       19.587071   0.000000
   28       20.321591   0.000000
   29       20.503320   0.000000
   30       20.780088   0.000000
 
  0.2000000E+00  0.0000000E+00  0.0000000E+00  0.1600000E-01
    1        0.632380   1.000000
    2        2.773188   1.000000
    3        3.406714   1.000000
    4        3.691594   1.000000
    5        3.818147   1.000000
    6        3.826929   1.000000
    7        4.155407   1.000000
    8        5.162702   1.000000
    9        5.505285   1.000000
   10        5.646002   1.000000
   11        6.794872   1.000000
   12        6.827426   1.000000
   13        7.130270   1.000000
   14        7.275645   1.000000
   15        7.833359   1.000000
   16        7.998486   1.000000
   17        8.415894   1.000479
   18        8.886531   0.766900
   19        8.985190   0.368192
   20        9.246363  -0.029232
   21        9.712376  -0.000001
   22       10.494613  -0.000000
   23       13.260861  -0.000000
   24       13.272848  -0.000000
   25       17.781028   0.000000
   26       17.872630   0.000000
   27       20.454525   0.000000
   28       20.516988   0.000000
   29       20.603130   0.000000
   30       21.090441   0.000000
 
  0.0000000E+00  0.2000000E+00  0.0000000E+00  0.1600000E-01
    1        0.694848   1.000000
    2        2.771625   1.000000
    3        3.388574   1.000000
    4        3.672317   1.000000
    5        3.742108   1.000000
    6        3.769116   1.000000
    7        4.253761   1.000000
    8        5.171396   1.000000
    9        5.715446   1.000000
   10        5.722915   1.000000
   11        6.855319   1.000000
   12        6.917876   1.000000
   13        7.216233   1.000000
   14        7.362007   1.000000
   15        7.881969   1.000000
   16        8.279163   1.000010
   17        8.669493   1.030996
   18        8.692125   1.034519
   19        8.952231   0.505822
   20        8.964239   0.455082
   21        9.151677  -0.024096
   22        9.698623  -0.000001
   23       13.402636  -0.000000
   24       13.544873  -0.000000
   25       17.282679   0.000000
   26       18.564928   0.000000
   27       20.384727   0.000000
   28       20.417937   0.000000
   29       20.738372   0.000000
   30       21.306438   0.000000
 
  0.0000000E+00  0.0000000E+00  0.2000000E+00  0.1600000E-01
    1        0.696630   1.000000
    2        2.794596   1.000000
    3        3.538067   1.000000
    4        3.671460   1.000000
    5        3.699809   1.000000
    6        3.903023   1.000000
    7        4.033409   1.000000
    8        5.098317   1.000000
    9        5.617427   1.000000
   10        5.746791   1.000000
   11        6.790974   1.000000
   12        6.935503   1.000000
   13        7.281539   1.000000
   14        7.300611   1.000000
   15        7.931793   1.000000
   16        7.959929   1.000000
   17        8.141121   1.000000
   18        8.892932   0.744110
   19        9.024751   0.219041
   20        9.101068   0.027774
   21        9.713070  -0.000001
   22        9.811168  -0.000000
   23       13.349332  -0.000000
   24       13.505224  -0.000000
   25       16.916253   0.000000
   26       18.871179   0.000000
   27       20.467142   0.000000
   28       20.489611   0.000000
   29       20.807376   0.000000
   30       21.280303   0.000000
 
  0.4000000E+00  0.0000000E+00  0.0000000E+00  0.1600000E-01
    1        1.691560   1.000000
    2        3.493417   1.000000
    3        3.752154   1.000000
    4        3.984711   1.000000
    5        4.741002   1.000000
    6        4.837197   1.000000
    7        5.038706   1.000000
    8        5.057228   1.000000
    9        5.823206   1.000000
   10        6.041805   1.000000
   11        6.424134   1.000000
   12        6.619497   1.000000
   13        6.691962   1.000000
   14        6.732796   1.000000
   15        7.477237   1.000000
   16        8.072698   1.000000
   17        8.233108   1.000002
   18        8.247071   1.000003
   19        8.257615   1.000005
   20        8.388642   1.000240
   21        9.313079  -0.014533
   22       11.109070  -0.000000
   23       15.691661   0.000000
   24       15.765988   0.000000
   25       16.801473   0.000000
   26       17.906603   0.000000
   27       18.780539   0.000000
   28       18.892839   0.000000
   29       19.340330   0.000000
   30       22.143955   0.000000
 
  0.0000000E+00  0.4000000E+00  0.0000000E+00  0.1600000E-01
    1        2.042768   1.000000
    2        3.424606   1.000000
    3        3.677807   1.000000
    4        3.777907   1.000000
    5        4.658838   1.000000
    6        4.710175   1.000000
    7        5.339730   1.000000
    8        5.498678   1.000000
    9        6.158649   1.000000
   10        6.352823   1.000000
   11        6.378545   1.000000
   12        6.496753   1.000000
   13        6.519849   1.000000
   14        7.267078   1.000000
   15        7.404304   1.000000
   16        7.827957   1.000000
   17        7.872108   1.000000
   18        7.911587   1.000000
   19        8.082222   1.000000
   20        8.626484   1.021428
   21        9.101451   0.027176
   22        9.747756  -0.000000
   23       15.988983   0.000000
   24       16.001804   0.000000
   25       16.480764   0.000000
   26       18.328804   0.000000
   27       18.581661   0.000000
   28       18.723989   0.000000
   29       20.579972   0.000000
   30       21.237304   0.000000
 
  0.0000000E+00  0.0000000E+00  0.4000000E+00  0.1600000E-01
    1        2.062056   1.000000
    2        3.447517   1.000000
    3        3.944675   1.000000
    4        3.982147   1.000000
    5        4.764391   1.000000
    6        4.810045   1.000000
    7        4.907597   1.000000
    8        5.038978   1.000000
    9        5.823223   1.000000
   10        6.095373   1.000000
   11        6.253026   1.000000
   12        6.681557   1.000000
   13        6.727714   1.000000
   14        6.862596   1.000000
   15        7.413374   1.000000
   16        8.023024   1.000000
   17        8.054622   1.000000
   18        8.175543   1.000000
   19        8.195916   1.000001
   20        8.515304   1.004104
   21        8.905980   0.695331
   22       10.488832  -0.000000
   23       15.946574   0.000000
   24       15.997036   0.000000
   25       16.033421   0.000000
   26       18.560600   0.000000
   27       18.819707   0.000000
   28       18.896104   0.000000
   29       20.219539   0.000000
   30       21.518860   0.000000
 
  0.2000000E+00  0.2000000E+00  0.0000000E+00  0.3200000E-01
    1        1.126343   1.000000
    2        3.105553   1.000000
    3        3.709792   1.000000
    4        3.842818   1.000000
    5        3.970686   1.000000
    6        4.116577   1.000000
    7        4.542004   1.000000
    8        5.508172   1.000000
    9        5.586356   1.000000
   10        5.782675   1.000000
   11        6.535886   1.000000
   12        7.044315   1.000000
   13        7.200819   1.000000
   14        7.416644   1.000000
   15        7.721920   1.000000
   16        7.727022   1.000000
   17        7.863762   1.000000
   18        8.708354   1.035458
   19        8.754777   1.024509
   20        8.940548   0.555127
   21        9.566003  -0.000066
   22       10.743821  -0.000000
   23       11.883388  -0.000000
   24       14.651430   0.000000
   25       16.838239   0.000000
   26       19.108214   0.000000
   27       19.952846   0.000000
   28       20.321272   0.000000
   29       21.098331   0.000000
   30       21.980036   0.000000
 
  0.0000000E+00  0.2000000E+00  0.2000000E+00  0.3200000E-01
    1        1.158686   1.000000
    2        3.138683   1.000000
    3        3.764903   1.000000
    4        3.894310   1.000000
    5        3.917069   1.000000
    6        4.123760   1.000000
    7        4.491608   1.000000
    8        5.465200   1.000000
    9        5.593227   1.000000
   10        5.811990   1.000000
   11        6.488080   1.000000
   12        6.966692   1.000000
   13        7.275515   1.000000
   14        7.365006   1.000000
   15        7.663344   1.000000
   16        7.986966   1.000000
   17        8.052735   1.000000
   18        8.544135   1.006840
   19        8.601168   1.015926
   20        8.813056   0.960832
   21        9.312113  -0.014720
   22       10.826374  -0.000000
   23       12.249694  -0.000000
   24       14.533462   0.000000
   25       16.671146   0.000000
   26       19.144018   0.000000
   27       19.514193   0.000000
   28       20.934994   0.000000
   29       21.218173   0.000000
   30       21.931530   0.000000
 
  0.2000000E+00  0.0000000E+00  0.2000000E+00  0.3200000E-01
    1        1.125796   1.000000
    2        3.124505   1.000000
    3        3.706171   1.000000
    4        3.859373   1.000000
    5        4.006678   1.000000
    6        4.216233   1.000000
    7        4.435827   1.000000
    8        5.375578   1.000000
    9        5.543960   1.000000
   10        5.943054   1.000000
   11        6.515810   1.000000
   12        7.028153   1.000000
   13        7.175635   1.000000
   14        7.337819   1.000000
   15        7.482777   1.000000
   16        7.668461   1.000000
   17        7.760092   1.000000
   18        8.855797   0.864025
   19        8.956229   0.488908
   20        9.127705  -0.005948
   21        9.707621  -0.000001
   22       10.943039  -0.000000
   23       11.549529  -0.000000
   24       14.657270   0.000000
   25       16.781252   0.000000
   26       19.029846   0.000000
   27       19.898291   0.000000
   28       20.496443   0.000000
   29       21.209091   0.000000
   30       21.948956   0.000000
 
  0.4000000E+00  0.2000000E+00  0.0000000E+00  0.3200000E-01
    1        2.141702   1.000000
    2        3.701840   1.000000
    3        4.048208   1.000000
    4        4.111886   1.000000
    5        4.464024   1.000000
    6        4.686984   1.000000
    7        5.016029   1.000000
    8        5.035553   1.000000
    9        5.418419   1.000000
   10        5.585664   1.000000
   11        5.699897   1.000000
   12        5.839585   1.000000
   13        6.346867   1.000000
   14        6.396863   1.000000
   15        6.732332   1.000000
   16        6.858786   1.000000
   17        7.305744   1.000000
   18        8.170214   1.000000
   19        8.181213   1.000000
   20        8.725260   1.034272
   21        9.250729  -0.028288
   22        9.513574  -0.000274
   23       12.956178  -0.000000
   24       15.140047   0.000000
   25       16.814307   0.000000
   26       17.931600   0.000000
   27       19.596594   0.000000
   28       19.788445   0.000000
   29       22.010527   0.000000
   30       23.117690   0.000000
 
  0.0000000E+00  0.4000000E+00  0.2000000E+00  0.3200000E-01
    1        2.377203   1.000000
    2        3.614790   1.000000
    3        3.896906   1.000000
    4        3.951697   1.000000
    5        4.372387   1.000000
    6        4.640442   1.000000
    7        5.129452   1.000000
    8        5.188910   1.000000
    9        5.648995   1.000000
   10        5.704563   1.000000
   11        5.822881   1.000000
   12        5.885468   1.000000
   13        6.221096   1.000000
   14        6.335419   1.000000
   15        7.103232   1.000000
   16        7.340649   1.000000
   17        7.469124   1.000000
   18        7.739402   1.000000
   19        8.043879   1.000000
   20        8.331218   1.000049
   21        8.707478   1.035453
   22        9.052926   0.131779
   23       13.540832  -0.000000
   24       15.022819   0.000000
   25       16.698148   0.000000
   26       18.248614   0.000000
   27       19.372639   0.000000
   28       19.592916   0.000000
   29       21.796201   0.000000
   30       23.464323   0.000000
 
  0.2000000E+00  0.0000000E+00  0.4000000E+00  0.3200000E-01
    1        2.421035   1.000000
    2        3.622440   1.000000
    3        4.041360   1.000000
    4        4.143176   1.000000
    5        4.482852   1.000000
    6        4.776113   1.000000
    7        4.910425   1.000000
    8        5.013971   1.000000
    9        5.336176   1.000000
   10        5.563544   1.000000
   11        5.724793   1.000000
   12        5.813078   1.000000
   13        6.402419   1.000000
   14        6.601993   1.000000
   15        6.734815   1.000000
   16        7.259600   1.000000
   17        7.315708   1.000000
   18        7.879742   1.000000
   19        8.159117   1.000000
   20        8.458607   1.001294
   21        8.869836   0.822336
   22        9.066170   0.097370
   23       13.367600  -0.000000
   24       15.074077   0.000000
   25       16.799837   0.000000
   26       17.826818   0.000000
   27       19.380582   0.000000
   28       20.131861   0.000000
   29       22.021732   0.000000
   30       23.099239   0.000000
 
 -0.2000000E+00  0.4000000E+00  0.0000000E+00  0.3200000E-01
    1        2.416176   1.000000
    2        3.590429   1.000000
    3        3.944379   1.000000
    4        3.957905   1.000000
    5        4.380239   1.000000
    6        4.602896   1.000000
    7        5.147273   1.000000
    8        5.178523   1.000000
    9        5.721017   1.000000
   10        5.754805   1.000000
   11        5.841071   1.000000
   12        5.861726   1.000000
   13        6.244571   1.000000
   14        6.371009   1.000000
   15        7.108431   1.000000
   16        7.269547   1.000000
   17        7.558615   1.000000
   18        7.782902   1.000000
   19        8.110312   1.000000
   20        8.156749   1.000000
   21        8.562932   1.009267
   22        8.862595   0.844425
   23       13.450197  -0.000000
   24       15.084262   0.000000
   25       16.790414   0.000000
   26       18.203335   0.000000
   27       19.363145   0.000000
   28       19.735852   0.000000
   29       22.053020   0.000000
   30       23.154581   0.000000
 
 -0.4000000E+00  0.0000000E+00  0.2000000E+00  0.3200000E-01
    1        2.137400   1.000000
    2        3.734453   1.000000
    3        4.016812   1.000000
    4        4.045771   1.000000
    5        4.432028   1.000000
    6        4.742937   1.000000
    7        5.006876   1.000000
    8        5.117388   1.000000
    9        5.318754   1.000000
   10        5.546864   1.000000
   11        5.710732   1.000000
   12        5.840457   1.000000
   13        6.429007   1.000000
   14        6.487288   1.000000
   15        6.678556   1.000000
   16        6.910495   1.000000
   17        7.339831   1.000000
   18        8.064000   1.000000
   19        8.276476   1.000009
   20        8.775454   1.009765
   21        9.197698  -0.035455
   22        9.452106  -0.001197
   23       12.919346  -0.000000
   24       15.195765   0.000000
   25       16.779198   0.000000
   26       17.900570   0.000000
   27       19.513394   0.000000
   28       19.712352   0.000000
   29       22.086114   0.000000
   30       23.024942   0.000000
 
  0.0000000E+00  0.2000000E+00  0.4000000E+00  0.3200000E-01
    1        2.388529   1.000000
    2        3.589766   1.000000
    3        4.112887   1.000000
    4        4.177348   1.000000
    5        4.475110   1.000000
    6        4.732903   1.000000
    7        4.921295   1.000000
    8        4.959819   1.000000
    9        5.348025   1.000000
   10        5.620729   1.000000
   11        5.681291   1.000000
   12        5.803715   1.000000
   13        6.355611   1.000000
   14        6.372688   1.000000
   15        6.820141   1.000000
   16        7.087314   1.000000
   17        7.323665   1.000000
   18        7.994600   1.000000
   19        8.237538   1.000003
   20        8.344112   1.000071
   21        9.156192  -0.026417
   22        9.227902  -0.032763
   23       13.485224  -0.000000
   24       14.950540   0.000000
   25       16.747003   0.000000
   26       17.898937   0.000000
   27       19.470274   0.000000
   28       20.051954   0.000000
   29       21.712474   0.000000
   30       23.486043   0.000000
 
  0.4000000E+00  0.4000000E+00  0.0000000E+00  0.3200000E-01
    1        3.246803   1.000000
    2        4.105744   1.000000
    3        4.385499   1.000000
    4        4.661904   1.000000
    5        4.810298   1.000000
    6        4.944781   1.000000
    7        5.122524   1.000000
    8        5.154581   1.000000
    9        5.391993   1.000000
   10        5.708699   1.000000
   11        5.940948   1.000000
   12        6.118977   1.000000
   13        6.152945   1.000000
   14        6.780561   1.000000
   15        6.954663   1.000000
   16        7.185246   1.000000
   17        7.295617   1.000000
   18        7.995933   1.000000
   19        8.211787   1.000001
   20        8.343631   1.000070
   21        8.612129   1.018226
   22        9.940054  -0.000000
   23       11.712638  -0.000000
   24       12.931992  -0.000000
   25       18.639916   0.000000
   26       19.165457   0.000000
   27       20.490476   0.000000
   28       21.176158   0.000000
   29       21.359930   0.000000
   30       22.061549   0.000000
 
  0.0000000E+00  0.4000000E+00  0.4000000E+00  0.3200000E-01
    1        3.145912   1.000000
    2        3.928414   1.000000
    3        4.221883   1.000000
    4        4.633291   1.000000
    5        4.791105   1.000000
    6        5.005677   1.000000
    7        5.069099   1.000000
    8        5.298568   1.000000
    9        5.461988   1.000000
   10        5.771742   1.000000
   11        5.877696   1.000000
   12        6.089024   1.000000
   13        6.159093   1.000000
   14        6.910199   1.000000
   15        6.940229   1.000000
   16        7.056325   1.000000
   17        7.178404   1.000000
   18        7.996372   1.000000
   19        8.491615   1.002594
   20        8.616925   1.019276
   21        8.686259   1.033806
   22        9.763568  -0.000000
   23       12.322405  -0.000000
   24       12.911722  -0.000000
   25       18.385666   0.000000
   26       18.847065   0.000000
   27       20.411474   0.000000
   28       20.666568   0.000000
   29       21.081135   0.000000
   30       22.450358   0.000000
 
  0.4000000E+00  0.0000000E+00  0.4000000E+00  0.3200000E-01
    1        3.207801   1.000000
    2        4.232762   1.000000
    3        4.357808   1.000000
    4        4.582925   1.000000
    5        4.660567   1.000000
    6        4.846914   1.000000
    7        4.916630   1.000000
    8        5.104419   1.000000
    9        5.709414   1.000000
   10        5.747151   1.000000
   11        6.040774   1.000000
   12        6.276123   1.000000
   13        6.465073   1.000000
   14        6.522352   1.000000
   15        6.757342   1.000000
   16        7.309619   1.000000
   17        7.623470   1.000000
   18        7.807520   1.000000
   19        8.072391   1.000000
   20        8.086167   1.000000
   21        8.900274   0.717022
   22       10.319364  -0.000000
   23       11.265602  -0.000000
   24       12.766216  -0.000000
   25       18.558329   0.000000
   26       19.158482   0.000000
   27       20.672157   0.000000
   28       21.013567   0.000000
   29       21.503289   0.000000
   30       21.909027   0.000000
 
  0.2000000E+00  0.2000000E+00  0.2000000E+00  0.6400000E-01
    1        1.523659   1.000000
    2        3.350106   1.000000
    3        3.956453   1.000000
    4        4.066777   1.000000
    5        4.161337   1.000000
    6        4.759401   1.000000
    7        4.867521   1.000000
    8        5.322727   1.000000
    9        5.834405   1.000000
   10        5.942953   1.000000
   11        6.497943   1.000000
   12        6.756682   1.000000
   13        6.983645   1.000000
   14        7.048747   1.000000
   15        7.504278   1.000000
   16        7.840980   1.000000
   17        8.452546   1.001131
   18        8.532807   1.005632
   19        8.689910   1.034270
   20        8.949835   0.515960
   21        9.721403  -0.000000
   22       11.641135  -0.000000
   23       12.554916  -0.000000
   24       12.782178  -0.000000
   25       17.625126   0.000000
   26       17.935810   0.000000
   27       18.606696   0.000000
   28       21.418049   0.000000
   29       21.739811   0.000000
   30       22.059319   0.000000
 
  0.4000000E+00  0.2000000E+00  0.2000000E+00  0.6400000E-01
    1        2.384879   1.000000
    2        3.660191   1.000000
    3        4.131948   1.000000
    4        4.465433   1.000000
    5        4.497424   1.000000
    6        4.702462   1.000000
    7        5.341155   1.000000
    8        5.464915   1.000000
    9        5.506588   1.000000
   10        5.556048   1.000000
   11        5.919044   1.000000
   12        5.943537   1.000000
   13        6.152423   1.000000
   14        6.538756   1.000000
   15        6.717616   1.000000
   16        7.252372   1.000000
   17        7.666381   1.000000
   18        7.955766   1.000000
   19        8.326621   1.000043
   20        8.560805   1.008965
   21        9.277922  -0.022071
   22        9.587572  -0.000035
   23       13.704215  -0.000000
   24       13.837630  -0.000000
   25       15.529652   0.000000
   26       16.216564   0.000000
   27       20.060205   0.000000
   28       21.579903   0.000000
   29       22.326187   0.000000
   30       22.484363   0.000000
 
  0.2000000E+00  0.4000000E+00  0.2000000E+00  0.6400000E-01
    1        2.590645   1.000000
    2        3.516167   1.000000
    3        3.892847   1.000000
    4        4.434134   1.000000
    5        4.588581   1.000000
    6        4.728871   1.000000
    7        5.422279   1.000000
    8        5.557109   1.000000
    9        5.589650   1.000000
   10        5.842005   1.000000
   11        5.919808   1.000000
   12        5.983650   1.000000
   13        6.221448   1.000000
   14        6.585573   1.000000
   15        6.875451   1.000000
   16        7.012541   1.000000
   17        7.658821   1.000000
   18        7.808561   1.000000
   19        7.885238   1.000000
   20        8.583996   1.012654
   21        9.173671  -0.032650
   22        9.400792  -0.003469
   23       13.758006  -0.000000
   24       14.070200  -0.000000
   25       15.565326   0.000000
   26       16.083017   0.000000
   27       20.156298   0.000000
   28       21.676865   0.000000
   29       22.380867   0.000000
   30       22.523641   0.000000
 
  0.2000000E+00  0.2000000E+00  0.4000000E+00  0.6400000E-01
    1        2.600712   1.000000
    2        3.525158   1.000000
    3        4.039972   1.000000
    4        4.431940   1.000000
    5        4.586077   1.000000
    6        4.919934   1.000000
    7        5.333825   1.000000
    8        5.402211   1.000000
    9        5.490043   1.000000
   10        5.538703   1.000000
   11        5.856676   1.000000
   12        5.972510   1.000000
   13        6.162078   1.000000
   14        6.608540   1.000000
   15        6.781680   1.000000
   16        7.126079   1.000000
   17        7.695214   1.000000
   18        7.892413   1.000000
   19        8.180018   1.000000
   20        8.434629   1.000750
   21        9.207497  -0.035168
   22        9.533156  -0.000164
   23       13.740443  -0.000000
   24       14.014392  -0.000000
   25       15.514281   0.000000
   26       16.204073   0.000000
   27       20.070185   0.000000
   28       21.440557   0.000000
   29       22.352804   0.000000
   30       22.614037   0.000000
 
  0.4000000E+00  0.4000000E+00  0.2000000E+00  0.6400000E-01
    1        3.067946   1.000000
    2        3.451917   1.000000
    3        3.762885   1.000000
    4        4.224902   1.000000
    5        5.031441   1.000000
    6        5.139619   1.000000
    7        5.421324   1.000000
    8        5.643343   1.000000
    9        5.691458   1.000000
   10        5.758191   1.000000
   11        5.880483   1.000000
   12        6.109775   1.000000
   13        6.300572   1.000000
   14        6.417211   1.000000
   15        6.468118   1.000000
   16        6.609752   1.000000
   17        7.437509   1.000000
   18        8.090998   1.000000
   19        8.389527   1.000246
   20        8.788322   0.996503
   21        9.028096   0.207739
   22       10.000340  -0.000000
   23       11.523970  -0.000000
   24       12.699037  -0.000000
   25       15.745535   0.000000
   26       17.393193   0.000000
   27       17.767583   0.000000
   28       19.935373   0.000000
   29       22.939173   0.000000
   30       24.849433   0.000000
 
  0.2000000E+00  0.4000000E+00  0.4000000E+00  0.6400000E-01
    1        3.063920   1.000000
    2        3.472320   1.000000
    3        3.527475   1.000000
    4        4.234683   1.000000
    5        5.024644   1.000000
    6        5.173142   1.000000
    7        5.438611   1.000000
    8        5.607168   1.000000
    9        5.736426   1.000000
   10        5.756410   1.000000
   11        5.879358   1.000000
   12        6.073917   1.000000
   13        6.266290   1.000000
   14        6.392307   1.000000
   15        6.508747   1.000000
   16        6.597765   1.000000
   17        7.559747   1.000000
   18        8.118257   1.000000
   19        8.541755   1.006571
   20        8.768441   1.015619
   21        9.001018   0.305504
   22        9.876095  -0.000000
   23       12.032237  -0.000000
   24       12.874455  -0.000000
   25       15.464007   0.000000
   26       16.919018   0.000000
   27       17.849935   0.000000
   28       19.892398   0.000000
   29       23.010443   0.000000
   30       24.673406   0.000000
 
  0.4000000E+00  0.2000000E+00  0.4000000E+00  0.6400000E-01
    1        3.062085   1.000000
    2        3.487283   1.000000
    3        3.808232   1.000000
    4        3.991995   1.000000
    5        4.962140   1.000000
    6        5.149923   1.000000
    7        5.428044   1.000000
    8        5.660012   1.000000
    9        5.732759   1.000000
   10        5.880478   1.000000
   11        6.048029   1.000000
   12        6.133521   1.000000
   13        6.164726   1.000000
   14        6.494589   1.000000
   15        6.533851   1.000000
   16        6.584382   1.000000
   17        7.503103   1.000000
   18        7.832086   1.000000
   19        8.192314   1.000001
   20        8.973751   0.415240
   21        9.193878  -0.035371
   22       10.352082  -0.000000
   23       11.061399  -0.000000
   24       12.608377  -0.000000
   25       15.719970   0.000000
   26       17.460139   0.000000
   27       17.752769   0.000000
   28       19.992631   0.000000
   29       22.822866   0.000000
   30       24.786019   0.000000
 
  0.4000000E+00  0.4000000E+00  0.4000000E+00  0.6400000E-01
    1        2.894718   1.000000
    2        2.959598   1.000000
    3        3.230123   1.000000
    4        3.640252   1.000000
    5        5.214701   1.000000
    6        5.285393   1.000000
    7        5.477610   1.000000
    8        5.552457   1.000000
    9        5.676995   1.000000
   10        5.704821   1.000000
   11        5.824605   1.000000
   12        6.079054   1.000000
   13        6.877686   1.000000
   14        7.044970   1.000000
   15        7.457640   1.000000
   16        7.778158   1.000000
   17        7.865659   1.000000
   18        8.363643   1.000123
   19        8.490469   1.002535
   20        8.900138   0.717531
   21        9.703493  -0.000001
   22       10.318025  -0.000000
   23       10.891462  -0.000000
   24       11.144945  -0.000000
   25       14.833131   0.000000
   26       15.287788   0.000000
   27       16.106758   0.000000
   28       17.647045   0.000000
   29       25.564669   0.000000
   30       25.678647   0.000000
