   2   2   0   0
  0.9445464E+01  0.2306700E-09  0.2306700E-09  0.4099590E-09  0.5000000E-15
  1.000000000000000E-004
  CAR 
 unknown system                          
     75.44226572     -5.20966554  301      7.79269717      1.00000000
     -5.210  0.0000E+00  0.0000E+00
     -4.941  0.0000E+00  0.0000E+00
     -4.672  0.0000E+00  0.0000E+00
     -4.403  0.0000E+00  0.0000E+00
     -4.134  0.0000E+00  0.0000E+00
     -3.865  0.0000E+00  0.0000E+00
     -3.597  0.0000E+00  0.0000E+00
     -3.328 -0.3879E-36 -0.1043E-36
     -3.059 -0.1410E-26 -0.3791E-27
     -2.790 -0.1344E-18 -0.3614E-19
     -2.521 -0.3202E-12 -0.8608E-13
     -2.252 -0.1991E-07 -0.5353E-08
     -1.984 -0.2975E-04 -0.8004E-05
     -1.715 -0.4186E-03 -0.1205E-03
     -1.446  0.8664E-02  0.2209E-02
     -1.177  0.4833E-01  0.1520E-01
     -0.908  0.9809E-01  0.4157E-01
     -0.639  0.5501E-01  0.5636E-01
     -0.371  0.1400E+00  0.9399E-01
     -0.102  0.1658E+00  0.1386E+00
      0.167  0.1921E+00  0.1902E+00
      0.436  0.8406E-01  0.2128E+00
      0.705  0.2034E+00  0.2675E+00
      0.974  0.3084E+00  0.3504E+00
      1.242  0.2756E+00  0.4245E+00
      1.511  0.3223E+00  0.5111E+00
      1.780  0.2213E+00  0.5706E+00
      2.049  0.3857E+00  0.6743E+00
      2.318  0.9246E+00  0.9229E+00
      2.587  0.1521E+01  0.1332E+01
      2.856  0.1689E+01  0.1786E+01
      3.124  0.2596E+01  0.2484E+01
      3.393  0.2250E+01  0.3089E+01
      3.662  0.2823E+01  0.3848E+01
      3.931  0.2048E+01  0.4399E+01
      4.200  0.2743E+01  0.5136E+01
      4.469  0.2865E+01  0.5906E+01
      4.737  0.3055E+01  0.6727E+01
      5.006  0.2412E+01  0.7376E+01
      5.275  0.2103E+01  0.7941E+01
      5.544  0.2741E+01  0.8678E+01
      5.813  0.3739E+01  0.9683E+01
      6.082  0.3364E+01  0.1059E+02
      6.350  0.3562E+01  0.1155E+02
      6.619  0.3127E+01  0.1239E+02
      6.888  0.3470E+01  0.1332E+02
      7.157  0.2997E+01  0.1412E+02
      7.426  0.2916E+01  0.1491E+02
      7.695  0.3099E+01  0.1574E+02
      7.963  0.2472E+01  0.1641E+02
      8.232  0.3005E+01  0.1721E+02
      8.501  0.4290E+01  0.1837E+02
      8.770  0.4417E+01  0.1955E+02
      9.039  0.4006E+01  0.2063E+02
      9.308  0.2182E+01  0.2122E+02
      9.577  0.1546E+00  0.2126E+02
      9.845  0.4417E+00  0.2138E+02
     10.114  0.6390E+00  0.2155E+02
     10.383  0.6961E+00  0.2174E+02
     10.652  0.7069E+00  0.2193E+02
     10.921  0.5410E+00  0.2207E+02
     11.190  0.4241E+00  0.2219E+02
     11.458  0.3298E+00  0.2228E+02
     11.727  0.3776E+00  0.2238E+02
     11.996  0.4365E+00  0.2249E+02
     12.265  0.6252E+00  0.2266E+02
     12.534  0.4977E+00  0.2280E+02
     12.803  0.3554E+00  0.2289E+02
     13.071  0.4437E+00  0.2301E+02
     13.340  0.5250E+00  0.2315E+02
     13.609  0.1634E+00  0.2320E+02
     13.878  0.3298E+00  0.2328E+02
     14.147  0.3036E+00  0.2337E+02
     14.416  0.4299E+00  0.2348E+02
     14.684  0.2926E+00  0.2356E+02
     14.953  0.2370E+00  0.2362E+02
     15.222  0.3736E+00  0.2372E+02
     15.491  0.5013E+00  0.2386E+02
     15.760  0.2270E+00  0.2392E+02
     16.029  0.2446E+00  0.2399E+02
     16.298  0.2789E+00  0.2406E+02
     16.566  0.1737E+00  0.2411E+02
     16.835  0.1390E+00  0.2415E+02
     17.104  0.1484E+00  0.2419E+02
     17.373  0.1906E+00  0.2424E+02
     17.642  0.4605E+00  0.2436E+02
     17.911  0.3747E+00  0.2446E+02
     18.179  0.4641E+00  0.2459E+02
     18.448  0.9531E+00  0.2484E+02
     18.717  0.8291E+00  0.2506E+02
     18.986  0.5931E+00  0.2522E+02
     19.255  0.7676E+00  0.2543E+02
     19.524  0.3422E+00  0.2552E+02
     19.792  0.6795E+00  0.2571E+02
     20.061  0.6525E+00  0.2588E+02
     20.330  0.8705E+00  0.2611E+02
     20.599  0.5618E+00  0.2627E+02
     20.868  0.8888E+00  0.2650E+02
     21.137  0.5610E+00  0.2666E+02
     21.405  0.5013E+00  0.2679E+02
     21.674  0.7852E+00  0.2700E+02
     21.943  0.5529E+00  0.2715E+02
     22.212  0.7255E+00  0.2734E+02
     22.481  0.5283E+00  0.2749E+02
     22.750  0.5150E+00  0.2763E+02
     23.019  0.6785E+00  0.2781E+02
     23.287  0.3675E+00  0.2791E+02
     23.556  0.7531E+00  0.2811E+02
     23.825  0.6631E+00  0.2829E+02
     24.094  0.5266E+00  0.2843E+02
     24.363  0.7557E+00  0.2863E+02
     24.632  0.5442E+00  0.2878E+02
     24.900  0.5581E+00  0.2893E+02
     25.169  0.9926E+00  0.2920E+02
     25.438  0.1233E+01  0.2953E+02
     25.707  0.6648E+00  0.2971E+02
     25.976  0.8367E+00  0.2993E+02
     26.245  0.8356E+00  0.3016E+02
     26.513  0.5233E+00  0.3030E+02
     26.782  0.9191E+00  0.3054E+02
     27.051  0.1008E+01  0.3081E+02
     27.320  0.9793E+00  0.3108E+02
     27.589  0.9583E+00  0.3133E+02
     27.858  0.8145E+00  0.3155E+02
     28.126  0.8081E+00  0.3177E+02
     28.395  0.1089E+01  0.3206E+02
     28.664  0.1134E+01  0.3237E+02
     28.933  0.9497E+00  0.3262E+02
     29.202  0.5394E+00  0.3277E+02
     29.471  0.5355E+00  0.3291E+02
     29.740  0.1185E+01  0.3323E+02
     30.008  0.8569E+00  0.3346E+02
     30.277  0.5649E+00  0.3361E+02
     30.546  0.1103E+01  0.3391E+02
     30.815  0.1083E+01  0.3420E+02
     31.084  0.3239E+00  0.3429E+02
     31.353  0.6102E+00  0.3445E+02
     31.621  0.8206E+00  0.3467E+02
     31.890  0.6501E+00  0.3485E+02
     32.159  0.5535E+00  0.3500E+02
     32.428  0.6436E+00  0.3517E+02
     32.697  0.9283E+00  0.3542E+02
     32.966  0.6545E+00  0.3560E+02
     33.234  0.6133E+00  0.3576E+02
     33.503  0.7548E+00  0.3596E+02
     33.772  0.5273E+00  0.3610E+02
     34.041  0.7645E+00  0.3631E+02
     34.310  0.8591E+00  0.3654E+02
     34.579  0.7381E+00  0.3674E+02
     34.847  0.6902E+00  0.3693E+02
     35.116  0.7829E+00  0.3714E+02
     35.385  0.6643E+00  0.3731E+02
     35.654  0.5942E+00  0.3747E+02
     35.923  0.1011E+01  0.3775E+02
     36.192  0.9711E+00  0.3801E+02
     36.460  0.9415E+00  0.3826E+02
     36.729  0.6747E+00  0.3844E+02
     36.998  0.9744E+00  0.3870E+02
     37.267  0.1041E+01  0.3898E+02
     37.536  0.1003E+01  0.3925E+02
     37.805  0.5061E+00  0.3939E+02
     38.074  0.1059E+01  0.3967E+02
     38.342  0.1629E+01  0.4011E+02
     38.611  0.7075E+00  0.4030E+02
     38.880  0.9867E+00  0.4057E+02
     39.149  0.1003E+01  0.4084E+02
     39.418  0.6792E+00  0.4102E+02
     39.687  0.8621E+00  0.4125E+02
     39.955  0.5600E+00  0.4140E+02
     40.224  0.5323E+00  0.4154E+02
     40.493  0.6962E+00  0.4173E+02
     40.762  0.1034E+01  0.4201E+02
     41.031  0.4844E+00  0.4214E+02
     41.300  0.6518E+00  0.4232E+02
     41.568  0.8126E+00  0.4253E+02
     41.837  0.1255E+01  0.4287E+02
     42.106  0.9575E+00  0.4313E+02
     42.375  0.5909E+00  0.4329E+02
     42.644  0.8947E+00  0.4353E+02
     42.913  0.7364E+00  0.4373E+02
     43.181  0.5321E+00  0.4387E+02
     43.450  0.9857E+00  0.4413E+02
     43.719  0.4984E+00  0.4427E+02
     43.988  0.1137E+01  0.4457E+02
     44.257  0.1055E+01  0.4486E+02
     44.526  0.1269E+01  0.4520E+02
     44.795  0.7605E+00  0.4540E+02
     45.063  0.1355E+01  0.4577E+02
     45.332  0.7727E+00  0.4598E+02
     45.601  0.8354E+00  0.4620E+02
     45.870  0.1017E+01  0.4647E+02
     46.139  0.1173E+01  0.4679E+02
     46.408  0.1281E+01  0.4713E+02
     46.676  0.1205E+01  0.4746E+02
     46.945  0.9233E+00  0.4771E+02
     47.214  0.9632E+00  0.4796E+02
     47.483  0.9870E+00  0.4823E+02
     47.752  0.9843E+00  0.4849E+02
     48.021  0.8092E+00  0.4871E+02
     48.289  0.9916E+00  0.4898E+02
     48.558  0.9679E+00  0.4924E+02
     48.827  0.6076E+00  0.4940E+02
     49.096  0.5076E+00  0.4954E+02
     49.365  0.7592E+00  0.4974E+02
     49.634  0.1192E+01  0.5006E+02
     49.902  0.1163E+01  0.5038E+02
     50.171  0.8605E+00  0.5061E+02
     50.440  0.9051E+00  0.5085E+02
     50.709  0.9256E+00  0.5110E+02
     50.978  0.1224E+01  0.5143E+02
     51.247  0.8217E+00  0.5165E+02
     51.516  0.8327E+00  0.5187E+02
     51.784  0.1232E+01  0.5220E+02
     52.053  0.1116E+01  0.5250E+02
     52.322  0.7677E+00  0.5271E+02
     52.591  0.5409E+00  0.5286E+02
     52.860  0.1143E+01  0.5316E+02
     53.129  0.1676E+01  0.5361E+02
     53.397  0.1374E+01  0.5398E+02
     53.666  0.9427E+00  0.5424E+02
     53.935  0.1367E+01  0.5460E+02
     54.204  0.1145E+01  0.5491E+02
     54.473  0.6139E+00  0.5508E+02
     54.742  0.1165E+01  0.5539E+02
     55.010  0.1491E+01  0.5579E+02
     55.279  0.7554E+00  0.5599E+02
     55.548  0.8117E+00  0.5621E+02
     55.817  0.9695E+00  0.5647E+02
     56.086  0.1282E+01  0.5682E+02
     56.355  0.1518E+01  0.5723E+02
     56.623  0.1161E+01  0.5754E+02
     56.892  0.1307E+01  0.5789E+02
     57.161  0.9995E+00  0.5816E+02
     57.430  0.1121E+01  0.5846E+02
     57.699  0.1657E+01  0.5890E+02
     57.968  0.1623E+01  0.5934E+02
     58.237  0.1221E+01  0.5967E+02
     58.505  0.1096E+01  0.5996E+02
     58.774  0.8100E+00  0.6018E+02
     59.043  0.1060E+01  0.6047E+02
     59.312  0.2375E+01  0.6111E+02
     59.581  0.2207E+01  0.6170E+02
     59.850  0.1988E+01  0.6223E+02
     60.118  0.1130E+01  0.6254E+02
     60.387  0.1245E+01  0.6287E+02
     60.656  0.1545E+01  0.6329E+02
     60.925  0.1799E+01  0.6377E+02
     61.194  0.2227E+01  0.6437E+02
     61.463  0.2290E+01  0.6499E+02
     61.731  0.2398E+01  0.6563E+02
     62.000  0.2080E+01  0.6619E+02
     62.269  0.2038E+01  0.6674E+02
     62.538  0.1907E+01  0.6725E+02
     62.807  0.1601E+01  0.6768E+02
     63.076  0.1195E+01  0.6800E+02
     63.344  0.1568E+01  0.6842E+02
     63.613  0.1470E+01  0.6882E+02
     63.882  0.1717E+01  0.6928E+02
     64.151  0.1604E+01  0.6971E+02
     64.420  0.2075E+01  0.7027E+02
     64.689  0.1519E+01  0.7068E+02
     64.958  0.1112E+01  0.7098E+02
     65.226  0.1718E+01  0.7144E+02
     65.495  0.1613E+01  0.7187E+02
     65.764  0.1696E+01  0.7233E+02
     66.033  0.1334E+01  0.7269E+02
     66.302  0.1073E+01  0.7297E+02
     66.571  0.1196E+01  0.7330E+02
     66.839  0.1242E+01  0.7363E+02
     67.108  0.2126E+01  0.7420E+02
     67.377  0.1971E+01  0.7473E+02
     67.646  0.2031E+01  0.7528E+02
     67.915  0.1695E+01  0.7573E+02
     68.184  0.1627E+01  0.7617E+02
     68.452  0.1368E+01  0.7654E+02
     68.721  0.1726E+01  0.7700E+02
     68.990  0.1601E+01  0.7743E+02
     69.259  0.1069E+01  0.7772E+02
     69.528  0.1360E+01  0.7809E+02
     69.797  0.1542E+01  0.7850E+02
     70.065  0.1408E+01  0.7888E+02
     70.334  0.1240E+01  0.7921E+02
     70.603  0.9947E+00  0.7948E+02
     70.872  0.9257E+00  0.7973E+02
     71.141  0.6161E+00  0.7989E+02
     71.410  0.2754E+00  0.7997E+02
     71.679  0.6086E-01  0.7998E+02
     71.947  0.6053E-01  0.8000E+02
     72.216 -0.3893E-03  0.8000E+02
     72.485 -0.2680E-03  0.8000E+02
     72.754 -0.2176E-06  0.8000E+02
     73.023 -0.3728E-11  0.8000E+02
     73.292  0.0000E+00  0.8000E+02
     73.560  0.0000E+00  0.8000E+02
     73.829  0.0000E+00  0.8000E+02
     74.098  0.0000E+00  0.8000E+02
     74.367  0.0000E+00  0.8000E+02
     74.636  0.0000E+00  0.8000E+02
     74.905  0.0000E+00  0.8000E+02
     75.173  0.0000E+00  0.8000E+02
     75.442  0.0000E+00  0.8000E+02
