    2    2    1    1
  0.9445464E+01  0.2306700E-09  0.2306700E-09  0.4099590E-09  0.5000000E-15
  1.000000000000000E-004
  CAR 
 unknown system                          
     16     96     40
 
  0.0000000E+00  0.0000000E+00  0.0000000E+00  0.7513148E-03
    1       -1.543669   1.000000
    2        2.345056   1.000000
    3        5.280873   1.000000
    4        6.038787   1.000000
    5        6.038852   1.000000
    6        6.371452   1.000000
    7        6.371530   1.000000
    8        6.921608   1.000000
    9        7.485274   1.025971
   10        7.485293   1.025975
   11        8.629783  -0.000000
   12        8.629802  -0.000000
   13       15.686929   0.000000
   14       31.803164   0.000000
   15       32.011613   0.000000
   16       35.125134   0.000000
   17       38.136459   0.000000
   18       38.136525   0.000000
   19       38.868081   0.000000
   20       38.868253   0.000000
   21       39.171862   0.000000
   22       41.385827   0.000000
   23       41.385845   0.000000
   24       42.425492   0.000000
   25       45.326157   0.000000
   26       45.326165   0.000000
   27       46.217737   0.000000
   28       49.597908   0.000000
   29       49.598323   0.000000
   30       51.525300   0.000000
   31       51.525465   0.000000
   32       54.070967   0.000000
   33       61.732086   0.000000
   34       63.343057   0.000000
   35       63.413276   0.000000
   36       63.414126   0.000000
   37       64.558343   0.000000
   38       66.218960   0.000000
   39       66.219988   0.000000
   40       67.920775   0.000000
 
  0.9090909E-01  0.6007457E-17  0.0000000E+00  0.4507889E-02
    1       -1.190377   1.000000
    2        2.614673   1.000000
    3        5.311570   1.000000
    4        5.955570   1.000000
    5        6.045080   1.000000
    6        6.243049   1.000000
    7        6.255470   1.000000
    8        6.574069   1.000000
    9        7.309078   1.001657
   10        7.360863   1.004623
   11        8.665268  -0.000000
   12        9.787380  -0.000000
   13       15.710045   0.000000
   14       30.898011   0.000000
   15       32.189489   0.000000
   16       33.636829   0.000000
   17       35.210600   0.000000
   18       37.161442   0.000000
   19       37.329487   0.000000
   20       39.051370   0.000000
   21       40.813703   0.000000
   22       41.861829   0.000000
   23       41.973250   0.000000
   24       42.625641   0.000000
   25       46.532792   0.000000
   26       46.872976   0.000000
   27       46.965188   0.000000
   28       47.299564   0.000000
   29       50.647744   0.000000
   30       52.956144   0.000000
   31       54.021936   0.000000
   32       55.980224   0.000000
   33       60.596208   0.000000
   34       62.421686   0.000000
   35       62.622508   0.000000
   36       63.027680   0.000000
   37       63.379546   0.000000
   38       66.994584   0.000000
   39       67.903020   0.000000
   40       68.388054   0.000000
 
  0.1818182E+00  0.1262137E-16  0.0000000E+00  0.4507889E-02
    1       -0.196993   1.000000
    2        3.241711   1.000000
    3        4.899561   1.000000
    4        5.147073   1.000000
    5        5.738570   1.000000
    6        6.364783   1.000000
    7        6.856304   1.000000
    8        6.890571   1.000000
    9        7.067045   1.000002
   10        7.130847   1.000015
   11        8.720897  -0.000000
   12       11.708658  -0.000000
   13       15.802179   0.000000
   14       27.209584   0.000000
   15       32.223490   0.000000
   16       32.359922   0.000000
   17       32.508987   0.000000
   18       33.352133   0.000000
   19       37.915225   0.000000
   20       38.709777   0.000000
   21       39.325307   0.000000
   22       39.941038   0.000000
   23       43.013457   0.000000
   24       43.964398   0.000000
   25       46.908023   0.000000
   26       47.846407   0.000000
   27       49.259001   0.000000
   28       51.561860   0.000000
   29       53.728886   0.000000
   30       55.961949   0.000000
   31       56.710742   0.000000
   32       59.031268   0.000000
   33       59.226137   0.000000
   34       60.004747   0.000000
   35       60.741438   0.000000
   36       62.009532   0.000000
   37       64.372289   0.000000
   38       67.830459   0.000000
   39       67.931590   0.000000
   40       68.477921   0.000000
 
  0.2727273E+00  0.3686964E-17  0.0000000E+00  0.4507889E-02
    1        1.188518   1.000000
    2        3.507320   1.000000
    3        4.000616   1.000000
    4        5.128873   1.000000
    5        5.549432   1.000000
    6        6.372163   1.000000
    7        6.730998   1.000000
    8        7.205119   1.000132
    9        7.711067   0.815572
   10        7.911795   0.082020
   11        8.747114  -0.000000
   12       13.880286   0.000000
   13       16.018795   0.000000
   14       23.121059   0.000000
   15       28.845996   0.000000
   16       29.670515   0.000000
   17       30.716784   0.000000
   18       33.360407   0.000000
   19       36.173597   0.000000
   20       38.971633   0.000000
   21       39.257970   0.000000
   22       39.676560   0.000000
   23       40.532538   0.000000
   24       44.064833   0.000000
   25       50.515329   0.000000
   26       51.909507   0.000000
   27       52.884972   0.000000
   28       54.090743   0.000000
   29       54.944233   0.000000
   30       56.426209   0.000000
   31       57.860671   0.000000
   32       59.647523   0.000000
   33       60.415180   0.000000
   34       60.607763   0.000000
   35       61.811314   0.000000
   36       64.213242   0.000000
   37       64.900889   0.000000
   38       67.726455   0.000000
   39       68.542731   0.000000
   40       68.623311   0.000000
 
  0.3636364E+00  0.2463629E-16  0.0000000E+00  0.4507889E-02
    1        2.361171   1.000000
    2        3.199719   1.000000
    3        3.400351   1.000000
    4        5.321686   1.000000
    5        5.913976   1.000000
    6        6.032719   1.000000
    7        6.454373   1.000000
    8        8.575823  -0.000000
    9        8.584110  -0.000000
   10        8.701300  -0.000000
   11        8.749075  -0.000000
   12       15.923886   0.000000
   13       16.194441   0.000000
   14       20.122367   0.000000
   15       25.485616   0.000000
   16       27.715455   0.000000
   17       27.857159   0.000000
   18       32.550561   0.000000
   19       35.115542   0.000000
   20       38.387994   0.000000
   21       38.853360   0.000000
   22       40.579906   0.000000
   23       40.987794   0.000000
   24       44.182063   0.000000
   25       51.569519   0.000000
   26       53.123256   0.000000
   27       53.951826   0.000000
   28       57.165566   0.000000
   29       57.293621   0.000000
   30       57.559000   0.000000
   31       59.474905   0.000000
   32       60.970303   0.000000
   33       61.586433   0.000000
   34       61.741181   0.000000
   35       63.619342   0.000000
   36       65.114184   0.000000
   37       67.547645   0.000000
   38       68.110031   0.000000
   39       68.385071   0.000000
   40       69.107764   0.000000
 
  0.4545455E+00  0.5794170E-16  0.0000000E+00  0.4507889E-02
    1        2.731479   1.000000
    2        2.979213   1.000000
    3        3.101718   1.000000
    4        5.647547   1.000000
    5        5.939963   1.000000
    6        6.295423   1.000000
    7        6.299913   1.000000
    8        8.741142  -0.000000
    9        9.114254  -0.000000
   10        9.231478  -0.000000
   11       10.416634  -0.000000
   12       14.064500   0.000000
   13       18.377252   0.000000
   14       20.027802   0.000000
   15       22.778282   0.000000
   16       25.094992   0.000000
   17       26.616754   0.000000
   18       31.913194   0.000000
   19       34.766779   0.000000
   20       37.182556   0.000000
   21       38.664101   0.000000
   22       41.544442   0.000000
   23       43.338079   0.000000
   24       43.844465   0.000000
   25       48.186305   0.000000
   26       53.768380   0.000000
   27       54.974831   0.000000
   28       58.787385   0.000000
   29       59.314113   0.000000
   30       60.278110   0.000000
   31       61.521317   0.000000
   32       62.098740   0.000000
   33       62.231534   0.000000
   34       64.071664   0.000000
   35       64.892299   0.000000
   36       66.517412   0.000000
   37       67.493282   0.000000
   38       67.508548   0.000000
   39       69.454174   0.000000
   40       70.047083   0.000000
 
  0.9090909E-01  0.9090909E-01  0.0000000E+00  0.4507889E-02
    1       -0.513752   1.000000
    2        3.085594   1.000000
    3        5.177621   1.000000
    4        5.201867   1.000000
    5        5.997102   1.000000
    6        6.005475   1.000000
    7        6.695229   1.000000
    8        6.870501   1.000000
    9        7.006188   1.000000
   10        7.311780   1.001755
   11        8.672289  -0.000000
   12       11.173291  -0.000000
   13       15.771395   0.000000
   14       28.933757   0.000000
   15       30.412631   0.000000
   16       32.770101   0.000000
   17       34.251385   0.000000
   18       36.069714   0.000000
   19       36.254856   0.000000
   20       37.777045   0.000000
   21       38.741124   0.000000
   22       43.606768   0.000000
   23       43.848833   0.000000
   24       44.774537   0.000000
   25       45.430677   0.000000
   26       45.912956   0.000000
   27       46.146722   0.000000
   28       52.101924   0.000000
   29       54.271086   0.000000
   30       54.832710   0.000000
   31       54.893654   0.000000
   32       58.479537   0.000000
   33       59.398842   0.000000
   34       60.612430   0.000000
   35       61.602606   0.000000
   36       62.078724   0.000000
   37       63.492283   0.000000
   38       67.738273   0.000000
   39       68.145617   0.000000
   40       68.929380   0.000000
 
  0.1818182E+00  0.9090909E-01  0.0000000E+00  0.9015778E-02
    1        0.706833   1.000000
    2        3.672107   1.000000
    3        4.327951   1.000000
    4        4.862090   1.000000
    5        5.656461   1.000000
    6        6.375179   1.000000
    7        6.491535   1.000000
    8        7.025454   1.000000
    9        7.482761   1.025393
   10        7.813669   0.411801
   11        8.662503  -0.000000
   12       13.122042  -0.000000
   13       15.974157   0.000000
   14       25.213021   0.000000
   15       27.935993   0.000000
   16       30.689401   0.000000
   17       32.851475   0.000000
   18       33.651443   0.000000
   19       36.807279   0.000000
   20       36.871597   0.000000
   21       38.141009   0.000000
   22       42.829471   0.000000
   23       42.979532   0.000000
   24       44.458202   0.000000
   25       47.482895   0.000000
   26       48.282137   0.000000
   27       50.444961   0.000000
   28       54.541384   0.000000
   29       56.521925   0.000000
   30       56.765632   0.000000
   31       57.439939   0.000000
   32       59.401578   0.000000
   33       59.859521   0.000000
   34       60.532701   0.000000
   35       61.502269   0.000000
   36       61.891750   0.000000
   37       64.236239   0.000000
   38       67.636585   0.000000
   39       68.694684   0.000000
   40       69.360719   0.000000
 
  0.2727273E+00  0.9090909E-01  0.0000000E+00  0.9015778E-02
    1        2.091853   1.000000
    2        3.567753   1.000000
    3        3.668885   1.000000
    4        4.974934   1.000000
    5        5.746077   1.000000
    6        5.961804   1.000000
    7        6.619139   1.000000
    8        7.362975   1.004804
    9        8.345765  -0.000326
   10        8.645705  -0.000000
   11        8.865349  -0.000000
   12       15.340167   0.000000
   13       16.317531   0.000000
   14       21.425878   0.000000
   15       26.155472   0.000000
   16       27.248852   0.000000
   17       30.281881   0.000000
   18       31.757566   0.000000
   19       36.159368   0.000000
   20       37.419327   0.000000
   21       38.285430   0.000000
   22       42.154650   0.000000
   23       42.435696   0.000000
   24       45.470518   0.000000
   25       49.536396   0.000000
   26       52.128953   0.000000
   27       53.464149   0.000000
   28       53.759770   0.000000
   29       55.776675   0.000000
   30       58.021417   0.000000
   31       58.790735   0.000000
   32       60.933750   0.000000
   33       61.743054   0.000000
   34       61.930523   0.000000
   35       63.015122   0.000000
   36       64.634625   0.000000
   37       67.157734   0.000000
   38       67.675776   0.000000
   39       68.087362   0.000000
   40       69.520765   0.000000
 
  0.3636364E+00  0.9090909E-01  0.0000000E+00  0.9015778E-02
    1        2.874701   1.000000
    2        3.237097   1.000000
    3        3.272583   1.000000
    4        5.449316   1.000000
    5        5.698173   1.000000
    6        6.169976   1.000000
    7        6.273111   1.000000
    8        8.397959  -0.000081
    9        8.622649  -0.000000
   10        8.938412  -0.000000
   11       10.184809  -0.000000
   12       15.522127   0.000000
   13       17.665214   0.000000
   14       19.841035   0.000000
   15       24.166217   0.000000
   16       24.731670   0.000000
   17       26.982433   0.000000
   18       30.822119   0.000000
   19       35.195207   0.000000
   20       36.912111   0.000000
   21       39.662039   0.000000
   22       42.447297   0.000000
   23       43.257952   0.000000
   24       44.866998   0.000000
   25       50.176738   0.000000
   26       52.248758   0.000000
   27       53.921943   0.000000
   28       55.748368   0.000000
   29       57.539014   0.000000
   30       59.239239   0.000000
   31       60.332159   0.000000
   32       61.702156   0.000000
   33       62.319540   0.000000
   34       64.640531   0.000000
   35       65.535174   0.000000
   36       66.218357   0.000000
   37       66.369522   0.000000
   38       68.522549   0.000000
   39       68.941425   0.000000
   40       70.138088   0.000000
 
  0.4545455E+00  0.9090909E-01  0.0000000E+00  0.4507889E-02
    1        2.941950   1.000000
    2        3.141925   1.000000
    3        3.172163   1.000000
    4        5.612420   1.000000
    5        5.892085   1.000000
    6        6.137036   1.000000
    7        6.279565   1.000000
    8        8.613096  -0.000000
    9        8.992073  -0.000000
   10        9.021844  -0.000000
   11       11.481621  -0.000000
   12       13.797844   0.000000
   13       19.243763   0.000000
   14       20.475331   0.000000
   15       22.348639   0.000000
   16       23.820413   0.000000
   17       25.518087   0.000000
   18       30.496433   0.000000
   19       34.788078   0.000000
   20       36.767732   0.000000
   21       39.962617   0.000000
   22       43.229455   0.000000
   23       43.774103   0.000000
   24       44.855146   0.000000
   25       47.970698   0.000000
   26       53.579926   0.000000
   27       54.058899   0.000000
   28       56.381716   0.000000
   29       59.394547   0.000000
   30       59.513976   0.000000
   31       62.405816   0.000000
   32       62.462125   0.000000
   33       62.473924   0.000000
   34       63.248865   0.000000
   35       65.291762   0.000000
   36       67.937203   0.000000
   37       68.275101   0.000000
   38       68.309934   0.000000
   39       68.447293   0.000000
   40       70.950861   0.000000
 
  0.1818182E+00  0.1818182E+00  0.0000000E+00  0.4507889E-02
    1        2.019166   1.000000
    2        3.827900   1.000000
    3        4.156937   1.000000
    4        4.365958   1.000000
    5        5.731299   1.000000
    6        5.879631   1.000000
    7        6.760240   1.000000
    8        6.766905   1.000000
    9        8.318562  -0.000637
   10        8.532062  -0.000001
   11        8.943067  -0.000000
   12       15.071637   0.000000
   13       16.474758   0.000000
   14       23.144723   0.000000
   15       24.032526   0.000000
   16       28.753888   0.000000
   17       30.355072   0.000000
   18       32.708050   0.000000
   19       33.382638   0.000000
   20       37.747301   0.000000
   21       39.781388   0.000000
   22       43.910001   0.000000
   23       44.423682   0.000000
   24       46.420874   0.000000
   25       47.329207   0.000000
   26       49.419251   0.000000
   27       50.544802   0.000000
   28       55.186568   0.000000
   29       56.651793   0.000000
   30       57.423681   0.000000
   31       57.685352   0.000000
   32       61.273853   0.000000
   33       61.335078   0.000000
   34       63.518095   0.000000
   35       63.991345   0.000000
   36       64.469012   0.000000
   37       64.733614   0.000000
   38       67.513322   0.000000
   39       68.024768   0.000000
   40       70.804581   0.000000
 
  0.2727273E+00  0.1818182E+00  0.0000000E+00  0.9015778E-02
    1        3.231989   1.000000
    2        3.505848   1.000000
    3        3.819228   1.000000
    4        4.635653   1.000000
    5        5.589002   1.000000
    6        6.044887   1.000000
    7        6.317754   1.000000
    8        7.400950   1.009114
    9        8.418083  -0.000045
   10        8.861610  -0.000000
   11       10.353524  -0.000000
   12       17.047318   0.000000
   13       17.331722   0.000000
   14       20.179874   0.000000
   15       22.315998   0.000000
   16       26.102117   0.000000
   17       28.667252   0.000000
   18       29.121853   0.000000
   19       32.061022   0.000000
   20       39.989752   0.000000
   21       40.293251   0.000000
   22       43.802871   0.000000
   23       45.943294   0.000000
   24       47.522591   0.000000
   25       48.392663   0.000000
   26       50.409019   0.000000
   27       51.760916   0.000000
   28       53.094551   0.000000
   29       56.351251   0.000000
   30       57.512157   0.000000
   31       59.746927   0.000000
   32       61.719377   0.000000
   33       62.732233   0.000000
   34       64.307843   0.000000
   35       66.009918   0.000000
   36       66.251065   0.000000
   37       67.742977   0.000000
   38       68.296665   0.000000
   39       69.709258   0.000000
   40       71.353340   0.000000
 
  0.3636364E+00  0.1818182E+00  0.0000000E+00  0.9015778E-02
    1        3.359204   1.000000
    2        3.498028   1.000000
    3        3.674378   1.000000
    4        5.212803   1.000000
    5        5.559704   1.000000
    6        5.892591   1.000000
    7        6.343566   1.000000
    8        8.196072  -0.007568
    9        8.354086  -0.000264
   10        8.857532  -0.000000
   11       12.067270  -0.000000
   12       15.297002   0.000000
   13       19.639991   0.000000
   14       20.428041   0.000000
   15       21.418132   0.000000
   16       23.385689   0.000000
   17       26.091098   0.000000
   18       28.011781   0.000000
   19       31.397353   0.000000
   20       40.296729   0.000000
   21       42.099526   0.000000
   22       44.033291   0.000000
   23       45.434110   0.000000
   24       46.551541   0.000000
   25       50.426352   0.000000
   26       50.910404   0.000000
   27       52.611044   0.000000
   28       53.529847   0.000000
   29       57.405644   0.000000
   30       58.404115   0.000000
   31       59.166410   0.000000
   32       61.873936   0.000000
   33       62.679741   0.000000
   34       62.723813   0.000000
   35       67.053040   0.000000
   36       67.695692   0.000000
   37       69.149290   0.000000
   38       69.586357   0.000000
   39       69.899742   0.000000
   40       70.022007   0.000000
 
  0.2727273E+00  0.2727273E+00  0.0000000E+00  0.4507889E-02
    1        3.510742   1.000000
    2        3.971507   1.000000
    3        4.328220   1.000000
    4        4.328845   1.000000
    5        5.414943   1.000000
    6        5.870149   1.000000
    7        6.382229   1.000000
    8        7.693341   0.868325
    9        8.218252  -0.005178
   10        8.816235  -0.000000
   11       12.221382  -0.000000
   12       17.477486   0.000000
   13       18.095168   0.000000
   14       19.682212   0.000000
   15       21.195578   0.000000
   16       25.376107   0.000000
   17       25.604248   0.000000
   18       27.868723   0.000000
   19       28.744856   0.000000
   20       41.688213   0.000000
   21       42.629026   0.000000
   22       46.673467   0.000000
   23       47.758956   0.000000
   24       47.924696   0.000000
   25       48.187522   0.000000
   26       48.853245   0.000000
   27       51.578621   0.000000
   28       54.084881   0.000000
   29       54.344888   0.000000
   30       58.261976   0.000000
   31       58.659448   0.000000
   32       61.313461   0.000000
   33       62.632235   0.000000
   34       62.827325   0.000000
   35       67.025276   0.000000
   36       67.954643   0.000000
   37       68.114392   0.000000
   38       69.295333   0.000000
   39       70.066232   0.000000
   40       71.582561   0.000000
 
  0.3636364E+00  0.2727273E+00  0.0000000E+00  0.4507889E-02
    1        3.547834   1.000000
    2        4.092544   1.000000
    3        4.186711   1.000000
    4        4.724965   1.000000
    5        5.493948   1.000000
    6        5.526315   1.000000
    7        6.540680   1.000000
    8        8.112968  -0.023003
    9        8.142091  -0.016550
   10        8.456807  -0.000014
   11       14.055234   0.000000
   12       15.483171   0.000000
   13       17.709142   0.000000
   14       21.728265   0.000000
   15       22.168190   0.000000
   16       23.209701   0.000000
   17       25.240726   0.000000
   18       26.135577   0.000000
   19       28.126369   0.000000
   20       42.056214   0.000000
   21       45.106523   0.000000
   22       46.111126   0.000000
   23       46.820868   0.000000
   24       47.462087   0.000000
   25       49.030321   0.000000
   26       50.020935   0.000000
   27       53.352879   0.000000
   28       53.711894   0.000000
   29       54.000482   0.000000
   30       57.385925   0.000000
   31       58.582606   0.000000
   32       59.280135   0.000000
   33       62.185104   0.000000
   34       62.421537   0.000000
   35       66.958953   0.000000
   36       68.204498   0.000000
   37       69.557191   0.000000
   38       69.748893   0.000000
   39       70.357489   0.000000
   40       70.739834   0.000000
 
  0.0000000E+00  0.0000000E+00  0.9090909E-01  0.1502630E-02
    1       -1.459923   1.000000
    2        2.317243   1.000000
    3        5.258027   1.000000
    4        6.030813   1.000000
    5        6.030878   1.000000
    6        6.353832   1.000000
    7        6.353910   1.000000
    8        6.700360   1.000000
    9        7.524488   1.033687
   10        7.524507   1.033690
   11        8.619446  -0.000000
   12        8.619465  -0.000000
   13       16.064682   0.000000
   14       31.016232   0.000000
   15       32.259638   0.000000
   16       34.951603   0.000000
   17       38.178503   0.000000
   18       38.178561   0.000000
   19       38.874266   0.000000
   20       38.874432   0.000000
   21       39.637211   0.000000
   22       41.331165   0.000000
   23       41.331181   0.000000
   24       42.695269   0.000000
   25       45.012743   0.000000
   26       45.012759   0.000000
   27       46.449170   0.000000
   28       49.841309   0.000000
   29       49.841706   0.000000
   30       51.912870   0.000000
   31       51.913026   0.000000
   32       53.885152   0.000000
   33       60.805728   0.000000
   34       63.223516   0.000000
   35       63.224334   0.000000
   36       63.507476   0.000000
   37       64.916555   0.000000
   38       64.917134   0.000000
   39       65.581880   0.000000
   40       66.561601   0.000000
 
  0.9090909E-01  0.6007457E-17  0.9090909E-01  0.9015778E-02
    1       -1.108723   1.000000
    2        2.591084   1.000000
    3        5.298555   1.000000
    4        5.874330   1.000000
    5        5.926039   1.000000
    6        6.243902   1.000000
    7        6.281456   1.000000
    8        6.554524   1.000000
    9        7.357109   1.004316
   10        7.407339   1.010055
   11        8.651463  -0.000000
   12        9.631588  -0.000000
   13       16.122499   0.000000
   14       30.784262   0.000000
   15       31.717152   0.000000
   16       33.605567   0.000000
   17       35.277885   0.000000
   18       36.530793   0.000000
   19       37.922049   0.000000
   20       39.361686   0.000000
   21       40.548860   0.000000
   22       41.978106   0.000000
   23       42.036240   0.000000
   24       42.824896   0.000000
   25       46.199797   0.000000
   26       46.502575   0.000000
   27       47.652976   0.000000
   28       47.777850   0.000000
   29       50.524025   0.000000
   30       53.171806   0.000000
   31       54.300991   0.000000
   32       55.826238   0.000000
   33       59.398070   0.000000
   34       62.029244   0.000000
   35       62.875997   0.000000
   36       63.138096   0.000000
   37       64.073781   0.000000
   38       65.901449   0.000000
   39       66.691800   0.000000
   40       67.140630   0.000000
 
  0.1818182E+00  0.1262137E-16  0.9090909E-01  0.9015778E-02
    1       -0.123941   1.000000
    2        3.231967   1.000000
    3        4.815119   1.000000
    4        5.164477   1.000000
    5        5.703912   1.000000
    6        6.288251   1.000000
    7        6.806276   1.000000
    8        7.010131   1.000000
    9        7.064443   1.000002
   10        7.200909   1.000117
   11        8.699010  -0.000000
   12       11.353770  -0.000000
   13       16.341578   0.000000
   14       27.263406   0.000000
   15       31.625743   0.000000
   16       32.312874   0.000000
   17       32.796543   0.000000
   18       33.058710   0.000000
   19       37.480687   0.000000
   20       38.984091   0.000000
   21       39.479009   0.000000
   22       39.963050   0.000000
   23       43.346899   0.000000
   24       44.470293   0.000000
   25       47.148492   0.000000
   26       47.778146   0.000000
   27       49.053320   0.000000
   28       51.620030   0.000000
   29       53.452947   0.000000
   30       56.126261   0.000000
   31       57.008622   0.000000
   32       57.843049   0.000000
   33       58.834265   0.000000
   34       60.295609   0.000000
   35       61.171625   0.000000
   36       62.352082   0.000000
   37       64.293833   0.000000
   38       66.933360   0.000000
   39       67.150513   0.000000
   40       69.004352   0.000000
 
  0.2727273E+00  0.3686964E-17  0.9090909E-01  0.9015778E-02
    1        1.236270   1.000000
    2        3.506193   1.000000
    3        3.979302   1.000000
    4        5.128187   1.000000
    5        5.509889   1.000000
    6        6.395125   1.000000
    7        6.754299   1.000000
    8        7.248219   1.000405
    9        7.721421   0.781411
   10        7.896506   0.119622
   11        8.724299  -0.000000
   12       13.170611  -0.000000
   13       16.859794   0.000000
   14       23.187053   0.000000
   15       28.460037   0.000000
   16       29.782295   0.000000
   17       30.986626   0.000000
   18       33.153400   0.000000
   19       35.975124   0.000000
   20       38.194291   0.000000
   21       38.341386   0.000000
   22       40.670671   0.000000
   23       41.482159   0.000000
   24       44.727103   0.000000
   25       50.618536   0.000000
   26       51.561490   0.000000
   27       52.522016   0.000000
   28       52.555965   0.000000
   29       56.345783   0.000000
   30       56.629634   0.000000
   31       58.134062   0.000000
   32       59.788300   0.000000
   33       59.960305   0.000000
   34       60.213003   0.000000
   35       62.327191   0.000000
   36       63.709160   0.000000
   37       65.246540   0.000000
   38       67.389346   0.000000
   39       67.535909   0.000000
   40       69.120879   0.000000
 
  0.3636364E+00  0.2463629E-16  0.9090909E-01  0.9015778E-02
    1        2.340878   1.000000
    2        3.155112   1.000000
    3        3.510270   1.000000
    4        5.073500   1.000000
    5        6.021783   1.000000
    6        6.243144   1.000000
    7        6.491019   1.000000
    8        8.541993  -0.000001
    9        8.570302  -0.000000
   10        8.609815  -0.000000
   11        8.794310  -0.000000
   12       14.624351   0.000000
   13       17.510944   0.000000
   14       20.227022   0.000000
   15       25.114474   0.000000
   16       27.840610   0.000000
   17       28.240838   0.000000
   18       32.522076   0.000000
   19       35.056782   0.000000
   20       37.093210   0.000000
   21       39.030388   0.000000
   22       40.178660   0.000000
   23       42.035013   0.000000
   24       44.929493   0.000000
   25       50.276543   0.000000
   26       53.736217   0.000000
   27       54.397227   0.000000
   28       56.126459   0.000000
   29       56.832133   0.000000
   30       58.660063   0.000000
   31       59.512196   0.000000
   32       60.807503   0.000000
   33       61.686441   0.000000
   34       62.006119   0.000000
   35       63.607886   0.000000
   36       65.070798   0.000000
   37       66.841161   0.000000
   38       67.557660   0.000000
   39       69.024821   0.000000
   40       69.292327   0.000000
 
  0.4545455E+00  0.5794170E-16  0.9090909E-01  0.9015778E-02
    1        2.666161   1.000000
    2        2.828075   1.000000
    3        3.377200   1.000000
    4        5.143385   1.000000
    5        6.219750   1.000000
    6        6.340593   1.000000
    7        6.617463   1.000000
    8        8.676404  -0.000000
    9        9.117446  -0.000000
   10        9.232168  -0.000000
   11       10.316817  -0.000000
   12       13.857160   0.000000
   13       18.285426   0.000000
   14       20.055231   0.000000
   15       22.891578   0.000000
   16       25.452222   0.000000
   17       26.750794   0.000000
   18       31.925312   0.000000
   19       34.734364   0.000000
   20       36.207154   0.000000
   21       39.661118   0.000000