       N       E                     dE             d eps       ncg     rms          rms(c)
DAV:   1     0.601905419928E+02    0.60191E+02   -0.25518E+03  9480   0.327E+02
DAV:   2    -0.145158966012E+02   -0.74706E+02   -0.63635E+02  7920   0.967E+01
DAV:   3    -0.188083520512E+02   -0.42925E+01   -0.40784E+01  9584   0.240E+01
DAV:   4    -0.188255977333E+02   -0.17246E-01   -0.17236E-01  9112   0.159E+00
DAV:   5    -0.188256118030E+02   -0.14070E-04   -0.14070E-04  9248   0.435E-02    0.184E+01
DAV:   6    -0.160995890306E+02    0.27260E+01   -0.15457E+00 11288   0.232E+01    0.169E+00
DAV:   7    -0.159593534836E+02    0.14024E+00   -0.80461E-02  9928   0.420E+00    0.131E+00
DAV:   8    -0.159276052999E+02    0.31748E-01   -0.25757E-03 10144   0.332E-01    0.547E-01
DAV:   9    -0.159188890841E+02    0.87162E-02   -0.85568E-04 10720   0.160E-01    0.565E-02
DAV:  10    -0.159189144650E+02   -0.25381E-04   -0.29461E-05  8560   0.237E-02    0.244E-02
DAV:  11    -0.159189012759E+02    0.13189E-04   -0.30386E-07  8592   0.529E-03    0.201E-03
DAV:  12    -0.159188999095E+02    0.13664E-05   -0.84966E-08  6296   0.143E-03    0.115E-03
DAV:  13    -0.159189002943E+02   -0.38484E-06   -0.78325E-09  5336   0.425E-04
   1 F= -.15918900E+02 E0= -.15919522E+02  d E =0.186653E-02
