unknown system                          
   1.00000000000000     
     3.443320    0.000000    0.000000
     0.000000    3.443320    0.000000
     0.000000    0.000000    3.443320
   Cu
     4
Direct
  0.000000  0.000000  0.000000
  0.500000  0.500000  0.000000
  0.500000  0.000000  0.500000
  0.000000  0.500000  0.500000
 
   32   32   32
  715.12      678.10      577.71      440.86      298.98      177.65      91.293      42.287      22.324      16.241    
  12.658      10.380      9.0636      8.3480      7.9209      7.6266      7.5082      7.6266      7.9209      8.3480    
  9.0636      10.380      12.658      16.241      22.324      42.287      91.293      177.65      298.98      440.86    
  577.71      678.10      678.10      642.86      547.31      417.08      282.21      167.19      85.785      40.077    
  21.767      16.070      12.592      10.392      9.1237      8.4341      8.0226      7.7400      7.6266      7.7400    
  8.0226      8.4341      9.1237      10.392      12.592      16.070      21.767      40.077      85.785      167.19    
  282.21      417.08      547.31      642.86      577.71      547.31      464.90      352.70      236.97      139.20    
  71.297      34.445      20.401      15.587      12.408      10.423      9.2813      8.6551      8.2787      8.0226    
  7.9209      8.0226      8.2787      8.6551      9.2813      10.423      12.408      15.587      20.401      34.445    
  71.297      139.20      236.97      352.70      464.90      547.31      440.86      417.08      352.70      265.40    
  176.22      102.36      52.930      27.782      18.846      14.884      12.162      10.489      9.5248      8.9852    
  8.6551      8.4341      8.3480      8.4341      8.6551      8.9852      9.5248      10.489      12.162      14.884    
  18.846      27.782      52.930      102.36      176.22      265.40      352.70      417.08      298.98      282.21    
  236.97      176.22      115.37      66.815      36.378      22.423      17.353      14.107      11.955      10.664    
  9.9311      9.5248      9.2813      9.1237      9.0636      9.1237      9.2813      9.5248      9.9311      10.664    
  11.955      14.107      17.353      22.423      36.378      66.815      115.37      176.22      236.97      282.21    
  177.65      167.19      139.20      102.36      66.815      40.257      25.328      19.178      15.847      13.427    
  11.918      11.079      10.664      10.489      10.423      10.392      10.380      10.392      10.423      10.489    
  10.664      11.079      11.918      13.427      15.847      19.178      25.328      40.257      66.815      102.36    
  139.20      167.19      91.293      85.785      71.297      52.930      36.378      25.328      19.884      16.885    
  14.552      13.021      12.209      11.918      11.955      12.162      12.408      12.592      12.658      12.592    
  12.408      12.162      11.955      11.918      12.209      13.021      14.552      16.885      19.884      25.328    
  36.378      52.930      71.297      85.785      42.287      40.077      34.445      27.782      22.423      19.178    
  16.885      14.978      13.684      13.058      13.021      13.427      14.107      14.884      15.587      16.070    
  16.241      16.070      15.587      14.884      14.107      13.427      13.021      13.058      13.684      14.978    
  16.885      19.178      22.423      27.782      34.445      40.077      22.324      21.767      20.401      18.846    
  17.353      15.847      14.552      13.684      13.379      13.684      14.552      15.847      17.353      18.846    
  20.401      21.767      22.324      21.767      20.401      18.846      17.353      15.847      14.552      13.684    
  13.379      13.684      14.552      15.847      17.353      18.846      20.401      21.767      16.241      16.070    
  15.587      14.884      14.107      13.427      13.021      13.058      13.684      14.978      16.885      19.178    
  22.423      27.782      34.445      40.077      42.287      40.077      34.445      27.782      22.423      19.178    
  16.885      14.978      13.684      13.058      13.021      13.427      14.107      14.884      15.587      16.070    
  12.658      12.592      12.408      12.162      11.955      11.918      12.209      13.021      14.552      16.885    
  19.884      25.328      36.378      52.930      71.297      85.785      91.293      85.785      71.297      52.930    
  36.378      25.328      19.884      16.885      14.552      13.021      12.209      11.918      11.955      12.162    
  12.408      12.592      10.380      10.392      10.423      10.489      10.664      11.079      11.918      13.427    
  15.847      19.178      25.328      40.257      66.815      102.36      139.20      167.19      177.65      167.19    
  139.20      102.36      66.815      40.257      25.328      19.178      15.847      13.427      11.918      11.079    
  10.664      10.489      10.423      10.392      9.0636      9.1237      9.2813      9.5248      9.9311      10.664    
  11.955      14.107      17.353      22.423      36.378      66.815      115.37      176.22      236.97      282.21    
  298.98      282.21      236.97      176.22      115.37      66.815      36.378      22.423      17.353      14.107    
  11.955      10.664      9.9311      9.5248      9.2813      9.1237      8.3480      8.4341      8.6551      8.9852    
  9.5248      10.489      12.162      14.884      18.846      27.782      52.930      102.36      176.22      265.40    
  352.70      417.08      440.86      417.08      352.70      265.40      176.22      102.36      52.930      27.782    
  18.846      14.884      12.162      10.489      9.5248      8.9852      8.6551      8.4341      7.9209      8.0226    
  8.2787      8.6551      9.2813      10.423      12.408      15.587      20.401      34.445      71.297      139.20    
  236.97      352.70      464.90      547.31      577.71      547.31      464.90      352.70      236.97      139.20    
  71.297      34.445      20.401      15.587      12.408      10.423      9.2813      8.6551      8.2787      8.0226    
  7.6266      7.7400      8.0226      8.4341      9.1237      10.392      12.592      16.070      21.767      40.077    
  85.785      167.19      282.21      417.08      547.31      642.86      678.10      642.86      547.31      417.08    
  282.21      167.19      85.785      40.077      21.767      16.070      12.592      10.392      9.1237      8.4341    
  8.0226      7.7400      7.5082      7.6266      7.9209      8.3480      9.0636      10.380      12.658      16.241    
  22.324      42.287      91.293      177.65      298.98      440.86      577.71      678.10      715.12      678.10    
  577.71      440.86      298.98      177.65      91.293      42.287      22.324      16.241      12.658      10.380    
  9.0636      8.3480      7.9209      7.6266      7.6266      7.7400      8.0226      8.4341      9.1237      10.392    
  12.592      16.070      21.767      40.077      85.785      167.19      282.21      417.08      547.31      642.86    
  678.10      642.86      547.31      417.08      282.21      167.19      85.785      40.077      21.767      16.070    
  12.592      10.392      9.1237      8.4341      8.0226      7.7400      7.9209      8.0226      8.2787      8.6551    
  9.2813      10.423      12.408      15.587      20.401      34.445      71.297      139.20      236.97      352.70    
  464.90      547.31      577.71      547.31      464.90      352.70      236.97      139.20      71.297      34.445    
  20.401      15.587      12.408      10.423      9.2813      8.6551      8.2787      8.0226      8.3480      8.4341    
  8.6551      8.9852      9.5248      10.489      12.162      14.884      18.846      27.782      52.930      102.36    
  176.22      265.40      352.70      417.08      440.86      417.08      352.70      265.40      176.22      102.36    
  52.930      27.782      18.846      14.884      12.162      10.489      9.5248      8.9852      8.6551      8.4341    
  9.0636      9.1237      9.2813      9.5248      9.9311      10.664      11.955      14.107      17.353      22.423    
  36.378      66.815      115.37      176.22      236.97      282.21      298.98      282.21      236.97      176.22    
  115.37      66.815      36.378      22.423      17.353      14.107      11.955      10.664      9.9311      9.5248    
  9.2813      9.1237      10.380      10.392      10.423      10.489      10.664      11.079      11.918      13.427    
  15.847      19.178      25.328      40.257      66.815      102.36      139.20      167.19      177.65      167.19    
  139.20      102.36      66.815      40.257      25.328      19.178      15.847      13.427      11.918      11.079    
  10.664      10.489      10.423      10.392      12.658      12.592      12.408      12.162      11.955      11.918    
  12.209      13.021      14.552      16.885      19.884      25.328      36.378      52.930      71.297      85.785    
  91.293      85.785      71.297      52.930      36.378      25.328      19.884      16.885      14.552      13.021    
  12.209      11.918      11.955      12.162      12.408      12.592      16.241      16.070      15.587      14.884    
  14.107      13.427      13.021      13.058      13.684      14.978      16.885      19.178      22.423      27.782    
  34.445      40.077      42.287      40.077      34.445      27.782      22.423      19.178      16.885      14.978    
  13.684      13.058      13.021      13.427      14.107      14.884      15.587      16.070      22.324      21.767    
  20.401      18.846      17.353      15.847      14.552      13.684      13.379      13.684      14.552      15.847    
  17.353      18.846      20.401      21.767      22.324      21.767      20.401      18.846      17.353      15.847    
  14.552      13.684      13.379      13.684      14.552      15.847      17.353      18.846      20.401      21.767    
  42.287      40.077      34.445      27.782      22.423      19.178      16.885      14.978      13.684      13.058    
  13.021      13.427      14.107      14.884      15.587      16.070      16.241      16.070      15.587      14.884    
  14.107      13.427      13.021      13.058      13.684      14.978      16.885      19.178      22.423      27.782    
  34.445      40.077      91.293      85.785      71.297      52.930      36.378      25.328      19.884      16.885    
  14.552      13.021      12.209      11.918      11.955      12.162      12.408      12.592      12.658      12.592    
  12.408      12.162      11.955      11.918      12.209      13.021      14.552      16.885      19.884      25.328    
  36.378      52.930      71.297      85.785      177.65      167.19      139.20      102.36      66.815      40.257    
  25.328      19.178      15.847      13.427      11.918      11.079      10.664      10.489      10.423      10.392    
  10.380      10.392      10.423      10.489      10.664      11.079      11.918      13.427      15.847      19.178    
  25.328      40.257      66.815      102.36      139.20      167.19      298.98      282.21      236.97      176.22    
  115.37      66.815      36.378      22.423      17.353      14.107      11.955      10.664      9.9311      9.5248    
  9.2813      9.1237      9.0636      9.1237      9.2813      9.5248      9.9311      10.664      11.955      14.107    
  17.353      22.423      36.378      66.815      115.37      176.22      236.97      282.21      440.86      417.08    
  352.70      265.40      176.22      102.36      52.930      27.782      18.846      14.884      12.162      10.489    
  9.5248      8.9852      8.6551      8.4341      8.3480      8.4341      8.6551      8.9852      9.5248      10.489    
  12.162      14.884      18.846      27.782      52.930      102.36      176.22      265.40      352.70      417.08    
  577.71      547.31      464.90      352.70      236.97      139.20      71.297      34.445      20.401      15.587    
  12.408      10.423      9.2813      8.6551      8.2787      8.0226      7.9209      8.0226      8.2787      8.6551    
  9.2813      10.423      12.408      15.587      20.401      34.445      71.297      139.20      236.97      352.70    
  464.90      547.31      678.10      642.86      547.31      417.08      282.21      167.19      85.785      40.077    
  21.767      16.070      12.592      10.392      9.1237      8.4341      8.0226      7.7400      7.6266      7.7400    
  8.0226      8.4341      9.1237      10.392      12.592      16.070      21.767      40.077      85.785      167.19    
  282.21      417.08      547.31      642.86      678.10      642.86      547.31      417.08      282.21      167.19    
  85.785      40.077      21.767      16.070      12.592      10.392      9.1237      8.4341      8.0226      7.7400    
  7.6266      7.7400      8.0226      8.4341      9.1237      10.392      12.592      16.070      21.767      40.077    
  85.785      167.19      282.21      417.08      547.31      642.86      642.86      609.32      518.39      394.47    
  266.29      157.30      80.623      38.037      21.261      15.901      12.526      10.402      9.1809      8.5164    
  8.1199      7.8485      7.7400      7.8485      8.1199      8.5164      9.1809      10.402      12.526      15.901    
  21.261      38.037      80.623      157.30      266.29      394.47      518.39      609.32      547.31      518.39    
  439.97      333.27      223.39      130.89      67.072      32.852      20.019      15.426      12.346      10.431    
  9.3317      8.7285      8.3658      8.1199      8.0226      8.1199      8.3658      8.7285      9.3317      10.431    
  12.346      15.426      20.019      32.852      67.072      130.89      223.39      333.27      439.97      518.39    
  417.08      394.47      333.27      250.37      165.87      96.204      49.959      26.754      18.581      14.738    
  12.105      10.493      9.5655      9.0461      8.7285      8.5164      8.4341      8.5164      8.7285      9.0461    
  9.5655      10.493      12.105      14.738      18.581      26.754      49.959      96.204      165.87      250.37    
  333.27      394.47      282.21      266.29      223.39      165.87      108.46      62.904      34.646      21.882    
  17.129      13.979      11.902      10.660      9.9560      9.5655      9.3317      9.1809      9.1237      9.1809    
  9.3317      9.5655      9.9560      10.660      11.902      13.979      17.129      21.882      34.646      62.904    
  108.46      165.87      223.39      266.29      167.19      157.30      130.89      96.204      62.904      38.226    
  24.532      18.894      15.657      13.316      11.863      11.058      10.660      10.493      10.431      10.402    
  10.392      10.402      10.431      10.493      10.660      11.058      11.863      13.316      15.657      18.894    
  24.532      38.226      62.904      96.204      130.89      157.30      85.785      80.623      67.072      49.959    
  34.646      24.532      19.561      16.659      14.397      12.920      12.140      11.863      11.902      12.105    
  12.346      12.526      12.592      12.526      12.346      12.105      11.902      11.863      12.140      12.920    
  14.397      16.659      19.561      24.532      34.646      49.959      67.072      80.623      40.077      38.037    
  32.852      26.754      21.882      18.894      16.659      14.807      13.555      12.953      12.920      13.316    
  13.979      14.738      15.426      15.901      16.070      15.901      15.426      14.738      13.979      13.316    
  12.920      12.953      13.555      14.807      16.659      18.894      21.882      26.754      32.852      38.037    
  21.767      21.261      20.019      18.581      17.129      15.657      14.397      13.555      13.260      13.555    
  14.397      15.657      17.129      18.581      20.019      21.261      21.767      21.261      20.019      18.581    
  17.129      15.657      14.397      13.555      13.260      13.555      14.397      15.657      17.129      18.581    
  20.019      21.261      16.070      15.901      15.426      14.738      13.979      13.316      12.920      12.953    
  13.555      14.807      16.659      18.894      21.882      26.754      32.852      38.037      40.077      38.037    
  32.852      26.754      21.882      18.894      16.659      14.807      13.555      12.953      12.920      13.316    
  13.979      14.738      15.426      15.901      12.592      12.526      12.346      12.105      11.902      11.863    
  12.140      12.920      14.397      16.659      19.561      24.532      34.646      49.959      67.072      80.623    
  85.785      80.623      67.072      49.959      34.646      24.532      19.561      16.659      14.397      12.920    
  12.140      11.863      11.902      12.105      12.346      12.526      10.392      10.402      10.431      10.493    
  10.660      11.058      11.863      13.316      15.657      18.894      24.532      38.226      62.904      96.204    
  130.89      157.30      167.19      157.30      130.89      96.204      62.904      38.226      24.532      18.894    
  15.657      13.316      11.863      11.058      10.660      10.493      10.431      10.402      9.1237      9.1809    
  9.3317      9.5655      9.9560      10.660      11.902      13.979      17.129      21.882      34.646      62.904    
  108.46      165.87      223.39      266.29      282.21      266.29      223.39      165.87      108.46      62.904    
  34.646      21.882      17.129      13.979      11.902      10.660      9.9560      9.5655      9.3317      9.1809    
  8.4341      8.5164      8.7285      9.0461      9.5655      10.493      12.105      14.738      18.581      26.754    
  49.959      96.204      165.87      250.37      333.27      394.47      417.08      394.47      333.27      250.37    
  165.87      96.204      49.959      26.754      18.581      14.738      12.105      10.493      9.5655      9.0461    
  8.7285      8.5164      8.0226      8.1199      8.3658      8.7285      9.3317      10.431      12.346      15.426    
  20.019      32.852      67.072      130.89      223.39      333.27      439.97      518.39      547.31      518.39    
  439.97      333.27      223.39      130.89      67.072      32.852      20.019      15.426      12.346      10.431    
  9.3317      8.7285      8.3658      8.1199      7.7400      7.8485      8.1199      8.5164      9.1809      10.402    
  12.526      15.901      21.261      38.037      80.623      157.30      266.29      394.47      518.39      609.32    
  642.86      609.32      518.39      394.47      266.29      157.30      80.623      38.037      21.261      15.901    
  12.526      10.402      9.1809      8.5164      8.1199      7.8485      7.6266      7.7400      8.0226      8.4341    
  9.1237      10.392      12.592      16.070      21.767      40.077      85.785      167.19      282.21      417.08    
  547.31      642.86      678.10      642.86      547.31      417.08      282.21      167.19      85.785      40.077    
  21.767      16.070      12.592      10.392      9.1237      8.4341      8.0226      7.7400      7.7400      7.8485    
  8.1199      8.5164      9.1809      10.402      12.526      15.901      21.261      38.037      80.623      157.30    
  266.29      394.47      518.39      609.32      642.86      609.32      518.39      394.47      266.29      157.30    
  80.623      38.037      21.261      15.901      12.526      10.402      9.1809      8.5164      8.1199      7.8485    
  8.0226      8.1199      8.3658      8.7285      9.3317      10.431      12.346      15.426      20.019      32.852    
  67.072      130.89      223.39      333.27      439.97      518.39      547.31      518.39      439.97      333.27    
  223.39      130.89      67.072      32.852      20.019      15.426      12.346      10.431      9.3317      8.7285    
  8.3658      8.1199      8.4341      8.5164      8.7285      9.0461      9.5655      10.493      12.105      14.738    
  18.581      26.754      49.959      96.204      165.87      250.37      333.27      394.47      417.08      394.47    
  333.27      250.37      165.87      96.204      49.959      26.754      18.581      14.738      12.105      10.493    
  9.5655      9.0461      8.7285      8.5164      9.1237      9.1809      9.3317      9.5655      9.9560      10.660    
  11.902      13.979      17.129      21.882      34.646      62.904      108.46      165.87      223.39      266.29    
  282.21      266.29      223.39      165.87      108.46      62.904      34.646      21.882      17.129      13.979    
  11.902      10.660      9.9560      9.5655      9.3317      9.1809      10.392      10.402      10.431      10.493    
  10.660      11.058      11.863      13.316      15.657      18.894      24.532      38.226      62.904      96.204    
  130.89      157.30      167.19      157.30      130.89      96.204      62.904      38.226      24.532      18.894    
  15.657      13.316      11.863      11.058      10.660      10.493      10.431      10.402      12.592      12.526    
  12.346      12.105      11.902      11.863      12.140      12.920      14.397      16.659      19.561      24.532    
  34.646      49.959      67.072      80.623      85.785      80.623      67.072      49.959      34.646      24.532    
  19.561      16.659      14.397      12.920      12.140      11.863      11.902      12.105      12.346      12.526    
  16.070      15.901      15.426      14.738      13.979      13.316      12.920      12.953      13.555      14.807    
  16.659      18.894      21.882      26.754      32.852      38.037      40.077      38.037      32.852      26.754    
  21.882      18.894      16.659      14.807      13.555      12.953      12.920      13.316      13.979      14.738    
  15.426      15.901      21.767      21.261      20.019      18.581      17.129      15.657      14.397      13.555    
  13.260      13.555      14.397      15.657      17.129      18.581      20.019      21.261      21.767      21.261    
  20.019      18.581      17.129      15.657      14.397      13.555      13.260      13.555      14.397      15.657    
  17.129      18.581      20.019      21.261      40.077      38.037      32.852      26.754      21.882      18.894    
  16.659      14.807      13.555      12.953      12.920      13.316      13.979      14.738      15.426      15.901    
  16.070      15.901      15.426      14.738      13.979      13.316      12.920      12.953      13.555      14.807    
  16.659      18.894      21.882      26.754      32.852      38.037      85.785      80.623      67.072      49.959    
  34.646      24.532      19.561      16.659      14.397      12.920      12.140      11.863      11.902      12.105    
  12.346      12.526      12.592      12.526      12.346      12.105      11.902      11.863      12.140      12.920    
  14.397      16.659      19.561      24.532      34.646      49.959      67.072      80.623      167.19      157.30    
  130.89      96.204      62.904      38.226      24.532      18.894      15.657      13.316      11.863      11.058    
  10.660      10.493      10.431      10.402      10.392      10.402      10.431      10.493      10.660      11.058    
  11.863      13.316      15.657      18.894      24.532      38.226      62.904      96.204      130.89      157.30    
  282.21      266.29      223.39      165.87      108.46      62.904      34.646      21.882      17.129      13.979    
  11.902      10.660      9.9560      9.5655      9.3317      9.1809      9.1237      9.1809      9.3317      9.5655    
  9.9560      10.660      11.902      13.979      17.129      21.882      34.646      62.904      108.46      165.87    
  223.39      266.29      417.08      394.47      333.27      250.37      165.87      96.204      49.959      26.754    
  18.581      14.738      12.105      10.493      9.5655      9.0461      8.7285      8.5164      8.4341      8.5164    
  8.7285      9.0461      9.5655      10.493      12.105      14.738      18.581      26.754      49.959      96.204    
  165.87      250.37      333.27      394.47      547.31      518.39      439.97      333.27      223.39      130.89    
  67.072      32.852      20.019      15.426      12.346      10.431      9.3317      8.7285      8.3658      8.1199    
  8.0226      8.1199      8.3658      8.7285      9.3317      10.431      12.346      15.426      20.019      32.852    
  67.072      130.89      223.39      333.27      439.97      518.39      642.86      609.32      518.39      394.47    
  266.29      157.30      80.623      38.037      21.261      15.901      12.526      10.402      9.1809      8.5164    
  8.1199      7.8485      7.7400      7.8485      8.1199      8.5164      9.1809      10.402      12.526      15.901    
  21.261      38.037      80.623      157.30      266.29      394.47      518.39      609.32      577.71      547.31    
  464.90      352.70      236.97      139.20      71.297      34.445      20.401      15.587      12.408      10.423    
  9.2813      8.6551      8.2787      8.0226      7.9209      8.0226      8.2787      8.6551      9.2813      10.423    
  12.408      15.587      20.401      34.445      71.297      139.20      236.97      352.70      464.90      547.31    
  547.31      518.39      439.97      333.27      223.39      130.89      67.072      32.852      20.019      15.426    
  12.346      10.431      9.3317      8.7285      8.3658      8.1199      8.0226      8.1199      8.3658      8.7285    
  9.3317      10.431      12.346      15.426      20.019      32.852      67.072      130.89      223.39      333.27    
  439.97      518.39      464.90      439.97      372.44      280.77      186.88      108.76      56.041      28.839    
  19.063      14.977      12.176      10.453      9.4658      8.9192      8.5882      8.3658      8.2787      8.3658    
  8.5882      8.9192      9.4658      10.453      12.176      14.977      19.063      28.839      56.041      108.76    
  186.88      280.77      372.44      439.97      352.70      333.27      280.77      209.89      138.20      79.944    
  42.287      24.196      17.864      14.331      11.951      10.507      9.6762      9.2076      8.9192      8.7285    
  8.6551      8.7285      8.9192      9.2076      9.6762      10.507      11.951      14.331      17.864      24.196    
  42.287      79.944      138.20      209.89      280.77      333.27      236.97      223.39      186.88      138.20    
  90.115      52.702      30.253      20.535      16.499      13.626      11.760      10.653      10.026      9.6762    
  9.4658      9.3317      9.2813      9.3317      9.4658      9.6762      10.026      10.653      11.760      13.626    
  16.499      20.535      30.253      52.702      90.115      138.20      186.88      223.39      139.20      130.89    
  108.76      79.944      52.702      33.043      22.551      18.107      15.127      13.013      11.717      11.004    
  10.653      10.507      10.453      10.431      10.423      10.431      10.453      10.507      10.653      11.004    
  11.717      13.013      15.127      18.107      22.551      33.043      52.702      79.944      108.76      130.89    
  71.297      67.072      56.041      42.287      30.253      22.551      18.695      16.024      13.968      12.646    
  11.956      11.717      11.760      11.951      12.176      12.346      12.408      12.346      12.176      11.951    
  11.760      11.717      11.956      12.646      13.968      16.024      18.695      22.551      30.253      42.287    
  56.041      67.072      34.445      32.852      28.839      24.196      20.535      18.107      16.024      14.330    
  13.202      12.667      12.646      13.013      13.626      14.331      14.977      15.426      15.587      15.426    
  14.977      14.331      13.626      13.013      12.646      12.667      13.202      14.330      16.024      18.107    
  20.535      24.196      28.839      32.852      20.401      20.019      19.063      17.864      16.499      15.127    
  13.968      13.202      12.934      13.202      13.968      15.127      16.499      17.864      19.063      20.019    
  20.401      20.019      19.063      17.864      16.499      15.127      13.968      13.202      12.934      13.202    
  13.968      15.127      16.499      17.864      19.063      20.019      15.587      15.426      14.977      14.331    
  13.626      13.013      12.646      12.667      13.202      14.330      16.024      18.107      20.535      24.196    
  28.839      32.852      34.445      32.852      28.839      24.196      20.535      18.107      16.024      14.330    
  13.202      12.667      12.646      13.013      13.626      14.331      14.977      15.426      12.408      12.346    
  12.176      11.951      11.760      11.717      11.956      12.646      13.968      16.024      18.695      22.551    
  30.253      42.287      56.041      67.072      71.297      67.072      56.041      42.287      30.253      22.551    
  18.695      16.024      13.968      12.646      11.956      11.717      11.760      11.951      12.176      12.346    
  10.423      10.431      10.453      10.507      10.653      11.004      11.717      13.013      15.127      18.107    
  22.551      33.043      52.702      79.944      108.76      130.89      139.20      130.89      108.76      79.944    
  52.702      33.043      22.551      18.107      15.127      13.013      11.717      11.004      10.653      10.507    
  10.453      10.431      9.2813      9.3317      9.4658      9.6762      10.026      10.653      11.760      13.626    
  16.499      20.535      30.253      52.702      90.115      138.20      186.88      223.39      236.97      223.39    