unknown system                          
   1.00000000000000     
     3.443320    0.000000    0.000000
     0.000000    3.443320    0.000000
     0.000000    0.000000    3.443320
   Cu
     4
Direct
  0.000000  0.000000  0.000000
  0.500000  0.500000  0.000000
  0.500000  0.000000  0.500000
  0.000000  0.500000  0.500000
 
   32   32   32
 0.71511886317E+03 0.67809686200E+03 0.57771474302E+03 0.44085549332E+03 0.29898326429E+03
 0.17765168602E+03 0.91293011291E+02 0.42287341689E+02 0.22324244993E+02 0.16241419554E+02
 0.12658332429E+02 0.10379744746E+02 0.90635825365E+01 0.83480041927E+01 0.79208997940E+01
 0.76265994011E+01 0.75081966276E+01 0.76265994011E+01 0.79208997940E+01 0.83480041927E+01
 0.90635825365E+01 0.10379744746E+02 0.12658332429E+02 0.16241419554E+02 0.22324244993E+02
 0.42287341689E+02 0.91293011291E+02 0.17765168602E+03 0.29898326429E+03 0.44085549332E+03
 0.57771474302E+03 0.67809686200E+03 0.67809686200E+03 0.64285993112E+03 0.54731472833E+03
 0.41707779012E+03 0.28221052771E+03 0.16718690087E+03 0.85784631079E+02 0.40076954015E+02
 0.21766634486E+02 0.16069882744E+02 0.12591783398E+02 0.10391667762E+02 0.91236517675E+01
 0.84340759522E+01 0.80225619232E+01 0.77399747287E+01 0.76265994011E+01 0.77399747287E+01
 0.80225619232E+01 0.84340759522E+01 0.91236517675E+01 0.10391667762E+02 0.12591783398E+02
 0.16069882744E+02 0.21766634486E+02 0.40076954015E+02 0.85784631079E+02 0.16718690087E+03
 0.28221052771E+03 0.41707779012E+03 0.54731472833E+03 0.64285993112E+03 0.57771474302E+03
 0.54731472833E+03 0.46490019491E+03 0.35269832389E+03 0.23697070983E+03 0.13920055128E+03
 0.71297177043E+02 0.34444528564E+02 0.20400988529E+02 0.15586566951E+02 0.12408087842E+02
 0.10423023679E+02 0.92813043965E+01 0.86551483555E+01 0.82786646646E+01 0.80225619232E+01
 0.79208997940E+01 0.80225619232E+01 0.82786646646E+01 0.86551483555E+01 0.92813043965E+01
 0.10423023679E+02 0.12408087842E+02 0.15586566951E+02 0.20400988529E+02 0.34444528564E+02
 0.71297177043E+02 0.13920055128E+03 0.23697070983E+03 0.35269832389E+03 0.46490019491E+03
 0.54731472833E+03 0.44085549332E+03 0.41707779012E+03 0.35269832389E+03 0.26539774541E+03
 0.17621610590E+03 0.10235665978E+03 0.52929535245E+02 0.27782041809E+02 0.18846311237E+02
 0.14884104563E+02 0.12162457618E+02 0.10489091933E+02 0.95247989237E+01 0.89851818537E+01
 0.86551483555E+01 0.84340759522E+01 0.83480041927E+01 0.84340759522E+01 0.86551483555E+01
 0.89851818537E+01 0.95247989237E+01 0.10489091933E+02 0.12162457618E+02 0.14884104563E+02
 0.18846311237E+02 0.27782041809E+02 0.52929535245E+02 0.10235665978E+03 0.17621610590E+03
 0.26539774541E+03 0.35269832389E+03 0.41707779012E+03 0.29898326429E+03 0.28221052771E+03
 0.23697070983E+03 0.17621610590E+03 0.11537226227E+03 0.66815101391E+02 0.36378236122E+02
 0.22423154887E+02 0.17352691096E+02 0.14106628174E+02 0.11954713380E+02 0.10663953957E+02
 0.99310528822E+01 0.95247989237E+01 0.92813043965E+01 0.91236517675E+01 0.90635825365E+01
 0.91236517675E+01 0.92813043965E+01 0.95247989237E+01 0.99310528822E+01 0.10663953957E+02
 0.11954713380E+02 0.14106628174E+02 0.17352691096E+02 0.22423154887E+02 0.36378236122E+02
 0.66815101391E+02 0.11537226227E+03 0.17621610590E+03 0.23697070983E+03 0.28221052771E+03
 0.17765168602E+03 0.16718690087E+03 0.13920055128E+03 0.10235665978E+03 0.66815101391E+02
 0.40256780035E+02 0.25327632181E+02 0.19178195527E+02 0.15846909125E+02 0.13426680644E+02
 0.11917520055E+02 0.11079101860E+02 0.10663953957E+02 0.10489091933E+02 0.10423023679E+02
 0.10391667762E+02 0.10379744746E+02 0.10391667762E+02 0.10423023679E+02 0.10489091933E+02
 0.10663953957E+02 0.11079101860E+02 0.11917520055E+02 0.13426680644E+02 0.15846909125E+02
 0.19178195527E+02 0.25327632181E+02 0.40256780035E+02 0.66815101391E+02 0.10235665978E+03
 0.13920055128E+03 0.16718690087E+03 0.91293011291E+02 0.85784631079E+02 0.71297177043E+02
 0.52929535245E+02 0.36378236122E+02 0.25327632181E+02 0.19884117004E+02 0.16885057322E+02
 0.14552119755E+02 0.13020947360E+02 0.12208907483E+02 0.11917520055E+02 0.11954713380E+02
 0.12162457618E+02 0.12408087842E+02 0.12591783398E+02 0.12658332429E+02 0.12591783398E+02
 0.12408087842E+02 0.12162457618E+02 0.11954713380E+02 0.11917520055E+02 0.12208907483E+02
 0.13020947360E+02 0.14552119755E+02 0.16885057322E+02 0.19884117004E+02 0.25327632181E+02
 0.36378236122E+02 0.52929535245E+02 0.71297177043E+02 0.85784631079E+02 0.42287341689E+02
 0.40076954015E+02 0.34444528564E+02 0.27782041809E+02 0.22423154887E+02 0.19178195527E+02
 0.16885057322E+02 0.14978402867E+02 0.13683582054E+02 0.13057816628E+02 0.13020947360E+02
 0.13426680644E+02 0.14106628174E+02 0.14884104563E+02 0.15586566951E+02 0.16069882744E+02
 0.16241419554E+02 0.16069882744E+02 0.15586566951E+02 0.14884104563E+02 0.14106628174E+02
 0.13426680644E+02 0.13020947360E+02 0.13057816628E+02 0.13683582054E+02 0.14978402867E+02
 0.16885057322E+02 0.19178195527E+02 0.22423154887E+02 0.27782041809E+02 0.34444528564E+02
 0.40076954015E+02 0.22324244993E+02 0.21766634486E+02 0.20400988529E+02 0.18846311237E+02
 0.17352691096E+02 0.15846909125E+02 0.14552119755E+02 0.13683582054E+02 0.13378703452E+02
 0.13683582054E+02 0.14552119755E+02 0.15846909125E+02 0.17352691096E+02 0.18846311237E+02
 0.20400988529E+02 0.21766634486E+02 0.22324244993E+02 0.21766634486E+02 0.20400988529E+02
 0.18846311237E+02 0.17352691096E+02 0.15846909125E+02 0.14552119755E+02 0.13683582054E+02
 0.13378703452E+02 0.13683582054E+02 0.14552119755E+02 0.15846909125E+02 0.17352691096E+02
 0.18846311237E+02 0.20400988529E+02 0.21766634486E+02 0.16241419554E+02 0.16069882744E+02
 0.15586566951E+02 0.14884104563E+02 0.14106628174E+02 0.13426680644E+02 0.13020947360E+02
 0.13057816628E+02 0.13683582054E+02 0.14978402867E+02 0.16885057322E+02 0.19178195527E+02
 0.22423154887E+02 0.27782041809E+02 0.34444528564E+02 0.40076954015E+02 0.42287341689E+02
 0.40076954015E+02 0.34444528564E+02 0.27782041809E+02 0.22423154887E+02 0.19178195527E+02
 0.16885057322E+02 0.14978402867E+02 0.13683582054E+02 0.13057816628E+02 0.13020947360E+02
 0.13426680644E+02 0.14106628174E+02 0.14884104563E+02 0.15586566951E+02 0.16069882744E+02
 0.12658332429E+02 0.12591783398E+02 0.12408087842E+02 0.12162457618E+02 0.11954713380E+02
 0.11917520055E+02 0.12208907483E+02 0.13020947360E+02 0.14552119755E+02 0.16885057322E+02
 0.19884117004E+02 0.25327632181E+02 0.36378236122E+02 0.52929535245E+02 0.71297177043E+02
 0.85784631079E+02 0.91293011291E+02 0.85784631079E+02 0.71297177043E+02 0.52929535245E+02
 0.36378236122E+02 0.25327632181E+02 0.19884117004E+02 0.16885057322E+02 0.14552119755E+02
 0.13020947360E+02 0.12208907483E+02 0.11917520055E+02 0.11954713380E+02 0.12162457618E+02
 0.12408087842E+02 0.12591783398E+02 0.10379744746E+02 0.10391667762E+02 0.10423023679E+02
 0.10489091933E+02 0.10663953957E+02 0.11079101860E+02 0.11917520055E+02 0.13426680644E+02
 0.15846909125E+02 0.19178195527E+02 0.25327632181E+02 0.40256780035E+02 0.66815101391E+02
 0.10235665978E+03 0.13920055128E+03 0.16718690087E+03 0.17765168602E+03 0.16718690087E+03
 0.13920055128E+03 0.10235665978E+03 0.66815101391E+02 0.40256780035E+02 0.25327632181E+02
 0.19178195527E+02 0.15846909125E+02 0.13426680644E+02 0.11917520055E+02 0.11079101860E+02
 0.10663953957E+02 0.10489091933E+02 0.10423023679E+02 0.10391667762E+02 0.90635825365E+01
 0.91236517675E+01 0.92813043965E+01 0.95247989237E+01 0.99310528822E+01 0.10663953957E+02
 0.11954713380E+02 0.14106628174E+02 0.17352691096E+02 0.22423154887E+02 0.36378236122E+02
 0.66815101391E+02 0.11537226227E+03 0.17621610590E+03 0.23697070983E+03 0.28221052771E+03
 0.29898326429E+03 0.28221052771E+03 0.23697070983E+03 0.17621610590E+03 0.11537226227E+03
 0.66815101391E+02 0.36378236122E+02 0.22423154887E+02 0.17352691096E+02 0.14106628174E+02
 0.11954713380E+02 0.10663953957E+02 0.99310528822E+01 0.95247989237E+01 0.92813043965E+01
 0.91236517675E+01 0.83480041927E+01 0.84340759522E+01 0.86551483555E+01 0.89851818537E+01
 0.95247989237E+01 0.10489091933E+02 0.12162457618E+02 0.14884104563E+02 0.18846311237E+02
 0.27782041809E+02 0.52929535245E+02 0.10235665978E+03 0.17621610590E+03 0.26539774541E+03
 0.35269832389E+03 0.41707779012E+03 0.44085549332E+03 0.41707779012E+03 0.35269832389E+03
 0.26539774541E+03 0.17621610590E+03 0.10235665978E+03 0.52929535245E+02 0.27782041809E+02
 0.18846311237E+02 0.14884104563E+02 0.12162457618E+02 0.10489091933E+02 0.95247989237E+01
 0.89851818537E+01 0.86551483555E+01 0.84340759522E+01 0.79208997940E+01 0.80225619232E+01
 0.82786646646E+01 0.86551483555E+01 0.92813043965E+01 0.10423023679E+02 0.12408087842E+02
 0.15586566951E+02 0.20400988529E+02 0.34444528564E+02 0.71297177043E+02 0.13920055128E+03
 0.23697070983E+03 0.35269832389E+03 0.46490019491E+03 0.54731472833E+03 0.57771474302E+03
 0.54731472833E+03 0.46490019491E+03 0.35269832389E+03 0.23697070983E+03 0.13920055128E+03
 0.71297177043E+02 0.34444528564E+02 0.20400988529E+02 0.15586566951E+02 0.12408087842E+02
 0.10423023679E+02 0.92813043965E+01 0.86551483555E+01 0.82786646646E+01 0.80225619232E+01
 0.76265994011E+01 0.77399747287E+01 0.80225619232E+01 0.84340759522E+01 0.91236517675E+01
 0.10391667762E+02 0.12591783398E+02 0.16069882744E+02 0.21766634486E+02 0.40076954015E+02
 0.85784631079E+02 0.16718690087E+03 0.28221052771E+03 0.41707779012E+03 0.54731472833E+03
 0.64285993112E+03 0.67809686200E+03 0.64285993112E+03 0.54731472833E+03 0.41707779012E+03
 0.28221052771E+03 0.16718690087E+03 0.85784631079E+02 0.40076954015E+02 0.21766634486E+02
 0.16069882744E+02 0.12591783398E+02 0.10391667762E+02 0.91236517675E+01 0.84340759522E+01
 0.80225619232E+01 0.77399747287E+01 0.75081966276E+01 0.76265994011E+01 0.79208997940E+01
 0.83480041927E+01 0.90635825365E+01 0.10379744746E+02 0.12658332429E+02 0.16241419554E+02
 0.22324244993E+02 0.42287341689E+02 0.91293011291E+02 0.17765168602E+03 0.29898326429E+03
 0.44085549332E+03 0.57771474302E+03 0.67809686200E+03 0.71511886317E+03 0.67809686200E+03
 0.57771474302E+03 0.44085549332E+03 0.29898326429E+03 0.17765168602E+03 0.91293011291E+02
 0.42287341689E+02 0.22324244993E+02 0.16241419554E+02 0.12658332429E+02 0.10379744746E+02
 0.90635825365E+01 0.83480041927E+01 0.79208997940E+01 0.76265994011E+01 0.76265994011E+01
 0.77399747287E+01 0.80225619232E+01 0.84340759522E+01 0.91236517675E+01 0.10391667762E+02
 0.12591783398E+02 0.16069882744E+02 0.21766634486E+02 0.40076954015E+02 0.85784631079E+02
 0.16718690087E+03 0.28221052771E+03 0.41707779012E+03 0.54731472833E+03 0.64285993112E+03
 0.67809686200E+03 0.64285993112E+03 0.54731472833E+03 0.41707779012E+03 0.28221052771E+03
 0.16718690087E+03 0.85784631079E+02 0.40076954015E+02 0.21766634486E+02 0.16069882744E+02
 0.12591783398E+02 0.10391667762E+02 0.91236517675E+01 0.84340759522E+01 0.80225619232E+01
 0.77399747287E+01 0.79208997940E+01 0.80225619232E+01 0.82786646646E+01 0.86551483555E+01
 0.92813043965E+01 0.10423023679E+02 0.12408087842E+02 0.15586566951E+02 0.20400988529E+02
 0.34444528564E+02 0.71297177043E+02 0.13920055128E+03 0.23697070983E+03 0.35269832389E+03
 0.46490019491E+03 0.54731472833E+03 0.57771474302E+03 0.54731472833E+03 0.46490019491E+03
 0.35269832389E+03 0.23697070983E+03 0.13920055128E+03 0.71297177043E+02 0.34444528564E+02
 0.20400988529E+02 0.15586566951E+02 0.12408087842E+02 0.10423023679E+02 0.92813043965E+01
 0.86551483555E+01 0.82786646646E+01 0.80225619232E+01 0.83480041927E+01 0.84340759522E+01
 0.86551483555E+01 0.89851818537E+01 0.95247989237E+01 0.10489091933E+02 0.12162457618E+02
 0.14884104563E+02 0.18846311237E+02 0.27782041809E+02 0.52929535245E+02 0.10235665978E+03
 0.17621610590E+03 0.26539774541E+03 0.35269832389E+03 0.41707779012E+03 0.44085549332E+03
 0.41707779012E+03 0.35269832389E+03 0.26539774541E+03 0.17621610590E+03 0.10235665978E+03
 0.52929535245E+02 0.27782041809E+02 0.18846311237E+02 0.14884104563E+02 0.12162457618E+02
 0.10489091933E+02 0.95247989237E+01 0.89851818537E+01 0.86551483555E+01 0.84340759522E+01
 0.90635825365E+01 0.91236517675E+01 0.92813043965E+01 0.95247989237E+01 0.99310528822E+01
 0.10663953957E+02 0.11954713380E+02 0.14106628174E+02 0.17352691096E+02 0.22423154887E+02
 0.36378236122E+02 0.66815101391E+02 0.11537226227E+03 0.17621610590E+03 0.23697070983E+03
 0.28221052771E+03 0.29898326429E+03 0.28221052771E+03 0.23697070983E+03 0.17621610590E+03
 0.11537226227E+03 0.66815101391E+02 0.36378236122E+02 0.22423154887E+02 0.17352691096E+02
 0.14106628174E+02 0.11954713380E+02 0.10663953957E+02 0.99310528822E+01 0.95247989237E+01
 0.92813043965E+01 0.91236517675E+01 0.10379744746E+02 0.10391667762E+02 0.10423023679E+02
 0.10489091933E+02 0.10663953957E+02 0.11079101860E+02 0.11917520055E+02 0.13426680644E+02
 0.15846909125E+02 0.19178195527E+02 0.25327632181E+02 0.40256780035E+02 0.66815101391E+02
 0.10235665978E+03 0.13920055128E+03 0.16718690087E+03 0.17765168602E+03 0.16718690087E+03
 0.13920055128E+03 0.10235665978E+03 0.66815101391E+02 0.40256780035E+02 0.25327632181E+02
 0.19178195527E+02 0.15846909125E+02 0.13426680644E+02 0.11917520055E+02 0.11079101860E+02
 0.10663953957E+02 0.10489091933E+02 0.10423023679E+02 0.10391667762E+02 0.12658332429E+02
 0.12591783398E+02 0.12408087842E+02 0.12162457618E+02 0.11954713380E+02 0.11917520055E+02
 0.12208907483E+02 0.13020947360E+02 0.14552119755E+02 0.16885057322E+02 0.19884117004E+02
 0.25327632181E+02 0.36378236122E+02 0.52929535245E+02 0.71297177043E+02 0.85784631079E+02
 0.91293011291E+02 0.85784631079E+02 0.71297177043E+02 0.52929535245E+02 0.36378236122E+02
 0.25327632181E+02 0.19884117004E+02 0.16885057322E+02 0.14552119755E+02 0.13020947360E+02
 0.12208907483E+02 0.11917520055E+02 0.11954713380E+02 0.12162457618E+02 0.12408087842E+02
 0.12591783398E+02 0.16241419554E+02 0.16069882744E+02 0.15586566951E+02 0.14884104563E+02
 0.14106628174E+02 0.13426680644E+02 0.13020947360E+02 0.13057816628E+02 0.13683582054E+02
 0.14978402867E+02 0.16885057322E+02 0.19178195527E+02 0.22423154887E+02 0.27782041809E+02
 0.34444528564E+02 0.40076954015E+02 0.42287341689E+02 0.40076954015E+02 0.34444528564E+02
 0.27782041809E+02 0.22423154887E+02 0.19178195527E+02 0.16885057322E+02 0.14978402867E+02
 0.13683582054E+02 0.13057816628E+02 0.13020947360E+02 0.13426680644E+02 0.14106628174E+02
 0.14884104563E+02 0.15586566951E+02 0.16069882744E+02 0.22324244993E+02 0.21766634486E+02
 0.20400988529E+02 0.18846311237E+02 0.17352691096E+02 0.15846909125E+02 0.14552119755E+02
 0.13683582054E+02 0.13378703452E+02 0.13683582054E+02 0.14552119755E+02 0.15846909125E+02
 0.17352691096E+02 0.18846311237E+02 0.20400988529E+02 0.21766634486E+02 0.22324244993E+02
 0.21766634486E+02 0.20400988529E+02 0.18846311237E+02 0.17352691096E+02 0.15846909125E+02
 0.14552119755E+02 0.13683582054E+02 0.13378703452E+02 0.13683582054E+02 0.14552119755E+02
 0.15846909125E+02 0.17352691096E+02 0.18846311237E+02 0.20400988529E+02 0.21766634486E+02
 0.42287341689E+02 0.40076954015E+02 0.34444528564E+02 0.27782041809E+02 0.22423154887E+02
 0.19178195527E+02 0.16885057322E+02 0.14978402867E+02 0.13683582054E+02 0.13057816628E+02
 0.13020947360E+02 0.13426680644E+02 0.14106628174E+02 0.14884104563E+02 0.15586566951E+02
 0.16069882744E+02 0.16241419554E+02 0.16069882744E+02 0.15586566951E+02 0.14884104563E+02
 0.14106628174E+02 0.13426680644E+02 0.13020947360E+02 0.13057816628E+02 0.13683582054E+02
 0.14978402867E+02 0.16885057322E+02 0.19178195527E+02 0.22423154887E+02 0.27782041809E+02
 0.34444528564E+02 0.40076954015E+02 0.91293011291E+02 0.85784631079E+02 0.71297177043E+02
 0.52929535245E+02 0.36378236122E+02 0.25327632181E+02 0.19884117004E+02 0.16885057322E+02
 0.14552119755E+02 0.13020947360E+02 0.12208907483E+02 0.11917520055E+02 0.11954713380E+02
 0.12162457618E+02 0.12408087842E+02 0.12591783398E+02 0.12658332429E+02 0.12591783398E+02
 0.12408087842E+02 0.12162457618E+02 0.11954713380E+02 0.11917520055E+02 0.12208907483E+02
 0.13020947360E+02 0.14552119755E+02 0.16885057322E+02 0.19884117004E+02 0.25327632181E+02
 0.36378236122E+02 0.52929535245E+02 0.71297177043E+02 0.85784631079E+02 0.17765168602E+03
 0.16718690087E+03 0.13920055128E+03 0.10235665978E+03 0.66815101391E+02 0.40256780035E+02
 0.25327632181E+02 0.19178195527E+02 0.15846909125E+02 0.13426680644E+02 0.11917520055E+02
 0.11079101860E+02 0.10663953957E+02 0.10489091933E+02 0.10423023679E+02 0.10391667762E+02
 0.10379744746E+02 0.10391667762E+02 0.10423023679E+02 0.10489091933E+02 0.10663953957E+02
 0.11079101860E+02 0.11917520055E+02 0.13426680644E+02 0.15846909125E+02 0.19178195527E+02
 0.25327632181E+02 0.40256780035E+02 0.66815101391E+02 0.10235665978E+03 0.13920055128E+03
 0.16718690087E+03 0.29898326429E+03 0.28221052771E+03 0.23697070983E+03 0.17621610590E+03
 0.11537226227E+03 0.66815101391E+02 0.36378236122E+02 0.22423154887E+02 0.17352691096E+02
 0.14106628174E+02 0.11954713380E+02 0.10663953957E+02 0.99310528822E+01 0.95247989237E+01
 0.92813043965E+01 0.91236517675E+01 0.90635825365E+01 0.91236517675E+01 0.92813043965E+01
 0.95247989237E+01 0.99310528822E+01 0.10663953957E+02 0.11954713380E+02 0.14106628174E+02
 0.17352691096E+02 0.22423154887E+02 0.36378236122E+02 0.66815101391E+02 0.11537226227E+03
 0.17621610590E+03 0.23697070983E+03 0.28221052771E+03 0.44085549332E+03 0.41707779012E+03
 0.35269832389E+03 0.26539774541E+03 0.17621610590E+03 0.10235665978E+03 0.52929535245E+02
 0.27782041809E+02 0.18846311237E+02 0.14884104563E+02 0.12162457618E+02 0.10489091933E+02
 0.95247989237E+01 0.89851818537E+01 0.86551483555E+01 0.84340759522E+01 0.83480041927E+01
 0.84340759522E+01 0.86551483555E+01 0.89851818537E+01 0.95247989237E+01 0.10489091933E+02
 0.12162457618E+02 0.14884104563E+02 0.18846311237E+02 0.27782041809E+02 0.52929535245E+02
 0.10235665978E+03 0.17621610590E+03 0.26539774541E+03 0.35269832389E+03 0.41707779012E+03
 0.57771474302E+03 0.54731472833E+03 0.46490019491E+03 0.35269832389E+03 0.23697070983E+03
 0.13920055128E+03 0.71297177043E+02 0.34444528564E+02 0.20400988529E+02 0.15586566951E+02
 0.12408087842E+02 0.10423023679E+02 0.92813043965E+01 0.86551483555E+01 0.82786646646E+01
 0.80225619232E+01 0.79208997940E+01 0.80225619232E+01 0.82786646646E+01 0.86551483555E+01
 0.92813043965E+01 0.10423023679E+02 0.12408087842E+02 0.15586566951E+02 0.20400988529E+02
 0.34444528564E+02 0.71297177043E+02 0.13920055128E+03 0.23697070983E+03 0.35269832389E+03
 0.46490019491E+03 0.54731472833E+03 0.67809686200E+03 0.64285993112E+03 0.54731472833E+03
 0.41707779012E+03 0.28221052771E+03 0.16718690087E+03 0.85784631079E+02 0.40076954015E+02
 0.21766634486E+02 0.16069882744E+02 0.12591783398E+02 0.10391667762E+02 0.91236517675E+01
 0.84340759522E+01 0.80225619232E+01 0.77399747287E+01 0.76265994011E+01 0.77399747287E+01
 0.80225619232E+01 0.84340759522E+01 0.91236517675E+01 0.10391667762E+02 0.12591783398E+02
 0.16069882744E+02 0.21766634486E+02 0.40076954015E+02 0.85784631079E+02 0.16718690087E+03
 0.28221052771E+03 0.41707779012E+03 0.54731472833E+03 0.64285993112E+03 0.67809686200E+03
 0.64285993112E+03 0.54731472833E+03 0.41707779012E+03 0.28221052771E+03 0.16718690087E+03
 0.85784631079E+02 0.40076954015E+02 0.21766634486E+02 0.16069882744E+02 0.12591783398E+02
 0.10391667762E+02 0.91236517675E+01 0.84340759522E+01 0.80225619232E+01 0.77399747287E+01
 0.76265994011E+01 0.77399747287E+01 0.80225619232E+01 0.84340759522E+01 0.91236517675E+01
 0.10391667762E+02 0.12591783398E+02 0.16069882744E+02 0.21766634486E+02 0.40076954015E+02
 0.85784631079E+02 0.16718690087E+03 0.28221052771E+03 0.41707779012E+03 0.54731472833E+03
 0.64285993112E+03 0.64285993112E+03 0.60932238188E+03 0.51838591295E+03 0.39446812354E+03
 0.26629456741E+03 0.15729993142E+03 0.80623155685E+02 0.38036759452E+02 0.21260754640E+02
 0.15900964680E+02 0.12526229199E+02 0.10402378887E+02 0.91808979282E+01 0.85163974496E+01
 0.81198852574E+01 0.78485348091E+01 0.77399747287E+01 0.78485348091E+01 0.81198852575E+01
 0.85163974496E+01 0.91808979282E+01 0.10402378887E+02 0.12526229199E+02 0.15900964680E+02
 0.21260754640E+02 0.38036759452E+02 0.80623155685E+02 0.15729993142E+03 0.26629456741E+03
 0.39446812354E+03 0.51838591295E+03 0.60932238188E+03 0.54731472833E+03 0.51838591295E+03
 0.43997053499E+03 0.33327272606E+03 0.22339398927E+03 0.13088765018E+03 0.67071781067E+02
 0.32852173374E+02 0.20018840595E+02 0.15425969637E+02 0.12345805364E+02 0.10430965312E+02
 0.93316667515E+01 0.87284587093E+01 0.83657670903E+01 0.81198852575E+01 0.80225619232E+01
 0.81198852575E+01 0.83657670903E+01 0.87284587093E+01 0.93316667515E+01 0.10430965312E+02
 0.12345805364E+02 0.15425969637E+02 0.20018840595E+02 0.32852173374E+02 0.67071781067E+02
 0.13088765018E+03 0.22339398927E+03 0.33327272606E+03 0.43997053499E+03 0.51838591295E+03
 0.41707779012E+03 0.39446812354E+03 0.33327272606E+03 0.25037218229E+03 0.16587424198E+03
 0.96203768288E+02 0.49958514659E+02 0.26753921355E+02 0.18581181473E+02 0.14737781197E+02
 0.12105325301E+02 0.10493135301E+02 0.95655238954E+01 0.90461146182E+01 0.87284587093E+01
 0.85163974496E+01 0.84340759522E+01 0.85163974496E+01 0.87284587093E+01 0.90461146182E+01
 0.95655238954E+01 0.10493135301E+02 0.12105325301E+02 0.14737781197E+02 0.18581181473E+02
 0.26753921355E+02 0.49958514659E+02 0.96203768288E+02 0.16587424198E+03 0.25037218229E+03
 0.33327272606E+03 0.39446812354E+03 0.28221052771E+03 0.26629456741E+03 0.22339398927E+03
 0.16587424198E+03 0.10845583342E+03 0.62903970593E+02 0.34646045112E+02 0.21882077065E+02
 0.17129071873E+02 0.13978568984E+02 0.11901774774E+02 0.10660096501E+02 0.99559885611E+01
 0.95655238954E+01 0.93316667515E+01 0.91808979282E+01 0.91236517675E+01 0.91808979282E+01
 0.93316667515E+01 0.95655238954E+01 0.99559885611E+01 0.10660096501E+02 0.11901774774E+02
 0.13978568984E+02 0.17129071873E+02 0.21882077065E+02 0.34646045112E+02 0.62903970593E+02
 0.10845583342E+03 0.16587424198E+03 0.22339398927E+03 0.26629456741E+03 0.16718690087E+03
 0.15729993142E+03 0.13088765018E+03 0.96203768288E+02 0.62903970593E+02 0.38225926330E+02
 0.24531998118E+02 0.18894210483E+02 0.15656872893E+02 0.13316092843E+02 0.11862812284E+02
 0.11057803409E+02 0.10660096501E+02 0.10493135301E+02 0.10430965312E+02 0.10402378887E+02
 0.10391667762E+02 0.10402378887E+02 0.10430965312E+02 0.10493135301E+02 0.10660096501E+02
 0.11057803409E+02 0.11862812284E+02 0.13316092843E+02 0.15656872893E+02 0.18894210483E+02
 0.24531998118E+02 0.38225926330E+02 0.62903970593E+02 0.96203768288E+02 0.13088765018E+03
 0.15729993142E+03 0.85784631079E+02 0.80623155685E+02 0.67071781067E+02 0.49958514659E+02
 0.34646045112E+02 0.24531998118E+02 0.19561043905E+02 0.16658709023E+02 0.14397149532E+02
 0.12920442323E+02 0.12140469606E+02 0.11862812284E+02 0.11901774774E+02 0.12105325301E+02
 0.12345805364E+02 0.12526229199E+02 0.12591783398E+02 0.12526229199E+02 0.12345805364E+02
 0.12105325301E+02 0.11901774774E+02 0.11862812284E+02 0.12140469606E+02 0.12920442323E+02
 0.14397149532E+02 0.16658709023E+02 0.19561043905E+02 0.24531998118E+02 0.34646045112E+02
 0.49958514659E+02 0.67071781067E+02 0.80623155685E+02 0.40076954015E+02 0.38036759452E+02
 0.32852173374E+02 0.26753921355E+02 0.21882077065E+02 0.18894210483E+02 0.16658709023E+02
 0.14806519967E+02 0.13555068496E+02 0.12953077788E+02 0.12920442323E+02 0.13316092843E+02
 0.13978568984E+02 0.14737781197E+02 0.15425969637E+02 0.15900964680E+02 0.16069882744E+02
 0.15900964680E+02 0.15425969637E+02 0.14737781197E+02 0.13978568984E+02 0.13316092843E+02
 0.12920442323E+02 0.12953077788E+02 0.13555068496E+02 0.14806519967E+02 0.16658709023E+02
 0.18894210483E+02 0.21882077065E+02 0.26753921355E+02 0.32852173374E+02 0.38036759452E+02
 0.21766634486E+02 0.21260754640E+02 0.20018840595E+02 0.18581181473E+02 0.17129071873E+02
 0.15656872893E+02 0.14397149532E+02 0.13555068496E+02 0.13260011334E+02 0.13555068496E+02
 0.14397149532E+02 0.15656872893E+02 0.17129071873E+02 0.18581181473E+02 0.20018840595E+02
 0.21260754640E+02 0.21766634486E+02 0.21260754640E+02 0.20018840595E+02 0.18581181473E+02
 0.17129071873E+02 0.15656872893E+02 0.14397149532E+02 0.13555068496E+02 0.13260011334E+02
 0.13555068496E+02 0.14397149532E+02 0.15656872893E+02 0.17129071873E+02 0.18581181473E+02
 0.20018840595E+02 0.21260754640E+02 0.16069882744E+02 0.15900964680E+02 0.15425969637E+02
 0.14737781197E+02 0.13978568984E+02 0.13316092843E+02 0.12920442323E+02 0.12953077788E+02
 0.13555068496E+02 0.14806519967E+02 0.16658709023E+02 0.18894210483E+02 0.21882077065E+02
 0.26753921355E+02 0.32852173374E+02 0.38036759452E+02 0.40076954015E+02 0.38036759452E+02
 0.32852173374E+02 0.26753921355E+02 0.21882077065E+02 0.18894210483E+02 0.16658709023E+02
 0.14806519967E+02 0.13555068496E+02 0.12953077788E+02 0.12920442323E+02 0.13316092843E+02
 0.13978568984E+02 0.14737781197E+02 0.15425969637E+02 0.15900964680E+02 0.12591783398E+02
 0.12526229199E+02 0.12345805364E+02 0.12105325301E+02 0.11901774774E+02 0.11862812284E+02
 0.12140469606E+02 0.12920442323E+02 0.14397149532E+02 0.16658709023E+02 0.19561043905E+02
 0.24531998118E+02 0.34646045112E+02 0.49958514659E+02 0.67071781067E+02 0.80623155685E+02
 0.85784631079E+02 0.80623155685E+02 0.67071781067E+02 0.49958514659E+02 0.34646045112E+02
 0.24531998118E+02 0.19561043905E+02 0.16658709023E+02 0.14397149532E+02 0.12920442323E+02
 0.12140469606E+02 0.11862812284E+02 0.11901774774E+02 0.12105325301E+02 0.12345805364E+02
 0.12526229199E+02 0.10391667762E+02 0.10402378887E+02 0.10430965312E+02 0.10493135301E+02
 0.10660096501E+02 0.11057803409E+02 0.11862812284E+02 0.13316092843E+02 0.15656872893E+02
 0.18894210483E+02 0.24531998118E+02 0.38225926330E+02 0.62903970593E+02 0.96203768288E+02
 0.13088765018E+03 0.15729993142E+03 0.16718690087E+03 0.15729993142E+03 0.13088765018E+03
 0.96203768288E+02 0.62903970593E+02 0.38225926330E+02 0.24531998118E+02 0.18894210483E+02
 0.15656872893E+02 0.13316092843E+02 0.11862812284E+02 0.11057803409E+02 0.10660096501E+02
 0.10493135301E+02 0.10430965312E+02 0.10402378887E+02 0.91236517675E+01 0.91808979282E+01
 0.93316667515E+01 0.95655238954E+01 0.99559885611E+01 0.10660096501E+02 0.11901774774E+02
 0.13978568984E+02 0.17129071873E+02 0.21882077065E+02 0.34646045112E+02 0.62903970593E+02
 0.10845583342E+03 0.16587424198E+03 0.22339398927E+03 0.26629456741E+03 0.28221052771E+03
 0.26629456741E+03 0.22339398927E+03 0.16587424198E+03 0.10845583342E+03 0.62903970593E+02
 0.34646045112E+02 0.21882077065E+02 0.17129071873E+02 0.13978568984E+02 0.11901774774E+02
 0.10660096501E+02 0.99559885611E+01 0.95655238954E+01 0.93316667515E+01 0.91808979282E+01
 0.84340759522E+01 0.85163974496E+01 0.87284587093E+01 0.90461146182E+01 0.95655238954E+01
 0.10493135301E+02 0.12105325301E+02 0.14737781197E+02 0.18581181473E+02 0.26753921355E+02
 0.49958514659E+02 0.96203768288E+02 0.16587424198E+03 0.25037218229E+03 0.33327272606E+03
 0.39446812354E+03 0.41707779012E+03 0.39446812354E+03 0.33327272606E+03 0.25037218229E+03
 0.16587424198E+03 0.96203768288E+02 0.49958514659E+02 0.26753921355E+02 0.18581181473E+02
 0.14737781197E+02 0.12105325301E+02 0.10493135301E+02 0.95655238954E+01 0.90461146182E+01
 0.87284587093E+01 0.85163974496E+01 0.80225619232E+01 0.81198852575E+01 0.83657670903E+01
 0.87284587093E+01 0.93316667515E+01 0.10430965312E+02 0.12345805364E+02 0.15425969637E+02
 0.20018840595E+02 0.32852173374E+02 0.67071781067E+02 0.13088765018E+03 0.22339398927E+03
 0.33327272606E+03 0.43997053499E+03 0.51838591295E+03 0.54731472833E+03 0.51838591295E+03
 0.43997053499E+03 0.33327272606E+03 0.22339398927E+03 0.13088765018E+03 0.67071781067E+02
 0.32852173374E+02 0.20018840595E+02 0.15425969637E+02 0.12345805364E+02 0.10430965312E+02
 0.93316667515E+01 0.87284587093E+01 0.83657670903E+01 0.81198852575E+01 0.77399747287E+01
 0.78485348091E+01 0.81198852575E+01 0.85163974496E+01 0.91808979282E+01 0.10402378887E+02
 0.12526229199E+02 0.15900964680E+02 0.21260754640E+02 0.38036759452E+02 0.80623155685E+02
 0.15729993142E+03 0.26629456741E+03 0.39446812354E+03 0.51838591295E+03 0.60932238188E+03
 0.64285993112E+03 0.60932238188E+03 0.51838591295E+03 0.39446812354E+03 0.26629456741E+03
 0.15729993142E+03 0.80623155685E+02 0.38036759452E+02 0.21260754640E+02 0.15900964680E+02
 0.12526229199E+02 0.10402378887E+02 0.91808979282E+01 0.85163974496E+01 0.81198852575E+01
 0.78485348091E+01 0.76265994011E+01 0.77399747287E+01 0.80225619232E+01 0.84340759522E+01
 0.91236517675E+01 0.10391667762E+02 0.12591783398E+02 0.16069882744E+02 0.21766634486E+02
 0.40076954015E+02 0.85784631079E+02 0.16718690087E+03 0.28221052771E+03 0.41707779012E+03
 0.54731472833E+03 0.64285993112E+03 0.67809686200E+03 0.64285993112E+03 0.54731472833E+03
 0.41707779012E+03 0.28221052771E+03 0.16718690087E+03 0.85784631079E+02 0.40076954015E+02
 0.21766634486E+02 0.16069882744E+02 0.12591783398E+02 0.10391667762E+02 0.91236517675E+01
 0.84340759522E+01 0.80225619232E+01 0.77399747287E+01 0.77399747287E+01 0.78485348091E+01
 0.81198852575E+01 0.85163974496E+01 0.91808979282E+01 0.10402378887E+02 0.12526229199E+02
 0.15900964680E+02 0.21260754640E+02 0.38036759452E+02 0.80623155685E+02 0.15729993142E+03
 0.26629456741E+03 0.39446812354E+03 0.51838591295E+03 0.60932238188E+03 0.64285993112E+03
 0.60932238188E+03 0.51838591295E+03 0.39446812354E+03 0.26629456741E+03 0.15729993142E+03
 0.80623155685E+02 0.38036759452E+02 0.21260754640E+02 0.15900964680E+02 0.12526229199E+02
 0.10402378887E+02 0.91808979282E+01 0.85163974496E+01 0.81198852574E+01 0.78485348091E+01
 0.80225619232E+01 0.81198852575E+01 0.83657670903E+01 0.87284587093E+01 0.93316667515E+01
 0.10430965312E+02 0.12345805364E+02 0.15425969637E+02 0.20018840595E+02 0.32852173374E+02
 0.67071781067E+02 0.13088765018E+03 0.22339398927E+03 0.33327272606E+03 0.43997053499E+03
 0.51838591295E+03 0.54731472833E+03 0.51838591295E+03 0.43997053499E+03 0.33327272606E+03
 0.22339398927E+03 0.13088765018E+03 0.67071781067E+02 0.32852173374E+02 0.20018840595E+02