<?xml version="1.0" encoding="ISO-8859-1"?>
<modeling>
 <generator>
  <i name="program" type="string">vasp </i>
  <i name="version" type="string">6.2.0  </i>
  <i name="subversion" type="string">18Jan21 (build Mar 17 2021 09:06:54) complex                          serial </i>
  <i name="platform" type="string">LinuxIFC </i>
  <i name="date" type="string">2021 08 03 </i>
  <i name="time" type="string">10:15:41 </i>
 </generator>
 <incar>
  <i type="string" name="PREC">normal</i>
  <i type="int" name="ICHARG">     1</i>
  <i type="int" name="IBRION">     1</i>
  <i name="EDIFF">      0.00000100</i>
  <i type="int" name="NSW">     0</i>
  <i type="int" name="ISIF">     4</i>
  <i name="ENCUT">    320.00000000</i>
  <i type="int" name="NBANDS">    30</i>
  <i type="int" name="ISMEAR">     1</i>
  <i name="SIGMA">      0.20000000</i>
  <i type="logical" name="LCHARG"> T  </i>
  <i type="int" name="KPAR">     1</i>
  <i type="int" name="NCORE">     1</i>
  <i type="string" name="GGA">PE</i>
 </incar>
 <primitive_cell>
  <structure name="primitive_cell" >
   <crystal>
    <varray name="basis" >
     <v>       1.72166002      -1.72166002       0.00000000 </v>
     <v>       1.72166002       0.00000000       1.72166002 </v>
     <v>       0.00000000      -1.72166002       1.72166002 </v>
    </varray>
    <i name="volume">     10.20639049 </i>
    <varray name="rec_basis" >
     <v>       0.29041738      -0.29041738      -0.29041738 </v>
     <v>       0.29041738       0.29041738       0.29041738 </v>
     <v>      -0.29041738      -0.29041738       0.29041738 </v>
    </varray>
   </crystal>
   <varray name="positions" >
    <v>       0.00000000       0.00000000       0.00000000 </v>
   </varray>
  </structure>
  <varray name="primitive_index" >
   <v type="int" >        1 </v>
  </varray>
 </primitive_cell>
 <kpoints>
  <generation param="Monkhorst-Pack">
   <v type="int" name="divisions">       9        9        9 </v>
   <v name="usershift">      0.00000000       0.00000000       0.00000000 </v>
   <v name="genvec1">      0.11111111       0.00000000       0.00000000 </v>
   <v name="genvec2">      0.00000000       0.11111111       0.00000000 </v>
   <v name="genvec3">      0.00000000       0.00000000       0.11111111 </v>
   <v name="shift">      0.00000000       0.00000000       0.00000000 </v>
  </generation>
  <varray name="kpointlist" >
   <v>       0.00000000       0.00000000       0.00000000 </v>
   <v>       0.11111111       0.00000000       0.00000000 </v>
   <v>       0.22222222       0.00000000       0.00000000 </v>
   <v>       0.33333333       0.00000000       0.00000000 </v>
   <v>       0.44444444       0.00000000       0.00000000 </v>
   <v>       0.11111111       0.11111111       0.00000000 </v>
   <v>       0.22222222       0.11111111       0.00000000 </v>
   <v>       0.33333333       0.11111111       0.00000000 </v>
   <v>       0.44444444       0.11111111       0.00000000 </v>
   <v>       0.22222222       0.22222222       0.00000000 </v>
   <v>       0.33333333       0.22222222       0.00000000 </v>
   <v>       0.44444444       0.22222222       0.00000000 </v>
   <v>       0.33333333       0.33333333       0.00000000 </v>
   <v>       0.44444444       0.33333333       0.00000000 </v>
   <v>       0.44444444       0.44444444       0.00000000 </v>
   <v>       0.11111111       0.11111111       0.11111111 </v>
   <v>       0.22222222       0.11111111       0.11111111 </v>
   <v>       0.33333333       0.11111111       0.11111111 </v>
   <v>       0.44444444       0.11111111       0.11111111 </v>
   <v>       0.22222222       0.22222222       0.11111111 </v>
   <v>       0.33333333       0.22222222       0.11111111 </v>
   <v>       0.44444444       0.22222222       0.11111111 </v>
   <v>       0.33333333       0.33333333       0.11111111 </v>
   <v>       0.44444444       0.33333333       0.11111111 </v>
   <v>       0.44444444       0.44444444       0.11111111 </v>
   <v>       0.22222222       0.22222222       0.22222222 </v>
   <v>       0.33333333       0.22222222       0.22222222 </v>
   <v>       0.44444444       0.22222222       0.22222222 </v>
   <v>       0.33333333       0.33333333       0.22222222 </v>
   <v>       0.44444444       0.33333333       0.22222222 </v>
   <v>       0.44444444       0.44444444       0.22222222 </v>
   <v>       0.33333333       0.33333333       0.33333333 </v>
   <v>       0.44444444       0.33333333       0.33333333 </v>
   <v>       0.44444444       0.44444444       0.33333333 </v>
   <v>       0.44444444       0.44444444       0.44444444 </v>
  </varray>
  <varray name="weights" >
   <v>       0.00137174 </v>
   <v>       0.00823045 </v>
   <v>       0.00823045 </v>
   <v>       0.00823045 </v>
   <v>       0.00823045 </v>
   <v>       0.01646091 </v>
   <v>       0.03292181 </v>
   <v>       0.03292181 </v>
   <v>       0.03292181 </v>
   <v>       0.01646091 </v>
   <v>       0.03292181 </v>
   <v>       0.03292181 </v>
   <v>       0.01646091 </v>
   <v>       0.03292181 </v>
   <v>       0.01646091 </v>
   <v>       0.01097394 </v>
   <v>       0.03292181 </v>
   <v>       0.03292181 </v>
   <v>       0.03292181 </v>
   <v>       0.03292181 </v>
   <v>       0.06584362 </v>
   <v>       0.06584362 </v>
   <v>       0.03292181 </v>
   <v>       0.06584362 </v>
   <v>       0.03292181 </v>
   <v>       0.01097394 </v>
   <v>       0.03292181 </v>
   <v>       0.03292181 </v>
   <v>       0.03292181 </v>
   <v>       0.06584362 </v>
   <v>       0.03292181 </v>
   <v>       0.01097394 </v>
   <v>       0.03292181 </v>
   <v>       0.03292181 </v>
   <v>       0.01097394 </v>
  </varray>
 </kpoints>
 <parameters>
  <separator name="general" >
   <i type="string" name="SYSTEM">unknown system</i>
   <i type="logical" name="LCOMPAT"> F  </i>
  </separator>
  <separator name="electronic" >
   <i type="string" name="PREC">normal</i>
   <i name="ENMAX">    320.00000000</i>
   <i name="ENAUG">    586.98000000</i>
   <i name="EDIFF">      0.00000100</i>
   <i type="int" name="IALGO">    38</i>
   <i type="int" name="IWAVPR">     0</i>
   <i type="int" name="NBANDS">    30</i>
   <i type="int" name="NBANDSLOW">    -1</i>
   <i type="int" name="NBANDSHIGH">    -1</i>
   <i name="NELECT">     44.00000000</i>
   <i type="int" name="TURBO">     0</i>
   <i type="int" name="IRESTART">     0</i>
   <i type="int" name="NREBOOT">     0</i>
   <i type="int" name="NMIN">     0</i>
   <i name="EREF">      0.00000000</i>
   <separator name="electronic smearing" >
    <i type="int" name="ISMEAR">     1</i>
    <i name="SIGMA">      0.20000000</i>
    <i name="KSPACING">      0.50000000</i>
    <i type="logical" name="KGAMMA"> T  </i>
    <i type="logical" name="KBLOWUP"> T  </i>
   </separator>
   <separator name="electronic projectors" >
    <i type="logical" name="LREAL"> F  </i>
    <v name="ROPT">      0.00000000</v>
    <i type="int" name="LMAXPAW">  -100</i>
    <i type="int" name="LMAXMIX">     2</i>
    <i type="logical" name="NLSPLINE"> F  </i>
   </separator>
   <separator name="electronic startup" >
    <i type="int" name="ISTART">     1</i>
    <i type="int" name="ICHARG">     1</i>
    <i type="int" name="INIWAV">     1</i>
   </separator>
   <separator name="electronic spin" >
    <i type="int" name="ISPIN">     1</i>
    <i type="logical" name="LNONCOLLINEAR"> F  </i>
    <v name="MAGMOM">      1.00000000      1.00000000      1.00000000      1.00000000</v>
    <i name="NUPDOWN">     -1.00000000</i>
    <i type="logical" name="LSORBIT"> F  </i>
    <v name="SAXIS">      0.00000000      0.00000000      1.00000000</v>
    <i type="logical" name="LSPIRAL"> F  </i>
    <v name="QSPIRAL">      0.00000000      0.00000000      0.00000000</v>
    <i type="logical" name="LZEROZ"> F  </i>
   </separator>
   <separator name="electronic exchange-correlation" >
    <i type="logical" name="LASPH"> F  </i>
    <i type="logical" name="LMETAGGA"> F  </i>
   </separator>
   <separator name="electronic convergence" >
    <i type="int" name="NELM">    60</i>
    <i type="int" name="NELMDL">     0</i>
    <i type="int" name="NELMIN">     2</i>
    <i name="ENINI">    320.00000000</i>
    <separator name="electronic convergence detail" >
     <i type="logical" name="LDIAG"> T  </i>
     <i type="logical" name="LSUBROT"> F  </i>
     <i name="WEIMIN">      0.00000000</i>
     <i name="EBREAK">      0.00000001</i>
     <i name="DEPER">      0.30000000</i>
     <i type="int" name="NRMM">     4</i>
     <i name="TIME">      0.40000000</i>
    </separator>
   </separator>
   <separator name="electronic mixer" >
    <i name="AMIX">      0.40000000</i>
    <i name="BMIX">      1.00000000</i>
    <i name="AMIN">      0.10000000</i>
    <i name="AMIX_MAG">      1.60000000</i>
    <i name="BMIX_MAG">      1.00000000</i>
    <separator name="electronic mixer details" >
     <i type="int" name="IMIX">     4</i>
     <i type="logical" name="MIXFIRST"> F  </i>
     <i type="int" name="MAXMIX">   -45</i>
     <i name="WC">    100.00000000</i>
     <i type="int" name="INIMIX">     1</i>
     <i type="int" name="MIXPRE">     1</i>
     <i type="int" name="MREMOVE">     5</i>
    </separator>
   </separator>
   <separator name="electronic dipolcorrection" >
    <i type="logical" name="LDIPOL"> F  </i>
    <i type="logical" name="LMONO"> F  </i>
    <i type="int" name="IDIPOL">     0</i>
    <i name="EPSILON">      1.00000000</i>
    <v name="DIPOL">   -100.00000000   -100.00000000   -100.00000000</v>
    <i name="EFIELD">      0.00000000</i>
   </separator>
  </separator>
  <separator name="grids" >
   <i type="int" name="NGX">    16</i>
   <i type="int" name="NGY">    16</i>
   <i type="int" name="NGZ">    16</i>
   <i type="int" name="NGXF">    32</i>
   <i type="int" name="NGYF">    32</i>
   <i type="int" name="NGZF">    32</i>
   <i type="logical" name="ADDGRID"> F  </i>
  </separator>
  <separator name="ionic" >
   <i type="int" name="NSW">     0</i>
   <i type="int" name="IBRION">    -1</i>
   <i type="int" name="MDALGO">     0</i>
   <i type="int" name="ISIF">     4</i>
   <i name="PSTRESS">      0.00000000</i>
   <i name="EDIFFG">      0.00001000</i>
   <i type="int" name="NFREE">     0</i>
   <i name="POTIM">      0.50000000</i>
   <i name="SMASS">     -3.00000000</i>
   <i name="SCALEE">      1.00000000</i>
  </separator>
  <separator name="ionic md" >
   <i name="TEBEG">      0.00010000</i>
   <i name="TEEND">      0.00010000</i>
   <i type="int" name="NBLOCK">     1</i>
   <i type="int" name="KBLOCK">     1</i>
   <i type="int" name="NPACO">   256</i>
   <i name="APACO">     16.00000000</i>
  </separator>
  <separator name="symmetry" >
   <i type="int" name="ISYM">     2</i>
   <i name="SYMPREC">      0.00001000</i>
  </separator>
  <separator name="dos" >
   <i type="int" name="LORBIT">     0</i>
   <v name="RWIGS">     -1.00000000</v>
   <i type="int" name="NEDOS">   301</i>
   <i name="EMIN">     10.00000000</i>
   <i name="EMAX">    -10.00000000</i>
   <i name="EFERMI">      0.00000000</i>
  </separator>
  <separator name="writing" >
   <i type="int" name="NWRITE">     2</i>
   <i type="logical" name="LWAVE"> T  </i>
   <i type="logical" name="LDOWNSAMPLE"> F  </i>
   <i type="logical" name="LCHARG"> T  </i>
   <i type="logical" name="LPARD"> F  </i>
   <i type="logical" name="LVTOT"> F  </i>
   <i type="logical" name="LVHAR"> F  </i>
   <i type="logical" name="LELF"> F  </i>
   <i type="logical" name="LOPTICS"> F  </i>
   <v name="STM">      0.00000000      0.00000000      0.00000000      0.00000000      0.00000000      0.00000000      0.00000000</v>
  </separator>
  <separator name="performance" >
   <i type="int" name="NPAR">     1</i>
   <i type="int" name="NSIM">     4</i>
   <i type="int" name="NBLK">    -1</i>
   <i type="logical" name="LPLANE"> T  </i>
   <i type="logical" name="LSCALAPACK"> F  </i>
   <i type="logical" name="LSCAAWARE"> F  </i>
   <i type="logical" name="LSCALU"> F  </i>
   <i type="logical" name="LASYNC"> F  </i>
   <i type="logical" name="LORBITALREAL"> F  </i>
  </separator>
  <separator name="miscellaneous" >
   <i type="int" name="IDIOT">     3</i>
   <i type="int" name="PHON_NSTRUCT">    -1</i>
   <i type="logical" name="LMUSIC"> F  </i>
   <v name="POMASS">     63.54600000</v>
   <v name="DARWINR">      0.00000000</v>
   <v name="DARWINV">      1.00000000</v>
   <i type="logical" name="LCORR"> T  </i>
  </separator>
  <i type="logical" name="GGA_COMPAT"> T  </i>
  <i type="logical" name="LBERRY"> F  </i>
  <i type="int" name="ICORELEVEL">     0</i>
  <i type="logical" name="LDAU"> F  </i>
  <i type="int" name="I_CONSTRAINED_M">     0</i>
  <separator name="electronic exchange-correlation" >
   <i type="string" name="GGA">PE</i>
   <i type="int" name="VOSKOWN">     0</i>
   <i type="logical" name="LHFCALC"> F  </i>
   <i type="string" name="PRECFOCK"></i>
   <i type="logical" name="LSYMGRAD"> F  </i>
   <i type="logical" name="LHFONE"> F  </i>
   <i type="logical" name="LRHFCALC"> F  </i>
   <i type="logical" name="LTHOMAS"> F  </i>
   <i type="logical" name="LMODELHF"> F  </i>
   <i type="logical" name="LFOCKACE"> F  </i>
   <i name="ENCUT4O">     -1.00000000</i>
   <i type="int" name="EXXOEP">     0</i>
   <i type="int" name="FOURORBIT">     0</i>
   <i name="AEXX">      0.00000000</i>
   <i name="HFALPHA">      0.00000000</i>
   <i name="MCALPHA">      0.00000000</i>
   <i name="ALDAX">      1.00000000</i>
   <i name="AGGAX">      1.00000000</i>
   <i name="ALDAC">      1.00000000</i>
   <i name="AGGAC">      1.00000000</i>
   <i type="int" name="NKREDX">     1</i>
   <i type="int" name="NKREDY">     1</i>
   <i type="int" name="NKREDZ">     1</i>
   <i type="logical" name="SHIFTRED"> F  </i>
   <i type="logical" name="ODDONLY"> F  </i>
   <i type="logical" name="EVENONLY"> F  </i>
   <i type="int" name="LMAXFOCK">     0</i>
   <i type="int" name="NMAXFOCKAE">     0</i>
   <i type="logical" name="LFOCKAEDFT"> F  </i>
   <i name="HFSCREEN">      0.00000000</i>
   <i name="HFSCREENC">      0.00000000</i>
   <i type="int" name="NBANDSGWLOW">     0</i>
  </separator>
  <separator name="vdW DFT" >
   <i type="logical" name="LUSE_VDW"> F  </i>
   <i name="Zab_VDW">     -0.84910000</i>
   <i name="PARAM1">      0.12340000</i>
   <i name="PARAM2">      1.00000000</i>
   <i name="PARAM3">      0.00000000</i>
  </separator>
  <separator name="model GW" >
   <i type="int" name="MODEL_GW">     0</i>
   <i name="MODEL_EPS0">      6.12383429</i>
   <i name="MODEL_ALPHA">      1.00000000</i>
  </separator>
  <separator name="linear response parameters" >
   <i type="logical" name="LEPSILON"> F  </i>
   <i type="logical" name="LRPA"> F  </i>
   <i type="logical" name="LNABLA"> F  </i>
   <i type="logical" name="LVEL"> F  </i>
   <i type="int" name="KINTER">     0</i>
   <i name="CSHIFT">      0.10000000</i>
   <i name="OMEGAMAX">     -1.00000000</i>
   <i name="DEG_THRESHOLD">      0.00200000</i>
   <i name="RTIME">     -0.10000000</i>
   <i name="WPLASMAI">      0.00000000</i>
   <v name="DFIELD">      0.00000000      0.00000000      0.00000000</v>
   <v name="WPLASMA">      0.00000000      0.00000000      0.00000000      0.00000000      0.00000000      0.00000000      0.00000000      0.00000000      0.00000000</v>
  </separator>
  <separator name="orbital magnetization" >
   <i type="logical" name="NUCIND"> F  </i>
   <v name="MAGPOS">      0.00000000      0.00000000      0.00000000</v>
   <i type="logical" name="LNICSALL"> T  </i>
   <i type="logical" name="ORBITALMAG"> F  </i>
   <i type="logical" name="LMAGBLOCH"> F  </i>
   <i type="logical" name="LCHIMAG"> F  </i>
   <i type="logical" name="LGAUGE"> T  </i>
   <i type="int" name="MAGATOM">     0</i>
   <v name="MAGDIPOL">      0.00000000      0.00000000      0.00000000</v>
   <v name="AVECCONST">      0.00000000      0.00000000      0.00000000</v>
  </separator>
  <separator name="response functions" >
   <i type="logical" name="LFINITE_TEMPERATURE"> F  </i>
   <i type="logical" name="LADDER"> F  </i>
   <i type="logical" name="LRPAFORCE"> F  </i>
   <i type="logical" name="LFXC"> F  </i>
   <i type="logical" name="LHARTREE"> T  </i>
   <i type="int" name="IBSE">     0</i>
   <v type="int" name="KPOINT">    -1     0     0     0</v>
   <i type="logical" name="LTCTC"> F  </i>
   <i type="logical" name="LTCTE"> F  </i>
   <i type="logical" name="LTETE"> F  </i>
   <i type="logical" name="LTRIPLET"> F  </i>
   <i type="logical" name="LFXCEPS"> F  </i>
   <i type="logical" name="LFXHEG"> F  </i>
   <i type="int" name="NATURALO">     2</i>
   <i type="logical" name="LHOLEGF"> F  </i>
   <i type="logical" name="L2ORDER"> F  </i>
   <i type="logical" name="LDMP1"> F  </i>
   <i type="logical" name="LMP2LT"> F  </i>
   <i type="logical" name="LSMP2LT"> F  </i>
   <i type="logical" name="LGWLF"> F  </i>
   <i name="ENCUTGW">     -2.00000000</i>
   <i name="ENCUTGWSOFT">     -2.00000000</i>
   <i name="ENCUTLF">     -1.00000000</i>
   <i type="logical" name="LESF_SPLINES"> F  </i>
   <i type="int" name="LMAXMP2">    -1</i>
   <i name="SCISSOR">      0.00000000</i>
   <i type="int" name="NOMEGA">     0</i>
   <i type="int" name="NOMEGAR">     0</i>
   <i type="int" name="NBANDSGW">    -1</i>
   <i type="int" name="NBANDSO">    -1</i>
   <i type="int" name="NBANDSV">    -1</i>
   <i type="int" name="NELM">     1</i>
   <i type="int" name="NELMHF">     1</i>
   <i type="int" name="DIM">     3</i>
   <i type="int" name="IESPILON">     4</i>
   <i type="int" name="ANTIRES">     0</i>
   <i name="OMEGAMAX">    -30.00000000</i>
   <i name="OMEGAMIN">    -30.00000000</i>
   <i name="OMEGATL">   -200.00000000</i>
   <i type="int" name="OMEGAGRID">     0</i>
   <i name="CSHIFT">     -0.10000000</i>
   <i type="logical" name="LSELFENERGY"> F  </i>
   <i type="logical" name="LSPECTRAL"> F  </i>
   <i type="logical" name="LSPECTRALGW"> F  </i>
   <i type="logical" name="LSINGLES"> F  </i>
   <i type="logical" name="LFERMIGW"> F  </i>
   <i type="logical" name="ODDONLYGW"> F  </i>
   <i type="logical" name="EVENONLYGW"> F  </i>
   <i type="int" name="NKREDLFX">     1</i>
   <i type="int" name="NKREDLFY">     1</i>
   <i type="int" name="NKREDLFZ">     1</i>
   <i type="int" name="MAXMEM">  2800</i>
   <i type="int" name="TELESCOPE">     0</i>
   <i type="int" name="NTAUPAR">    -1</i>
   <i type="int" name="NOMEGAPAR">    -1</i>
   <i name="DAMP_NEWTON">      0.80000001</i>
   <i name="LAMBDA">      1.00000000</i>
  </separator>
  <separator name="External order field" >
   <i name="OFIELD_KAPPA">      0.00000000</i>
   <v name="OFIELD_K">      0.00000000      0.00000000      0.00000000</v>
   <i name="OFIELD_Q6_NEAR">      0.00000000</i>
   <i name="OFIELD_Q6_FAR">      0.00000000</i>
   <i name="OFIELD_A">      0.00000000</i>
  </separator>
 </parameters>
 <atominfo>
  <atoms>       4 </atoms>
  <types>       1 </types>
  <array name="atoms" >
   <dimension dim="1">ion</dimension>
   <field type="string">element</field>
   <field type="int">atomtype</field>
   <set>
    <rc><c>Cu</c><c>   1</c></rc>
    <rc><c>Cu</c><c>   1</c></rc>
    <rc><c>Cu</c><c>   1</c></rc>
    <rc><c>Cu</c><c>   1</c></rc>
   </set>
  </array>
  <array name="atomtypes" >
   <dimension dim="1">type</dimension>
   <field type="int">atomspertype</field>
   <field type="string">element</field>
   <field>mass</field>
   <field>valence</field>
   <field type="string">pseudopotential</field>
   <set>
    <rc><c>   4</c><c>Cu</c><c>     63.54600000</c><c>     11.00000000</c><c>  PAW_PBE Cu 22Jun2005                  </c></rc>
   </set>
  </array>
 </atominfo>
 <structure name="initialpos" >
  <crystal>
   <varray name="basis" >
    <v>       3.44332004       0.00000000       0.00000000 </v>
    <v>       0.00000000       3.44332004       0.00000000 </v>
    <v>       0.00000000       0.00000000       3.44332004 </v>
   </varray>
   <i name="volume">     40.82556194 </i>
   <varray name="rec_basis" >
    <v>       0.29041738       0.00000000       0.00000000 </v>
    <v>       0.00000000       0.29041738       0.00000000 </v>
    <v>       0.00000000       0.00000000       0.29041738 </v>
   </varray>
  </crystal>
  <varray name="positions" >
   <v>       0.00000000       0.00000000       0.00000000 </v>
   <v>       0.50000000       0.50000000       0.00000000 </v>
   <v>       0.50000000       0.00000000       0.50000000 </v>
   <v>       0.00000000       0.50000000       0.50000000 </v>
  </varray>
 </structure>
 <calculation>
  <scstep>
   <time name="dav">    0.41    0.43</time>
   <time name="total">    0.46    0.48</time>
   <energy>
    <i name="alphaZ">    286.61573864 </i>
    <i name="ewald">  -4640.02508729 </i>
    <i name="hartreedc">  -1234.37316308 </i>
    <i name="XCdc">    180.09020716 </i>
    <i name="pawpsdc">   5514.21868834 </i>
    <i name="pawaedc">  -5950.16469928 </i>
    <i name="eentropy">     -0.00064844 </i>
    <i name="bandstr">    265.56520474 </i>
    <i name="atom">   5563.77610493 </i>
    <i name="e_fr_energy">    -14.29765428 </i>
    <i name="e_wo_entrp">    -14.29700584 </i>
    <i name="e_0_energy">    -14.29743813 </i>
   </energy>
  </scstep>
  <scstep>
   <time name="dav">    0.38    0.38</time>
   <time name="total">    0.43    0.43</time>
   <energy>
    <i name="e_fr_energy">    -14.29553102 </i>
    <i name="e_wo_entrp">    -14.29490028 </i>
    <i name="e_0_energy">    -14.29532077 </i>
   </energy>
  </scstep>
  <scstep>
   <time name="dav">    0.36    0.36</time>
   <time name="total">    0.40    0.40</time>
   <energy>
    <i name="e_fr_energy">    -14.29552922 </i>
    <i name="e_wo_entrp">    -14.29489832 </i>
    <i name="e_0_energy">    -14.29531892 </i>
   </energy>
  </scstep>
  <scstep>
   <time name="dav">    0.26    0.26</time>
   <time name="total">    0.27    0.27</time>
   <energy>
    <i name="alphaZ">    286.61573864 </i>
    <i name="ewald">  -4640.02508729 </i>
    <i name="hartreedc">  -1234.36626582 </i>
    <i name="XCdc">    180.08983642 </i>
    <i name="pawpsdc">   5514.22151758 </i>
    <i name="pawaedc">  -5950.17070994 </i>
    <i name="eentropy">     -0.00063085 </i>
    <i name="bandstr">    265.56396721 </i>
    <i name="atom">   5563.77610493 </i>
    <i name="e_fr_energy">    -14.29552911 </i>
    <i name="e_wo_entrp">    -14.29489827 </i>
    <i name="e_0_energy">    -14.29531883 </i>
   </energy>
  </scstep>
  <structure>
   <crystal>
    <varray name="basis" >
     <v>       3.44332004       0.00000000       0.00000000 </v>
     <v>       0.00000000       3.44332004       0.00000000 </v>
     <v>       0.00000000       0.00000000       3.44332004 </v>
    </varray>
    <i name="volume">     40.82556194 </i>
    <varray name="rec_basis" >
     <v>       0.29041738       0.00000000       0.00000000 </v>
     <v>       0.00000000       0.29041738       0.00000000 </v>
     <v>       0.00000000       0.00000000       0.29041738 </v>
    </varray>
   </crystal>
   <varray name="positions" >
    <v>       0.00000000       0.00000000       0.00000000 </v>
    <v>       0.50000000       0.50000000       0.00000000 </v>
    <v>       0.50000000       0.00000000       0.50000000 </v>
    <v>       0.00000000       0.50000000       0.50000000 </v>
   </varray>
  </structure>
  <varray name="forces" >
   <v>       0.00000000       0.00000000      -0.00000000 </v>
   <v>      -0.00000000      -0.00000000       0.00000000 </v>
   <v>      -0.00000000      -0.00000000       0.00000000 </v>
   <v>       0.00000000      -0.00000000       0.00000000 </v>
  </varray>
  <varray name="stress" >
   <v>     333.45452033       0.00000000       0.00000000 </v>
   <v>       0.00000000     333.45452033      -0.00000000 </v>
   <v>       0.00000000       0.00000000     333.45452033 </v>
  </varray>
  <energy>
   <i name="e_fr_energy">    -14.29552911 </i>
   <i name="e_wo_entrp">    -14.29489827 </i>
   <i name="e_0_energy">    -14.29531883 </i>
  </energy>
  <time name="totalsc">    1.91    1.94</time>
  <eigenvalues>
   <array>
    <dimension dim="1">band</dimension>
    <dimension dim="2">kpoint</dimension>
    <dimension dim="3">spin</dimension>
    <field>eigene</field>
    <field>occ</field>
    <set>
     <set comment="spin 1">
      <set comment="kpoint 1">
       <r>   -0.9832    1.0000 </r>
       <r>    3.7223    1.0000 </r>
       <r>    3.7223    1.0000 </r>
       <r>    3.7223    1.0000 </r>
       <r>    4.2822    1.0000 </r>
       <r>    4.2822    1.0000 </r>
       <r>    4.2822    1.0000 </r>
       <r>    6.0286    1.0000 </r>
       <r>    6.0286    1.0000 </r>
       <r>    6.0286    1.0000 </r>
       <r>    7.0654    1.0000 </r>
       <r>    7.0654    1.0000 </r>
       <r>    7.7536    1.0000 </r>
       <r>    7.7536    1.0000 </r>
       <r>    7.7536    1.0000 </r>
       <r>    7.9490    1.0000 </r>
       <r>    7.9490    1.0000 </r>
       <r>    7.9490    1.0000 </r>
       <r>    7.9490    1.0000 </r>
       <r>    7.9490    1.0000 </r>
       <r>    7.9490    1.0000 </r>
       <r>   10.9321   -0.0000 </r>
       <r>   10.9321   -0.0000 </r>
       <r>   10.9321   -0.0000 </r>
       <r>   17.7396    0.0000 </r>
       <r>   17.7396    0.0000 </r>
       <r>   17.7396    0.0000 </r>
       <r>   23.8027    0.0000 </r>
       <r>   23.8027    0.0000 </r>
       <r>   23.8027    0.0000 </r>
      </set>
      <set comment="kpoint 2">
       <r>   -0.8165    1.0000 </r>
       <r>    3.7260    1.0000 </r>
       <r>    3.8051    1.0000 </r>
       <r>    3.8051    1.0000 </r>
       <r>    4.3312    1.0000 </r>
       <r>    4.3347    1.0000 </r>
       <r>    4.3347    1.0000 </r>
       <r>    5.9720    1.0000 </r>
       <r>    6.0727    1.0000 </r>
       <r>    6.0727    1.0000 </r>
       <r>    7.0143    1.0000 </r>
       <r>    7.0855    1.0000 </r>
       <r>    7.6105    1.0000 </r>
       <r>    7.6105    1.0000 </r>
       <r>    7.6870    1.0000 </r>
       <r>    7.6870    1.0000 </r>
       <r>    7.7323    1.0000 </r>
       <r>    7.8711    1.0000 </r>
       <r>    7.8711    1.0000 </r>
       <r>    7.9491    1.0000 </r>
       <r>    7.9491    1.0000 </r>
       <r>   10.0767   -0.0013 </r>
       <r>   11.4141   -0.0000 </r>
       <r>   11.4141   -0.0000 </r>
       <r>   17.7858    0.0000 </r>
       <r>   17.7858    0.0000 </r>
       <r>   18.8991    0.0000 </r>
       <r>   22.8276    0.0000 </r>
       <r>   22.8276    0.0000 </r>
       <r>   23.2129    0.0000 </r>
      </set>
      <set comment="kpoint 3">
       <r>   -0.3241    1.0000 </r>
       <r>    3.6784    1.0000 </r>
       <r>    4.0326    1.0000 </r>
       <r>    4.0326    1.0000 </r>
       <r>    4.4734    1.0000 </r>
       <r>    4.4935    1.0000 </r>
       <r>    4.4935    1.0000 </r>
       <r>    5.8106    1.0000 </r>
       <r>    6.2030    1.0000 </r>
       <r>    6.2030    1.0000 </r>
       <r>    6.8712    1.0000 </r>
       <r>    6.9366    1.0000 </r>
       <r>    6.9366    1.0000 </r>
       <r>    7.1438    1.0000 </r>
       <r>    7.4998    1.0000 </r>
       <r>    7.4998    1.0000 </r>
       <r>    7.6568    1.0000 </r>
       <r>    7.6568    1.0000 </r>
       <r>    7.6709    1.0000 </r>
       <r>    7.9494    1.0000 </r>
       <r>    7.9494    1.0000 </r>
       <r>    8.4793    1.0000 </r>
       <r>   12.5162   -0.0000 </r>
       <r>   12.5162   -0.0000 </r>
       <r>   17.9321    0.0000 </r>
       <r>   17.9321    0.0000 </r>
       <r>   21.0002    0.0000 </r>
       <r>   21.0002    0.0000 </r>
       <r>   21.4484    0.0000 </r>
       <r>   21.9858    0.0000 </r>
      </set>
      <set comment="kpoint 4">
       <r>    0.4660    1.0000 </r>
       <r>    3.3687    1.0000 </r>
       <r>    4.3341    1.0000 </r>
       <r>    4.3341    1.0000 </r>
       <r>    4.6949    1.0000 </r>
       <r>    4.7621    1.0000 </r>
       <r>    4.7621    1.0000 </r>
       <r>    5.5673    1.0000 </r>
       <r>    6.2479    1.0000 </r>
       <r>    6.2479    1.0000 </r>
       <r>    6.4134    1.0000 </r>
       <r>    6.4134    1.0000 </r>
       <r>    6.6739    1.0000 </r>
       <r>    7.1539    1.0000 </r>
       <r>    7.2337    1.0000 </r>
       <r>    7.2430    1.0000 </r>
       <r>    7.2430    1.0000 </r>
       <r>    7.3535    1.0000 </r>
       <r>    7.3535    1.0000 </r>
       <r>    7.5776    1.0000 </r>
       <r>    7.9498    1.0000 </r>
       <r>    7.9498    1.0000 </r>
       <r>   13.9129   -0.0000 </r>
       <r>   13.9129   -0.0000 </r>
       <r>   18.1933    0.0000 </r>
       <r>   18.1933    0.0000 </r>
       <r>   19.0793    0.0000 </r>
       <r>   19.0793    0.0000 </r>
       <r>   20.7748    0.0000 </r>
       <r>   20.7748    0.0000 </r>
      </set>
      <set comment="kpoint 5">
       <r>    1.4862    1.0000 </r>
       <r>    2.5686    1.0000 </r>
       <r>    4.5696    1.0000 </r>
       <r>    4.5696    1.0000 </r>
       <r>    4.9724    1.0000 </r>
       <r>    5.1442    1.0000 </r>
       <r>    5.1442    1.0000 </r>
       <r>    5.2752    1.0000 </r>
       <r>    5.6418    1.0000 </r>
       <r>    5.6418    1.0000 </r>
       <r>    6.5053    1.0000 </r>
       <r>    6.5494    1.0000 </r>
       <r>    6.6914    1.0000 </r>
       <r>    6.6914    1.0000 </r>
       <r>    7.0160    1.0000 </r>
       <r>    7.0160    1.0000 </r>
       <r>    7.0360    1.0000 </r>
       <r>    7.0360    1.0000 </r>
       <r>    7.3448    1.0000 </r>
       <r>    7.4642    1.0000 </r>
       <r>    7.9501    1.0000 </r>
       <r>    7.9501    1.0000 </r>
       <r>   15.4975    0.0000 </r>
       <r>   15.4975    0.0000 </r>
       <r>   17.2291    0.0000 </r>
       <r>   17.2291    0.0000 </r>
       <r>   18.5256    0.0000 </r>
       <r>   18.5256    0.0000 </r>
       <r>   19.9170    0.0000 </r>
       <r>   19.9170    0.0000 </r>
      </set>
      <set comment="kpoint 6">
       <r>   -0.6512    1.0000 </r>
       <r>    3.8121    1.0000 </r>
       <r>    3.8121    1.0000 </r>
       <r>    3.8846    1.0000 </r>
       <r>    4.3820    1.0000 </r>
       <r>    4.3820    1.0000 </r>
       <r>    4.3838    1.0000 </r>
       <r>    5.9414    1.0000 </r>
       <r>    6.0933    1.0000 </r>
       <r>    6.1088    1.0000 </r>
       <r>    7.0011    1.0000 </r>
       <r>    7.0762    1.0000 </r>
       <r>    7.3891    1.0000 </r>
       <r>    7.4703    1.0000 </r>
       <r>    7.4703    1.0000 </r>
       <r>    7.6254    1.0000 </r>
       <r>    7.7002    1.0000 </r>
       <r>    7.7002    1.0000 </r>
       <r>    7.8710    1.0000 </r>
       <r>    7.8710    1.0000 </r>
       <r>    7.8992    1.0000 </r>
       <r>   10.5573   -0.0000 </r>
       <r>   10.5573   -0.0000 </r>
       <r>   11.8293   -0.0000 </r>
       <r>   17.8258    0.0000 </r>
       <r>   18.9747    0.0000 </r>
       <r>   18.9747    0.0000 </r>
       <r>   21.0713    0.0000 </r>
       <r>   23.0546    0.0000 </r>
       <r>   23.0546    0.0000 </r>
      </set>
      <set comment="kpoint 7">
       <r>   -0.1634    1.0000 </r>
       <r>    3.7739    1.0000 </r>
       <r>    4.0493    1.0000 </r>
       <r>    4.1041    1.0000 </r>
       <r>    4.5191    1.0000 </r>
       <r>    4.5314    1.0000 </r>
       <r>    4.5355    1.0000 </r>
       <r>    5.7988    1.0000 </r>
       <r>    6.2106    1.0000 </r>
       <r>    6.2108    1.0000 </r>
       <r>    6.7973    1.0000 </r>
       <r>    6.8307    1.0000 </r>
       <r>    6.8841    1.0000 </r>
       <r>    7.1358    1.0000 </r>
       <r>    7.1368    1.0000 </r>
       <r>    7.4516    1.0000 </r>
       <r>    7.5101    1.0000 </r>
       <r>    7.6427    1.0000 </r>
       <r>    7.6559    1.0000 </r>
       <r>    7.8703    1.0000 </r>
       <r>    7.8725    1.0000 </r>
       <r>    9.0523    1.0006 </r>
       <r>   11.5712   -0.0000 </r>
       <r>   12.8444   -0.0000 </r>
       <r>   17.8980    0.0000 </r>
       <r>   19.2083    0.0000 </r>
       <r>   19.2088    0.0000 </r>
       <r>   21.2105    0.0000 </r>
       <r>   21.5400    0.0000 </r>
       <r>   22.1952    0.0000 </r>
      </set>
      <set comment="kpoint 8">
       <r>    0.6186    1.0000 </r>
       <r>    3.4784    1.0000 </r>
       <r>    4.3673    1.0000 </r>
       <r>    4.4006    1.0000 </r>
       <r>    4.7325    1.0000 </r>
       <r>    4.7723    1.0000 </r>
       <r>    4.7945    1.0000 </r>
       <r>    5.5687    1.0000 </r>
       <r>    6.1298    1.0000 </r>
       <r>    6.2052    1.0000 </r>
       <r>    6.3372    1.0000 </r>
       <r>    6.4164    1.0000 </r>
       <r>    6.6396    1.0000 </r>
       <r>    6.7485    1.0000 </r>
       <r>    7.2119    1.0000 </r>
       <r>    7.2491    1.0000 </r>
       <r>    7.2552    1.0000 </r>
       <r>    7.3524    1.0000 </r>
       <r>    7.4774    1.0000 </r>
       <r>    7.8668    1.0000 </r>
       <r>    7.8691    1.0000 </r>
       <r>    7.9845    1.0000 </r>
       <r>   12.7872   -0.0000 </r>
       <r>   14.1862   -0.0000 </r>
       <r>   17.0981    0.0000 </r>
       <r>   18.5230    0.0000 </r>
       <r>   19.2894    0.0000 </r>
       <r>   19.5799    0.0000 </r>
       <r>   21.0051    0.0000 </r>
       <r>   22.7516    0.0000 </r>
      </set>
      <set comment="kpoint 9">
       <r>    1.6266    1.0000 </r>
       <r>    2.6935    1.0000 </r>
       <r>    4.6257    1.0000 </r>
       <r>    4.6398    1.0000 </r>
       <r>    4.9993    1.0000 </r>
       <r>    5.1030    1.0000 </r>
       <r>    5.1618    1.0000 </r>
       <r>    5.2898    1.0000 </r>
       <r>    5.5552    1.0000 </r>
       <r>    5.6358    1.0000 </r>
       <r>    6.3224    1.0000 </r>
       <r>    6.3279    1.0000 </r>
       <r>    6.6923    1.0000 </r>
       <r>    6.8336    1.0000 </r>
       <r>    7.0155    1.0000 </r>
       <r>    7.0238    1.0000 </r>
       <r>    7.0415    1.0000 </r>
       <r>    7.1423    1.0000 </r>
       <r>    7.3945    1.0000 </r>
       <r>    7.5806    1.0000 </r>
       <r>    7.8665    1.0000 </r>
       <r>    7.8677    1.0000 </r>
       <r>   14.1228   -0.0000 </r>
       <r>   15.5672    0.0000 </r>
       <r>   15.7376    0.0000 </r>
       <r>   17.4493    0.0000 </r>
       <r>   18.9318    0.0000 </r>
       <r>   19.5455    0.0000 </r>
       <r>   20.7110    0.0000 </r>
       <r>   21.5630    0.0000 </r>
      </set>
      <set comment="kpoint 10">
       <r>    0.3102    1.0000 </r>
       <r>    4.0403    1.0000 </r>
       <r>    4.0403    1.0000 </r>
       <r>    4.3005    1.0000 </r>
       <r>    4.6448    1.0000 </r>
       <r>    4.6570    1.0000 </r>
       <r>    4.6570    1.0000 </r>
       <r>    5.7236    1.0000 </r>
       <r>    6.2351    1.0000 </r>
       <r>    6.2776    1.0000 </r>
       <r>    6.4609    1.0000 </r>
       <r>    6.4609    1.0000 </r>
       <r>    6.5149    1.0000 </r>
       <r>    6.8448    1.0000 </r>
       <r>    7.1988    1.0000 </r>
       <r>    7.3122    1.0000 </r>
       <r>    7.4749    1.0000 </r>
       <r>    7.4749    1.0000 </r>
       <r>    7.6537    1.0000 </r>
       <r>    7.6537    1.0000 </r>
       <r>    7.7525    1.0000 </r>
       <r>    9.9783   -0.0085 </r>
       <r>    9.9783   -0.0085 </r>
       <r>   13.7143   -0.0000 </r>
       <r>   16.7806    0.0000 </r>
       <r>   18.4357    0.0000 </r>
       <r>   21.7465    0.0000 </r>
       <r>   21.7465    0.0000 </r>
       <r>   21.8170    0.0000 </r>
       <r>   21.8170    0.0000 </r>
      </set>
      <set comment="kpoint 11">
       <r>    1.0662    1.0000 </r>
       <r>    3.7861    1.0000 </r>
       <r>    4.4085    1.0000 </r>
       <r>    4.5754    1.0000 </r>
       <r>    4.8136    1.0000 </r>
       <r>    4.8447    1.0000 </r>
       <r>    4.8875    1.0000 </r>
       <r>    5.5552    1.0000 </r>
       <r>    5.8609    1.0000 </r>
       <r>    6.0706    1.0000 </r>
       <r>    6.1108    1.0000 </r>
       <r>    6.2402    1.0000 </r>
       <r>    6.4479    1.0000 </r>
       <r>    6.7665    1.0000 </r>
       <r>    7.1155    1.0000 </r>
       <r>    7.2347    1.0000 </r>
       <r>    7.3288    1.0000 </r>
       <r>    7.3505    1.0000 </r>
       <r>    7.3769    1.0000 </r>
       <r>    7.6512    1.0000 </r>
       <r>    7.6854    1.0000 </r>
       <r>    8.7270    1.0000 </r>
       <r>   11.0125   -0.0000 </r>
       <r>   14.9433   -0.0000 </r>
       <r>   15.0208   -0.0000 </r>
       <r>   18.7329    0.0000 </r>
       <r>   19.8949    0.0000 </r>
       <r>   21.1771    0.0000 </r>
       <r>   22.6781    0.0000 </r>
       <r>   22.7584    0.0000 </r>
      </set>
      <set comment="kpoint 12">
       <r>    2.0338    1.0000 </r>
       <r>    3.0486    1.0000 </r>
       <r>    4.7434    1.0000 </r>
       <r>    4.8365    1.0000 </r>
       <r>    4.9902    1.0000 </r>
       <r>    5.0775    1.0000 </r>
       <r>    5.2097    1.0000 </r>
       <r>    5.3260    1.0000 </r>
       <r>    5.3614    1.0000 </r>
       <r>    5.6132    1.0000 </r>
       <r>    6.0129    1.0000 </r>
       <r>    6.1337    1.0000 </r>
       <r>    6.7048    1.0000 </r>
       <r>    6.8423    1.0000 </r>
       <r>    6.9690    1.0000 </r>
       <r>    7.0174    1.0000 </r>
       <r>    7.0181    1.0000 </r>
       <r>    7.0778    1.0000 </r>
       <r>    7.6339    1.0000 </r>
       <r>    7.6512    1.0000 </r>
       <r>    7.6588    1.0000 </r>
       <r>    8.0163    1.0000 </r>
       <r>   12.1620   -0.0000 </r>
       <r>   13.4787   -0.0000 </r>
       <r>   16.4182    0.0000 </r>
       <r>   18.0808    0.0000 </r>
       <r>   19.2987    0.0000 </r>
       <r>   20.1244    0.0000 </r>
       <r>   23.4302    0.0000 </r>
       <r>   23.9643    0.0000 </r>
      </set>
      <set comment="kpoint 13">
       <r>    1.7728    1.0000 </r>
       <r>    4.2181    1.0000 </r>
       <r>    4.2181    1.0000 </r>
       <r>    4.7575    1.0000 </r>
       <r>    4.9278    1.0000 </r>
       <r>    5.0286    1.0000 </r>
       <r>    5.0286    1.0000 </r>
       <r>    5.4897    1.0000 </r>
       <r>    5.6762    1.0000 </r>
       <r>    5.6762    1.0000 </r>
       <r>    5.8436    1.0000 </r>
       <r>    6.1564    1.0000 </r>
       <r>    6.5543    1.0000 </r>
       <r>    6.6863    1.0000 </r>
       <r>    6.9649    1.0000 </r>
       <r>    7.1088    1.0000 </r>
       <r>    7.1088    1.0000 </r>
       <r>    7.3529    1.0000 </r>
       <r>    7.3529    1.0000 </r>
       <r>    7.5189    1.0000 </r>
       <r>    7.6529    1.0000 </r>
       <r>    9.5567    0.6079 </r>
       <r>    9.5567    0.6079 </r>
       <r>   13.1958   -0.0000 </r>
       <r>   16.0642    0.0000 </r>
       <r>   19.1749    0.0000 </r>
       <r>   20.8368    0.0000 </r>
       <r>   20.8368    0.0000 </r>
       <r>   22.0335    0.0000 </r>
       <r>   22.0335    0.0000 </r>
      </set>
      <set comment="kpoint 14">
       <r>    2.6593    1.0000 </r>
       <r>    3.5659    1.0000 </r>
       <r>    4.6261    1.0000 </r>
       <r>    4.8119    1.0000 </r>
       <r>    5.1172    1.0000 </r>
       <r>    5.1961    1.0000 </r>
       <r>    5.2744    1.0000 </r>
       <r>    5.3474    1.0000 </r>
       <r>    5.3614    1.0000 </r>
       <r>    5.5600    1.0000 </r>
       <r>    5.7738    1.0000 </r>
       <r>    5.9961    1.0000 </r>
       <r>    6.7073    1.0000 </r>
       <r>    6.7571    1.0000 </r>
       <r>    6.8474    1.0000 </r>
       <r>    6.8908    1.0000 </r>
       <r>    6.9036    1.0000 </r>
       <r>    7.0371    1.0000 </r>
       <r>    7.3695    1.0000 </r>
       <r>    7.4170    1.0000 </r>
       <r>    8.0384    1.0000 </r>
       <r>    8.6074    1.0000 </r>
       <r>   10.5200   -0.0000 </r>
       <r>   11.7049   -0.0000 </r>
       <r>   17.4547    0.0000 </r>
       <r>   19.0573    0.0000 </r>
       <r>   19.8553    0.0000 </r>
       <r>   20.8056    0.0000 </r>
       <r>   22.0518    0.0000 </r>
       <r>   23.0980    0.0000 </r>
      </set>
      <set comment="kpoint 15">
       <r>    3.4046    1.0000 </r>
       <r>    4.1148    1.0000 </r>
       <r>    4.1148    1.0000 </r>
       <r>    4.5424    1.0000 </r>
       <r>    5.3354    1.0000 </r>
       <r>    5.3354    1.0000 </r>
       <r>    5.3686    1.0000 </r>
       <r>    5.3953    1.0000 </r>
       <r>    5.4653    1.0000 </r>
       <r>    5.5982    1.0000 </r>
       <r>    5.5982    1.0000 </r>
       <r>    5.8464    1.0000 </r>
       <r>    6.6220    1.0000 </r>
       <r>    6.7133    1.0000 </r>
       <r>    6.7218    1.0000 </r>
       <r>    6.7218    1.0000 </r>
       <r>    6.8829    1.0000 </r>
       <r>    7.0950    1.0000 </r>
       <r>    7.0950    1.0000 </r>
       <r>    7.2184    1.0000 </r>
       <r>    8.5746    1.0000 </r>
       <r>    9.3450    1.0352 </r>
       <r>    9.3450    1.0352 </r>
       <r>   10.3371   -0.0000 </r>
       <r>   18.7702    0.0000 </r>
       <r>   20.3128    0.0000 </r>
       <r>   20.3128    0.0000 </r>
       <r>   20.6591    0.0000 </r>
       <r>   21.7378    0.0000 </r>
       <r>   21.7378    0.0000 </r>
      </set>
      <set comment="kpoint 16">
       <r>   -0.4876    1.0000 </r>
       <r>    3.8939    1.0000 </r>
       <r>    3.8939    1.0000 </r>
       <r>    3.8939    1.0000 </r>
       <r>    4.4296    1.0000 </r>
       <r>    4.4296    1.0000 </r>
       <r>    4.4296    1.0000 </r>
       <r>    5.9139    1.0000 </r>
       <r>    6.1242    1.0000 </r>
       <r>    6.1242    1.0000 </r>
       <r>    7.0315    1.0000 </r>
       <r>    7.0315    1.0000 </r>
       <r>    7.2700    1.0000 </r>
       <r>    7.2700    1.0000 </r>
       <r>    7.2700    1.0000 </r>
       <r>    7.5533    1.0000 </r>
       <r>    7.5533    1.0000 </r>
       <r>    7.5533    1.0000 </r>
       <r>    7.8819    1.0000 </r>
       <r>    7.8819    1.0000 </r>
       <r>    7.8819    1.0000 </r>
       <r>   10.9455   -0.0000 </r>
       <r>   10.9455   -0.0000 </r>
       <r>   10.9455   -0.0000 </r>
       <r>   19.0413    0.0000 </r>
       <r>   19.0413    0.0000 </r>
       <r>   19.0413    0.0000 </r>
       <r>   21.2919    0.0000 </r>
       <r>   21.2919    0.0000 </r>
       <r>   21.2919    0.0000 </r>
      </set>
      <set comment="kpoint 17">
       <r>   -0.0050    1.0000 </r>
       <r>    3.8622    1.0000 </r>
       <r>    4.1199    1.0000 </r>
       <r>    4.1199    1.0000 </r>
       <r>    4.5631    1.0000 </r>
       <r>    4.5726    1.0000 </r>
       <r>    4.5726    1.0000 </r>
       <r>    5.7891    1.0000 </r>
       <r>    6.2110    1.0000 </r>
       <r>    6.2175    1.0000 </r>
       <r>    6.7077    1.0000 </r>
       <r>    6.7077    1.0000 </r>
       <r>    6.9172    1.0000 </r>
       <r>    6.9223    1.0000 </r>
       <r>    7.1184    1.0000 </r>
       <r>    7.3655    1.0000 </r>
       <r>    7.3997    1.0000 </r>
       <r>    7.3997    1.0000 </r>
       <r>    7.8194    1.0000 </r>
       <r>    7.8526    1.0000 </r>
       <r>    7.8526    1.0000 </r>
       <r>    9.4084    1.0058 </r>
       <r>   11.8518   -0.0000 </r>
       <r>   11.8518   -0.0000 </r>
       <r>   18.9841    0.0000 </r>
       <r>   18.9841    0.0000 </r>
       <r>   19.6491    0.0000 </r>
       <r>   19.6491    0.0000 </r>
       <r>   21.4857    0.0000 </r>
       <r>   22.0696    0.0000 </r>
      </set>
      <set comment="kpoint 18">
       <r>    0.7676    1.0000 </r>
       <r>    3.5773    1.0000 </r>
       <r>    4.4284    1.0000 </r>
       <r>    4.4284    1.0000 </r>
       <r>    4.7713    1.0000 </r>
       <r>    4.8011    1.0000 </r>
       <r>    4.8011    1.0000 </r>
       <r>    5.5745    1.0000 </r>
       <r>    6.1075    1.0000 </r>
       <r>    6.1075    1.0000 </r>
       <r>    6.3096    1.0000 </r>
       <r>    6.3721    1.0000 </r>
       <r>    6.4572    1.0000 </r>
       <r>    6.8371    1.0000 </r>
       <r>    7.1122    1.0000 </r>
       <r>    7.1885    1.0000 </r>
       <r>    7.1885    1.0000 </r>
       <r>    7.2483    1.0000 </r>
       <r>    7.7092    1.0000 </r>
       <r>    7.8263    1.0000 </r>
       <r>    7.8263    1.0000 </r>
       <r>    8.1979    1.0000 </r>
       <r>   12.9919   -0.0000 </r>
       <r>   12.9919   -0.0000 </r>
       <r>   17.4472    0.0000 </r>
       <r>   17.4472    0.0000 </r>
       <r>   19.8703    0.0000 </r>
       <r>   19.8703    0.0000 </r>
       <r>   22.7680    0.0000 </r>
       <r>   22.9366    0.0000 </r>
      </set>
      <set comment="kpoint 19">
       <r>    1.7609    1.0000 </r>
       <r>    2.8088    1.0000 </r>
       <r>    4.6956    1.0000 </r>
       <r>    4.6956    1.0000 </r>
       <r>    5.0305    1.0000 </r>
       <r>    5.0730    1.0000 </r>
       <r>    5.0730    1.0000 </r>
       <r>    5.3096    1.0000 </r>
       <r>    5.6076    1.0000 </r>
       <r>    5.6076    1.0000 </r>
       <r>    6.2151    1.0000 </r>
       <r>    6.2584    1.0000 </r>
       <r>    6.5842    1.0000 </r>
       <r>    6.8393    1.0000 </r>
       <r>    7.0041    1.0000 </r>
       <r>    7.0041    1.0000 </r>
       <r>    7.0173    1.0000 </r>
       <r>    7.4039    1.0000 </r>
       <r>    7.4610    1.0000 </r>
       <r>    7.5644    1.0000 </r>
       <r>    7.8148    1.0000 </r>
       <r>    7.8148    1.0000 </r>
       <r>   14.2049   -0.0000 </r>
       <r>   14.2049   -0.0000 </r>
       <r>   15.9516    0.0000 </r>
       <r>   15.9516    0.0000 </r>
       <r>   20.5149    0.0000 </r>
       <r>   20.5149    0.0000 </r>
       <r>   21.7706    0.0000 </r>
       <r>   21.7706    0.0000 </r>
      </set>
      <set comment="kpoint 20">
       <r>    0.4612    1.0000 </r>
       <r>    4.1053    1.0000 </r>
       <r>    4.1053    1.0000 </r>
       <r>    4.3106    1.0000 </r>
       <r>    4.6843    1.0000 </r>
       <r>    4.6955    1.0000 </r>
       <r>    4.6955    1.0000 </r>
       <r>    5.7261    1.0000 </r>
       <r>    6.2324    1.0000 </r>
       <r>    6.2557    1.0000 </r>
       <r>    6.3975    1.0000 </r>
       <r>    6.3975    1.0000 </r>
       <r>    6.4238    1.0000 </r>
       <r>    6.9195    1.0000 </r>
       <r>    7.1657    1.0000 </r>
       <r>    7.2052    1.0000 </r>
       <r>    7.2332    1.0000 </r>
       <r>    7.2332    1.0000 </r>
       <r>    7.7925    1.0000 </r>
       <r>    7.7925    1.0000 </r>
       <r>    7.7942    1.0000 </r>
       <r>   10.1912   -0.0001 </r>
       <r>   10.1912   -0.0001 </r>
       <r>   12.5687   -0.0000 </r>
       <r>   17.1551    0.0000 </r>
       <r>   19.7131    0.0000 </r>
       <r>   19.8406    0.0000 </r>
       <r>   19.8406    0.0000 </r>
       <r>   22.0556    0.0000 </r>
       <r>   22.0556    0.0000 </r>
      </set>
      <set comment="kpoint 21">
       <r>    1.2032    1.0000 </r>
       <r>    3.8466    1.0000 </r>
       <r>    4.4355    1.0000 </r>
       <r>    4.5702    1.0000 </r>
       <r>    4.8461    1.0000 </r>
       <r>    4.8905    1.0000 </r>
       <r>    4.9020    1.0000 </r>
       <r>    5.5773    1.0000 </r>
       <r>    5.8873    1.0000 </r>
       <r>    6.0286    1.0000 </r>
       <r>    6.0778    1.0000 </r>
       <r>    6.2334    1.0000 </r>
       <r>    6.3587    1.0000 </r>
       <r>    6.9038    1.0000 </r>
       <r>    6.9879    1.0000 </r>
       <r>    7.0239    1.0000 </r>
       <r>    7.0799    1.0000 </r>
       <r>    7.3465    1.0000 </r>
       <r>    7.6675    1.0000 </r>
       <r>    7.7232    1.0000 </r>
       <r>    7.7248    1.0000 </r>
       <r>    8.8284    1.0000 </r>
       <r>   11.1498   -0.0000 </r>
       <r>   13.4447   -0.0000 </r>
       <r>   15.5064    0.0000 </r>
       <r>   18.0650    0.0000 </r>
       <r>   20.2163    0.0000 </r>
       <r>   20.7689    0.0000 </r>
       <r>   22.5203    0.0000 </r>
       <r>   23.5628    0.0000 </r>
      </set>
      <set comment="kpoint 22">
       <r>    2.1476    1.0000 </r>
       <r>    3.1307    1.0000 </r>
       <r>    4.7542    1.0000 </r>
       <r>    4.8529    1.0000 </r>
       <r>    4.9259    1.0000 </r>
       <r>    5.0466    1.0000 </r>
       <r>    5.1259    1.0000 </r>
       <r>    5.3654    1.0000 </r>
       <r>    5.5710    1.0000 </r>
       <r>    5.6846    1.0000 </r>
       <r>    5.9981    1.0000 </r>
       <r>    6.1222    1.0000 </r>
       <r>    6.5156    1.0000 </r>
       <r>    6.7321    1.0000 </r>
       <r>    6.8907    1.0000 </r>
       <r>    6.9190    1.0000 </r>
       <r>    7.0945    1.0000 </r>
       <r>    7.4271    1.0000 </r>
       <r>    7.5947    1.0000 </r>
       <r>    7.6824    1.0000 </r>
       <r>    7.6831    1.0000 </r>
       <r>    7.9955    1.0000 </r>
       <r>   12.2291   -0.0000 </r>
       <r>   13.3505   -0.0000 </r>
       <r>   15.2895    0.0000 </r>
       <r>   16.5123    0.0000 </r>
       <r>   20.9905    0.0000 </r>
       <r>   21.9510    0.0000 </r>
       <r>   22.0092    0.0000 </r>
       <r>   23.3610    0.0000 </r>
      </set>
      <set comment="kpoint 23">
       <r>    1.8861    1.0000 </r>
       <r>    4.1999    1.0000 </r>
       <r>    4.1999    1.0000 </r>
       <r>    4.6646    1.0000 </r>
       <r>    4.9970    1.0000 </r>
       <r>    5.0882    1.0000 </r>
       <r>    5.0882    1.0000 </r>
       <r>    5.5407    1.0000 </r>
       <r>    5.7350    1.0000 </r>
       <r>    5.7350    1.0000 </r>
       <r>    5.8879    1.0000 </r>
       <r>    6.1592    1.0000 </r>
       <r>    6.3798    1.0000 </r>
       <r>    6.8428    1.0000 </r>
       <r>    6.8747    1.0000 </r>
       <r>    6.8747    1.0000 </r>
       <r>    6.8993    1.0000 </r>
       <r>    7.5608    1.0000 </r>
       <r>    7.5608    1.0000 </r>
       <r>    7.6055    1.0000 </r>
       <r>    7.6124    1.0000 </r>
       <r>    9.6117    0.3774 </r>
       <r>    9.6117    0.3774 </r>
       <r>   12.9910   -0.0000 </r>
       <r>   15.0645    0.0000 </r>
       <r>   18.9596    0.0000 </r>
       <r>   18.9596    0.0000 </r>
       <r>   20.8028    0.0000 </r>
       <r>   23.1316    0.0000 </r>
       <r>   24.1311    0.0000 </r>
      </set>
      <set comment="kpoint 24">
       <r>    2.7319    1.0000 </r>
       <r>    3.5811    1.0000 </r>
       <r>    4.5030    1.0000 </r>
       <r>    4.6550    1.0000 </r>
       <r>    5.1759    1.0000 </r>
       <r>    5.2591    1.0000 </r>
       <r>    5.2891    1.0000 </r>
       <r>    5.4431    1.0000 </r>
       <r>    5.5781    1.0000 </r>
       <r>    5.7184    1.0000 </r>
       <r>    5.8065    1.0000 </r>
       <r>    6.0082    1.0000 </r>
       <r>    6.4628    1.0000 </r>
       <r>    6.6422    1.0000 </r>
       <r>    6.7233    1.0000 </r>
       <r>    6.7507    1.0000 </r>
       <r>    7.0384    1.0000 </r>
       <r>    7.3117    1.0000 </r>
       <r>    7.4962    1.0000 </r>
       <r>    7.5143    1.0000 </r>
       <r>    7.9918    1.0000 </r>
       <r>    8.5842    1.0000 </r>
       <r>   10.5417   -0.0000 </r>
       <r>   11.6804   -0.0000 </r>
       <r>   16.0489    0.0000 </r>
       <r>   17.3830    0.0000 </r>
       <r>   20.1151    0.0000 </r>
       <r>   21.5086    0.0000 </r>
       <r>   21.6615    0.0000 </r>
       <r>   22.7944    0.0000 </r>
      </set>
      <set comment="kpoint 25">
       <r>    3.4081    1.0000 </r>
       <r>    4.0328    1.0000 </r>
       <r>    4.0328    1.0000 </r>
       <r>    4.3882    1.0000 </r>
       <r>    5.4413    1.0000 </r>
       <r>    5.4881    1.0000 </r>
       <r>    5.4881    1.0000 </r>
       <r>    5.5072    1.0000 </r>
       <r>    5.6656    1.0000 </r>
       <r>    5.6656    1.0000 </r>
       <r>    5.6791    1.0000 </r>
       <r>    5.8750    1.0000 </r>
       <r>    6.4429    1.0000 </r>
       <r>    6.5554    1.0000 </r>
       <r>    6.5554    1.0000 </r>
       <r>    6.5749    1.0000 </r>
       <r>    7.0810    1.0000 </r>
       <r>    7.2687    1.0000 </r>
       <r>    7.2687    1.0000 </r>
       <r>    7.3506    1.0000 </r>
       <r>    8.5254    1.0000 </r>
       <r>    9.3166    1.0340 </r>
       <r>    9.3166    1.0340 </r>
       <r>   10.3131   -0.0000 </r>
       <r>   17.1595    0.0000 </r>
       <r>   18.5180    0.0000 </r>
       <r>   18.5180    0.0000 </r>
       <r>   19.8945    0.0000 </r>
       <r>   22.6044    0.0000 </r>
       <r>   23.8211    0.0000 </r>
      </set>
      <set comment="kpoint 26">
       <r>    0.9033    1.0000 </r>
       <r>    4.2686    1.0000 </r>
       <r>    4.2686    1.0000 </r>
       <r>    4.2686    1.0000 </r>
       <r>    4.8175    1.0000 </r>
       <r>    4.8175    1.0000 </r>
       <r>    4.8175    1.0000 </r>
       <r>    5.7116    1.0000 </r>
       <r>    6.1958    1.0000 </r>
       <r>    6.1958    1.0000 </r>
       <r>    6.1958    1.0000 </r>
       <r>    6.2323    1.0000 </r>
       <r>    6.2323    1.0000 </r>
       <r>    6.9814    1.0000 </r>
       <r>    6.9814    1.0000 </r>
       <r>    6.9814    1.0000 </r>
       <r>    7.0969    1.0000 </r>
       <r>    7.0969    1.0000 </r>
       <r>    7.8328    1.0000 </r>
       <r>    7.8328    1.0000 </r>
       <r>    7.8328    1.0000 </r>
       <r>   10.7479   -0.0000 </r>
       <r>   10.7479   -0.0000 </r>
       <r>   10.7479   -0.0000 </r>
       <r>   17.7949    0.0000 </r>
       <r>   17.7949    0.0000 </r>
       <r>   17.7949    0.0000 </r>
       <r>   22.4038    0.0000 </r>
       <r>   22.4038    0.0000 </r>
       <r>   22.4038    0.0000 </r>
      </set>
      <set comment="kpoint 27">
       <r>    1.5992    1.0000 </r>
       <r>    3.9914    1.0000 </r>
       <r>    4.4559    1.0000 </r>
       <r>    4.4559    1.0000 </r>
       <r>    5.0019    1.0000 </r>
       <r>    5.0019    1.0000 </r>
       <r>    5.0393    1.0000 </r>
       <r>    5.6374    1.0000 </r>
       <r>    5.9419    1.0000 </r>
       <r>    5.9419    1.0000 </r>
       <r>    5.9813    1.0000 </r>
       <r>    6.2069    1.0000 </r>
       <r>    6.2581    1.0000 </r>
       <r>    6.7364    1.0000 </r>
       <r>    6.8201    1.0000 </r>
       <r>    6.8201    1.0000 </r>
       <r>    7.1155    1.0000 </r>
       <r>    7.3118    1.0000 </r>
       <r>    7.7735    1.0000 </r>
       <r>    7.7735    1.0000 </r>
       <r>    7.8014    1.0000 </r>
       <r>    9.1873    1.0086 </r>
       <r>   11.4900   -0.0000 </r>
       <r>   11.4900   -0.0000 </r>
       <r>   16.0771    0.0000 </r>
       <r>   16.0771    0.0000 </r>
       <r>   18.6978    0.0000 </r>
       <r>   22.8801    0.0000 </r>
       <r>   22.9927    0.0000 </r>
       <r>   22.9927    0.0000 </r>
      </set>
      <set comment="kpoint 28">
       <r>    2.4668    1.0000 </r>
       <r>    3.3451    1.0000 </r>
       <r>    4.5947    1.0000 </r>
       <r>    4.5947    1.0000 </r>
       <r>    5.1187    1.0000 </r>
       <r>    5.1187    1.0000 </r>
       <r>    5.2859    1.0000 </r>
       <r>    5.4925    1.0000 </r>
       <r>    5.8148    1.0000 </r>
       <r>    5.8148    1.0000 </r>
       <r>    5.9536    1.0000 </r>
       <r>    6.0850    1.0000 </r>
       <r>    6.3535    1.0000 </r>
       <r>    6.5178    1.0000 </r>
       <r>    6.7082    1.0000 </r>
       <r>    6.7082    1.0000 </r>
       <r>    7.4119    1.0000 </r>
       <r>    7.5210    1.0000 </r>
       <r>    7.6925    1.0000 </r>
       <r>    7.7090    1.0000 </r>
       <r>    7.7090    1.0000 </r>
       <r>    8.0801    1.0000 </r>
       <r>   12.1869   -0.0000 </r>
       <r>   12.1869   -0.0000 </r>
       <r>   14.8950   -0.0000 </r>
       <r>   14.8950   -0.0000 </r>
       <r>   19.8579    0.0000 </r>
       <r>   21.2545    0.0000 </r>
       <r>   23.7828    0.0000 </r>
       <r>   23.7828    0.0000 </r>
      </set>
      <set comment="kpoint 29">
       <r>    2.2050    1.0000 </r>
       <r>    4.1421    1.0000 </r>
       <r>    4.1421    1.0000 </r>
       <r>    4.4159    1.0000 </r>
       <r>    5.2000    1.0000 </r>
       <r>    5.2706    1.0000 </r>
       <r>    5.2706    1.0000 </r>
       <r>    5.7056    1.0000 </r>
       <r>    5.8858    1.0000 </r>
       <r>    5.8858    1.0000 </r>
       <r>    5.9878    1.0000 </r>
       <r>    6.1580    1.0000 </r>
       <r>    6.2148    1.0000 </r>
       <r>    6.5915    1.0000 </r>
       <r>    6.5915    1.0000 </r>
       <r>    6.6116    1.0000 </r>
       <r>    7.1755    1.0000 </r>
       <r>    7.5085    1.0000 </r>
       <r>    7.7337    1.0000 </r>
       <r>    7.7522    1.0000 </r>
       <r>    7.7522    1.0000 </r>
       <r>    9.7836   -0.0257 </r>
       <r>    9.7836   -0.0257 </r>
       <r>   11.7433   -0.0000 </r>
       <r>   14.7363   -0.0000 </r>
       <r>   16.9284    0.0000 </r>
       <r>   16.9284    0.0000 </r>
       <r>   21.0191    0.0000 </r>
       <r>   23.6327    0.0000 </r>
       <r>   26.0349    0.0000 </r>
      </set>
      <set comment="kpoint 30">
       <r>    2.9237    1.0000 </r>
       <r>    3.6131    1.0000 </r>
       <r>    4.2578    1.0000 </r>
       <r>    4.3456    1.0000 </r>
       <r>    5.3651    1.0000 </r>
       <r>    5.4094    1.0000 </r>
       <r>    5.5583    1.0000 </r>
       <r>    5.7124    1.0000 </r>
       <r>    5.9052    1.0000 </r>
       <r>    5.9296    1.0000 </r>
       <r>    6.0076    1.0000 </r>
       <r>    6.0313    1.0000 </r>
       <r>    6.2579    1.0000 </r>
       <r>    6.3920    1.0000 </r>
       <r>    6.4950    1.0000 </r>
       <r>    6.5007    1.0000 </r>
       <r>    7.3524    1.0000 </r>
       <r>    7.6161    1.0000 </r>
       <r>    7.6634    1.0000 </r>
       <r>    7.6665    1.0000 </r>
       <r>    7.8574    1.0000 </r>
       <r>    8.5415    1.0000 </r>
       <r>   10.5417   -0.0000 </r>
       <r>   11.3514   -0.0000 </r>
       <r>   14.6265   -0.0000 </r>
       <r>   15.5237    0.0000 </r>
       <r>   18.0440    0.0000 </r>
       <r>   19.4082    0.0000 </r>
       <r>   24.5242    0.0000 </r>
       <r>   25.6028    0.0000 </r>
      </set>
      <set comment="kpoint 31">
       <r>    3.4172    1.0000 </r>
       <r>    3.8679    1.0000 </r>
       <r>    3.8679    1.0000 </r>
       <r>    4.1048    1.0000 </r>
       <r>    5.5996    1.0000 </r>
       <r>    5.7154    1.0000 </r>
       <r>    5.7154    1.0000 </r>
       <r>    5.9218    1.0000 </r>
       <r>    5.9540    1.0000 </r>
       <r>    5.9952    1.0000 </r>
       <r>    5.9952    1.0000 </r>
       <r>    6.1036    1.0000 </r>
       <r>    6.2237    1.0000 </r>
       <r>    6.3226    1.0000 </r>
       <r>    6.3226    1.0000 </r>
       <r>    6.3458    1.0000 </r>
       <r>    7.3524    1.0000 </r>
       <r>    7.5199    1.0000 </r>
       <r>    7.5199    1.0000 </r>
       <r>    7.5587    1.0000 </r>
       <r>    8.3707    1.0000 </r>
       <r>    9.2155    1.0131 </r>
       <r>    9.2155    1.0131 </r>
       <r>   10.1644   -0.0002 </r>
       <r>   15.3591    0.0000 </r>
       <r>   16.5365    0.0000 </r>
       <r>   16.5365    0.0000 </r>
       <r>   17.8354    0.0000 </r>
       <r>   25.4764    0.0000 </r>
       <r>   26.6691    0.0000 </r>
      </set>
      <set comment="kpoint 32">
       <r>    2.6660    1.0000 </r>
       <r>    4.0694    1.0000 </r>
       <r>    4.0694    1.0000 </r>
       <r>    4.0694    1.0000 </r>
       <r>    5.4936    1.0000 </r>
       <r>    5.4936    1.0000 </r>
       <r>    5.4936    1.0000 </r>
       <r>    5.9830    1.0000 </r>
       <r>    6.0990    1.0000 </r>
       <r>    6.0990    1.0000 </r>
       <r>    6.0990    1.0000 </r>
       <r>    6.1275    1.0000 </r>
       <r>    6.1275    1.0000 </r>
       <r>    6.3877    1.0000 </r>
       <r>    6.3877    1.0000 </r>
       <r>    6.3877    1.0000 </r>
       <r>    7.4327    1.0000 </r>
       <r>    7.4327    1.0000 </r>
       <r>    7.7966    1.0000 </r>
       <r>    7.7966    1.0000 </r>
       <r>    7.7966    1.0000 </r>
       <r>   10.0530   -0.0022 </r>
       <r>   10.0530   -0.0022 </r>
       <r>   10.0530   -0.0022 </r>
       <r>   15.3355    0.0000 </r>
       <r>   15.3355    0.0000 </r>
       <r>   15.3355    0.0000 </r>
       <r>   19.1734    0.0000 </r>
       <r>   26.7515    0.0000 </r>
       <r>   26.7515    0.0000 </r>
      </set>
      <set comment="kpoint 33">
       <r>    3.1750    1.0000 </r>
       <r>    3.6533    1.0000 </r>
       <r>    4.0220    1.0000 </r>
       <r>    4.0220    1.0000 </r>
       <r>    5.6203    1.0000 </r>
       <r>    5.6203    1.0000 </r>
       <r>    5.8013    1.0000 </r>
       <r>    6.0241    1.0000 </r>
       <r>    6.1284    1.0000 </r>
       <r>    6.1952    1.0000 </r>
       <r>    6.2047    1.0000 </r>
       <r>    6.2189    1.0000 </r>
       <r>    6.2744    1.0000 </r>
       <r>    6.2744    1.0000 </r>
       <r>    6.3194    1.0000 </r>
       <r>    6.3194    1.0000 </r>
       <r>    7.6380    1.0000 </r>
       <r>    7.6973    1.0000 </r>
       <r>    7.7447    1.0000 </r>
       <r>    7.7447    1.0000 </r>
       <r>    7.7649    1.0000 </r>
       <r>    8.6193    1.0000 </r>
       <r>   10.2958   -0.0000 </r>
       <r>   10.2958   -0.0000 </r>
       <r>   14.4024   -0.0000 </r>
       <r>   14.4024   -0.0000 </r>
       <r>   16.3242    0.0000 </r>
       <r>   17.6080    0.0000 </r>
       <r>   27.5183    0.0000 </r>
       <r>   27.5183    0.0000 </r>
      </set>
      <set comment="kpoint 34">
       <r>    3.4422    1.0000 </r>
       <r>    3.7206    1.0000 </r>
       <r>    3.7206    1.0000 </r>
       <r>    3.8399    1.0000 </r>
       <r>    5.7877    1.0000 </r>
       <r>    5.8521    1.0000 </r>
       <r>    5.8521    1.0000 </r>
       <r>    5.9967    1.0000 </r>
       <r>    6.0697    1.0000 </r>
       <r>    6.1312    1.0000 </r>
       <r>    6.1312    1.0000 </r>
       <r>    6.1519    1.0000 </r>
       <r>    6.5952    1.0000 </r>
       <r>    6.5952    1.0000 </r>
       <r>    6.6190    1.0000 </r>
       <r>    6.6571    1.0000 </r>
       <r>    7.5807    1.0000 </r>
       <r>    7.7101    1.0000 </r>
       <r>    7.7101    1.0000 </r>
       <r>    7.7139    1.0000 </r>
       <r>    8.0946    1.0000 </r>
       <r>    9.0047    1.0002 </r>
       <r>    9.0047    1.0002 </r>
       <r>    9.6654    0.1800 </r>
       <r>   14.3097   -0.0000 </r>
       <r>   15.0385   -0.0000 </r>
       <r>   15.0385   -0.0000 </r>
       <r>   16.1414    0.0000 </r>
       <r>   28.4909    0.0000 </r>
       <r>   29.4932    0.0000 </r>
      </set>
      <set comment="kpoint 35">
       <r>    3.5080    1.0000 </r>
       <r>    3.6377    1.0000 </r>
       <r>    3.6377    1.0000 </r>
       <r>    3.6377    1.0000 </r>
       <r>    5.9338    1.0000 </r>
       <r>    5.9338    1.0000 </r>
       <r>    5.9338    1.0000 </r>
       <r>    6.0031    1.0000 </r>
       <r>    6.0031    1.0000 </r>
       <r>    6.0321    1.0000 </r>
       <r>    6.0321    1.0000 </r>
       <r>    6.0321    1.0000 </r>
       <r>    7.1685    1.0000 </r>
       <r>    7.1685    1.0000 </r>
       <r>    7.1685    1.0000 </r>
       <r>    7.5858    1.0000 </r>
       <r>    7.7289    1.0000 </r>
       <r>    7.7289    1.0000 </r>
       <r>    7.7750    1.0000 </r>
       <r>    7.7750    1.0000 </r>
       <r>    7.7750    1.0000 </r>
       <r>    8.7263    1.0000 </r>
       <r>    8.7263    1.0000 </r>
       <r>    8.7263    1.0000 </r>
       <r>   14.2218   -0.0000 </r>
       <r>   14.2218   -0.0000 </r>
       <r>   14.2218   -0.0000 </r>
       <r>   14.9008   -0.0000 </r>
       <r>   31.0042    0.0000 </r>
       <r>   31.0042    0.0000 </r>
      </set>
     </set>
    </set>
   </array>
  </eigenvalues>
  <separator name="orbital magnetization" >
   <v name="MAGDIPOLOUT">      0.00000000      0.00000000      0.00000000</v>
  </separator>
  <dos>
   <i name="efermi">      9.58242136 </i>
   <total>
    <array>
     <dimension dim="1">gridpoints</dimension>
     <dimension dim="2">spin</dimension>
     <field>energy</field>
     <field>total</field>
     <field>integrated</field>
     <set>
      <set comment="spin 1">
       <r>    -2.9832     0.0000     0.0000 </r>
       <r>    -2.8633     0.0000     0.0000 </r>
       <r>    -2.7433     0.0000     0.0000 </r>
       <r>    -2.6234    -0.0000    -0.0000 </r>
       <r>    -2.5034    -0.0000    -0.0000 </r>
       <r>    -2.3835    -0.0000    -0.0000 </r>
       <r>    -2.2635    -0.0000    -0.0000 </r>
       <r>    -2.1435    -0.0000    -0.0000 </r>
       <r>    -2.0236    -0.0000    -0.0000 </r>
       <r>    -1.9036    -0.0000    -0.0000 </r>
       <r>    -1.7837    -0.0000    -0.0000 </r>
       <r>    -1.6637    -0.0000    -0.0000 </r>
       <r>    -1.5437    -0.0000    -0.0000 </r>
       <r>    -1.4238    -0.0001    -0.0000 </r>
       <r>    -1.3038    -0.0006    -0.0001 </r>
       <r>    -1.1839    -0.0018    -0.0003 </r>
       <r>    -1.0639     0.0001    -0.0003 </r>
       <r>    -0.9440     0.0178     0.0018 </r>
       <r>    -0.8240     0.0665     0.0098 </r>
       <r>    -0.7040     0.1362     0.0262 </r>
       <r>    -0.5841     0.1751     0.0472 </r>
       <r>    -0.4641     0.1467     0.0648 </r>
       <r>    -0.3442     0.1189     0.0790 </r>
       <r>    -0.2242     0.2079     0.1040 </r>
       <r>    -0.1042     0.3703     0.1484 </r>
       <r>     0.0157     0.3869     0.1948 </r>
       <r>     0.1357     0.2053     0.2194 </r>
       <r>     0.2556     0.0945     0.2308 </r>
       <r>     0.3756     0.2353     0.2590 </r>
       <r>     0.4955     0.4320     0.3108 </r>
       <r>     0.6155     0.4874     0.3693 </r>
       <r>     0.7355     0.4468     0.4229 </r>
       <r>     0.8554     0.3411     0.4638 </r>
       <r>     0.9754     0.2606     0.4951 </r>
       <r>     1.0953     0.4424     0.5481 </r>
       <r>     1.2153     0.6570     0.6269 </r>
       <r>     1.3353     0.4374     0.6794 </r>
       <r>     1.4552     0.1645     0.6991 </r>
       <r>     1.5752     0.3886     0.7457 </r>
       <r>     1.6951     0.7208     0.8322 </r>
       <r>     1.8151     0.7238     0.9190 </r>
       <r>     1.9350     0.5695     0.9874 </r>
       <r>     2.0550     0.6443     1.0647 </r>
       <r>     2.1750     0.8838     1.1707 </r>
       <r>     2.2949     0.6637     1.2503 </r>
       <r>     2.4149     0.2654     1.2821 </r>
       <r>     2.5348     0.3503     1.3241 </r>
       <r>     2.6548     0.8974     1.4318 </r>
       <r>     2.7747     1.3496     1.5937 </r>
       <r>     2.8947     1.1822     1.7355 </r>
       <r>     3.0147     0.9601     1.8507 </r>
       <r>     3.1346     0.9854     1.9689 </r>
       <r>     3.2546     0.8986     2.0767 </r>
       <r>     3.3745     1.1249     2.2116 </r>
       <r>     3.4945     1.9816     2.4493 </r>
       <r>     3.6145     2.7856     2.7835 </r>
       <r>     3.7344     3.1890     3.1660 </r>
       <r>     3.8544     3.4342     3.5780 </r>
       <r>     3.9743     3.7928     4.0330 </r>
       <r>     4.0943     4.5966     4.5844 </r>
       <r>     4.2142     4.7727     5.1569 </r>
       <r>     4.3342     4.8243     5.7356 </r>
       <r>     4.4542     6.1110     6.4687 </r>
       <r>     4.5741     7.2886     7.3430 </r>
       <r>     4.6941     7.8112     8.2800 </r>
       <r>     4.8140     7.8587     9.2228 </r>
       <r>     4.9340     7.2529    10.0928 </r>
       <r>     5.0540     6.8079    10.9095 </r>
       <r>     5.1739     6.8345    11.7293 </r>
       <r>     5.2939     6.8278    12.5484 </r>
       <r>     5.4138     7.0900    13.3989 </r>
       <r>     5.5338     8.3806    14.4042 </r>
       <r>     5.6537    10.1546    15.6223 </r>
       <r>     5.7737    10.0994    16.8338 </r>
       <r>     5.8937    10.1247    18.0483 </r>
       <r>     6.0136    12.1108    19.5011 </r>
       <r>     6.1336    13.8500    21.1626 </r>
       <r>     6.2535    13.7796    22.8155 </r>
       <r>     6.3735    11.7601    24.2263 </r>
       <r>     6.4935     9.2895    25.3406 </r>
       <r>     6.6134     8.4113    26.3496 </r>
       <r>     6.7334     9.1984    27.4530 </r>
       <r>     6.8533    10.3051    28.6892 </r>
       <r>     6.9733    11.2849    30.0429 </r>
       <r>     7.0932    11.5971    31.4341 </r>
       <r>     7.2132    10.5538    32.7001 </r>
       <r>     7.3332     9.9328    33.8916 </r>
       <r>     7.4531    10.4243    35.1421 </r>
       <r>     7.5731    12.1854    36.6039 </r>
       <r>     7.6930    15.5684    38.4714 </r>
       <r>     7.8130    15.6263    40.3459 </r>
       <r>     7.9330    10.4451    41.5989 </r>
       <r>     8.0529     4.8445    42.1800 </r>
       <r>     8.1729     1.5950    42.3714 </r>
       <r>     8.2928     0.3112    42.4087 </r>
       <r>     8.4128     0.4208    42.4592 </r>
       <r>     8.5327     1.4828    42.6371 </r>
       <r>     8.6527     2.1845    42.8991 </r>
       <r>     8.7727     1.6745    43.1000 </r>
       <r>     8.8926     1.0137    43.2216 </r>
       <r>     9.0126     0.8686    43.3258 </r>
       <r>     9.1325     1.0464    43.4513 </r>
       <r>     9.2525     1.3580    43.6142 </r>
       <r>     9.3725     1.4063    43.7829 </r>
       <r>     9.4924     1.0544    43.9094 </r>
       <r>     9.6124     1.0333    44.0333 </r>
       <r>     9.7323     1.1195    44.1676 </r>
       <r>     9.8523     0.7992    44.2635 </r>
       <r>     9.9722     0.5520    44.3297 </r>
       <r>    10.0922     0.8198    44.4281 </r>
       <r>    10.2122     1.3225    44.5867 </r>
       <r>    10.3321     1.4490    44.7605 </r>
       <r>    10.4521     1.3853    44.9267 </r>
       <r>    10.5720     1.6208    45.1211 </r>
       <r>    10.6920     1.2087    45.2661 </r>
       <r>    10.8120     0.4674    45.3222 </r>
       <r>    10.9319     0.4010    45.3703 </r>
       <r>    11.0519     0.6646    45.4500 </r>
       <r>    11.1718     0.7403    45.5388 </r>
       <r>    11.2918     0.7159    45.6247 </r>
       <r>    11.4117     0.9105    45.7339 </r>
       <r>    11.5317     1.1283    45.8693 </r>
       <r>    11.6517     1.3012    46.0254 </r>
       <r>    11.7716     1.4575    46.2002 </r>
       <r>    11.8916     1.0979    46.3319 </r>
       <r>    12.0115     0.4777    46.3892 </r>
       <r>    12.1315     0.6858    46.4715 </r>
       <r>    12.2515     1.2281    46.6188 </r>
       <r>    12.3714     0.7958    46.7143 </r>
       <r>    12.4914     0.2845    46.7484 </r>
       <r>    12.6113     0.3141    46.7861 </r>
       <r>    12.7313     0.3910    46.8330 </r>
       <r>    12.8512     0.6353    46.9092 </r>
       <r>    12.9712     0.9463    47.0227 </r>
       <r>    13.0912     0.8016    47.1189 </r>
       <r>    13.2111     0.4164    47.1688 </r>
       <r>    13.3311     0.6613    47.2482 </r>
       <r>    13.4510     1.1560    47.3868 </r>
       <r>    13.5710     0.8821    47.4927 </r>
       <r>    13.6910     0.2856    47.5269 </r>
       <r>    13.8109     0.0919    47.5379 </r>
       <r>    13.9309     0.0888    47.5486 </r>
       <r>    14.0508     0.3152    47.5864 </r>
       <r>    14.1708     1.0462    47.7119 </r>
       <r>    14.2907     1.5205    47.8943 </r>
       <r>    14.4107     1.1511    48.0324 </r>
       <r>    14.5307     0.6713    48.1129 </r>
       <r>    14.6506     0.6108    48.1862 </r>
       <r>    14.7706     0.7134    48.2718 </r>
       <r>    14.8905     1.0485    48.3975 </r>
       <r>    15.0105     1.5344    48.5816 </r>
       <r>    15.1305     1.3016    48.7377 </r>
       <r>    15.2504     0.8678    48.8418 </r>
       <r>    15.3704     1.1464    48.9794 </r>
       <r>    15.4903     1.6091    49.1724 </r>
       <r>    15.6103     1.4865    49.3507 </r>
       <r>    15.7302     0.7073    49.4355 </r>
       <r>    15.8502     0.3525    49.4778 </r>
       <r>    15.9702     0.9665    49.5938 </r>
       <r>    16.0901     1.6636    49.7933 </r>
       <r>    16.2101     1.2461    49.9428 </r>
       <r>    16.3300     0.6159    50.0167 </r>
       <r>    16.4500     0.9153    50.1265 </r>
       <r>    16.5699     1.2410    50.2754 </r>
       <r>    16.6899     0.7137    50.3610 </r>
       <r>    16.8099     0.2852    50.3952 </r>
       <r>    16.9298     0.4917    50.4542 </r>
       <r>    17.0498     0.7523    50.5444 </r>
       <r>    17.1697     0.8732    50.6492 </r>
       <r>    17.2897     0.9461    50.7627 </r>
       <r>    17.4097     1.3663    50.9266 </r>
       <r>    17.5296     1.4770    51.1037 </r>
       <r>    17.6496     0.8285    51.2031 </r>
       <r>    17.7695     0.6949    51.2865 </r>
       <r>    17.8895     1.1506    51.4245 </r>
       <r>    18.0094     1.5320    51.6083 </r>
       <r>    18.1294     1.4945    51.7876 </r>
       <r>    18.2494     0.7111    51.8729 </r>
       <r>    18.3693     0.2368    51.9013 </r>
       <r>    18.4893     0.7163    51.9872 </r>
       <r>    18.6092     1.0823    52.1170 </r>
       <r>    18.7292     0.8590    52.2201 </r>
       <r>    18.8492     0.9557    52.3347 </r>
       <r>    18.9691     1.8018    52.5508 </r>
       <r>    19.0891     2.1813    52.8125 </r>
       <r>    19.2090     1.6917    53.0154 </r>
       <r>    19.3290     1.3236    53.1742 </r>
       <r>    19.4489     1.0718    53.3028 </r>
       <r>    19.5689     0.9991    53.4226 </r>
       <r>    19.6889     1.2556    53.5732 </r>
       <r>    19.8088     1.9075    53.8021 </r>
       <r>    19.9288     2.3005    54.0780 </r>
       <r>    20.0487     1.6268    54.2732 </r>
       <r>    20.1687     1.2237    54.4200 </r>
       <r>    20.2887     1.0863    54.5503 </r>
       <r>    20.4086     0.6454    54.6277 </r>
       <r>    20.5286     0.5086    54.6887 </r>
       <r>    20.6485     0.8178    54.7868 </r>
       <r>    20.7685     1.4845    54.9649 </r>
       <r>    20.8884     1.8246    55.1838 </r>
       <r>    21.0084     1.6661    55.3836 </r>
       <r>    21.1284     1.4215    55.5541 </r>
       <r>    21.2483     1.1222    55.6888 </r>
       <r>    21.3683     0.9000    55.7967 </r>
       <r>    21.4882     1.1435    55.9339 </r>
       <r>    21.6082     1.6725    56.1345 </r>
       <r>    21.7282     1.8401    56.3553 </r>
       <r>    21.8481     1.7386    56.5638 </r>
       <r>    21.9681     1.9970    56.8034 </r>
       <r>    22.0880     2.3352    57.0835 </r>
       <r>    22.2080     1.4341    57.2556 </r>
       <r>    22.3279     0.4119    57.3050 </r>
       <r>    22.4479     0.4293    57.3565 </r>
       <r>    22.5679     0.8776    57.4618 </r>
       <r>    22.6878     1.3729    57.6265 </r>
       <r>    22.8078     1.8917    57.8534 </r>
       <r>    22.9277     1.8950    58.0807 </r>
       <r>    23.0477     1.5712    58.2692 </r>
       <r>    23.1677     1.1112    58.4025 </r>
       <r>    23.2876     0.6861    58.4848 </r>
       <r>    23.4076     0.7704    58.5772 </r>
       <r>    23.5275     0.9585    58.6922 </r>
       <r>    23.6475     0.9772    58.8094 </r>
       <r>    23.7674     1.0000    58.9294 </r>
       <r>    23.8874     0.9231    59.0401 </r>
       <r>    24.0074     0.6034    59.1125 </r>
       <r>    24.1273     0.3693    59.1568 </r>
       <r>    24.2473     0.1984    59.1806 </r>
       <r>    24.3672     0.1004    59.1926 </r>
       <r>    24.4872     0.3498    59.2346 </r>
       <r>    24.6072     0.5120    59.2960 </r>
       <r>    24.7271     0.2260    59.3231 </r>
       <r>    24.8471    -0.0047    59.3226 </r>
       <r>    24.9670    -0.0210    59.3200 </r>
       <r>    25.0870    -0.0094    59.3189 </r>
       <r>    25.2069    -0.0220    59.3163 </r>
       <r>    25.3269     0.0056    59.3170 </r>
       <r>    25.4469     0.2455    59.3464 </r>
       <r>    25.5668     0.6225    59.4211 </r>
       <r>    25.6868     0.6135    59.4947 </r>
       <r>    25.8067     0.2096    59.5198 </r>
       <r>    25.9267     0.0633    59.5274 </r>
       <r>    26.0467     0.2203    59.5538 </r>
       <r>    26.1666     0.2123    59.5793 </r>
       <r>    26.2866     0.0436    59.5845 </r>
       <r>    26.4065    -0.0313    59.5808 </r>
       <r>    26.5265     0.0265    59.5839 </r>
       <r>    26.6464     0.2568    59.6148 </r>
       <r>    26.7664     0.4147    59.6645 </r>
       <r>    26.8864     0.2348    59.6927 </r>
       <r>    27.0063     0.0230    59.6954 </r>
       <r>    27.1263    -0.0265    59.6922 </r>
       <r>    27.2462    -0.0317    59.6884 </r>
       <r>    27.3662     0.0586    59.6955 </r>
       <r>    27.4862     0.3790    59.7409 </r>
       <r>    27.6061     0.5147    59.8027 </r>
       <r>    27.7261     0.2128    59.8282 </r>
       <r>    27.8460    -0.0082    59.8272 </r>
       <r>    27.9660    -0.0199    59.8248 </r>
       <r>    28.0859    -0.0072    59.8240 </r>
       <r>    28.2059    -0.0131    59.8224 </r>
       <r>    28.3259     0.0190    59.8247 </r>
       <r>    28.4458     0.1706    59.8451 </r>
       <r>    28.5658     0.2629    59.8767 </r>
       <r>    28.6857     0.1255    59.8917 </r>
       <r>    28.8057     0.0011    59.8919 </r>
       <r>    28.9257    -0.0110    59.8905 </r>
       <r>    29.0456    -0.0040    59.8901 </r>
       <r>    29.1656    -0.0100    59.8889 </r>
       <r>    29.2855    -0.0040    59.8884 </r>
       <r>    29.4055     0.1066    59.9012 </r>
       <r>    29.5254     0.2575    59.9320 </r>
       <r>    29.6454     0.1893    59.9548 </r>
       <r>    29.7654     0.0295    59.9583 </r>
       <r>    29.8853    -0.0132    59.9567 </r>
       <r>    30.0053    -0.0045    59.9562 </r>
       <r>    30.1252    -0.0005    59.9561 </r>
       <r>    30.2452    -0.0000    59.9561 </r>
       <r>    30.3651    -0.0000    59.9561 </r>
       <r>    30.4851    -0.0003    59.9561 </r>
       <r>    30.6051    -0.0027    59.9557 </r>
       <r>    30.7250    -0.0087    59.9547 </r>
       <r>    30.8450     0.0157    59.9566 </r>
       <r>    30.9649     0.1194    59.9709 </r>
       <r>    31.0849     0.1739    59.9918 </r>
       <r>    31.2049     0.0779    60.0011 </r>
       <r>    31.3248    -0.0009    60.0010 </r>
       <r>    31.4448    -0.0070    60.0002 </r>
       <r>    31.5647    -0.0013    60.0000 </r>
       <r>    31.6847    -0.0001    60.0000 </r>
       <r>    31.8046    -0.0000    60.0000 </r>
       <r>    31.9246    -0.0000    60.0000 </r>
       <r>    32.0446    -0.0000    60.0000 </r>
       <r>    32.1645    -0.0000    60.0000 </r>
       <r>    32.2845    -0.0000    60.0000 </r>
       <r>    32.4044     0.0000    60.0000 </r>
       <r>    32.5244     0.0000    60.0000 </r>
       <r>    32.6444     0.0000    60.0000 </r>
       <r>    32.7643     0.0000    60.0000 </r>
       <r>    32.8843     0.0000    60.0000 </r>
       <r>    33.0042     0.0000    60.0000 </r>
      </set>
     </set>
    </array>
   </total>
  </dos>
 </calculation>
 <structure name="finalpos" >
  <crystal>
   <varray name="basis" >
    <v>       3.44332004       0.00000000       0.00000000 </v>
    <v>       0.00000000       3.44332004       0.00000000 </v>
    <v>       0.00000000       0.00000000       3.44332004 </v>
   </varray>
   <i name="volume">     40.82556194 </i>
   <varray name="rec_basis" >
    <v>       0.29041738       0.00000000       0.00000000 </v>
    <v>       0.00000000       0.29041738       0.00000000 </v>
    <v>       0.00000000       0.00000000       0.29041738 </v>
   </varray>
  </crystal>
  <varray name="positions" >
   <v>       0.00000000       0.00000000       0.00000000 </v>
   <v>       0.50000000       0.50000000       0.00000000 </v>
   <v>       0.50000000       0.00000000       0.50000000 </v>
   <v>       0.00000000       0.50000000       0.50000000 </v>
  </varray>
 </structure>
</modeling>
