 vasp.6.2.0 18Jan21 (build Mar 17 2021 09:06:54) complex                        
  
 POSCAR found type information on POSCAR Cu
 POSCAR found :  1 types and       4 ions
 LDA part: xc-table for Pade appr. of Perdew
 found WAVECAR, reading the header
 POSCAR, INCAR and KPOINTS ok, starting setup
 FFT: planning ...
 reading WAVECAR
 the WAVECAR file was read successfully
 charge-density read from file: unknown                                 
 entering main loop
       N       E                     dE             d eps       ncg     rms          rms(c)
DAV:   1    -0.142976542767E+02   -0.14298E+02   -0.14220E-04  2336   0.627E-01    0.858E-03
DAV:   2    -0.142955310160E+02    0.21233E-02   -0.14850E-04  2280   0.652E-01    0.817E-03
DAV:   3    -0.142955292236E+02    0.17924E-05   -0.37465E-06  1924   0.348E-02    0.309E-03
DAV:   4    -0.142955291130E+02    0.11065E-06   -0.39456E-07  1122   0.913E-03
   1 F= -.14295529E+02 E0= -.14295319E+02  d E =-.630846E-03
 writing wavefunctions
