unknown system                          
   1.00000000000000     
     3.635000    0.000000    0.000000
     0.000000    3.635000    0.000000
     0.000000    0.000000    3.635000
   Cu
     4
Direct
  0.000000  0.000000  0.000000
  0.500000  0.500000  0.000000
  0.500000  0.000000  0.500000
  0.000000  0.500000  0.500000
 
   32   32   32
  845.11      796.49      666.02      491.95      317.57      175.88      82.663      36.196      20.761      15.229    
  11.623      9.3823      8.0858      7.4389      7.0386      6.6613      6.4789      6.6613      7.0386      7.4389    
  8.0858      9.3823      11.623      15.229      20.761      36.196      82.663      175.88      317.57      491.95    
  666.02      796.49      796.49      750.46      626.98      462.27      297.51      164.15      77.107      34.349    
  20.368      15.031      11.549      9.3986      8.1621      7.5501      7.1776      6.8295      6.6613      6.8295    
  7.1776      7.5501      8.1621      9.3986      11.549      15.031      20.368      34.349      77.107      164.15    
  297.51      462.27      626.98      750.46      666.02      626.98      522.26      382.81      244.10      133.29    
  62.826      29.803      19.349      14.487      11.350      9.4387      8.3447      7.7985      7.4707      7.1776    
  7.0386      7.1776      7.4707      7.7985      8.3447      9.4387      11.350      14.487      19.349      29.803    
  62.826      133.29      244.10      382.81      522.26      626.98      491.95      462.27      382.81      277.60    
  174.33      94.071      45.620      24.788      17.912      13.731      11.101      9.5144      8.5924      8.1023    
  7.7985      7.5501      7.4389      7.5501      7.7985      8.1023      8.5924      9.5144      11.101      13.731    
  17.912      24.788      45.620      94.071      174.33      277.60      382.81      462.27      317.57      297.51    
  244.10      174.33      107.70      58.537      31.445      21.022      16.251      12.942      10.913      9.7020    
  8.9902      8.5924      8.3447      8.1621      8.0858      8.1621      8.3447      8.5924      8.9902      9.7020    
  10.913      12.942      16.251      21.022      31.445      58.537      107.70      174.33      244.10      297.51    
  175.88      164.15      133.29      94.071      58.537      34.625      23.151      18.218      14.651      12.292    
  10.901      10.118      9.7020      9.5144      9.4387      9.3986      9.3823      9.3986      9.4387      9.5144    
  9.7020      10.118      10.901      12.292      14.651      18.218      23.151      34.625      58.537      94.071    
  133.29      164.15      82.663      77.107      62.826      45.620      31.445      23.151      18.951      15.707    
  13.361      11.927      11.185      10.901      10.913      11.101      11.350      11.549      11.623      11.549    
  11.350      11.101      10.913      10.901      11.185      11.927      13.361      15.707      18.951      23.151    
  31.445      45.620      62.826      77.107      36.196      34.349      29.803      24.788      21.022      18.218    
  15.707      13.772      12.542      11.968      11.927      12.292      12.942      13.731      14.487      15.031    
  15.229      15.031      14.487      13.731      12.942      12.292      11.927      11.968      12.542      13.772    
  15.707      18.218      21.022      24.788      29.803      34.349      20.761      20.368      19.349      17.912    
  16.251      14.651      13.361      12.542      12.263      12.542      13.361      14.651      16.251      17.912    
  19.349      20.368      20.761      20.368      19.349      17.912      16.251      14.651      13.361      12.542    
  12.263      12.542      13.361      14.651      16.251      17.912      19.349      20.368      15.229      15.031    
  14.487      13.731      12.942      12.292      11.927      11.968      12.542      13.772      15.707      18.218    
  21.022      24.788      29.803      34.349      36.196      34.349      29.803      24.788      21.022      18.218    
  15.707      13.772      12.542      11.968      11.927      12.292      12.942      13.731      14.487      15.031    
  11.623      11.549      11.350      11.101      10.913      10.901      11.185      11.927      13.361      15.707    
  18.951      23.151      31.445      45.620      62.826      77.107      82.663      77.107      62.826      45.620    
  31.445      23.151      18.951      15.707      13.361      11.927      11.185      10.901      10.913      11.101    
  11.350      11.549      9.3823      9.3986      9.4387      9.5144      9.7020      10.118      10.901      12.292    
  14.651      18.218      23.151      34.625      58.537      94.071      133.29      164.15      175.88      164.15    
  133.29      94.071      58.537      34.625      23.151      18.218      14.651      12.292      10.901      10.118    
  9.7020      9.5144      9.4387      9.3986      8.0858      8.1621      8.3447      8.5924      8.9902      9.7020    
  10.913      12.942      16.251      21.022      31.445      58.537      107.70      174.33      244.10      297.51    
  317.57      297.51      244.10      174.33      107.70      58.537      31.445      21.022      16.251      12.942    
  10.913      9.7020      8.9902      8.5924      8.3447      8.1621      7.4389      7.5501      7.7985      8.1023    
  8.5924      9.5144      11.101      13.731      17.912      24.788      45.620      94.071      174.33      277.60    
  382.81      462.27      491.95      462.27      382.81      277.60      174.33      94.071      45.620      24.788    
  17.912      13.731      11.101      9.5144      8.5924      8.1023      7.7985      7.5501      7.0386      7.1776    
  7.4707      7.7985      8.3447      9.4387      11.350      14.487      19.349      29.803      62.826      133.29    
  244.10      382.81      522.26      626.98      666.02      626.98      522.26      382.81      244.10      133.29    
  62.826      29.803      19.349      14.487      11.350      9.4387      8.3447      7.7985      7.4707      7.1776    
  6.6613      6.8295      7.1776      7.5501      8.1621      9.3986      11.549      15.031      20.368      34.349    
  77.107      164.15      297.51      462.27      626.98      750.46      796.49      750.46      626.98      462.27    
  297.51      164.15      77.107      34.349      20.368      15.031      11.549      9.3986      8.1621      7.5501    
  7.1776      6.8295      6.4789      6.6613      7.0386      7.4389      8.0858      9.3823      11.623      15.229    
  20.761      36.196      82.663      175.88      317.57      491.95      666.02      796.49      845.11      796.49    
  666.02      491.95      317.57      175.88      82.663      36.196      20.761      15.229      11.623      9.3823    
  8.0858      7.4389      7.0386      6.6613      6.6613      6.8295      7.1776      7.5501      8.1621      9.3986    
  11.549      15.031      20.368      34.349      77.107      164.15      297.51      462.27      626.98      750.46    
  796.49      750.46      626.98      462.27      297.51      164.15      77.107      34.349      20.368      15.031    
  11.549      9.3986      8.1621      7.5501      7.1776      6.8295      7.0386      7.1776      7.4707      7.7985    
  8.3447      9.4387      11.350      14.487      19.349      29.803      62.826      133.29      244.10      382.81    
  522.26      626.98      666.02      626.98      522.26      382.81      244.10      133.29      62.826      29.803    
  19.349      14.487      11.350      9.4387      8.3447      7.7985      7.4707      7.1776      7.4389      7.5501    
  7.7985      8.1023      8.5924      9.5144      11.101      13.731      17.912      24.788      45.620      94.071    
  174.33      277.60      382.81      462.27      491.95      462.27      382.81      277.60      174.33      94.071    
  45.620      24.788      17.912      13.731      11.101      9.5144      8.5924      8.1023      7.7985      7.5501    
  8.0858      8.1621      8.3447      8.5924      8.9902      9.7020      10.913      12.942      16.251      21.022    
  31.445      58.537      107.70      174.33      244.10      297.51      317.57      297.51      244.10      174.33    
  107.70      58.537      31.445      21.022      16.251      12.942      10.913      9.7020      8.9902      8.5924    
  8.3447      8.1621      9.3823      9.3986      9.4387      9.5144      9.7020      10.118      10.901      12.292    
  14.651      18.218      23.151      34.625      58.537      94.071      133.29      164.15      175.88      164.15    
  133.29      94.071      58.537      34.625      23.151      18.218      14.651      12.292      10.901      10.118    
  9.7020      9.5144      9.4387      9.3986      11.623      11.549      11.350      11.101      10.913      10.901    
  11.185      11.927      13.361      15.707      18.951      23.151      31.445      45.620      62.826      77.107    
  82.663      77.107      62.826      45.620      31.445      23.151      18.951      15.707      13.361      11.927    
  11.185      10.901      10.913      11.101      11.350      11.549      15.229      15.031      14.487      13.731    
  12.942      12.292      11.927      11.968      12.542      13.772      15.707      18.218      21.022      24.788    
  29.803      34.349      36.196      34.349      29.803      24.788      21.022      18.218      15.707      13.772    
  12.542      11.968      11.927      12.292      12.942      13.731      14.487      15.031      20.761      20.368    
  19.349      17.912      16.251      14.651      13.361      12.542      12.263      12.542      13.361      14.651    
  16.251      17.912      19.349      20.368      20.761      20.368      19.349      17.912      16.251      14.651    
  13.361      12.542      12.263      12.542      13.361      14.651      16.251      17.912      19.349      20.368    
  36.196      34.349      29.803      24.788      21.022      18.218      15.707      13.772      12.542      11.968    
  11.927      12.292      12.942      13.731      14.487      15.031      15.229      15.031      14.487      13.731    
  12.942      12.292      11.927      11.968      12.542      13.772      15.707      18.218      21.022      24.788    
  29.803      34.349      82.663      77.107      62.826      45.620      31.445      23.151      18.951      15.707    
  13.361      11.927      11.185      10.901      10.913      11.101      11.350      11.549      11.623      11.549    
  11.350      11.101      10.913      10.901      11.185      11.927      13.361      15.707      18.951      23.151    
  31.445      45.620      62.826      77.107      175.88      164.15      133.29      94.071      58.537      34.625    
  23.151      18.218      14.651      12.292      10.901      10.118      9.7020      9.5144      9.4387      9.3986    
  9.3823      9.3986      9.4387      9.5144      9.7020      10.118      10.901      12.292      14.651      18.218    
  23.151      34.625      58.537      94.071      133.29      164.15      317.57      297.51      244.10      174.33    
  107.70      58.537      31.445      21.022      16.251      12.942      10.913      9.7020      8.9902      8.5924    
  8.3447      8.1621      8.0858      8.1621      8.3447      8.5924      8.9902      9.7020      10.913      12.942    
  16.251      21.022      31.445      58.537      107.70      174.33      244.10      297.51      491.95      462.27    
  382.81      277.60      174.33      94.071      45.620      24.788      17.912      13.731      11.101      9.5144    
  8.5924      8.1023      7.7985      7.5501      7.4389      7.5501      7.7985      8.1023      8.5924      9.5144    
  11.101      13.731      17.912      24.788      45.620      94.071      174.33      277.60      382.81      462.27    
  666.02      626.98      522.26      382.81      244.10      133.29      62.826      29.803      19.349      14.487    
  11.350      9.4387      8.3447      7.7985      7.4707      7.1776      7.0386      7.1776      7.4707      7.7985    
  8.3447      9.4387      11.350      14.487      19.349      29.803      62.826      133.29      244.10      382.81    
  522.26      626.98      796.49      750.46      626.98      462.27      297.51      164.15      77.107      34.349    
  20.368      15.031      11.549      9.3986      8.1621      7.5501      7.1776      6.8295      6.6613      6.8295    
  7.1776      7.5501      8.1621      9.3986      11.549      15.031      20.368      34.349      77.107      164.15    
  297.51      462.27      626.98      750.46      796.49      750.46      626.98      462.27      297.51      164.15    
  77.107      34.349      20.368      15.031      11.549      9.3986      8.1621      7.5501      7.1776      6.8295    
  6.6613      6.8295      7.1776      7.5501      8.1621      9.3986      11.549      15.031      20.368      34.349    
  77.107      164.15      297.51      462.27      626.98      750.46      750.46      706.91      590.04      434.21    
  278.60      153.16      71.962      32.674      20.002      14.838      11.475      9.4119      8.2320      7.6524    
  7.3055      6.9845      6.8295      6.9845      7.3055      7.6524      8.2320      9.4119      11.475      14.838    
  20.002      32.674      71.962      153.16      278.60      434.21      590.04      706.91      626.98      590.04    
  490.96      359.14      228.31      124.29      58.770      28.563      19.030      14.308      11.280      9.4454    
  8.4004      7.8820      7.5758      7.3055      7.1776      7.3055      7.5758      7.8820      8.4004      9.4454    
  11.280      14.308      19.030      28.563      58.770      124.29      228.31      359.14      490.96      590.04    
  462.27      434.21      359.14      259.88      162.75      87.737      42.965      24.048      17.624      13.573    
  11.038      9.5140      8.6326      8.1666      7.8820      7.6524      7.5501      7.6524      7.8820      8.1666    
  8.6326      9.5140      11.038      13.573      17.624      24.048      42.965      87.737      162.75      259.88    
  359.14      434.21      297.51      278.60      228.31      162.75      100.44      54.839      30.069      20.621    
  16.006      12.808      10.854      9.6920      9.0111      8.6326      8.4004      8.2320      8.1621      8.2320    
  8.4004      8.6326      9.0111      9.6920      10.854      12.808      16.006      20.621      30.069      54.839    
  100.44      162.75      228.31      278.60      164.15      153.16      124.29      87.737      54.839      32.955    
  22.587      17.909      14.455      12.181      10.843      10.090      9.6920      9.5140      9.4454      9.4119    
  9.3986      9.4119      9.4454      9.5140      9.6920      10.090      10.843      12.181      14.455      17.909    
  22.587      32.955      54.839      87.737      124.29      153.16      77.107      71.962      58.770      42.965    
  30.069      22.587      18.620      15.473      13.211      11.830      11.116      10.843      10.854      11.038    
  11.280      11.475      11.549      11.475      11.280      11.038      10.854      10.843      11.116      11.830    
  13.211      15.473      18.620      22.587      30.069      42.965      58.770      71.962      34.349      32.674    
  28.563      24.048      20.621      17.909      15.473      13.606      12.422      11.870      11.830      12.181    
  12.808      13.573      14.308      14.838      15.031      14.838      14.308      13.573      12.808      12.181    
  11.830      11.870      12.422      13.606      15.473      17.909      20.621      24.048      28.563      32.674    
  20.368      20.002      19.030      17.624      16.006      14.455      13.211      12.422      12.154      12.422    
  13.211      14.455      16.006      17.624      19.030      20.002      20.368      20.002      19.030      17.624    
  16.006      14.455      13.211      12.422      12.154      12.422      13.211      14.455      16.006      17.624    
  19.030      20.002      15.031      14.838      14.308      13.573      12.808      12.181      11.830      11.870    
  12.422      13.606      15.473      17.909      20.621      24.048      28.563      32.674      34.349      32.674    
  28.563      24.048      20.621      17.909      15.473      13.606      12.422      11.870      11.830      12.181    
  12.808      13.573      14.308      14.838      11.549      11.475      11.280      11.038      10.854      10.843    
  11.116      11.830      13.211      15.473      18.620      22.587      30.069      42.965      58.770      71.962    
  77.107      71.962      58.770      42.965      30.069      22.587      18.620      15.473      13.211      11.830    
  11.116      10.843      10.854      11.038      11.280      11.475      9.3986      9.4119      9.4454      9.5140    
  9.6920      10.090      10.843      12.181      14.455      17.909      22.587      32.955      54.839      87.737    
  124.29      153.16      164.15      153.16      124.29      87.737      54.839      32.955      22.587      17.909    
  14.455      12.181      10.843      10.090      9.6920      9.5140      9.4454      9.4119      8.1621      8.2320    
  8.4004      8.6326      9.0111      9.6920      10.854      12.808      16.006      20.621      30.069      54.839    
  100.44      162.75      228.31      278.60      297.51      278.60      228.31      162.75      100.44      54.839    
  30.069      20.621      16.006      12.808      10.854      9.6920      9.0111      8.6326      8.4004      8.2320    
  7.5501      7.6524      7.8820      8.1666      8.6326      9.5140      11.038      13.573      17.624      24.048    
  42.965      87.737      162.75      259.88      359.14      434.21      462.27      434.21      359.14      259.88    
  162.75      87.737      42.965      24.048      17.624      13.573      11.038      9.5140      8.6326      8.1666    
  7.8820      7.6524      7.1776      7.3055      7.5758      7.8820      8.4004      9.4454      11.280      14.308    
  19.030      28.563      58.770      124.29      228.31      359.14      490.96      590.04      626.98      590.04    
  490.96      359.14      228.31      124.29      58.770      28.563      19.030      14.308      11.280      9.4454    
  8.4004      7.8820      7.5758      7.3055      6.8295      6.9845      7.3055      7.6524      8.2320      9.4119    
  11.475      14.838      20.002      32.674      71.962      153.16      278.60      434.21      590.04      706.91    
  750.46      706.91      590.04      434.21      278.60      153.16      71.962      32.674      20.002      14.838    
  11.475      9.4119      8.2320      7.6524      7.3055      6.9845      6.6613      6.8295      7.1776      7.5501    
  8.1621      9.3986      11.549      15.031      20.368      34.349      77.107      164.15      297.51      462.27    
  626.98      750.46      796.49      750.46      626.98      462.27      297.51      164.15      77.107      34.349    
  20.368      15.031      11.549      9.3986      8.1621      7.5501      7.1776      6.8295      6.8295      6.9845    
  7.3055      7.6524      8.2320      9.4119      11.475      14.838      20.002      32.674      71.962      153.16    
  278.60      434.21      590.04      706.91      750.46      706.91      590.04      434.21      278.60      153.16    
  71.962      32.674      20.002      14.838      11.475      9.4119      8.2320      7.6524      7.3055      6.9845    
  7.1776      7.3055      7.5758      7.8820      8.4004      9.4454      11.280      14.308      19.030      28.563    
  58.770      124.29      228.31      359.14      490.96      590.04      626.98      590.04      490.96      359.14    
  228.31      124.29      58.770      28.563      19.030      14.308      11.280      9.4454      8.4004      7.8820    
  7.5758      7.3055      7.5501      7.6524      7.8820      8.1666      8.6326      9.5140      11.038      13.573    
  17.624      24.048      42.965      87.737      162.75      259.88      359.14      434.21      462.27      434.21    
  359.14      259.88      162.75      87.737      42.965      24.048      17.624      13.573      11.038      9.5140    
  8.6326      8.1666      7.8820      7.6524      8.1621      8.2320      8.4004      8.6326      9.0111      9.6920    
  10.854      12.808      16.006      20.621      30.069      54.839      100.44      162.75      228.31      278.60    
  297.51      278.60      228.31      162.75      100.44      54.839      30.069      20.621      16.006      12.808    
  10.854      9.6920      9.0111      8.6326      8.4004      8.2320      9.3986      9.4119      9.4454      9.5140    
  9.6920      10.090      10.843      12.181      14.455      17.909      22.587      32.955      54.839      87.737    
  124.29      153.16      164.15      153.16      124.29      87.737      54.839      32.955      22.587      17.909    
  14.455      12.181      10.843      10.090      9.6920      9.5140      9.4454      9.4119      11.549      11.475    
  11.280      11.038      10.854      10.843      11.116      11.830      13.211      15.473      18.620      22.587    
  30.069      42.965      58.770      71.962      77.107      71.962      58.770      42.965      30.069      22.587    
  18.620      15.473      13.211      11.830      11.116      10.843      10.854      11.038      11.280      11.475    
  15.031      14.838      14.308      13.573      12.808      12.181      11.830      11.870      12.422      13.606    
  15.473      17.909      20.621      24.048      28.563      32.674      34.349      32.674      28.563      24.048    
  20.621      17.909      15.473      13.606      12.422      11.870      11.830      12.181      12.808      13.573    
  14.308      14.838      20.368      20.002      19.030      17.624      16.006      14.455      13.211      12.422    
  12.154      12.422      13.211      14.455      16.006      17.624      19.030      20.002      20.368      20.002    
  19.030      17.624      16.006      14.455      13.211      12.422      12.154      12.422      13.211      14.455    
  16.006      17.624      19.030      20.002      34.349      32.674      28.563      24.048      20.621      17.909    
  15.473      13.606      12.422      11.870      11.830      12.181      12.808      13.573      14.308      14.838    
  15.031      14.838      14.308      13.573      12.808      12.181      11.830      11.870      12.422      13.606    
  15.473      17.909      20.621      24.048      28.563      32.674      77.107      71.962      58.770      42.965    
  30.069      22.587      18.620      15.473      13.211      11.830      11.116      10.843      10.854      11.038    
  11.280      11.475      11.549      11.475      11.280      11.038      10.854      10.843      11.116      11.830    
  13.211      15.473      18.620      22.587      30.069      42.965      58.770      71.962      164.15      153.16    
  124.29      87.737      54.839      32.955      22.587      17.909      14.455      12.181      10.843      10.090    
  9.6920      9.5140      9.4454      9.4119      9.3986      9.4119      9.4454      9.5140      9.6920      10.090    
  10.843      12.181      14.455      17.909      22.587      32.955      54.839      87.737      124.29      153.16    
  297.51      278.60      228.31      162.75      100.44      54.839      30.069      20.621      16.006      12.808    
  10.854      9.6920      9.0111      8.6326      8.4004      8.2320      8.1621      8.2320      8.4004      8.6326    
  9.0111      9.6920      10.854      12.808      16.006      20.621      30.069      54.839      100.44      162.75    
  228.31      278.60      462.27      434.21      359.14      259.88      162.75      87.737      42.965      24.048    
  17.624      13.573      11.038      9.5140      8.6326      8.1666      7.8820      7.6524      7.5501      7.6524    
  7.8820      8.1666      8.6326      9.5140      11.038      13.573      17.624      24.048      42.965      87.737    
  162.75      259.88      359.14      434.21      626.98      590.04      490.96      359.14      228.31      124.29    
  58.770      28.563      19.030      14.308      11.280      9.4454      8.4004      7.8820      7.5758      7.3055    
  7.1776      7.3055      7.5758      7.8820      8.4004      9.4454      11.280      14.308      19.030      28.563    
  58.770      124.29      228.31      359.14      490.96      590.04      750.46      706.91      590.04      434.21    
  278.60      153.16      71.962      32.674      20.002      14.838      11.475      9.4119      8.2320      7.6524    
  7.3055      6.9845      6.8295      6.9845      7.3055      7.6524      8.2320      9.4119      11.475      14.838    
  20.002      32.674      71.962      153.16      278.60      434.21      590.04      706.91      666.02      626.98    
  522.26      382.81      244.10      133.29      62.826      29.803      19.349      14.487      11.350      9.4387    
  8.3447      7.7985      7.4707      7.1776      7.0386      7.1776      7.4707      7.7985      8.3447      9.4387    
  11.350      14.487      19.349      29.803      62.826      133.29      244.10      382.81      522.26      626.98    
  626.98      590.04      490.96      359.14      228.31      124.29      58.770      28.563      19.030      14.308    
  11.280      9.4454      8.4004      7.8820      7.5758      7.3055      7.1776      7.3055      7.5758      7.8820    
  8.4004      9.4454      11.280      14.308      19.030      28.563      58.770      124.29      228.31      359.14    
  490.96      590.04      522.26      490.96      407.12      295.93      186.43      100.77      48.455      25.544    
  18.132      13.817      11.097      9.4649      8.5381      8.0736      7.8031      7.5758      7.4707      7.5758    
  7.8031      8.0736      8.5381      9.4649      11.097      13.817      18.132      25.544      48.455      100.77    
  186.43      295.93      407.12      490.96      382.81      359.14      295.93      212.77      132.27      71.352    
  36.317      22.241      16.818      13.143      10.872      9.5183      8.7376      8.3226      8.0736      7.8820    
  7.7985      7.8820      8.0736      8.3226      8.7376      9.5183      10.872      13.143      16.818      22.241    
  36.317      71.352      132.27      212.77      295.93      359.14      244.10      228.31      186.43      132.27    
  81.559      45.450      26.692      19.544      15.326      12.447      10.703      9.6728      9.0714      8.7376    
  8.5381      8.4004      8.3447      8.4004      8.5381      8.7376      9.0714      9.6728      10.703      12.447    
  15.326      19.544      26.692      45.450      81.559      132.27      186.43      228.31      133.29      124.29    
  100.77      71.352      45.450      28.833      21.165      17.042      13.914      11.881      10.691      10.024    
  9.6728      9.5183      9.4649      9.4454      9.4387      9.4454      9.4649      9.5183      9.6728      10.024    
  10.691      11.881      13.914      17.042      21.165      28.833      45.450      71.352      100.77      124.29    
  62.826      58.770      48.455      36.317      26.692      21.165      17.686      14.821      12.794      11.566    
  10.933      10.691      10.703      10.872      11.097      11.280      11.350      11.280      11.097      10.872    
  10.703      10.691      10.933      11.566      12.794      14.821      17.686      21.165      26.692      36.317    
  48.455      58.770      29.803      28.563      25.544      22.241      19.544      17.042      14.821      13.144    
  12.090      11.601      11.566      11.881      12.447      13.143      13.817      14.308      14.487      14.308    
  13.817      13.143      12.447      11.881      11.566      11.601      12.090      13.144      14.821      17.042    
  19.544      22.241      25.544      28.563      19.349      19.030      18.132      16.818      15.326      13.914    
  12.794      12.090      11.852      12.090      12.794      13.914      15.326      16.818      18.132      19.030    
  19.349      19.030      18.132      16.818      15.326      13.914      12.794      12.090      11.852      12.090    
  12.794      13.914      15.326      16.818      18.132      19.030      14.487      14.308      13.817      13.143    
  12.447      11.881      11.566      11.601      12.090      13.144      14.821      17.042      19.544      22.241    
  25.544      28.563      29.803      28.563      25.544      22.241      19.544      17.042      14.821      13.144    
  12.090      11.601      11.566      11.881      12.447      13.143      13.817      14.308      11.350      11.280    
  11.097      10.872      10.703      10.691      10.933      11.566      12.794      14.821      17.686      21.165    
  26.692      36.317      48.455      58.770      62.826      58.770      48.455      36.317      26.692      21.165    
  17.686      14.821      12.794      11.566      10.933      10.691      10.703      10.872      11.097      11.280    
  9.4387      9.4454      9.4649      9.5183      9.6728      10.024      10.691      11.881      13.914      17.042    
  21.165      28.833      45.450      71.352      100.77      124.29      133.29      124.29      100.77      71.352    
  45.450      28.833      21.165      17.042      13.914      11.881      10.691      10.024      9.6728      9.5183    
  9.4649      9.4454      8.3447      8.4004      8.5381      8.7376      9.0714      9.6728      10.703      12.447    
  15.326      19.544      26.692      45.450      81.559      132.27      186.43      228.31      244.10      228.31    