unknown system                          
   1.00000000000000     
     3.635000    0.000000    0.000000
     0.000000    3.635000    0.000000
     0.000000    0.000000    3.635000
   Cu
     4
Direct
  0.000000  0.000000  0.000000
  0.500000  0.500000  0.000000
  0.500000  0.000000  0.500000
  0.000000  0.500000  0.500000
 
   32   32   32
 0.84510993652E+03 0.79648627486E+03 0.66602419549E+03 0.49194592048E+03 0.31756569752E+03
 0.17588064876E+03 0.82663298023E+02 0.36196406683E+02 0.20761058766E+02 0.15229321786E+02
 0.11623144393E+02 0.93823031437E+01 0.80857577046E+01 0.74388627526E+01 0.70386322670E+01
 0.66613293888E+01 0.64789333357E+01 0.66613293888E+01 0.70386322670E+01 0.74388627526E+01
 0.80857577046E+01 0.93823031437E+01 0.11623144393E+02 0.15229321786E+02 0.20761058766E+02
 0.36196406683E+02 0.82663298023E+02 0.17588064876E+03 0.31756569752E+03 0.49194592048E+03
 0.66602419549E+03 0.79648627486E+03 0.79648627486E+03 0.75046452554E+03 0.62698088235E+03
 0.46226791396E+03 0.29750945381E+03 0.16415154407E+03 0.77107033810E+02 0.34349246956E+02
 0.20368133543E+02 0.15031340715E+02 0.11548668277E+02 0.93985926323E+01 0.81621159218E+01
 0.75500589296E+01 0.71775848834E+01 0.68295047255E+01 0.66613293888E+01 0.68295047255E+01
 0.71775848834E+01 0.75500589296E+01 0.81621159218E+01 0.93985926323E+01 0.11548668277E+02
 0.15031340715E+02 0.20368133543E+02 0.34349246956E+02 0.77107033810E+02 0.16415154407E+03
 0.29750945381E+03 0.46226791396E+03 0.62698088235E+03 0.75046452554E+03 0.66602419549E+03
 0.62698088235E+03 0.52225503059E+03 0.38280935318E+03 0.24409972459E+03 0.13328672293E+03
 0.62825922965E+02 0.29802799187E+02 0.19349425640E+02 0.14487282730E+02 0.11350022646E+02
 0.94386615440E+01 0.83447356187E+01 0.77985049210E+01 0.74706597091E+01 0.71775848834E+01
 0.70386322670E+01 0.71775848834E+01 0.74706597091E+01 0.77985049210E+01 0.83447356187E+01
 0.94386615440E+01 0.11350022646E+02 0.14487282730E+02 0.19349425640E+02 0.29802799187E+02
 0.62825922965E+02 0.13328672293E+03 0.24409972459E+03 0.38280935318E+03 0.52225503059E+03
 0.62698088235E+03 0.49194592048E+03 0.46226791396E+03 0.38280935318E+03 0.27759815291E+03
 0.17432846744E+03 0.94070655569E+02 0.45619697780E+02 0.24788415354E+02 0.17911563837E+02
 0.13731378567E+02 0.11101306390E+02 0.95143700955E+01 0.85924117120E+01 0.81023283262E+01
 0.77985049210E+01 0.75500589296E+01 0.74388627526E+01 0.75500589296E+01 0.77985049210E+01
 0.81023283262E+01 0.85924117120E+01 0.95143700955E+01 0.11101306390E+02 0.13731378567E+02
 0.17911563837E+02 0.24788415354E+02 0.45619697780E+02 0.94070655569E+02 0.17432846744E+03
 0.27759815291E+03 0.38280935318E+03 0.46226791396E+03 0.31756569752E+03 0.29750945381E+03
 0.24409972459E+03 0.17432846744E+03 0.10770480450E+03 0.58536599312E+02 0.31444917336E+02
 0.21022454257E+02 0.16250720576E+02 0.12941583605E+02 0.10912721612E+02 0.97020105880E+01
 0.89902337622E+01 0.85924117120E+01 0.83447356187E+01 0.81621159218E+01 0.80857577046E+01
 0.81621159218E+01 0.83447356187E+01 0.85924117120E+01 0.89902337622E+01 0.97020105880E+01
 0.10912721612E+02 0.12941583605E+02 0.16250720576E+02 0.21022454257E+02 0.31444917336E+02
 0.58536599312E+02 0.10770480450E+03 0.17432846744E+03 0.24409972459E+03 0.29750945381E+03
 0.17588064876E+03 0.16415154407E+03 0.13328672293E+03 0.94070655569E+02 0.58536599312E+02
 0.34624701882E+02 0.23151206856E+02 0.18217516462E+02 0.14651003533E+02 0.12292182387E+02
 0.10901394328E+02 0.10117604437E+02 0.97020105880E+01 0.95143700955E+01 0.94386615440E+01
 0.93985926323E+01 0.93823031437E+01 0.93985926323E+01 0.94386615440E+01 0.95143700955E+01
 0.97020105880E+01 0.10117604437E+02 0.10901394328E+02 0.12292182387E+02 0.14651003533E+02
 0.18217516462E+02 0.23151206856E+02 0.34624701882E+02 0.58536599312E+02 0.94070655569E+02
 0.13328672293E+03 0.16415154407E+03 0.82663298023E+02 0.77107033810E+02 0.62825922965E+02
 0.45619697780E+02 0.31444917336E+02 0.23151206856E+02 0.18951431531E+02 0.15706565671E+02
 0.13361343396E+02 0.11926815595E+02 0.11185370436E+02 0.10901394328E+02 0.10912721612E+02
 0.11101306390E+02 0.11350022646E+02 0.11548668277E+02 0.11623144393E+02 0.11548668277E+02
 0.11350022646E+02 0.11101306390E+02 0.10912721612E+02 0.10901394328E+02 0.11185370436E+02
 0.11926815595E+02 0.13361343396E+02 0.15706565671E+02 0.18951431531E+02 0.23151206856E+02
 0.31444917336E+02 0.45619697780E+02 0.62825922965E+02 0.77107033810E+02 0.36196406683E+02
 0.34349246956E+02 0.29802799187E+02 0.24788415354E+02 0.21022454257E+02 0.18217516462E+02
 0.15706565671E+02 0.13772138327E+02 0.12541716396E+02 0.11967757077E+02 0.11926815595E+02
 0.12292182387E+02 0.12941583605E+02 0.13731378567E+02 0.14487282730E+02 0.15031340715E+02
 0.15229321786E+02 0.15031340715E+02 0.14487282730E+02 0.13731378567E+02 0.12941583605E+02
 0.12292182387E+02 0.11926815595E+02 0.11967757077E+02 0.12541716396E+02 0.13772138327E+02
 0.15706565671E+02 0.18217516462E+02 0.21022454257E+02 0.24788415354E+02 0.29802799187E+02
 0.34349246956E+02 0.20761058766E+02 0.20368133543E+02 0.19349425640E+02 0.17911563837E+02
 0.16250720576E+02 0.14651003533E+02 0.13361343396E+02 0.12541716396E+02 0.12262927877E+02
 0.12541716396E+02 0.13361343396E+02 0.14651003533E+02 0.16250720576E+02 0.17911563837E+02
 0.19349425640E+02 0.20368133543E+02 0.20761058766E+02 0.20368133543E+02 0.19349425640E+02
 0.17911563837E+02 0.16250720576E+02 0.14651003533E+02 0.13361343396E+02 0.12541716396E+02
 0.12262927877E+02 0.12541716396E+02 0.13361343396E+02 0.14651003533E+02 0.16250720576E+02
 0.17911563837E+02 0.19349425640E+02 0.20368133543E+02 0.15229321786E+02 0.15031340715E+02
 0.14487282730E+02 0.13731378567E+02 0.12941583605E+02 0.12292182387E+02 0.11926815595E+02
 0.11967757077E+02 0.12541716396E+02 0.13772138327E+02 0.15706565671E+02 0.18217516462E+02
 0.21022454257E+02 0.24788415354E+02 0.29802799187E+02 0.34349246956E+02 0.36196406683E+02
 0.34349246956E+02 0.29802799187E+02 0.24788415354E+02 0.21022454257E+02 0.18217516462E+02
 0.15706565671E+02 0.13772138327E+02 0.12541716396E+02 0.11967757077E+02 0.11926815595E+02
 0.12292182387E+02 0.12941583605E+02 0.13731378567E+02 0.14487282730E+02 0.15031340715E+02
 0.11623144393E+02 0.11548668277E+02 0.11350022646E+02 0.11101306390E+02 0.10912721612E+02
 0.10901394328E+02 0.11185370436E+02 0.11926815595E+02 0.13361343396E+02 0.15706565671E+02
 0.18951431531E+02 0.23151206856E+02 0.31444917336E+02 0.45619697780E+02 0.62825922965E+02
 0.77107033810E+02 0.82663298023E+02 0.77107033810E+02 0.62825922965E+02 0.45619697780E+02
 0.31444917336E+02 0.23151206856E+02 0.18951431531E+02 0.15706565671E+02 0.13361343396E+02
 0.11926815595E+02 0.11185370436E+02 0.10901394328E+02 0.10912721612E+02 0.11101306390E+02
 0.11350022646E+02 0.11548668277E+02 0.93823031437E+01 0.93985926323E+01 0.94386615440E+01
 0.95143700955E+01 0.97020105880E+01 0.10117604437E+02 0.10901394328E+02 0.12292182387E+02
 0.14651003533E+02 0.18217516462E+02 0.23151206856E+02 0.34624701882E+02 0.58536599312E+02
 0.94070655569E+02 0.13328672293E+03 0.16415154407E+03 0.17588064876E+03 0.16415154407E+03
 0.13328672293E+03 0.94070655569E+02 0.58536599312E+02 0.34624701882E+02 0.23151206856E+02
 0.18217516462E+02 0.14651003533E+02 0.12292182387E+02 0.10901394328E+02 0.10117604437E+02
 0.97020105880E+01 0.95143700955E+01 0.94386615440E+01 0.93985926323E+01 0.80857577046E+01
 0.81621159218E+01 0.83447356187E+01 0.85924117120E+01 0.89902337622E+01 0.97020105880E+01
 0.10912721612E+02 0.12941583605E+02 0.16250720576E+02 0.21022454257E+02 0.31444917336E+02
 0.58536599312E+02 0.10770480450E+03 0.17432846744E+03 0.24409972459E+03 0.29750945381E+03
 0.31756569752E+03 0.29750945381E+03 0.24409972459E+03 0.17432846744E+03 0.10770480450E+03
 0.58536599312E+02 0.31444917336E+02 0.21022454257E+02 0.16250720576E+02 0.12941583605E+02
 0.10912721612E+02 0.97020105880E+01 0.89902337622E+01 0.85924117120E+01 0.83447356187E+01
 0.81621159218E+01 0.74388627526E+01 0.75500589296E+01 0.77985049210E+01 0.81023283262E+01
 0.85924117120E+01 0.95143700955E+01 0.11101306390E+02 0.13731378567E+02 0.17911563837E+02
 0.24788415354E+02 0.45619697780E+02 0.94070655569E+02 0.17432846744E+03 0.27759815291E+03
 0.38280935318E+03 0.46226791396E+03 0.49194592048E+03 0.46226791396E+03 0.38280935318E+03
 0.27759815291E+03 0.17432846744E+03 0.94070655569E+02 0.45619697780E+02 0.24788415354E+02
 0.17911563837E+02 0.13731378567E+02 0.11101306390E+02 0.95143700955E+01 0.85924117120E+01
 0.81023283262E+01 0.77985049210E+01 0.75500589296E+01 0.70386322670E+01 0.71775848834E+01
 0.74706597091E+01 0.77985049210E+01 0.83447356187E+01 0.94386615440E+01 0.11350022646E+02
 0.14487282730E+02 0.19349425640E+02 0.29802799187E+02 0.62825922965E+02 0.13328672293E+03
 0.24409972459E+03 0.38280935318E+03 0.52225503059E+03 0.62698088235E+03 0.66602419549E+03
 0.62698088235E+03 0.52225503059E+03 0.38280935318E+03 0.24409972459E+03 0.13328672293E+03
 0.62825922965E+02 0.29802799187E+02 0.19349425640E+02 0.14487282730E+02 0.11350022646E+02
 0.94386615440E+01 0.83447356187E+01 0.77985049210E+01 0.74706597091E+01 0.71775848834E+01
 0.66613293888E+01 0.68295047255E+01 0.71775848834E+01 0.75500589296E+01 0.81621159218E+01
 0.93985926323E+01 0.11548668277E+02 0.15031340715E+02 0.20368133543E+02 0.34349246956E+02
 0.77107033810E+02 0.16415154407E+03 0.29750945381E+03 0.46226791396E+03 0.62698088235E+03
 0.75046452554E+03 0.79648627486E+03 0.75046452554E+03 0.62698088235E+03 0.46226791396E+03
 0.29750945381E+03 0.16415154407E+03 0.77107033810E+02 0.34349246956E+02 0.20368133543E+02
 0.15031340715E+02 0.11548668277E+02 0.93985926323E+01 0.81621159218E+01 0.75500589296E+01
 0.71775848834E+01 0.68295047255E+01 0.64789333357E+01 0.66613293888E+01 0.70386322670E+01
 0.74388627526E+01 0.80857577046E+01 0.93823031437E+01 0.11623144393E+02 0.15229321786E+02
 0.20761058766E+02 0.36196406683E+02 0.82663298023E+02 0.17588064876E+03 0.31756569752E+03
 0.49194592048E+03 0.66602419549E+03 0.79648627486E+03 0.84510993652E+03 0.79648627486E+03
 0.66602419549E+03 0.49194592048E+03 0.31756569752E+03 0.17588064876E+03 0.82663298023E+02
 0.36196406683E+02 0.20761058766E+02 0.15229321786E+02 0.11623144393E+02 0.93823031437E+01
 0.80857577046E+01 0.74388627526E+01 0.70386322670E+01 0.66613293888E+01 0.66613293888E+01
 0.68295047255E+01 0.71775848834E+01 0.75500589296E+01 0.81621159218E+01 0.93985926323E+01
 0.11548668277E+02 0.15031340715E+02 0.20368133543E+02 0.34349246956E+02 0.77107033810E+02
 0.16415154407E+03 0.29750945381E+03 0.46226791396E+03 0.62698088235E+03 0.75046452554E+03
 0.79648627486E+03 0.75046452554E+03 0.62698088235E+03 0.46226791396E+03 0.29750945381E+03
 0.16415154407E+03 0.77107033810E+02 0.34349246956E+02 0.20368133543E+02 0.15031340715E+02
 0.11548668277E+02 0.93985926323E+01 0.81621159218E+01 0.75500589296E+01 0.71775848834E+01
 0.68295047255E+01 0.70386322670E+01 0.71775848834E+01 0.74706597091E+01 0.77985049210E+01
 0.83447356187E+01 0.94386615440E+01 0.11350022646E+02 0.14487282730E+02 0.19349425640E+02
 0.29802799187E+02 0.62825922965E+02 0.13328672293E+03 0.24409972459E+03 0.38280935318E+03
 0.52225503059E+03 0.62698088235E+03 0.66602419549E+03 0.62698088235E+03 0.52225503059E+03
 0.38280935318E+03 0.24409972459E+03 0.13328672293E+03 0.62825922965E+02 0.29802799187E+02
 0.19349425640E+02 0.14487282730E+02 0.11350022646E+02 0.94386615440E+01 0.83447356187E+01
 0.77985049210E+01 0.74706597091E+01 0.71775848834E+01 0.74388627526E+01 0.75500589296E+01
 0.77985049210E+01 0.81023283262E+01 0.85924117120E+01 0.95143700955E+01 0.11101306390E+02
 0.13731378567E+02 0.17911563837E+02 0.24788415354E+02 0.45619697780E+02 0.94070655569E+02
 0.17432846744E+03 0.27759815291E+03 0.38280935318E+03 0.46226791396E+03 0.49194592048E+03
 0.46226791396E+03 0.38280935318E+03 0.27759815291E+03 0.17432846744E+03 0.94070655569E+02
 0.45619697780E+02 0.24788415354E+02 0.17911563837E+02 0.13731378567E+02 0.11101306390E+02
 0.95143700955E+01 0.85924117120E+01 0.81023283262E+01 0.77985049210E+01 0.75500589296E+01
 0.80857577046E+01 0.81621159218E+01 0.83447356187E+01 0.85924117120E+01 0.89902337622E+01
 0.97020105880E+01 0.10912721612E+02 0.12941583605E+02 0.16250720576E+02 0.21022454257E+02
 0.31444917336E+02 0.58536599312E+02 0.10770480450E+03 0.17432846744E+03 0.24409972459E+03
 0.29750945381E+03 0.31756569752E+03 0.29750945381E+03 0.24409972459E+03 0.17432846744E+03
 0.10770480450E+03 0.58536599312E+02 0.31444917336E+02 0.21022454257E+02 0.16250720576E+02
 0.12941583605E+02 0.10912721612E+02 0.97020105880E+01 0.89902337622E+01 0.85924117120E+01
 0.83447356187E+01 0.81621159218E+01 0.93823031437E+01 0.93985926323E+01 0.94386615440E+01
 0.95143700955E+01 0.97020105880E+01 0.10117604437E+02 0.10901394328E+02 0.12292182387E+02
 0.14651003533E+02 0.18217516462E+02 0.23151206856E+02 0.34624701882E+02 0.58536599312E+02
 0.94070655569E+02 0.13328672293E+03 0.16415154407E+03 0.17588064876E+03 0.16415154407E+03
 0.13328672293E+03 0.94070655569E+02 0.58536599312E+02 0.34624701882E+02 0.23151206856E+02
 0.18217516462E+02 0.14651003533E+02 0.12292182387E+02 0.10901394328E+02 0.10117604437E+02
 0.97020105880E+01 0.95143700955E+01 0.94386615440E+01 0.93985926323E+01 0.11623144393E+02
 0.11548668277E+02 0.11350022646E+02 0.11101306390E+02 0.10912721612E+02 0.10901394328E+02
 0.11185370436E+02 0.11926815595E+02 0.13361343396E+02 0.15706565671E+02 0.18951431531E+02
 0.23151206856E+02 0.31444917336E+02 0.45619697780E+02 0.62825922965E+02 0.77107033810E+02
 0.82663298023E+02 0.77107033810E+02 0.62825922965E+02 0.45619697780E+02 0.31444917336E+02
 0.23151206856E+02 0.18951431531E+02 0.15706565671E+02 0.13361343396E+02 0.11926815595E+02
 0.11185370436E+02 0.10901394328E+02 0.10912721612E+02 0.11101306390E+02 0.11350022646E+02
 0.11548668277E+02 0.15229321786E+02 0.15031340715E+02 0.14487282730E+02 0.13731378567E+02
 0.12941583605E+02 0.12292182387E+02 0.11926815595E+02 0.11967757077E+02 0.12541716396E+02
 0.13772138327E+02 0.15706565671E+02 0.18217516462E+02 0.21022454257E+02 0.24788415354E+02
 0.29802799187E+02 0.34349246956E+02 0.36196406683E+02 0.34349246956E+02 0.29802799187E+02
 0.24788415354E+02 0.21022454257E+02 0.18217516462E+02 0.15706565671E+02 0.13772138327E+02
 0.12541716396E+02 0.11967757077E+02 0.11926815595E+02 0.12292182387E+02 0.12941583605E+02
 0.13731378567E+02 0.14487282730E+02 0.15031340715E+02 0.20761058766E+02 0.20368133543E+02
 0.19349425640E+02 0.17911563837E+02 0.16250720576E+02 0.14651003533E+02 0.13361343396E+02
 0.12541716396E+02 0.12262927877E+02 0.12541716396E+02 0.13361343396E+02 0.14651003533E+02
 0.16250720576E+02 0.17911563837E+02 0.19349425640E+02 0.20368133543E+02 0.20761058766E+02
 0.20368133543E+02 0.19349425640E+02 0.17911563837E+02 0.16250720576E+02 0.14651003533E+02
 0.13361343396E+02 0.12541716396E+02 0.12262927877E+02 0.12541716396E+02 0.13361343396E+02
 0.14651003533E+02 0.16250720576E+02 0.17911563837E+02 0.19349425640E+02 0.20368133543E+02
 0.36196406683E+02 0.34349246956E+02 0.29802799187E+02 0.24788415354E+02 0.21022454257E+02
 0.18217516462E+02 0.15706565671E+02 0.13772138327E+02 0.12541716396E+02 0.11967757077E+02
 0.11926815595E+02 0.12292182387E+02 0.12941583605E+02 0.13731378567E+02 0.14487282730E+02
 0.15031340715E+02 0.15229321786E+02 0.15031340715E+02 0.14487282730E+02 0.13731378567E+02
 0.12941583605E+02 0.12292182387E+02 0.11926815595E+02 0.11967757077E+02 0.12541716396E+02
 0.13772138327E+02 0.15706565671E+02 0.18217516462E+02 0.21022454257E+02 0.24788415354E+02
 0.29802799187E+02 0.34349246956E+02 0.82663298023E+02 0.77107033810E+02 0.62825922965E+02
 0.45619697780E+02 0.31444917336E+02 0.23151206856E+02 0.18951431531E+02 0.15706565671E+02
 0.13361343396E+02 0.11926815595E+02 0.11185370436E+02 0.10901394328E+02 0.10912721612E+02
 0.11101306390E+02 0.11350022646E+02 0.11548668277E+02 0.11623144393E+02 0.11548668277E+02
 0.11350022646E+02 0.11101306390E+02 0.10912721612E+02 0.10901394328E+02 0.11185370436E+02
 0.11926815595E+02 0.13361343396E+02 0.15706565671E+02 0.18951431531E+02 0.23151206856E+02
 0.31444917336E+02 0.45619697780E+02 0.62825922965E+02 0.77107033810E+02 0.17588064876E+03
 0.16415154407E+03 0.13328672293E+03 0.94070655569E+02 0.58536599312E+02 0.34624701882E+02
 0.23151206856E+02 0.18217516462E+02 0.14651003533E+02 0.12292182387E+02 0.10901394328E+02
 0.10117604437E+02 0.97020105880E+01 0.95143700955E+01 0.94386615440E+01 0.93985926323E+01
 0.93823031437E+01 0.93985926323E+01 0.94386615440E+01 0.95143700955E+01 0.97020105880E+01
 0.10117604437E+02 0.10901394328E+02 0.12292182387E+02 0.14651003533E+02 0.18217516462E+02
 0.23151206856E+02 0.34624701882E+02 0.58536599312E+02 0.94070655569E+02 0.13328672293E+03
 0.16415154407E+03 0.31756569752E+03 0.29750945381E+03 0.24409972459E+03 0.17432846744E+03
 0.10770480450E+03 0.58536599312E+02 0.31444917336E+02 0.21022454257E+02 0.16250720576E+02
 0.12941583605E+02 0.10912721612E+02 0.97020105880E+01 0.89902337622E+01 0.85924117120E+01
 0.83447356187E+01 0.81621159218E+01 0.80857577046E+01 0.81621159218E+01 0.83447356187E+01
 0.85924117120E+01 0.89902337622E+01 0.97020105880E+01 0.10912721612E+02 0.12941583605E+02
 0.16250720576E+02 0.21022454257E+02 0.31444917336E+02 0.58536599312E+02 0.10770480450E+03
 0.17432846744E+03 0.24409972459E+03 0.29750945381E+03 0.49194592048E+03 0.46226791396E+03
 0.38280935318E+03 0.27759815291E+03 0.17432846744E+03 0.94070655569E+02 0.45619697780E+02
 0.24788415354E+02 0.17911563837E+02 0.13731378567E+02 0.11101306390E+02 0.95143700955E+01
 0.85924117120E+01 0.81023283262E+01 0.77985049210E+01 0.75500589296E+01 0.74388627526E+01
 0.75500589296E+01 0.77985049210E+01 0.81023283262E+01 0.85924117120E+01 0.95143700955E+01
 0.11101306390E+02 0.13731378567E+02 0.17911563837E+02 0.24788415354E+02 0.45619697780E+02
 0.94070655569E+02 0.17432846744E+03 0.27759815291E+03 0.38280935318E+03 0.46226791396E+03
 0.66602419549E+03 0.62698088235E+03 0.52225503059E+03 0.38280935318E+03 0.24409972459E+03
 0.13328672293E+03 0.62825922965E+02 0.29802799187E+02 0.19349425640E+02 0.14487282730E+02
 0.11350022646E+02 0.94386615440E+01 0.83447356187E+01 0.77985049210E+01 0.74706597091E+01
 0.71775848834E+01 0.70386322670E+01 0.71775848834E+01 0.74706597091E+01 0.77985049210E+01
 0.83447356187E+01 0.94386615440E+01 0.11350022646E+02 0.14487282730E+02 0.19349425640E+02
 0.29802799187E+02 0.62825922965E+02 0.13328672293E+03 0.24409972459E+03 0.38280935318E+03
 0.52225503059E+03 0.62698088235E+03 0.79648627486E+03 0.75046452554E+03 0.62698088235E+03
 0.46226791396E+03 0.29750945381E+03 0.16415154407E+03 0.77107033810E+02 0.34349246956E+02
 0.20368133543E+02 0.15031340715E+02 0.11548668277E+02 0.93985926323E+01 0.81621159218E+01
 0.75500589296E+01 0.71775848834E+01 0.68295047255E+01 0.66613293888E+01 0.68295047255E+01
 0.71775848834E+01 0.75500589296E+01 0.81621159218E+01 0.93985926323E+01 0.11548668277E+02
 0.15031340715E+02 0.20368133543E+02 0.34349246956E+02 0.77107033810E+02 0.16415154407E+03
 0.29750945381E+03 0.46226791396E+03 0.62698088235E+03 0.75046452554E+03 0.79648627486E+03
 0.75046452554E+03 0.62698088235E+03 0.46226791396E+03 0.29750945381E+03 0.16415154407E+03
 0.77107033810E+02 0.34349246956E+02 0.20368133543E+02 0.15031340715E+02 0.11548668277E+02
 0.93985926323E+01 0.81621159218E+01 0.75500589296E+01 0.71775848834E+01 0.68295047255E+01
 0.66613293888E+01 0.68295047255E+01 0.71775848834E+01 0.75500589296E+01 0.81621159218E+01
 0.93985926323E+01 0.11548668277E+02 0.15031340715E+02 0.20368133543E+02 0.34349246956E+02
 0.77107033810E+02 0.16415154407E+03 0.29750945381E+03 0.46226791396E+03 0.62698088235E+03
 0.75046452554E+03 0.75046452554E+03 0.70690596132E+03 0.59003572373E+03 0.43421386013E+03
 0.27860420307E+03 0.15316230365E+03 0.71961564018E+02 0.32673815065E+02 0.20002183152E+02
 0.14838027196E+02 0.11475237718E+02 0.94118680561E+01 0.82320455243E+01 0.76523763557E+01
 0.73054856030E+01 0.69844675983E+01 0.68295047255E+01 0.69844675983E+01 0.73054856030E+01
 0.76523763557E+01 0.82320455243E+01 0.94118680561E+01 0.11475237718E+02 0.14838027196E+02
 0.20002183152E+02 0.32673815065E+02 0.71961564018E+02 0.15316230365E+03 0.27860420307E+03
 0.43421386013E+03 0.59003572373E+03 0.70690596132E+03 0.62698088235E+03 0.59003572373E+03
 0.49095905919E+03 0.35914189868E+03 0.22830717516E+03 0.12428955187E+03 0.58769674151E+02
 0.28563025643E+02 0.19030359790E+02 0.14307711530E+02 0.11280217574E+02 0.94453729647E+01
 0.84004197283E+01 0.78819500004E+01 0.75758260137E+01 0.73054856030E+01 0.71775848834E+01
 0.73054856030E+01 0.75758260137E+01 0.78819500004E+01 0.84004197283E+01 0.94453729647E+01
 0.11280217574E+02 0.14307711530E+02 0.19030359790E+02 0.28563025643E+02 0.58769674151E+02
 0.12428955187E+03 0.22830717516E+03 0.35914189868E+03 0.49095905919E+03 0.59003572373E+03
 0.46226791396E+03 0.43421386013E+03 0.35914189868E+03 0.25987952113E+03 0.16275318370E+03
 0.87736797668E+02 0.42965129907E+02 0.24048473656E+02 0.17623554304E+02 0.13573074898E+02
 0.11037509033E+02 0.95140063901E+01 0.86326071205E+01 0.81666409018E+01 0.78819500004E+01
 0.76523763557E+01 0.75500589296E+01 0.76523763557E+01 0.78819500004E+01 0.81666409018E+01
 0.86326071205E+01 0.95140063901E+01 0.11037509033E+02 0.13573074898E+02 0.17623554304E+02
 0.24048473656E+02 0.42965129907E+02 0.87736797668E+02 0.16275318370E+03 0.25987952113E+03
 0.35914189868E+03 0.43421386013E+03 0.29750945381E+03 0.27860420307E+03 0.22830717516E+03
 0.16275318370E+03 0.10044099944E+03 0.54838959595E+02 0.30068609793E+02 0.20621159378E+02
 0.16005913987E+02 0.12808165246E+02 0.10854348897E+02 0.96920073409E+01 0.90110966851E+01
 0.86326071205E+01 0.84004197283E+01 0.82320455243E+01 0.81621159218E+01 0.82320455243E+01
 0.84004197283E+01 0.86326071205E+01 0.90110966851E+01 0.96920073409E+01 0.10854348897E+02
 0.12808165246E+02 0.16005913987E+02 0.20621159378E+02 0.30068609793E+02 0.54838959595E+02
 0.10044099944E+03 0.16275318370E+03 0.22830717516E+03 0.27860420307E+03 0.16415154407E+03
 0.15316230365E+03 0.12428955187E+03 0.87736797668E+02 0.54838959595E+02 0.32955041532E+02
 0.22586705912E+02 0.17909087667E+02 0.14455364779E+02 0.12181394954E+02 0.10843040435E+02
 0.10090055637E+02 0.96920073409E+01 0.95140063901E+01 0.94453729647E+01 0.94118680561E+01
 0.93985926323E+01 0.94118680561E+01 0.94453729647E+01 0.95140063901E+01 0.96920073409E+01
 0.10090055637E+02 0.10843040435E+02 0.12181394954E+02 0.14455364779E+02 0.17909087667E+02
 0.22586705912E+02 0.32955041532E+02 0.54838959595E+02 0.87736797668E+02 0.12428955187E+03
 0.15316230365E+03 0.77107033810E+02 0.71961564018E+02 0.58769674151E+02 0.42965129907E+02
 0.30068609793E+02 0.22586705912E+02 0.18620492881E+02 0.15472816234E+02 0.13210531640E+02
 0.11829972468E+02 0.11116459628E+02 0.10843040435E+02 0.10854348897E+02 0.11037509033E+02
 0.11280217574E+02 0.11475237718E+02 0.11548668277E+02 0.11475237718E+02 0.11280217574E+02
 0.11037509033E+02 0.10854348897E+02 0.10843040435E+02 0.11116459628E+02 0.11829972468E+02
 0.13210531640E+02 0.15472816234E+02 0.18620492881E+02 0.22586705912E+02 0.30068609793E+02
 0.42965129907E+02 0.58769674151E+02 0.71961564018E+02 0.34349246956E+02 0.32673815065E+02
 0.28563025643E+02 0.24048473656E+02 0.20621159378E+02 0.17909087667E+02 0.15472816234E+02
 0.13605747373E+02 0.12421803015E+02 0.11869863035E+02 0.11829972468E+02 0.12181394954E+02
 0.12808165246E+02 0.13573074898E+02 0.14307711530E+02 0.14838027196E+02 0.15031340715E+02
 0.14838027196E+02 0.14307711530E+02 0.13573074898E+02 0.12808165246E+02 0.12181394954E+02
 0.11829972468E+02 0.11869863035E+02 0.12421803015E+02 0.13605747373E+02 0.15472816234E+02
 0.17909087667E+02 0.20621159378E+02 0.24048473656E+02 0.28563025643E+02 0.32673815065E+02
 0.20368133543E+02 0.20002183152E+02 0.19030359790E+02 0.17623554304E+02 0.16005913987E+02
 0.14455364779E+02 0.13210531640E+02 0.12421803015E+02 0.12153960248E+02 0.12421803015E+02
 0.13210531640E+02 0.14455364779E+02 0.16005913987E+02 0.17623554304E+02 0.19030359790E+02
 0.20002183152E+02 0.20368133543E+02 0.20002183152E+02 0.19030359790E+02 0.17623554304E+02
 0.16005913987E+02 0.14455364779E+02 0.13210531640E+02 0.12421803015E+02 0.12153960248E+02
 0.12421803015E+02 0.13210531640E+02 0.14455364779E+02 0.16005913987E+02 0.17623554304E+02
 0.19030359790E+02 0.20002183152E+02 0.15031340715E+02 0.14838027196E+02 0.14307711530E+02
 0.13573074898E+02 0.12808165246E+02 0.12181394954E+02 0.11829972468E+02 0.11869863035E+02
 0.12421803015E+02 0.13605747373E+02 0.15472816234E+02 0.17909087667E+02 0.20621159378E+02
 0.24048473656E+02 0.28563025643E+02 0.32673815065E+02 0.34349246956E+02 0.32673815065E+02
 0.28563025643E+02 0.24048473656E+02 0.20621159378E+02 0.17909087667E+02 0.15472816234E+02
 0.13605747373E+02 0.12421803015E+02 0.11869863035E+02 0.11829972468E+02 0.12181394954E+02
 0.12808165246E+02 0.13573074898E+02 0.14307711530E+02 0.14838027196E+02 0.11548668277E+02
 0.11475237718E+02 0.11280217574E+02 0.11037509033E+02 0.10854348897E+02 0.10843040435E+02
 0.11116459628E+02 0.11829972468E+02 0.13210531640E+02 0.15472816234E+02 0.18620492881E+02
 0.22586705912E+02 0.30068609793E+02 0.42965129907E+02 0.58769674151E+02 0.71961564018E+02
 0.77107033810E+02 0.71961564018E+02 0.58769674151E+02 0.42965129907E+02 0.30068609793E+02
 0.22586705912E+02 0.18620492881E+02 0.15472816234E+02 0.13210531640E+02 0.11829972468E+02
 0.11116459628E+02 0.10843040435E+02 0.10854348897E+02 0.11037509033E+02 0.11280217574E+02
 0.11475237718E+02 0.93985926323E+01 0.94118680561E+01 0.94453729647E+01 0.95140063901E+01
 0.96920073409E+01 0.10090055637E+02 0.10843040435E+02 0.12181394954E+02 0.14455364779E+02
 0.17909087667E+02 0.22586705912E+02 0.32955041532E+02 0.54838959595E+02 0.87736797668E+02
 0.12428955187E+03 0.15316230365E+03 0.16415154407E+03 0.15316230365E+03 0.12428955187E+03
 0.87736797668E+02 0.54838959595E+02 0.32955041532E+02 0.22586705912E+02 0.17909087667E+02
 0.14455364779E+02 0.12181394954E+02 0.10843040435E+02 0.10090055637E+02 0.96920073409E+01
 0.95140063901E+01 0.94453729647E+01 0.94118680561E+01 0.81621159218E+01 0.82320455243E+01
 0.84004197283E+01 0.86326071205E+01 0.90110966851E+01 0.96920073409E+01 0.10854348897E+02
 0.12808165246E+02 0.16005913987E+02 0.20621159378E+02 0.30068609793E+02 0.54838959595E+02
 0.10044099944E+03 0.16275318370E+03 0.22830717516E+03 0.27860420307E+03 0.29750945381E+03
 0.27860420307E+03 0.22830717516E+03 0.16275318370E+03 0.10044099944E+03 0.54838959595E+02
 0.30068609793E+02 0.20621159378E+02 0.16005913987E+02 0.12808165246E+02 0.10854348897E+02
 0.96920073409E+01 0.90110966851E+01 0.86326071205E+01 0.84004197283E+01 0.82320455243E+01
 0.75500589296E+01 0.76523763557E+01 0.78819500004E+01 0.81666409018E+01 0.86326071205E+01
 0.95140063901E+01 0.11037509033E+02 0.13573074898E+02 0.17623554304E+02 0.24048473656E+02
 0.42965129907E+02 0.87736797668E+02 0.16275318370E+03 0.25987952113E+03 0.35914189868E+03
 0.43421386013E+03 0.46226791396E+03 0.43421386013E+03 0.35914189868E+03 0.25987952113E+03
 0.16275318370E+03 0.87736797668E+02 0.42965129907E+02 0.24048473656E+02 0.17623554304E+02
 0.13573074898E+02 0.11037509033E+02 0.95140063901E+01 0.86326071205E+01 0.81666409018E+01
 0.78819500004E+01 0.76523763557E+01 0.71775848834E+01 0.73054856030E+01 0.75758260137E+01
 0.78819500004E+01 0.84004197283E+01 0.94453729647E+01 0.11280217574E+02 0.14307711530E+02
 0.19030359790E+02 0.28563025643E+02 0.58769674151E+02 0.12428955187E+03 0.22830717516E+03
 0.35914189868E+03 0.49095905919E+03 0.59003572373E+03 0.62698088235E+03 0.59003572373E+03
 0.49095905919E+03 0.35914189868E+03 0.22830717516E+03 0.12428955187E+03 0.58769674151E+02
 0.28563025643E+02 0.19030359790E+02 0.14307711530E+02 0.11280217574E+02 0.94453729647E+01
 0.84004197283E+01 0.78819500004E+01 0.75758260137E+01 0.73054856030E+01 0.68295047255E+01
 0.69844675983E+01 0.73054856030E+01 0.76523763557E+01 0.82320455243E+01 0.94118680561E+01
 0.11475237718E+02 0.14838027196E+02 0.20002183152E+02 0.32673815065E+02 0.71961564018E+02
 0.15316230365E+03 0.27860420307E+03 0.43421386013E+03 0.59003572373E+03 0.70690596132E+03
 0.75046452554E+03 0.70690596132E+03 0.59003572373E+03 0.43421386013E+03 0.27860420307E+03
 0.15316230365E+03 0.71961564018E+02 0.32673815065E+02 0.20002183152E+02 0.14838027196E+02
 0.11475237718E+02 0.94118680561E+01 0.82320455243E+01 0.76523763557E+01 0.73054856030E+01
 0.69844675983E+01 0.66613293888E+01 0.68295047255E+01 0.71775848834E+01 0.75500589296E+01
 0.81621159218E+01 0.93985926323E+01 0.11548668277E+02 0.15031340715E+02 0.20368133543E+02
 0.34349246956E+02 0.77107033810E+02 0.16415154407E+03 0.29750945381E+03 0.46226791396E+03
 0.62698088235E+03 0.75046452554E+03 0.79648627486E+03 0.75046452554E+03 0.62698088235E+03
 0.46226791396E+03 0.29750945381E+03 0.16415154407E+03 0.77107033810E+02 0.34349246956E+02
 0.20368133543E+02 0.15031340715E+02 0.11548668277E+02 0.93985926323E+01 0.81621159218E+01
 0.75500589296E+01 0.71775848834E+01 0.68295047255E+01 0.68295047255E+01 0.69844675983E+01
 0.73054856030E+01 0.76523763557E+01 0.82320455243E+01 0.94118680561E+01 0.11475237718E+02
 0.14838027196E+02 0.20002183152E+02 0.32673815065E+02 0.71961564018E+02 0.15316230365E+03
 0.27860420307E+03 0.43421386013E+03 0.59003572373E+03 0.70690596132E+03 0.75046452554E+03
 0.70690596132E+03 0.59003572373E+03 0.43421386013E+03 0.27860420307E+03 0.15316230365E+03
 0.71961564018E+02 0.32673815065E+02 0.20002183152E+02 0.14838027196E+02 0.11475237718E+02
 0.94118680561E+01 0.82320455243E+01 0.76523763557E+01 0.73054856030E+01 0.69844675983E+01
 0.71775848834E+01 0.73054856030E+01 0.75758260137E+01 0.78819500004E+01 0.84004197283E+01
 0.94453729647E+01 0.11280217574E+02 0.14307711530E+02 0.19030359790E+02 0.28563025643E+02
 0.58769674151E+02 0.12428955187E+03 0.22830717516E+03 0.35914189868E+03 0.49095905919E+03
 0.59003572373E+03 0.62698088235E+03 0.59003572373E+03 0.49095905919E+03 0.35914189868E+03
 0.22830717516E+03 0.12428955187E+03 0.58769674151E+02 0.28563025643E+02 0.19030359790E+02