unknown system                          
   1.00000000000000     
     2.330000    0.000000    0.000000
    -1.165000    2.017839    0.000000
     0.000000    0.000000    4.100000
   Fe
     2
Direct
  0.000000  0.000000  0.000000
  0.333333  0.666667  0.500000
 
   16   16   32
  160.22      147.57      115.13      75.802      42.288      21.167      11.769      8.8954      7.9870      8.8973    
  11.771      21.168      42.287      75.801      115.13      147.57      147.63      147.57      125.07      89.620    
  54.200      28.330      14.608      9.7000      8.0956      8.1111      9.7238      14.607      28.317      54.233    
  89.730      125.21      115.22      125.12      115.13      89.624      58.883      33.029      17.211      10.548    
  8.3809      7.5811      8.4050      10.555      17.180      32.998      58.914      89.718      75.765      89.574    
  89.590      75.810      54.202      33.026      18.268      11.148      8.6718      7.4023      7.4073      8.6778    
  11.137      18.229      32.966      54.140      42.172      54.015      58.718      54.110      42.289      28.323    
  17.208      11.150      8.7946      7.4152      6.8703      7.4064      8.8000      11.173      17.210      28.260    
  21.161      28.205      32.835      32.864      28.254      21.162      14.606      10.553      8.6749      7.4146    
  6.7177      6.7031      7.3997      8.7073      10.631      14.671      11.856      14.672      17.182      18.178    
  17.148      14.606      11.771      9.7046      8.3827      7.4000      6.8679      6.7027      6.8400      7.3794    
  8.4050      9.7725      8.8830      9.7937      10.663      11.202      11.169      10.595      9.7506      8.8974    
  8.0931      7.5770      7.4060      7.4070      7.4009      7.3805      7.5266      8.0399      7.8779      8.0678    
  8.4600      8.7807      8.8803      8.7561      8.4644      8.1383      7.9827      8.1074      8.4072      8.6816    
  8.8004      8.7079      8.4053      8.0386      8.8809      8.0688      7.5923      7.4785      7.5166      7.5210    
  7.5010      7.6418      8.1239      8.8973      9.7273      10.561      11.135      11.170      10.632      9.7714    
  11.853      9.7943      8.4636      7.4783      6.9694      6.8423      6.9943      7.4953      8.4400      9.7277    
  11.771      14.608      17.177      18.223      17.211      14.674      21.160      14.669      10.666      8.7814    
  7.5120      6.8415      6.8573      7.5291      8.7497      10.587      14.604      21.162      28.317      32.996    
  32.966      28.266      42.174      28.199      17.182      11.206      8.8762      7.5184      6.9993      7.5311    
  8.8749      11.183      17.178      28.260      42.290      54.239      58.913      54.143      75.766      54.012    
  32.833      18.183      11.170      8.7519      7.5055      7.5000      8.7448      11.180      18.222      32.893    
  54.074      75.811      89.729      89.713      115.22      89.579      58.716      32.865      17.152      10.591    
  8.4636      7.6464      8.4356      10.580      17.182      32.897      58.687      89.485      115.13      125.20    
  147.63      125.13      89.591      54.105      28.256      14.606      9.7461      8.1400      8.1246      9.7226    
  14.607      28.269      54.072      89.481      125.00      147.57      150.03      138.21      107.87      71.035    
  39.667      20.001      11.374      8.7297      7.8540      8.7315      11.376      20.002      39.666      71.034    
  107.86      138.21      138.26      138.21      117.16      83.962      50.783      26.622      13.937      9.4695    
  7.9388      7.9537      9.4928      13.937      26.611      50.813      84.061      117.28      107.94      117.22    
  107.86      83.966      55.159      30.983      16.307      10.224      8.1998      7.4331      8.2227      10.231    
  16.279      30.955      55.185      84.050      71.002      83.953      83.968      71.043      50.786      30.980    
  17.274      10.756      8.4720      7.2550      7.2592      8.4770      10.746      17.238      30.926      50.729    
  39.563      50.665      55.077      50.751      39.668      26.616      16.303      10.758      8.5878      7.2636    
  6.7468      7.2542      8.5910      10.778      16.306      26.559      19.997      26.564      30.897      30.922    
  26.607      19.996      13.935      10.228      8.4751      7.2630      6.6024      6.5888      7.2488      8.5038    
  10.299      13.993      11.452      14.046      16.372      17.299      16.342      13.986      11.377      9.4739    
  8.2016      7.2528      6.7445      6.5885      6.7201      7.2353      8.2227      9.5356      8.7178      9.6014    
  10.414      10.915      10.886      10.354      9.5640      8.7317      7.9365      7.4293      7.2580      7.2548    
  7.2499      7.2363      7.3850      7.8888      7.7547      7.9593      8.3565      8.6805      8.7833      8.6583    
  8.3607      8.0235      7.8500      7.9502      8.2248      8.4805      8.5914      8.5044      8.2229      7.8876    
  8.7159      7.9603      7.5283      7.4366      7.4806      7.4839      7.4552      7.5715      8.0098      8.7316    
  9.4961      10.236      10.744      10.775      10.299      9.5345      11.450      9.6021      8.3599      7.4363    
  6.9656      6.8489      6.9870      7.4503      8.3375      9.5415      11.377      13.938      16.277      17.232    
  16.307      13.997      19.996      14.043      10.417      8.6812      7.4762      6.8481      6.8628      7.4925    
  8.6532      10.346      13.983      19.997      26.610      30.953      30.926      26.566      39.564      26.558    
  16.372      10.918      8.7793      7.4813      6.9918      7.4944      8.7803      10.899      16.368      26.612    
  39.668      50.818      55.185      50.732      71.003      50.663      30.894      17.304      10.886      8.6543    
  7.4595      7.4548      8.6485      10.896      17.339      30.949      50.719      71.044      84.060      84.045    
  107.94      83.958      55.075      30.924      16.346      10.351      8.3599      7.5759      8.3333      10.339    
  16.372      30.953      55.051      83.874      107.86      117.27      138.26      117.23      83.969      50.746    
  26.609      13.987      9.5598      8.0252      8.0104      9.5367      13.986      26.621      50.716      83.870    
  117.11      138.21      123.16      113.50      88.652      58.428      32.780      17.003      10.383      8.2711    
  7.4901      8.2725      10.385      17.004      32.780      58.427      88.651      113.50      113.54      113.50    
  96.257      68.994      41.777      22.185      12.241      8.8713      7.5175      7.5304      8.8928      12.245    
  22.177      41.796      69.064      96.345      88.706      96.337      88.651      68.998      45.331      25.644    
  14.005      9.4066      7.7126      7.0401      7.7321      9.4156      13.986      25.622      45.348      69.057    
  58.405      69.079      69.090      58.435      41.779      25.641      14.734      9.7752      7.9314      6.8626    
  6.8651      7.9336      9.7662      14.708      25.601      41.737      32.708      41.825      45.458      41.885    
  32.781      22.179      14.002      9.7767      8.0264      6.8577      6.4174      6.8475      8.0243      9.7888    
  14.004      22.141      17.001      22.290      25.821      25.839      22.319      16.999      12.240      9.4103    
  7.9341      6.8572      6.2936      6.2828      6.8450      7.9536      9.4619      12.284      10.439      12.456    
  14.295      15.037      14.275      12.415      10.385      8.8752      7.7143      6.8609      6.4155      6.2825    
  6.3996      6.8511      7.7321      8.9209      8.2607      9.0880      9.7697      10.174      10.154      9.7301    
  9.0650      8.2729      7.5157      7.0370      6.8642      6.8480      6.8459      6.8518      7.0081      7.4821    
  7.4161      7.6467      8.0413      8.3616      8.4680      8.3457      8.0450      7.6947      7.4868      7.5275    
  7.7340      7.9367      8.0245      7.9539      7.7322      7.4810      8.2591      7.6477      7.3215      7.2757    
  7.3278      7.3282      7.2847      7.3490      7.6827      8.2727      8.8957      9.4197      9.7647      9.7857    
  9.4624      8.9199      10.438      9.0888      8.0444      7.2755      6.8963      6.8032      6.9091      7.2818    
  8.0254      9.0442      10.385      12.246      13.984      14.703      14.005      12.287      17.001      12.454    
  9.7726      8.3622      7.3239      6.8025      6.8143      7.3382      8.3437      9.7203      12.408      16.999    
  22.177      25.620      25.602      22.146      32.709      22.285      14.295      10.177      8.4644      7.3259    
  6.9133      7.3398      8.4706      10.166      14.292      22.321      32.782      41.801      45.348      41.740    
  58.406      41.823      25.818      15.041      10.155      8.3422      7.2884      7.2857      8.3396      10.164    
  15.068      25.858      41.863      58.435      69.063      69.053      88.706      69.083      45.456      25.839    
  14.278      9.7274      8.0444      7.3527      8.0216      9.7147      14.295      25.862      45.440      69.024    
  88.651      96.337      113.54      96.344      69.090      41.881      22.321      12.415      9.0615      7.6960    
  7.6831      9.0399      12.411      22.329      41.861      69.020      96.257      113.50      88.581      81.669    
  63.845      42.198      24.079      13.390      9.2206      7.6252      6.9876      7.6261      9.2219      13.391    
  24.079      42.198      63.845      81.668      81.687      81.666      69.280      49.692      30.292      16.721    
  10.271      8.0771      6.9512      6.9611      8.0952      10.278      16.718      30.300      49.728      69.326    
  63.873      69.380      63.845      49.695      32.769      19.003      11.293      8.4237      7.0583      6.5235    
  7.0729      8.4335      11.285      18.990      32.775      49.724      42.187      49.879      49.885      42.203    
  30.293      19.001      11.725      8.6247      7.1998      6.3472      6.3478      7.1991      8.6180      11.710    
  18.979      30.270      24.044      30.523      33.123      30.553      24.079      16.716      11.290      8.6259    
  7.2637      6.3215      5.9848      6.3112      7.2564      8.6289      11.292      16.699      13.391      17.000    
  19.464      19.472      17.013      13.386      10.269      8.4266      7.2020      6.3213      5.8861      5.8790    
  6.3118      7.2106      8.4551      10.297      9.2500      10.590      11.816      12.319      11.807      10.570    
  9.2219      8.0801      7.0599      6.3462      5.9835      5.8788      5.9775      6.3448      7.0729      8.1062    
  7.6171      8.3721      8.9540      9.2642      9.2561      8.9383      8.3655      7.6267      6.9501      6.5213    
  6.3472      6.3116      6.3125      6.3453      6.5102      6.9332      6.9449      7.1858      7.5485      7.8416    
  7.9439      7.8333      7.5515      7.2136      6.9853      6.9591      7.0745      7.2014      7.2564      7.2107    
  7.0729      6.9323      7.6159      7.1866      6.9811      6.9766      7.0289      7.0263      6.9752      6.9905    
  7.2043      7.6264      8.0974      8.4366      8.6166      8.6263      8.4553      8.1053      9.2488      8.3728    
  7.5511      6.9765      6.7050      6.6381      6.7080      6.9746      7.5369      8.3478      9.2219      10.279    
  11.283      11.706      11.293      10.299      13.391      10.588      8.9564      7.8422      7.0258      6.6375    
  6.6455      7.0370      7.8347      8.9279      10.561      13.387      16.717      18.988      18.979      16.703    
  24.045      16.996      11.816      9.2667      7.9411      7.0244      6.7112      7.0382      7.9523      9.2651    
  11.813      17.012      24.080      30.304      32.775      30.273      42.188      30.521      19.461      12.322    
  9.2564      7.8306      6.9780      6.9775      7.8314      9.2630      12.337      19.483      30.543      42.204    
  49.728      49.722      63.873      49.882      33.121      19.473      11.810      8.9363      7.5511      6.9932    
  7.5339      8.9235      11.816      19.486      33.116      49.853      63.845      69.320      81.687      69.385    
  49.884      30.550      17.015      10.571      8.3629      7.2145      7.2044      8.3444      10.564      17.018    
  30.542      49.849      69.339      81.666      55.848      51.522      40.401      27.063      16.291      10.404    
  8.1770      6.9325      6.4630      6.9332      8.1780      10.405      16.291      27.063      40.401      51.522    
  51.526      51.520      43.762      31.586      19.819      12.056      8.6845      7.2224      6.3721      6.3787    
  7.2357      8.6929      12.056      19.819      31.593      43.774      40.407      43.867      40.401      31.588    
  21.253      13.238      9.1182      7.4583      6.3932      6.0106      6.4024      7.4670      9.1184      13.232    
  21.251      31.592      27.061      31.829      31.831      27.067      19.820      13.236      9.3025      7.5827    
  6.4554      5.8420      5.8411      6.4528      7.5784      9.2967      13.229      19.813      16.285      20.166    
  21.745      20.172      16.291      12.052      9.1163      7.5834      6.4868      5.7970      5.5657      5.7881    
  6.4771      7.5800      9.1177      12.052      10.407      12.446      13.877      13.878      12.446      10.401    
  8.6830      7.4602      6.4571      5.7970      5.4907      5.4871      5.7908      6.4570      7.4690      8.6946    
  8.1846      9.0662      9.7903      10.084      9.7898      9.0631      8.1777      7.2245      6.3945      5.8415    
  5.5649      5.4870      5.5664      5.8459      6.4024      7.2336      6.9273      7.5678      8.0999      8.3883    
  8.3888      8.1024      7.5732      6.9337      6.3716      6.0094      5.8409      5.7884      5.7911      5.8463    
  6.0118      6.3684      6.4473      6.6831      6.9980      7.2522      7.3456      7.2504      7.0004      6.6936    
  6.4617      6.3774      6.4036      6.4544      6.4770      6.4570      6.4023      6.3677      6.9264      6.6838    
  6.5973      6.6343      6.6891      6.6849      6.6260      6.5933      6.6874      6.9334      7.2371      7.4690    
  7.5773      7.5781      7.4691      7.2329      8.1836      7.5684      7.0001      6.6342      6.4750      6.4366    
  6.4710      6.6271      6.9913      7.5602      8.1777      8.6929      9.1170      9.2937      9.1182      8.6961    
  10.407      9.0649      8.1019      7.2527      6.6868      6.4361      6.4404      6.6944      7.2537      8.0932    
  9.0533      10.401      12.056      13.231      13.230      12.055      16.286      12.443      9.7902      8.3901    
  7.3435      6.6834      6.4732      6.6952      7.3565      8.3947      9.7880      12.443      16.292      19.822    
  21.252      19.815      27.062      20.164      13.875      10.086      8.3892      7.2485      6.6279      6.6290    
  7.2513      8.3933      10.091      13.881      20.171      27.068      31.593      31.591      40.407      31.831    
  21.743      13.878      9.7920      8.1013      7.0001      6.5950      6.9889      8.0901      9.7903      13.883    
  21.745      31.826      40.401      43.770      51.526      43.870      31.831      20.169      12.447      9.0641    
  7.5715      6.6940      6.6872      7.5578      9.0556      12.448      20.170      31.824      43.858      51.520    
  31.243      28.926      23.052      16.252      11.137      8.5682      7.2218      6.3236      6.0160      6.3242    
  7.2226      8.5686      11.137      16.252      23.052      28.926      28.923      28.925      24.795      18.464    
  12.665      9.1692      7.5506      6.4547      5.8804      5.8839      6.4626      7.5575      9.1705      12.660    
  18.456      24.788      23.047      24.885      23.053      18.465      13.309      9.6063      7.7553      6.5819    
  5.8349      5.5889      5.8392      6.5880      7.7595      9.6056      13.303      18.457      16.255      18.699    
  18.699      16.255      12.665      9.6052      7.8235      6.6561      5.8371      5.4391      5.4376      5.8341    
  6.6542      7.8241      9.6072      12.667      11.147      13.027      13.806      13.020      11.137      9.1667    
  7.7540      6.6565      5.8442      5.3865      5.2426      5.3804      5.8356      6.6508      7.7550      9.1741    
  8.5717      9.5833      10.277      10.274      9.5764      8.5659      7.5495      6.5829      5.8381      5.3866    
  5.1890      5.1879      5.3835      5.8339      6.5800      7.5508      7.2174      7.9541      8.4772      8.6677    
  8.4806      7.9594      7.2221      6.4559      5.8357      5.4390      5.2424      5.1878      5.2472      5.4452    
  5.8392      6.4548      6.3212      6.8368      7.2942      7.5618      7.5663      7.3048      6.8465      6.3245    
  5.8802      5.5883      5.4378      5.3805      5.3835      5.4454      5.5968      5.8845      6.0169      6.2539    
  6.5382      6.7674      6.8553      6.7694      6.5400      6.2537      6.0155      5.8832      5.8400      5.8351    
  5.8353      5.8338      5.8392      5.8840      6.3204      6.2543      6.2912      6.3890      6.4650      6.4612    
  6.3798      6.2821      6.2506      6.3243      6.4633      6.5891      6.6534      6.6497      6.5801      6.4542    
  7.2166      6.8372      6.5397      6.3891      6.3501      6.3467      6.3438      6.3812      6.5357      6.8389    
  7.2221      7.5572      7.7585      7.8223      7.7553      7.5516      8.5715      7.9533      7.2957      6.7680    
  6.4636      6.3463      6.3479      6.4677      6.7727      7.2984      7.9518      8.5662      9.1701      9.6052    
  9.6078      9.1761      11.147      9.5814      8.4772      7.5630      6.8540      6.4602      6.3451      6.4681    
  6.8646      7.5693      8.4756      9.5733      11.137      12.662      13.304      12.668      16.256      13.025    
  10.276      8.6690      7.5667      6.7682      6.3809      6.3822      6.7711      7.5684      8.6684      10.274    
  13.024      16.255      18.456      18.456      23.047      18.700      13.804      10.274      8.4822      7.3043    
  6.5397      6.2829      6.5339      7.2965      8.4772      10.275      13.811      18.708      23.053      24.786    
  28.923      24.887      18.698      13.018      9.5777      7.9604      6.8455      6.2537      6.2502      6.8375    
  7.9535      9.5765      13.023      18.706      24.894      28.925      16.599      15.603      13.154      10.496    
  8.6262      7.4043      6.4517      5.8932      5.7179      5.8940      6.4525      7.4043      8.6254      10.495    
  13.154      15.604      15.598      15.603      13.854      11.290      9.1005      7.7011      6.6155      5.8800    
  5.5364      5.5377      5.8835      6.6194      7.7022      9.0955      11.280      13.843      13.147      13.919    
  13.155      11.291      9.3042      7.8620      6.7445      5.9095      5.4425      5.2994      5.4434      5.9125    
  6.7488      7.8637      9.2996      11.281      10.499      11.476      11.476      10.497      9.1007      7.8615    
  6.7923      5.9380      5.4082      5.1733      5.1720      5.4058      5.9376      6.7953      7.8664      9.1049    
  8.6377      9.4117      9.7245      9.4028      8.6260      7.7000      6.7438      5.9380      5.4014      5.1249    
  5.0429      5.1217      5.3961      5.9335      6.7442      7.7075      7.4066      8.0890      8.4778      8.4742    
  8.0818      7.4031      6.6149      5.9098      5.4086      5.1250      5.0075      5.0077      5.1240      5.4040    
  5.9033      6.6118      6.4449      7.0322      7.4752      7.6406      7.4784      7.0382      6.4519      5.8806    
  5.4428      5.1735      5.0430      5.0076      5.0474      5.1783      5.4434      5.8760      5.8930      6.3144    
  6.7030      6.9393      6.9437      6.7127      6.3222      5.8938      5.5363      5.2992      5.1723      5.1217    
  5.1239      5.1784      5.3072      5.5420      5.7246      5.9884      6.2807      6.5133      6.6036      6.5161    
  6.2820      5.9846      5.7178      5.5373      5.4439      5.4063      5.3958      5.4041      5.4436      5.5417    
  5.8923      5.9886      6.1576      6.3413      6.4597      6.4574      6.3351      6.1500      5.9838      5.8940    
  5.8836      5.9130      5.9372      5.9330      5.9036      5.8756      6.4441      6.3145      6.2818      6.3414    
  6.4279      6.4653      6.4230      6.3361      6.2809      6.3194      6.4519      6.6191      6.7484      6.7945    
  6.7445      6.6121      7.4064      7.0317      6.7041      6.5138      6.4589      6.4650      6.4651      6.4603    
  6.5182      6.7096      7.0340      7.4028      7.7020      7.8636      7.8668      7.7085      8.6380      8.0880    
  7.4753      6.9401      6.6029      6.4568      6.4237      6.4605      6.6088      6.9447      7.4742      8.0795    
  8.6256      9.0966      9.3000      9.1058      10.500      9.4108      8.4768      7.6413      6.9440      6.5156    
  6.3357      6.3365      6.5171      6.9441      7.6389      8.4726      9.4067      10.497      11.280      11.281    
  13.147      11.476      9.7232      8.4741      7.4795      6.7127      6.2818      6.1501      6.2797      6.7086    
  7.4752      8.4735      9.7290      11.486      13.155      13.842      15.598      13.920      11.475      9.4018    
  8.0828      7.0390      6.3216      5.9842      5.9832      6.3187      7.0352      8.0815      9.4065      11.486    
  13.931      15.603      10.149      9.8358      9.0813      8.2234      7.3425      6.5465      5.9989      5.7189    
  5.6394      5.7197      5.9996      6.5465      7.3418      8.2228      9.0811      9.8359      9.8324      9.8357    
  9.2815      8.4549      7.5645      6.6728      5.9750      5.5574      5.3808      5.3811      5.5586      5.9769    
  6.6735      7.5616      8.4480      9.2740      9.0761      9.3297      9.0814      8.4550      7.6482      6.7639    
  6.0014      5.4906      5.2305      5.1553      5.2301      5.4915      6.0039      6.7655      7.6459      8.4490    
  8.2254      8.6025      8.6020      8.2237      7.5646      6.7639      6.0186      5.4750      5.1651      5.0368    
  5.0360      5.1637      5.4750      6.0208      6.7674      7.5676      7.3496      7.8390      8.0149      7.8334    
  7.3424      6.6727      6.0012      5.4749      5.1487      4.9919      4.9478      4.9907      5.1463      5.4724    
  6.0012      6.6770      6.5478      7.0660      7.3713      7.3690      7.0618      6.5462      5.9749      5.4904    
  5.1650      4.9920      4.9246      4.9250      4.9919      5.1623      5.4858      5.9721      5.9946      6.4630    
  6.8253      6.9623      6.8271      6.4666      5.9991      5.5575      5.2304      5.0371      4.9481      4.9250    
  4.9506      5.0395      5.2301      5.5542      5.7195      6.1202      6.4897      6.7145      6.7170      6.4952    
  6.1243      5.7193      5.3806      5.1553      5.0364      4.9906      4.9917      5.0396      5.1600      5.3844    
  5.6444      5.9905      6.3527      6.6313      6.7372      6.6332      6.3534      5.9876      5.6394      5.3808    
  5.2304      5.1638      5.1460      5.1625      5.2305      5.3842      5.7188      5.9904      6.3242      6.6314    
  6.8155      6.8145      6.6284      6.3202      5.9876      5.7195      5.5585      5.4917      5.4748      5.4723    
  5.4862      5.5540      5.9938      6.1200      6.3533      6.6316      6.8560      6.9407      6.8533      6.6289    
  6.3534      6.1235      5.9991      5.9768      6.0039      6.0206      6.0014      5.9721      6.5475      6.4627    
  6.4904      6.6318      6.8151      6.9405      6.9403      6.8155      6.6342      6.4941      6.4647      6.5459    
  6.6736      6.7655      6.7674      6.6772      7.3498      7.0656      6.8254      6.7149      6.7369      6.8141    
  6.8537      6.8156      6.7395      6.7172      6.8248      7.0605      7.3419      7.5620      7.6460      7.5680    
  8.2257      7.8388      7.3707      6.9625      6.7172      6.6331      6.6287      6.6290      6.6336      6.7170    
  6.9609      7.3680      7.8357      8.2234      8.4483      8.4491      9.0763      8.6024      8.0142      7.3689    
  6.8277      6.4954      6.3533      6.3200      6.3527      6.4936      6.8253      7.3684      8.0176      8.6087    
  9.0814      9.2739      9.8324      9.3297      8.6016      7.8331      7.0623      6.4670      6.1240      5.9872    
  5.9871      6.1233      6.4654      7.0614      7.8357      8.6084      9.3375      9.8359      8.0393      7.9098    
  7.5492      7.0472      6.5426      6.1635      5.9588      5.8876      5.8756      5.8877      5.9593      6.1644    
  6.5437      7.0478      7.5491      7.9095      7.9084      7.9100      7.6387      7.1547      6.5797      6.0616    
  5.7040      5.5202      5.4558      5.4565      5.5221      5.7064      6.0632      6.5790      7.1516      7.6351    
  7.5472      7.6912      7.5492      7.1545      6.6062      6.0458      5.6000      5.3246      5.1968      5.1633    
  5.1976      5.3258      5.6009      6.0454      6.6043      7.1518      7.0486      7.3198      7.3190      7.0469    
  6.5797      6.0460      5.5774      5.2528      5.0771      5.0084      5.0082      5.0763      5.2516      5.5763    
  6.0460      6.5810      6.5465      6.9115      7.0463      6.9084      6.5426      6.0621      5.6002      5.2526    
  5.0456      4.9502      4.9243      4.9492      5.0437      5.2508      5.5999      6.0644      6.1650      6.5885    
  6.8428      6.8422      6.5870      6.1637      5.7042      5.3242      5.0768      4.9504      4.9029      4.9028    
  4.9498      5.0762      5.3238      5.7046      5.9574      6.4203      6.7771      6.9121      6.7792      6.4231    
  5.9590      5.5200      5.1965      5.0087      4.9246      4.9027      4.9253      5.0099      5.1976      5.5200    
  5.8870      6.3884      6.8370      7.1029      7.1045      6.8407      6.3915      5.8878      5.4556      5.1634    
  5.0085      4.9490      4.9495      5.0099      5.1654      5.4569      5.8763      6.4094      6.9396      7.3280    
  7.4701      7.3283      6.9398      6.4091      5.8757      5.4563      5.1977      5.0762      5.0434      5.0763    
  5.1980      5.4570      5.8866      6.4093      6.9881      7.4777      7.7540      7.7525      7.4743      6.9849    
  6.4081      5.8875      5.5219      5.3258      5.2516      5.2510      5.3242      5.5200      5.9569      6.3882    
  6.9399      7.4778      7.8603      7.9964      7.8580      7.4750      6.9386      6.3890      5.9590      5.7066    
  5.6012      5.5764      5.6000      5.7045      6.1649      6.4203      6.8373      7.3282      7.7538      7.9963    
  7.9967      7.7549      7.3297      6.8386      6.4208      6.1645      6.0635      6.0454      6.0458      6.0642    
  6.5467      6.5886      6.7772      7.1029      7.4698      7.7524      7.8582      7.7550      7.4734      7.1052    
  6.7771      6.5864      6.5438      6.5789      6.6040      6.5809      7.0488      6.9116      6.8427      6.9119    
  7.1044      7.3283      7.4745      7.4751      7.3296      7.1052      6.9114      6.8412      6.9100      7.0476    
  7.1515      7.1519      7.5473      7.3197      7.0461      6.8420      6.7793      6.8410      6.9399      6.9848    
  6.9384      6.8385      6.7771      6.8412      7.0472      7.3220      7.5492      7.6353      7.9083      7.6909    
  7.3189      6.9086      6.5872      6.4232      6.3914      6.4088      6.4079      6.3891      6.4209      6.5863    
  6.9100      7.3221      7.6940      7.9096      6.9646      6.8906      6.7015      6.4865      6.3418      6.3154    
  6.3825      6.4699      6.5074      6.4686      6.3823      6.3179      6.3457      6.4891      6.7016      6.8895    
  6.8892      6.8909      6.7198      6.4379      6.1429      5.9225      5.8142      5.7949      5.8085      5.8105    
  5.8001      5.8202      5.9265      6.1432      6.4351      6.7162      6.7005      6.8005      6.7015      6.4375    
  6.0935      5.7674      5.5292      5.3985      5.3494      5.3410      5.3531      5.4025      5.5298      5.7643    
  6.0894      6.4348      6.4892      6.6953      6.6934      6.4857      6.1426      5.7677      5.4510      5.2378    
  5.1250      5.0821      5.0823      5.1242      5.2343      5.4458      5.7643      6.1435      6.3472      6.6711    
  6.7916      6.6669      6.3416      5.9232      5.5297      5.2377      5.0635      4.9812      4.9575      4.9786    
  5.0594      5.2343      5.5294      5.9268      6.3187      6.7762      7.0510      7.0512      6.7757      6.3160    
  5.8147      5.3982      5.1247      4.9813      4.9246      4.9234      4.9794      5.1250      5.4016      5.8191    
  6.3812      6.9806      7.4318      7.6012      7.4369      6.9861      6.3825      5.7946      5.3491      5.0824    
  4.9578      4.9234      4.9580      5.0844      5.3531      5.7977      6.4664      7.1985      7.8230      8.1793    
  8.1819      7.8291      7.2046      6.4697      5.8085      5.3413      5.0824      4.9783      4.9791      5.0843    
  5.3432      5.8086      6.5045      7.3362      8.1080      8.6629      8.8755      8.6616      8.1075      7.3380    
  6.5076      5.8107      5.3531      5.1239      5.0591      5.1249      5.3533      5.8087      6.4666      7.3362    