unknown system                          
   1.00000000000000     
     2.330000    0.000000    0.000000
    -1.165000    2.017839    0.000000
     0.000000    0.000000    4.100000
   Fe
     2
Direct
  0.000000  0.000000  0.000000
  0.333333  0.666667  0.500000
 
   16   16   32
 0.16021593685E+03 0.14757300993E+03 0.11513149620E+03 0.75802022144E+02 0.42288118165E+02
 0.21166840213E+02 0.11768810314E+02 0.88953522217E+01 0.79869566768E+01 0.88972747805E+01
 0.11770948480E+02 0.21167536945E+02 0.42287310267E+02 0.75800947854E+02 0.11513112976E+03
 0.14757316146E+03 0.14763009873E+03 0.14756842062E+03 0.12507286753E+03 0.89620046938E+02
 0.54199850233E+02 0.28329585618E+02 0.14608374710E+02 0.97000297974E+01 0.80955536232E+01
 0.81111231127E+01 0.97238467862E+01 0.14607071174E+02 0.28316774411E+02 0.54233147646E+02
 0.89730059458E+02 0.12520800057E+03 0.11521571940E+03 0.12512412129E+03 0.11512992236E+03
 0.89624015166E+02 0.58883152523E+02 0.33028615070E+02 0.17210885170E+02 0.10548499587E+02
 0.83808877713E+01 0.75810673760E+01 0.84050142962E+01 0.10555492956E+02 0.17179587239E+02
 0.32998265457E+02 0.58913525110E+02 0.89718223818E+02 0.75764791643E+02 0.89573676792E+02
 0.89590060683E+02 0.75810234222E+02 0.54202493473E+02 0.33025616278E+02 0.18268031953E+02
 0.11147771774E+02 0.86717809973E+01 0.74023290178E+01 0.74072684639E+01 0.86778175083E+01
 0.11136811554E+02 0.18229387768E+02 0.32965648757E+02 0.54140054163E+02 0.42172434506E+02
 0.54014704180E+02 0.58717740060E+02 0.54110172924E+02 0.42289487575E+02 0.28323049217E+02
 0.17207656471E+02 0.11149580502E+02 0.87946033444E+01 0.74152324602E+01 0.68703073129E+01
 0.74063630573E+01 0.88000202382E+01 0.11172967765E+02 0.17209873356E+02 0.28259837140E+02
 0.21160885094E+02 0.28205299045E+02 0.32835494018E+02 0.32863934658E+02 0.28253542861E+02
 0.21161831594E+02 0.14606487513E+02 0.10552930096E+02 0.86749163968E+01 0.74146030506E+01
 0.67176975584E+01 0.67030717574E+01 0.73997112066E+01 0.87073218689E+01 0.10630917718E+02
 0.14670660296E+02 0.11855538125E+02 0.14672442099E+02 0.17181896066E+02 0.18177599817E+02
 0.17147922726E+02 0.14605534617E+02 0.11771418002E+02 0.97046034546E+01 0.83827392648E+01
 0.73999926353E+01 0.68678929468E+01 0.67027200099E+01 0.68400211963E+01 0.73794379506E+01
 0.84050142963E+01 0.97724583601E+01 0.88829822250E+01 0.97937346600E+01 0.10662682115E+02
 0.11201825024E+02 0.11169113751E+02 0.10594664789E+02 0.97505894269E+01 0.88974266263E+01
 0.80930714004E+01 0.75769532435E+01 0.74059594931E+01 0.74069623457E+01 0.74009399046E+01
 0.73804653622E+01 0.75265870200E+01 0.80398932854E+01 0.78779227776E+01 0.80678131536E+01
 0.84600407530E+01 0.87806598020E+01 0.88803384371E+01 0.87560619871E+01 0.84643970252E+01
 0.81383319042E+01 0.79826944186E+01 0.81073639560E+01 0.84071835193E+01 0.86815682475E+01
 0.88004452066E+01 0.87079372085E+01 0.84053320259E+01 0.80386163515E+01 0.88809441632E+01
 0.80688136862E+01 0.75922964118E+01 0.74785084876E+01 0.75166452677E+01 0.75210409832E+01
 0.75010485902E+01 0.76417928518E+01 0.81239238457E+01 0.88973111234E+01 0.97273372109E+01
 0.10560686303E+02 0.11135172443E+02 0.11169519927E+02 0.10631680557E+02 0.97713751276E+01
 0.11853399959E+02 0.97943246276E+01 0.84636065626E+01 0.74782558925E+01 0.69694394537E+01
 0.68422836941E+01 0.69942528015E+01 0.74952680532E+01 0.84399527707E+01 0.97276693498E+01
 0.11771418002E+02 0.14608463183E+02 0.17177370354E+02 0.18223248220E+02 0.17210885170E+02
 0.14673939503E+02 0.21160467211E+02 0.14669047945E+02 0.10666034519E+02 0.87814180550E+01
 0.75120474706E+01 0.68414895692E+01 0.68572842176E+01 0.75290760397E+01 0.87496889850E+01
 0.10586745236E+02 0.14603581921E+02 0.21162110443E+02 0.28316676215E+02 0.32995833069E+02
 0.32966215161E+02 0.28266275344E+02 0.42173669247E+02 0.28199249087E+02 0.17181767518E+02
 0.11205564551E+02 0.88762048670E+01 0.75184204726E+01 0.69992987272E+01 0.75310533262E+01
 0.88749234181E+01 0.11183406307E+02 0.17177781999E+02 0.28260194712E+02 0.42289914418E+02
 0.54238649684E+02 0.58913011796E+02 0.54142912961E+02 0.75766144782E+02 0.54012242990E+02
 0.32832633963E+02 0.18182608480E+02 0.11169687189E+02 0.87519136945E+01 0.75055057336E+01
 0.74999777917E+01 0.87447824395E+01 0.11180240217E+02 0.18221802877E+02 0.32893160170E+02
 0.54074295561E+02 0.75810513070E+02 0.89728665440E+02 0.89712861572E+02 0.11521608584E+03
 0.89578946690E+02 0.58715619538E+02 0.32865227689E+02 0.17151908244E+02 0.10591190429E+02
 0.84636065626E+01 0.76463594413E+01 0.84355964985E+01 0.10579918471E+02 0.17181896066E+02
 0.32897313255E+02 0.58687453944E+02 0.89485433383E+02 0.11512992236E+03 0.12519827589E+03
 0.14762983169E+03 0.12513337531E+03 0.89590596009E+02 0.54104942121E+02 0.28256070856E+02
 0.14605853174E+02 0.97461303803E+01 0.81400435135E+01 0.81246349224E+01 0.97226203357E+01
 0.14607294632E+02 0.28268772665E+02 0.54071525949E+02 0.89480698812E+02 0.12499852661E+03
 0.14756830512E+03 0.15002617396E+03 0.13821106872E+03 0.10786514050E+03 0.71035275845E+02
 0.39666668273E+02 0.20001398542E+02 0.11374305546E+02 0.87296997576E+01 0.78540372740E+01
 0.87314741510E+01 0.11376303703E+02 0.20002103420E+02 0.39665995571E+02 0.71034325634E+02
 0.10786479801E+03 0.13821118803E+03 0.13826241357E+03 0.13820673091E+03 0.11716235560E+03
 0.83962051530E+02 0.50783472627E+02 0.26621911677E+02 0.13936577476E+02 0.94695100950E+01
 0.79388330833E+01 0.79537033362E+01 0.94927893093E+01 0.13936800506E+02 0.26610600820E+02
 0.50812974183E+02 0.84060804439E+02 0.11728416469E+03 0.10794091918E+03 0.11722199138E+03
 0.10786373275E+03 0.83965857315E+02 0.55158884814E+02 0.30982888605E+02 0.16306504815E+02
 0.10223819113E+02 0.81997647958E+01 0.74331411643E+01 0.82226768970E+01 0.10231468179E+02
 0.16278811891E+02 0.30955076002E+02 0.55185466219E+02 0.84050261873E+02 0.71001997276E+02
 0.83953317526E+02 0.83968169498E+02 0.71043160112E+02 0.50785943579E+02 0.30979979125E+02
 0.17273561556E+02 0.10756439955E+02 0.84720489840E+01 0.72549519579E+01 0.72591919578E+01
 0.84769782464E+01 0.10746008753E+02 0.17238310650E+02 0.30925636247E+02 0.50729420278E+02
 0.39563133972E+02 0.50665285118E+02 0.55077414444E+02 0.50750961303E+02 0.39667896128E+02
 0.26615553133E+02 0.16303368268E+02 0.10758168973E+02 0.85878277595E+01 0.72635608551E+01
 0.67468008893E+01 0.72542306671E+01 0.85910351480E+01 0.10778337111E+02 0.16305552323E+02
 0.26559375273E+02 0.19996643744E+02 0.26564129301E+02 0.30897004316E+02 0.30922419346E+02
 0.26606941541E+02 0.19996478765E+02 0.13934690156E+02 0.10228055718E+02 0.84750863685E+01
 0.72629876508E+01 0.66023672786E+01 0.65887969260E+01 0.72487709912E+01 0.85038469283E+01
 0.10298695968E+02 0.13993485729E+02 0.11452424870E+02 0.14045971442E+02 0.16371960900E+02
 0.17298774906E+02 0.16341788636E+02 0.13986180620E+02 0.11376711898E+02 0.94738881033E+01
 0.82016070966E+01 0.72527930283E+01 0.67445313650E+01 0.65884644664E+01 0.67200604577E+01
 0.72353067364E+01 0.82226768970E+01 0.95355717202E+01 0.87178329620E+01 0.96014306306E+01
 0.10414108929E+02 0.10914593642E+02 0.10885632702E+02 0.10354120339E+02 0.95640024388E+01
 0.87316960990E+01 0.79365471490E+01 0.74293009299E+01 0.72579910810E+01 0.72548061376E+01
 0.72499196661E+01 0.72362647892E+01 0.73850142404E+01 0.78888366000E+01 0.77547435730E+01
 0.79593136999E+01 0.83564908578E+01 0.86804883332E+01 0.87833220484E+01 0.86583121583E+01
 0.83606738552E+01 0.80235496242E+01 0.78500401243E+01 0.79501883380E+01 0.82247796303E+01
 0.84805460444E+01 0.85913956574E+01 0.85043773417E+01 0.82229373295E+01 0.78876075361E+01
 0.87159145483E+01 0.79602983156E+01 0.75282780406E+01 0.74365677775E+01 0.74806430392E+01
 0.74838722682E+01 0.74552459840E+01 0.75715430279E+01 0.80097644148E+01 0.87315520787E+01
 0.94961164489E+01 0.10236381252E+02 0.10744383764E+02 0.10774983104E+02 0.10299372435E+02
 0.95345208516E+01 0.11450426713E+02 0.96020599825E+01 0.83599321531E+01 0.74363262921E+01
 0.69656381527E+01 0.68488667007E+01 0.69870451577E+01 0.74502802542E+01 0.83375013214E+01
 0.95415417702E+01 0.11376711898E+02 0.13938049960E+02 0.16276627837E+02 0.17232413719E+02
 0.16306504815E+02 0.13996622503E+02 0.19996286562E+02 0.14042782392E+02 0.10417349346E+02
 0.86812090477E+01 0.74762272628E+01 0.68480931716E+01 0.68627981603E+01 0.74925454974E+01
 0.86532001782E+01 0.10345591131E+02 0.13982849464E+02 0.19996826461E+02 0.26610441152E+02
 0.30952762747E+02 0.30926232472E+02 0.26565574150E+02 0.39564338904E+02 0.26558343337E+02
 0.16371834474E+02 0.10918151862E+02 0.87793437966E+01 0.74813392429E+01 0.69918463546E+01
 0.74944282486E+01 0.87802863802E+01 0.10899273891E+02 0.16367996838E+02 0.26612401217E+02
 0.39668428358E+02 0.50818271937E+02 0.55185093016E+02 0.50732247080E+02 0.71003295183E+02
 0.50662852352E+02 0.30894198514E+02 0.17303529482E+02 0.10886171200E+02 0.86543403658E+01
 0.74594874746E+01 0.74547632302E+01 0.86485076712E+01 0.10896254169E+02 0.17339198705E+02
 0.30948940332E+02 0.50718980641E+02 0.71043507808E+02 0.84059606090E+02 0.84045257739E+02
 0.10794126167E+03 0.83958223812E+02 0.55075254477E+02 0.30923609622E+02 0.16345626272E+02
 0.10350845596E+02 0.83599321531E+01 0.75758846011E+01 0.83333183241E+01 0.10339075970E+02
 0.16371960900E+02 0.30952936410E+02 0.55050674012E+02 0.83874449371E+02 0.10786373275E+03
 0.11727497291E+03 0.13826215025E+03 0.11723071607E+03 0.83968534055E+02 0.50745914541E+02
 0.26609424864E+02 0.13986588885E+02 0.95597979351E+01 0.80251650518E+01 0.80103952268E+01
 0.95367079147E+01 0.13986446779E+02 0.26620670504E+02 0.50716366644E+02 0.83869907641E+02
 0.11710914174E+03 0.13820658689E+03 0.12315839955E+03 0.11350399160E+03 0.88651666625E+02
 0.58427881865E+02 0.32780080956E+02 0.17003138834E+02 0.10383343418E+02 0.82711320060E+01
 0.74900692744E+01 0.82725223383E+01 0.10384986771E+02 0.17003885098E+02 0.32779782615E+02
 0.58427266850E+02 0.88651384839E+02 0.11350402065E+03 0.11354057700E+03 0.11350034003E+03
 0.96257041755E+02 0.68994247816E+02 0.41776518818E+02 0.22184847611E+02 0.12241386180E+02
 0.88713462547E+01 0.75175122601E+01 0.75303893919E+01 0.88928198143E+01 0.12245206235E+02
 0.22177331712E+02 0.41796362764E+02 0.69064120380E+02 0.96344567824E+02 0.88705743883E+02
 0.96337211515E+02 0.88650692757E+02 0.68997597436E+02 0.45331249311E+02 0.25643601875E+02
 0.14004738865E+02 0.94065715680E+01 0.77125513347E+01 0.70401399235E+01 0.77320624854E+01
 0.94155791148E+01 0.13986171413E+02 0.25622383531E+02 0.45348221834E+02 0.69056866098E+02
 0.58404712734E+02 0.69079300140E+02 0.69090201060E+02 0.58434843636E+02 0.41778531175E+02
 0.25640957811E+02 0.14734420673E+02 0.97751821953E+01 0.79313797213E+01 0.68626039616E+01
 0.68651001017E+01 0.79335921810E+01 0.97662466799E+01 0.14707986937E+02 0.25601127016E+02
 0.41737252298E+02 0.32707654127E+02 0.41824897978E+02 0.45458194860E+02 0.41885446052E+02
 0.32780941687E+02 0.22179024879E+02 0.14001873553E+02 0.97766840765E+01 0.80263691290E+01
 0.68576693540E+01 0.64173556844E+01 0.68474875163E+01 0.80243101831E+01 0.97888007961E+01
 0.14003940857E+02 0.22140775363E+02 0.17001353199E+02 0.22289654679E+02 0.25820880838E+02
 0.25838537222E+02 0.22318589994E+02 0.16998509361E+02 0.12239525376E+02 0.94102578453E+01
 0.79341253016E+01 0.68572456745E+01 0.62935514244E+01 0.62827897322E+01 0.68449556182E+01
 0.79536143991E+01 0.94619216450E+01 0.12284294483E+02 0.10439345815E+02 0.12456219420E+02
 0.14295256483E+02 0.15037061272E+02 0.14274754158E+02 0.12414605904E+02 0.10385221075E+02
 0.88751739758E+01 0.77143369154E+01 0.68609186146E+01 0.64154830852E+01 0.62825095810E+01
 0.63995862403E+01 0.68510559308E+01 0.77320624854E+01 0.89208662189E+01 0.82607407775E+01
 0.90880444857E+01 0.97697044605E+01 0.10173877253E+02 0.10154470374E+02 0.97301212425E+01
 0.90650233346E+01 0.82729154369E+01 0.75157412389E+01 0.70370317431E+01 0.68641902301E+01
 0.68479960118E+01 0.68458877933E+01 0.68518314061E+01 0.70081108522E+01 0.74820514813E+01
 0.74160768042E+01 0.76467235910E+01 0.80412729994E+01 0.83616131935E+01 0.84679719624E+01
 0.83456977066E+01 0.80449835382E+01 0.76946516314E+01 0.74867903161E+01 0.75275227997E+01
 0.77339703417E+01 0.79366571997E+01 0.80245051468E+01 0.79539338375E+01 0.77321847610E+01
 0.74809559102E+01 0.82591303758E+01 0.76476508577E+01 0.73215007818E+01 0.72756543484E+01
 0.73278395832E+01 0.73282214998E+01 0.72847447151E+01 0.73490287183E+01 0.76826500012E+01
 0.82726953674E+01 0.88956855514E+01 0.94197275774E+01 0.97646824462E+01 0.97857346813E+01
 0.94623838304E+01 0.89199042348E+01 0.10437702462E+02 0.90887530202E+01 0.80443664337E+01
 0.72754504040E+01 0.68962960207E+01 0.68032465614E+01 0.69091263296E+01 0.72818280994E+01
 0.80253501118E+01 0.90441567593E+01 0.10385221075E+02 0.12246078492E+02 0.13984104109E+02
 0.14702781542E+02 0.14004738865E+02 0.12287027545E+02 0.17001138231E+02 0.12453573673E+02
 0.97726316553E+01 0.83622457548E+01 0.73239399859E+01 0.68025339869E+01 0.68143321793E+01
 0.73382225267E+01 0.83436971032E+01 0.97203402851E+01 0.12408096562E+02 0.16999040656E+02
 0.22177024276E+02 0.25620404298E+02 0.25601791847E+02 0.22146290658E+02 0.32708765738E+02
 0.22284597331E+02 0.14295139279E+02 0.10176949572E+02 0.84644422709E+01 0.73259405893E+01
 0.69132521941E+01 0.73398412134E+01 0.84706492153E+01 0.10166251934E+02 0.14291710331E+02
 0.22321121892E+02 0.32781754958E+02 0.41801085291E+02 0.45348205484E+02 0.41739962468E+02
 0.58405859044E+02 0.41822564937E+02 0.25818242426E+02 0.15041124892E+02 0.10154926751E+02
 0.83422235367E+01 0.72883882110E+01 0.72856755396E+01 0.83395903720E+01 0.10163635993E+02
 0.15067594039E+02 0.25858028146E+02 0.41863423230E+02 0.58435374931E+02 0.69063430890E+02
 0.69052826988E+02 0.88706025668E+02 0.69083231452E+02 0.45455958089E+02 0.25839455167E+02
 0.14278183106E+02 0.97273954891E+01 0.80443664337E+01 0.73527347144E+01 0.80216395731E+01
 0.97146873369E+01 0.14295256483E+02 0.25861584503E+02 0.45440425415E+02 0.69024411380E+02
 0.88650692757E+02 0.96336833668E+02 0.11354032788E+03 0.96344497108E+02 0.69090130735E+02
 0.41880924039E+02 0.22320933611E+02 0.12415236789E+02 0.90615017544E+01 0.76959887683E+01
 0.76830598714E+01 0.90399266446E+01 0.12411373194E+02 0.22328522857E+02 0.41861234258E+02
 0.69020409744E+02 0.96257064603E+02 0.11350011996E+03 0.88581461198E+02 0.81668522248E+02
 0.63845047646E+02 0.42197876714E+02 0.24078862804E+02 0.13389989517E+02 0.92206453896E+01
 0.76251789987E+01 0.69876210002E+01 0.76261211638E+01 0.92218781079E+01 0.13390792548E+02
 0.24079011333E+02 0.42197658575E+02 0.63844836212E+02 0.81668443243E+02 0.81687333934E+02
 0.81665812799E+02 0.69279532942E+02 0.49692430833E+02 0.30291809434E+02 0.16721005879E+02
 0.10271149132E+02 0.80771186502E+01 0.69511844136E+01 0.69611069298E+01 0.80952183607E+01
 0.10278370664E+02 0.16717870156E+02 0.30300272330E+02 0.49727653909E+02 0.69325634196E+02
 0.63872967351E+02 0.69379813552E+02 0.63844611988E+02 0.49695115620E+02 0.32769270631E+02
 0.19002959910E+02 0.11292721794E+02 0.84237418292E+01 0.70582630282E+01 0.65234772411E+01
 0.70728686544E+01 0.84334625068E+01 0.11284795979E+02 0.18989961622E+02 0.32775094553E+02
 0.49724281362E+02 0.42186732184E+02 0.49878887455E+02 0.49884999338E+02 0.42203488380E+02
 0.30293225024E+02 0.19000743785E+02 0.11725215593E+02 0.86247183309E+01 0.71997744442E+01
 0.63472341683E+01 0.63477633062E+01 0.71990510913E+01 0.86179813971E+01 0.11709737603E+02
 0.18978624775E+02 0.30270455247E+02 0.24043560776E+02 0.30523056242E+02 0.33122912052E+02
 0.30553462883E+02 0.24079274451E+02 0.16716066565E+02 0.11290287455E+02 0.86258807166E+01
 0.72636980628E+01 0.63214938673E+01 0.59848287191E+01 0.63112013982E+01 0.72564301227E+01
 0.86289077883E+01 0.11292115398E+02 0.16698979464E+02 0.13391426898E+02 0.17000246801E+02
 0.19463629263E+02 0.19471988407E+02 0.17012710268E+02 0.13385898775E+02 0.10269404201E+02
 0.84266116002E+01 0.72020490675E+01 0.63212645716E+01 0.58860755987E+01 0.58789734452E+01
 0.63118357479E+01 0.72106118321E+01 0.84550913957E+01 0.10296627006E+02 0.92500092465E+01
 0.10590071961E+02 0.11816101827E+02 0.12318511165E+02 0.11806936656E+02 0.10570015319E+02
 0.92218579313E+01 0.80801434688E+01 0.70598791175E+01 0.63461686984E+01 0.59835059082E+01
 0.58787635153E+01 0.59775093000E+01 0.63447833482E+01 0.70728686544E+01 0.81061626190E+01
 0.76171017578E+01 0.83720606356E+01 0.89539584250E+01 0.92642257797E+01 0.92560667924E+01
 0.89382603997E+01 0.83655447863E+01 0.76266692255E+01 0.69500596420E+01 0.65213300725E+01
 0.63472416712E+01 0.63116108160E+01 0.63124744614E+01 0.63453271831E+01 0.65102334084E+01
 0.69331968324E+01 0.69448980728E+01 0.71858121843E+01 0.75484578130E+01 0.78416072569E+01
 0.79439321851E+01 0.78333421669E+01 0.75515178532E+01 0.72136185375E+01 0.69853111284E+01
 0.69590790479E+01 0.70744709063E+01 0.72014147178E+01 0.72564256931E+01 0.72107008354E+01
 0.70728548170E+01 0.69322937222E+01 0.76158620734E+01 0.71866208198E+01 0.69810718320E+01
 0.69766385438E+01 0.70288974898E+01 0.70263046442E+01 0.69751921371E+01 0.69904651033E+01
 0.72043016121E+01 0.76263717061E+01 0.80974068272E+01 0.84365628752E+01 0.86165637913E+01
 0.86263277968E+01 0.84553219931E+01 0.81053262669E+01 0.92487765282E+01 0.83727973422E+01
 0.75510500242E+01 0.69765060242E+01 0.67049761353E+01 0.66381435360E+01 0.67080170149E+01
 0.69745991005E+01 0.75369260644E+01 0.83478014916E+01 0.92218579313E+01 0.10278762439E+02
 0.11282968036E+02 0.11705565313E+02 0.11292721794E+02 0.10298763713E+02 0.13391342142E+02
 0.10588127208E+02 0.89564331953E+01 0.78421573103E+01 0.70257602435E+01 0.66375279561E+01
 0.66455147997E+01 0.70369741946E+01 0.78346947920E+01 0.89278883687E+01 0.10560716260E+02
 0.13386617051E+02 0.16717419190E+02 0.18988464769E+02 0.18979344046E+02 0.16703467812E+02
 0.24044511735E+02 0.16996216793E+02 0.11816007237E+02 0.92666529503E+01 0.79410857492E+01
 0.70244076184E+01 0.67111960661E+01 0.70382144152E+01 0.79523040431E+01 0.92650861983E+01
 0.11813156587E+02 0.17012075918E+02 0.24080373939E+02 0.30304151415E+02 0.32775490562E+02
 0.30272918742E+02 0.42187668598E+02 0.30520927047E+02 0.19461277504E+02 0.12321630197E+02
 0.92564448345E+01 0.78305965695E+01 0.69779902513E+01 0.69775297343E+01 0.78313991412E+01
 0.92630370698E+01 0.12336665714E+02 0.19482830872E+02 0.30543254768E+02 0.42204206655E+02
 0.49727586975E+02 0.49721529640E+02 0.63873178785E+02 0.49881531670E+02 0.33120660910E+02
 0.19472555172E+02 0.11809787306E+02 0.89363000374E+01 0.75510500242E+01 0.69932406896E+01
 0.75338660242E+01 0.89234532361E+01 0.11816101827E+02 0.19485749396E+02 0.33115592633E+02
 0.49852587164E+02 0.63844611988E+02 0.69319909417E+02 0.81687115420E+02 0.69385139227E+02
 0.49884424281E+02 0.30549728335E+02 0.17014809965E+02 0.10570886661E+02 0.83629280589E+01
 0.72145309171E+01 0.72044053563E+01 0.83444480577E+01 0.10563532356E+02 0.17018205624E+02
 0.30541649414E+02 0.49849367892E+02 0.69338957141E+02 0.81665515280E+02 0.55848154854E+02
 0.51521828352E+02 0.40400791738E+02 0.27063042630E+02 0.16290614700E+02 0.10403891746E+02
 0.81770366701E+01 0.69325448382E+01 0.64629925948E+01 0.69331985393E+01 0.81779657797E+01
 0.10404633210E+02 0.16290935187E+02 0.27063014522E+02 0.40400632508E+02 0.51521712481E+02
 0.51526093212E+02 0.51520093567E+02 0.43761568018E+02 0.31585600299E+02 0.19819110287E+02
 0.12055993879E+02 0.86844994615E+01 0.72223834589E+01 0.63721149103E+01 0.63786785762E+01
 0.72356810407E+01 0.86929045255E+01 0.12056080415E+02 0.19818632803E+02 0.31592643697E+02
 0.43773503933E+02 0.40407223353E+02 0.43867093499E+02 0.40400810103E+02 0.31587527815E+02
 0.21253362278E+02 0.13237563303E+02 0.91181535459E+01 0.74582504440E+01 0.63932297974E+01
 0.60106249343E+01 0.64024040334E+01 0.74669871000E+01 0.91184466242E+01 0.13231924583E+02
 0.21250894370E+02 0.31592359847E+02 0.27061436432E+02 0.31829337251E+02 0.31831497771E+02
 0.27067106940E+02 0.19819962303E+02 0.13235900162E+02 0.93024925564E+01 0.75826712821E+01
 0.64553942662E+01 0.58419571735E+01 0.58410604309E+01 0.64527747862E+01 0.75784339897E+01
 0.92966942639E+01 0.13228838092E+02 0.19812673982E+02 0.16285077153E+02 0.20166066558E+02
 0.21744656907E+02 0.20172053876E+02 0.16290653704E+02 0.12052224994E+02 0.91162692347E+01
 0.75834363467E+01 0.64868123972E+01 0.57970239858E+01 0.55656632999E+01 0.57881377109E+01
 0.64771361023E+01 0.75800120796E+01 0.91177138143E+01 0.12051699684E+02 0.10407304510E+02
 0.12446246817E+02 0.13876844935E+02 0.13877679107E+02 0.12445674621E+02 0.10400601983E+02
 0.86830151077E+01 0.74601737257E+01 0.64570626003E+01 0.57969777663E+01 0.54907442360E+01
 0.54871178704E+01 0.57908090112E+01 0.64570241764E+01 0.74689803810E+01 0.86946139564E+01
 0.81845566242E+01 0.90661520845E+01 0.97902578299E+01 0.10084154058E+02 0.97897777416E+01
 0.90631255699E+01 0.81776664887E+01 0.72244972992E+01 0.63945149305E+01 0.58414826834E+01
 0.55649170541E+01 0.54869759257E+01 0.55663961098E+01 0.58459219515E+01 0.64024040334E+01
 0.72336221613E+01 0.69273203350E+01 0.75677906325E+01 0.80998839808E+01 0.83882928988E+01
 0.83888467924E+01 0.81024458609E+01 0.75732483910E+01 0.69337257707E+01 0.63715536631E+01
 0.60093984253E+01 0.58409212772E+01 0.57884282617E+01 0.57911457815E+01 0.58462572878E+01
 0.60118385573E+01 0.63684196407E+01 0.64472888962E+01 0.66831427745E+01 0.69980203014E+01
 0.72521976131E+01 0.73455752333E+01 0.72503862075E+01 0.70003938846E+01 0.66936101133E+01
 0.64616509264E+01 0.63774318674E+01 0.64036277846E+01 0.64543913001E+01 0.64769667332E+01
 0.64569723561E+01 0.64023426515E+01 0.63677341791E+01 0.69263807769E+01 0.66837622200E+01
 0.65972742175E+01 0.66342506794E+01 0.66890746435E+01 0.66848863131E+01 0.66260319731E+01
 0.65932982302E+01 0.66874460520E+01 0.69334399137E+01 0.72371009710E+01 0.74690090873E+01
 0.75772722854E+01 0.75780853107E+01 0.74690790865E+01 0.72329282514E+01 0.81836275146E+01
 0.75684242057E+01 0.70000520613E+01 0.66342222350E+01 0.64749701184E+01 0.64365837170E+01
 0.64710086120E+01 0.66270545026E+01 0.69912810305E+01 0.75601835958E+01 0.81776664887E+01
 0.86928729988E+01 0.91170020447E+01 0.92937278755E+01 0.91181535459E+01 0.86960667836E+01
 0.10407253166E+02 0.90648645315E+01 0.81018506175E+01 0.72527180673E+01 0.66868093245E+01
 0.64360899262E+01 0.64404088877E+01 0.66944117945E+01 0.72537476276E+01 0.80932062365E+01
 0.90533245392E+01 0.10401292103E+02 0.12055586414E+02 0.13230960652E+02 0.13229537301E+02
 0.12054974568E+02 0.16285813056E+02 0.12443335989E+02 0.97902034422E+01 0.83900777005E+01
 0.73435375167E+01 0.66834479043E+01 0.64731809187E+01 0.66952387048E+01 0.73564772872E+01
 0.83947249967E+01 0.97879885419E+01 0.12443003321E+02 0.16291710093E+02 0.19821540393E+02
 0.21251573078E+02 0.19814729556E+02 0.27062154660E+02 0.20164271069E+02 0.13874889744E+02
 0.10086293397E+02 0.83891897304E+01 0.72484686770E+01 0.66279236142E+01 0.66289745882E+01
 0.72513096430E+01 0.83932831330E+01 0.10091481638E+02 0.13881238377E+02 0.20171165906E+02
 0.27067797060E+02 0.31593080367E+02 0.31590869001E+02 0.40407382582E+02 0.31830742366E+02
 0.21742552395E+02 0.13877919375E+02 0.97919926419E+01 0.81012944367E+01 0.70000520613E+01
 0.65950277570E+01 0.69889074473E+01 0.80900881757E+01 0.97902578299E+01 0.13883433836E+02
 0.21745389717E+02 0.31826002080E+02 0.40400810103E+02 0.43769866350E+02 0.51525923226E+02
 0.43870419740E+02 0.31830565093E+02 0.20169253913E+02 0.12447430863E+02 0.90641310775E+01
 0.75715159224E+01 0.66940211554E+01 0.66872376487E+01 0.75578175540E+01 0.90556175999E+01
 0.12447670391E+02 0.20170161432E+02 0.31823664287E+02 0.43858334043E+02 0.51519807710E+02
 0.31242750279E+02 0.28926356828E+02 0.23052419346E+02 0.16252082791E+02 0.11136954793E+02
 0.85681645492E+01 0.72218021320E+01 0.63235605926E+01 0.60160478903E+01 0.63242179188E+01
 0.72226080524E+01 0.85685897445E+01 0.11136899249E+02 0.16251840735E+02 0.23052281631E+02
 0.28926346903E+02 0.28922757894E+02 0.28925439703E+02 0.24794716054E+02 0.18463630898E+02
 0.12664884770E+02 0.91691534666E+01 0.75505814526E+01 0.64546767482E+01 0.58804015296E+01
 0.58838762859E+01 0.64626150391E+01 0.75574540269E+01 0.91704735283E+01 0.12660048267E+02
 0.18455640210E+02 0.24787791083E+02 0.23047085651E+02 0.24885215400E+02 0.23052676457E+02
 0.18464825908E+02 0.13308624847E+02 0.96062645380E+01 0.77552828308E+01 0.65819111805E+01
 0.58349184967E+01 0.55888716290E+01 0.58391959889E+01 0.65879975679E+01 0.77594725493E+01
 0.96056472729E+01 0.13302946267E+02 0.18456956415E+02 0.16255171695E+02 0.18699022634E+02
 0.18699009406E+02 0.16254637980E+02 0.12665327498E+02 0.96052104360E+01 0.78235210663E+01
 0.66561052340E+01 0.58371287878E+01 0.54390744060E+01 0.54376094367E+01 0.58340938190E+01
 0.66541772885E+01 0.78240539587E+01 0.96072215259E+01 0.12666968236E+02 0.11146616896E+02
 0.13026802678E+02 0.13806023009E+02 0.13019976937E+02 0.11136795699E+02 0.91667047470E+01
 0.77540035824E+01 0.66564811352E+01 0.58441639404E+01 0.53865496512E+01 0.52426344825E+01
 0.53803827950E+01 0.58356108305E+01 0.66508463281E+01 0.77549508822E+01 0.91740625369E+01
 0.85716776259E+01 0.95832989261E+01 0.10277262130E+02 0.10274168265E+02 0.95763677132E+01
 0.85658701769E+01 0.75495075124E+01 0.65829162410E+01 0.58381380649E+01 0.53866342374E+01
 0.51890144191E+01 0.51879268917E+01 0.53834706763E+01 0.58338507399E+01 0.65800044732E+01
 0.75507771369E+01 0.72174120728E+01 0.79540964774E+01 0.84772441601E+01 0.86677198629E+01
 0.84806033150E+01 0.79594244355E+01 0.72220806678E+01 0.64559244445E+01 0.58357288240E+01
 0.54390326705E+01 0.52423795447E+01 0.51878322832E+01 0.52471561496E+01 0.54452104142E+01
 0.58391959888E+01 0.64547560133E+01 0.63212157549E+01 0.68367649492E+01 0.72942361970E+01
 0.75617932332E+01 0.75663237276E+01 0.73047816610E+01 0.68465005658E+01 0.63244627193E+01
 0.58801763053E+01 0.55883264458E+01 0.54377648172E+01 0.53805441921E+01 0.53835474873E+01
 0.54454075302E+01 0.55967790062E+01 0.58844631306E+01 0.60169461933E+01 0.62538859450E+01
 0.65382101836E+01 0.67674445915E+01 0.68552824073E+01 0.67693645440E+01 0.65399646345E+01
 0.62537414722E+01 0.60154628819E+01 0.58831784692E+01 0.58400265006E+01 0.58350501836E+01
 0.58353445966E+01 0.58337978275E+01 0.58392161733E+01 0.58839905382E+01 0.63204365724E+01
 0.62542653486E+01 0.62912178282E+01 0.63889865853E+01 0.64650151448E+01 0.64611698195E+01
 0.63797521484E+01 0.62820919581E+01 0.62506174521E+01 0.63243408630E+01 0.64633184819E+01
 0.65891281424E+01 0.66533571151E+01 0.66496502535E+01 0.65801299873E+01 0.64542117597E+01
 0.72166061524E+01 0.68371545384E+01 0.65397109997E+01 0.63890748937E+01 0.63501214923E+01
 0.63466634496E+01 0.63438453541E+01 0.63812165712E+01 0.65356669579E+01 0.68389099590E+01
 0.72220806678E+01 0.75571838366E+01 0.77585252495E+01 0.78222635837E+01 0.77552828308E+01
 0.75515808869E+01 0.85715466176E+01 0.79532929496E+01 0.72957173818E+01 0.67679876076E+01
 0.64635723777E+01 0.63462975324E+01 0.63478698242E+01 0.64676759080E+01 0.67727466123E+01
 0.72983974287E+01 0.79517723500E+01 0.85661643639E+01 0.91700868153E+01 0.96051593280E+01
 0.96077876830E+01 0.91761245436E+01 0.11147122762E+02 0.95814224902E+01 0.84772441352E+01
 0.75630424526E+01 0.68540272310E+01 0.64601903093E+01 0.63451495032E+01 0.64681391650E+01
 0.68645520731E+01 0.75693258915E+01 0.84756313258E+01 0.95732798318E+01 0.11137246021E+02
 0.12661996537E+02 0.13303652857E+02 0.12668473779E+02 0.16255707938E+02 0.13025463963E+02
 0.10275777132E+02 0.86690135568E+01 0.75666676000E+01 0.67682306867E+01 0.63808613033E+01
 0.63822374177E+01 0.67710697389E+01 0.75684205444E+01 0.86683647326E+01 0.10273630999E+02
 0.13023602084E+02 0.16254932167E+02 0.18456295547E+02 0.18456416742E+02 0.23047223367E+02
 0.18699517281E+02 0.13804265057E+02 0.10274178640E+02 0.84822161243E+01 0.73043230892E+01
 0.65397109997E+01 0.62828701689E+01 0.65339125069E+01 0.72964576722E+01 0.84772441601E+01
 0.10275126372E+02 0.13810544676E+02 0.18707564006E+02 0.23052676457E+02 0.24785903406E+02
 0.28922645963E+02 0.24886903163E+02 0.18698004507E+02 0.13018127951E+02 0.95777116253E+01
 0.79603858828E+01 0.68454538462E+01 0.62536785039E+01 0.62501750802E+01 0.68374736501E+01
 0.79535373251E+01 0.95765001799E+01 0.13023091813E+02 0.18706064460E+02 0.24893831478E+02
 0.28925317847E+02 0.16599137806E+02 0.15603480632E+02 0.13154465143E+02 0.10495945565E+02
 0.86261535028E+01 0.74043271215E+01 0.64517455468E+01 0.58931847993E+01 0.57179437337E+01
 0.58940149178E+01 0.64525470309E+01 0.74043241398E+01 0.86254465633E+01 0.10495279406E+02
 0.13154328753E+02 0.15603647574E+02 0.15598345089E+02 0.15603126768E+02 0.13853905620E+02
 0.11290315919E+02 0.91005143833E+01 0.77011432661E+01 0.66154928812E+01 0.58800462533E+01
 0.55364426728E+01 0.55377055374E+01 0.58834712043E+01 0.66194057680E+01 0.77021849937E+01
 0.90955115681E+01 0.11279635989E+02 0.13842737753E+02 0.13146652806E+02 0.13919114642E+02
 0.13154723780E+02 0.11290892712E+02 0.93042104246E+01 0.78619951538E+01 0.67445137007E+01
 0.59095360417E+01 0.54425401804E+01 0.52993808915E+01 0.54434028103E+01 0.59124559133E+01
 0.67488045885E+01 0.78637158747E+01 0.92995677085E+01 0.11281178560E+02 0.10499390605E+02
 0.11476227963E+02 0.11475663135E+02 0.10497213362E+02 0.91007279281E+01 0.78615139458E+01
 0.67922701058E+01 0.59379852944E+01 0.54081754438E+01 0.51733275487E+01 0.51720088763E+01
 0.54058055140E+01 0.59376354445E+01 0.67953223914E+01 0.78664497322E+01 0.91049252513E+01
 0.86376854786E+01 0.94116576594E+01 0.97244530907E+01 0.94027942182E+01 0.86259693471E+01
 0.76999639939E+01 0.67438175782E+01 0.59380446684E+01 0.54013953495E+01 0.51248806382E+01
 0.50428822030E+01 0.51217001724E+01 0.53960788245E+01 0.59335242459E+01 0.67442416209E+01
 0.77074874782E+01 0.74066449320E+01 0.80889759458E+01 0.84777644449E+01 0.84741602904E+01
 0.80818428055E+01 0.74030698448E+01 0.66149174040E+01 0.59097977237E+01 0.54085825495E+01
 0.51250303534E+01 0.50074820552E+01 0.50077134637E+01 0.51240209646E+01 0.54040151075E+01