   2   2   0   0
  0.9638209E+01  0.2330000E-09  0.2330000E-09  0.4100000E-09  0.5000000E-15
  1.000000000000000E-004
  CAR 
 unknown system                          
     75.15113950     -5.35235334  301      7.49296025      1.00000000
     -5.352  0.0000E+00  0.0000E+00
     -5.084  0.0000E+00  0.0000E+00
     -4.816  0.0000E+00  0.0000E+00
     -4.547  0.0000E+00  0.0000E+00
     -4.279  0.0000E+00  0.0000E+00
     -4.011  0.0000E+00  0.0000E+00
     -3.742  0.0000E+00  0.0000E+00
     -3.474 -0.5529E-35 -0.1484E-35
     -3.206 -0.1849E-25 -0.4961E-26
     -2.937 -0.1635E-17 -0.4388E-18
     -2.669 -0.3611E-11 -0.9691E-12
     -2.401 -0.2021E-06 -0.5424E-07
     -2.132 -0.2408E-03 -0.6468E-04
     -1.864  0.6155E-04 -0.4817E-04
     -1.596  0.4835E-01  0.1293E-01
     -1.327  0.5633E-01  0.2804E-01
     -1.059  0.7857E-01  0.4913E-01
     -0.790 -0.4098E-02  0.4803E-01
     -0.522 -0.5793E-02  0.4647E-01
     -0.254  0.5936E-01  0.6240E-01
      0.015  0.3968E+00  0.1689E+00
      0.283  0.5969E+00  0.3290E+00
      0.551  0.1579E+00  0.3714E+00
      0.820 -0.3400E-01  0.3623E+00
      1.088  0.3014E+00  0.4431E+00
      1.356  0.5807E+00  0.5990E+00
      1.625 -0.2755E-01  0.5916E+00
      1.893 -0.1429E-02  0.5912E+00
      2.161  0.4381E+00  0.7088E+00
      2.430  0.2873E+01  0.1480E+01
      2.698  0.1684E+01  0.1932E+01
      2.966  0.2431E+01  0.2584E+01
      3.235  0.2923E+01  0.3368E+01
      3.503  0.2602E+01  0.4066E+01
      3.771  0.1664E+01  0.4513E+01
      4.040  0.2126E+01  0.5083E+01
      4.308  0.4667E+01  0.6336E+01
      4.576  0.2948E+01  0.7127E+01
      4.845  0.1483E+01  0.7525E+01
      5.113  0.3054E+01  0.8344E+01
      5.381  0.4485E+01  0.9548E+01
      5.650  0.2973E+01  0.1035E+02
      5.918  0.3147E+01  0.1119E+02
      6.186  0.2746E+01  0.1193E+02
      6.455  0.3220E+01  0.1279E+02
      6.723  0.4403E+01  0.1397E+02
      6.992  0.4253E+01  0.1511E+02
      7.260  0.2197E+01  0.1570E+02
      7.528  0.1406E+01  0.1608E+02
      7.797  0.2978E+01  0.1688E+02
      8.065  0.4265E+01  0.1802E+02
      8.333  0.4385E+01  0.1920E+02
      8.602  0.5986E+01  0.2081E+02
      8.870  0.1821E+01  0.2130E+02
      9.138  0.1001E+01  0.2156E+02
      9.407  0.6521E+00  0.2174E+02
      9.675  0.2116E+00  0.2180E+02
      9.943 -0.2434E-01  0.2179E+02
     10.212  0.1800E-01  0.2179E+02
     10.480  0.1442E+01  0.2218E+02
     10.748  0.7455E+00  0.2238E+02
     11.017 -0.5031E-01  0.2237E+02
     11.285 -0.8943E-03  0.2237E+02
     11.553 -0.1239E-01  0.2236E+02
     11.822  0.2216E+00  0.2242E+02
     12.090  0.1539E+00  0.2247E+02
     12.358  0.1768E-01  0.2247E+02
     12.627  0.7814E+00  0.2268E+02
     12.895  0.1179E+01  0.2300E+02
     13.163  0.1304E+01  0.2335E+02
     13.432 -0.3566E-01  0.2334E+02
     13.700  0.6377E+00  0.2351E+02
     13.968  0.4359E-01  0.2352E+02
     14.237  0.7212E+00  0.2371E+02
     14.505  0.3725E+00  0.2381E+02
     14.774 -0.2239E-01  0.2381E+02
     15.042  0.2982E+00  0.2389E+02
     15.310  0.9629E-01  0.2391E+02
     15.579  0.4925E+00  0.2405E+02
     15.847  0.2660E+00  0.2412E+02
     16.115 -0.2742E-01  0.2411E+02
     16.384  0.1663E+00  0.2415E+02
     16.652  0.2180E+00  0.2421E+02
     16.920  0.3547E+00  0.2431E+02
     17.189  0.1140E+00  0.2434E+02
     17.457 -0.3370E-01  0.2433E+02
     17.725  0.4032E+00  0.2444E+02
     17.994  0.1176E+01  0.2475E+02
     18.262  0.1351E+01  0.2512E+02
     18.530 -0.6346E-01  0.2510E+02
     18.799  0.5061E+00  0.2523E+02
     19.067  0.7999E+00  0.2545E+02
     19.335  0.7837E+00  0.2566E+02
     19.604  0.7561E+00  0.2586E+02
     19.872  0.7706E+00  0.2607E+02
     20.140  0.1154E+01  0.2638E+02
     20.409  0.6470E+00  0.2655E+02
     20.677  0.1027E+00  0.2658E+02
     20.945  0.1027E+01  0.2685E+02
     21.214  0.3232E-01  0.2686E+02
     21.482  0.6154E-01  0.2688E+02
     21.750  0.8442E+00  0.2711E+02
     22.019  0.1557E+01  0.2752E+02
     22.287  0.1481E+00  0.2756E+02
     22.556  0.3561E+00  0.2766E+02
     22.824  0.1269E+01  0.2800E+02
     23.092  0.4226E+00  0.2811E+02
     23.361  0.1129E+01  0.2842E+02
     23.629  0.1119E+01  0.2872E+02
     23.897  0.6383E+00  0.2889E+02
     24.166  0.2693E+00  0.2896E+02
     24.434  0.4477E-01  0.2897E+02
     24.702  0.2506E+00  0.2904E+02
     24.971  0.5486E+00  0.2919E+02
     25.239  0.9677E+00  0.2945E+02
     25.507  0.1126E+01  0.2975E+02
     25.776  0.1158E+01  0.3006E+02
     26.044  0.8182E+00  0.3028E+02
     26.312  0.1454E+01  0.3067E+02
     26.581  0.1122E+01  0.3097E+02
     26.849  0.6594E+00  0.3115E+02
     27.117  0.1362E+01  0.3151E+02
     27.386  0.5073E+00  0.3165E+02
     27.654  0.1331E+01  0.3201E+02
     27.922  0.4140E+00  0.3212E+02
     28.191  0.1275E+01  0.3246E+02
     28.459  0.6827E+00  0.3264E+02
     28.727  0.6903E+00  0.3283E+02
     28.996  0.1049E+01  0.3311E+02
     29.264  0.5254E+00  0.3325E+02
     29.532  0.4445E+00  0.3337E+02
     29.801  0.6000E+00  0.3353E+02
     30.069  0.3691E+00  0.3363E+02
     30.338  0.7653E-01  0.3365E+02
     30.606 -0.3512E-01  0.3364E+02
     30.874  0.3940E+00  0.3375E+02
     31.143  0.9336E+00  0.3400E+02
     31.411  0.1136E+01  0.3430E+02
     31.679  0.1255E+01  0.3464E+02
     31.948  0.2154E+01  0.3522E+02
     32.216  0.9993E+00  0.3548E+02
     32.484  0.5150E+00  0.3562E+02
     32.753  0.1272E+01  0.3596E+02
     33.021  0.1814E+01  0.3645E+02
     33.289  0.4055E+00  0.3656E+02
     33.558  0.5782E+00  0.3671E+02
     33.826  0.1715E+00  0.3676E+02
     34.094  0.1480E+00  0.3680E+02
     34.363  0.1647E+01  0.3724E+02
     34.631  0.1511E+01  0.3765E+02
     34.899  0.9703E+00  0.3791E+02
     35.168  0.5582E+00  0.3806E+02
     35.436 -0.5762E-01  0.3804E+02
     35.704  0.2434E+00  0.3811E+02
     35.973  0.1190E+01  0.3843E+02
     36.241  0.1146E+00  0.3846E+02
     36.509  0.5926E+00  0.3862E+02
     36.778  0.6323E+00  0.3879E+02
     37.046  0.1085E+01  0.3908E+02
     37.314  0.8288E+00  0.3930E+02
     37.583  0.1309E+01  0.3965E+02
     37.851  0.1282E+00  0.3969E+02
     38.120  0.7589E+00  0.3989E+02
     38.388  0.1742E+01  0.4036E+02
     38.656  0.1045E+01  0.4064E+02
     38.925  0.1161E+00  0.4067E+02
     39.193  0.3797E+00  0.4077E+02
     39.461  0.5301E+00  0.4091E+02
     39.730  0.1045E+01  0.4119E+02
     39.998  0.1336E+01  0.4155E+02
     40.266  0.1076E+01  0.4184E+02
     40.535 -0.1558E-01  0.4184E+02
     40.803  0.1002E+01  0.4211E+02
     41.071  0.1852E+01  0.4260E+02
     41.340  0.1041E+00  0.4263E+02
     41.608  0.5769E+00  0.4279E+02
     41.876  0.7458E+00  0.4299E+02
     42.145  0.1926E+01  0.4350E+02
     42.413  0.1346E+01  0.4386E+02
     42.681  0.8009E+00  0.4408E+02
     42.950  0.2836E+00  0.4415E+02
     43.218  0.8646E+00  0.4439E+02
     43.486  0.2989E+00  0.4447E+02
     43.755  0.1471E+01  0.4486E+02
     44.023  0.1989E+01  0.4540E+02
     44.291  0.4698E+00  0.4552E+02
     44.560  0.7185E+00  0.4571E+02
     44.828  0.6695E+00  0.4589E+02
     45.097  0.3922E+00  0.4600E+02
     45.365  0.1918E+01  0.4651E+02
     45.633  0.1165E+01  0.4683E+02
     45.902  0.1855E+01  0.4732E+02
     46.170  0.7342E+00  0.4752E+02
     46.438  0.3198E+00  0.4761E+02
     46.707  0.6531E+00  0.4778E+02
     46.975  0.1806E+01  0.4827E+02
     47.243  0.3073E+00  0.4835E+02
     47.512  0.1431E+01  0.4873E+02
     47.780  0.1634E+01  0.4917E+02
     48.048  0.7194E+00  0.4936E+02
     48.317  0.3324E+00  0.4945E+02
     48.585  0.1711E+00  0.4950E+02
     48.853  0.1104E+01  0.4980E+02
     49.122  0.1457E+00  0.4984E+02
     49.390  0.3666E+00  0.4993E+02
     49.658  0.2304E+01  0.5055E+02
     49.927  0.7838E+00  0.5076E+02
     50.195  0.5101E+00  0.5090E+02
     50.463  0.1614E+01  0.5133E+02
     50.732  0.9113E+00  0.5158E+02
     51.000  0.2548E+01  0.5226E+02
     51.268  0.1023E+01  0.5254E+02
     51.537  0.3295E+00  0.5262E+02
     51.805  0.7967E+00  0.5284E+02
     52.073  0.2633E+00  0.5291E+02
     52.342  0.5682E+00  0.5306E+02
     52.610  0.3214E+00  0.5315E+02
     52.879  0.1184E+01  0.5346E+02
     53.147  0.7776E+00  0.5367E+02
     53.415  0.5244E+00  0.5381E+02
     53.684  0.1267E+01  0.5415E+02
     53.952  0.6458E+00  0.5433E+02
     54.220  0.9902E+00  0.5459E+02
     54.489  0.1544E+01  0.5501E+02
     54.757  0.2473E+01  0.5567E+02
     55.025  0.1226E+01  0.5600E+02
     55.294  0.1540E+01  0.5641E+02
     55.562  0.3981E+00  0.5652E+02
     55.830  0.6123E+00  0.5668E+02
     56.099  0.1556E+01  0.5710E+02
     56.367  0.7410E+00  0.5730E+02
     56.635  0.8722E-02  0.5730E+02
     56.904  0.1061E+01  0.5759E+02
     57.172  0.2291E+01  0.5820E+02
     57.440  0.2740E+01  0.5894E+02
     57.709  0.1122E+01  0.5924E+02
     57.977  0.2140E+01  0.5981E+02
     58.245  0.2049E+01  0.6036E+02
     58.514  0.1890E+01  0.6087E+02
     58.782  0.1683E+01  0.6132E+02
     59.050  0.1179E+01  0.6164E+02
     59.319  0.2412E+01  0.6229E+02
     59.587  0.1681E+01  0.6274E+02
     59.855  0.9845E+00  0.6300E+02
     60.124  0.1451E+01  0.6339E+02
     60.392  0.5948E+00  0.6355E+02
     60.661  0.1435E+01  0.6394E+02
     60.929  0.7206E+00  0.6413E+02
     61.197  0.1943E+01  0.6465E+02
     61.466  0.1487E+01  0.6505E+02
     61.734  0.6051E+00  0.6521E+02
     62.002  0.5503E+00  0.6536E+02
     62.271  0.1702E+01  0.6582E+02
     62.539  0.2451E+01  0.6647E+02
     62.807  0.2102E+01  0.6704E+02
     63.076  0.1612E+01  0.6747E+02
     63.344  0.2153E+01  0.6805E+02
     63.612  0.1750E+01  0.6852E+02
     63.881  0.1331E+01  0.6887E+02
     64.149  0.1475E+01  0.6927E+02
     64.417  0.1206E+01  0.6959E+02
     64.686  0.1864E+01  0.7009E+02
     64.954  0.1535E+01  0.7051E+02
     65.222  0.2110E+01  0.7107E+02
     65.491  0.9744E+00  0.7133E+02
     65.759  0.8107E+00  0.7155E+02
     66.027  0.2144E+01  0.7213E+02
     66.296  0.3353E+01  0.7303E+02
     66.564  0.1656E+01  0.7347E+02
     66.832  0.5947E+00  0.7363E+02
     67.101  0.2157E+01  0.7421E+02
     67.369  0.1500E+00  0.7425E+02
     67.637  0.1163E+01  0.7456E+02
     67.906  0.1761E+01  0.7503E+02
     68.174  0.9984E+00  0.7530E+02
     68.443  0.1986E+01  0.7583E+02
     68.711  0.1346E+01  0.7620E+02
     68.979  0.2153E+01  0.7677E+02
     69.248  0.2620E+01  0.7748E+02
     69.516  0.6374E+00  0.7765E+02
     69.784  0.5877E+00  0.7781E+02
     70.053  0.1008E+01  0.7808E+02
     70.321  0.1418E+01  0.7846E+02
     70.589  0.2480E+01  0.7912E+02
     70.858  0.1712E+01  0.7958E+02
     71.126  0.6680E+00  0.7976E+02
     71.394  0.2862E+00  0.7984E+02
     71.663  0.6067E+00  0.8000E+02
     71.931  0.7938E-03  0.8000E+02
     72.199 -0.2890E-02  0.8000E+02
     72.468 -0.2426E-05  0.8000E+02
     72.736 -0.4334E-10  0.8000E+02
     73.004  0.0000E+00  0.8000E+02
     73.273  0.0000E+00  0.8000E+02
     73.541  0.0000E+00  0.8000E+02
     73.809  0.0000E+00  0.8000E+02
     74.078  0.0000E+00  0.8000E+02
     74.346  0.0000E+00  0.8000E+02
     74.614  0.0000E+00  0.8000E+02
     74.883  0.0000E+00  0.8000E+02
     75.151  0.0000E+00  0.8000E+02
