    2    2    1    1
  0.9638209E+01  0.2330000E-09  0.2330000E-09  0.4100000E-09  0.5000000E-15
  1.000000000000000E-004
  CAR 
 unknown system                          
     16     15     40
 
  0.0000000E+00  0.0000000E+00  0.0000000E+00  0.8000000E-02
    1       -1.693104   1.000000
    2        2.117661   1.000000
    3        4.982245   1.000000
    4        5.634057   1.000000
    5        5.635821   1.000000
    6        5.998248   1.000000
    7        6.000107   1.000000
    8        6.783416   1.000003
    9        7.077046   1.006130
   10        7.077412   1.006169
   11        8.090407  -0.000100
   12        8.090883  -0.000099
   13       15.295561   0.000000
   14       31.476033   0.000000
   15       31.667155   0.000000
   16       34.632398   0.000000
   17       37.335249   0.000000
   18       37.336651   0.000000
   19       38.180409   0.000000
   20       38.182899   0.000000
   21       39.404604   0.000000
   22       40.784096   0.000000
   23       40.784483   0.000000
   24       41.758872   0.000000
   25       45.265245   0.000000
   26       45.265740   0.000000
   27       45.459789   0.000000
   28       49.353269   0.000000
   29       49.358246   0.000000
   30       50.744274   0.000000
   31       50.747466   0.000000
   32       53.551694   0.000000
   33       61.155477   0.000000
   34       63.296402   0.000000
   35       63.307197   0.000000
   36       63.618987   0.000000
   37       65.150486   0.000000
   38       66.324901   0.000000
   39       66.334297   0.000000
   40       68.129322   0.000000
 
  0.2000000E+00 -0.1306388E-16  0.0000000E+00  0.4800000E-01
    1       -0.124472   1.000000
    2        3.087649   1.000000
    3        4.499746   1.000000
    4        4.816097   1.000000
    5        5.355551   1.000000
    6        6.159810   1.000000
    7        6.419302   1.000000
    8        6.590790   1.000000
    9        6.636381   1.000000
   10        6.900778   1.000116
   11        8.283766  -0.000000
   12       11.801770  -0.000000
   13       15.467913   0.000000
   14       25.818869   0.000000
   15       30.953487   0.000000
   16       31.506197   0.000000
   17       31.618674   0.000000
   18       33.128667   0.000000
   19       37.138681   0.000000
   20       38.504329   0.000000
   21       38.608036   0.000000
   22       39.473951   0.000000
   23       42.049577   0.000000
   24       43.214844   0.000000
   25       46.759300   0.000000
   26       48.140155   0.000000
   27       49.503674   0.000000
   28       51.905214   0.000000
   29       53.542743   0.000000
   30       56.254115   0.000000
   31       57.386251   0.000000
   32       58.814775   0.000000
   33       59.856216   0.000000
   34       59.936661   0.000000
   35       60.434514   0.000000
   36       62.404171   0.000000
   37       64.491562   0.000000
   38       68.314886   0.000000
   39       68.670971   0.000000
   40       69.003640   0.000000
 
  0.4000000E+00  0.1037082E-16  0.0000000E+00  0.4800000E-01
    1        2.383502   1.000000
    2        2.863342   1.000000
    3        3.090193   1.000000
    4        5.256700   1.000000
    5        5.501707   1.000000
    6        5.864382   1.000000
    7        5.954010   1.000000
    8        8.272409  -0.000000
    9        8.458809  -0.000000
   10        8.522756  -0.000000
   11        8.868349  -0.000000
   12       14.954134   0.000000
   13       16.805844   0.000000
   14       19.262123   0.000000
   15       24.077839   0.000000
   16       26.120377   0.000000
   17       26.441752   0.000000
   18       31.825403   0.000000
   19       34.405766   0.000000
   20       37.007624   0.000000
   21       38.535576   0.000000
   22       40.831968   0.000000
   23       41.871888   0.000000
   24       43.551858   0.000000
   25       49.987641   0.000000
   26       53.217392   0.000000
   27       54.144228   0.000000
   28       57.737465   0.000000
   29       58.063692   0.000000
   30       58.198781   0.000000
   31       58.970270   0.000000
   32       61.471137   0.000000
   33       62.164412   0.000000
   34       62.605385   0.000000
   35       64.678491   0.000000
   36       66.754922   0.000000
   37       67.087844   0.000000
   38       68.132655   0.000000
   39       69.041816   0.000000
   40       69.079965   0.000000
 
  0.2000000E+00  0.2000000E+00  0.0000000E+00  0.4800000E-01
    1        2.323750   1.000000
    2        3.476682   1.000000
    3        3.934092   1.000000
    4        4.003782   1.000000
    5        5.386572   1.000000
    6        5.520497   1.000000
    7        6.245673   1.000000
    8        6.622514   1.000000
    9        8.068089  -0.000184
   10        8.114971  -0.000050
   11        8.952136  -0.000000
   12       15.602519   0.000000
   13       16.397784   0.000000
   14       21.537080   0.000000
   15       22.335754   0.000000
   16       27.608809   0.000000
   17       28.967182   0.000000
   18       31.100946   0.000000
   19       31.756269   0.000000
   20       38.282605   0.000000
   21       40.145510   0.000000
   22       43.764601   0.000000
   23       44.162461   0.000000
   24       46.553040   0.000000
   25       47.483444   0.000000
   26       49.494741   0.000000
   27       49.896022   0.000000
   28       54.383528   0.000000
   29       56.852498   0.000000
   30       57.128277   0.000000
   31       57.154455   0.000000
   32       62.129117   0.000000
   33       62.320909   0.000000
   34       62.924710   0.000000
   35       65.335970   0.000000
   36       65.801466   0.000000
   37       66.410856   0.000000
   38       67.751553   0.000000
   39       68.325834   0.000000
   40       71.142878   0.000000
 
  0.4000000E+00  0.2000000E+00  0.0000000E+00  0.4800000E-01
    1        3.191204   1.000000
    2        3.378587   1.000000
    3        3.560247   1.000000
    4        4.915507   1.000000
    5        5.309924   1.000000
    6        5.389237   1.000000
    7        6.103150   1.000000
    8        7.878716  -0.009994
    9        7.900105  -0.007111
   10        8.255087  -0.000000
   11       12.458946  -0.000000
   12       14.293759   0.000000
   13       19.712215   0.000000
   14       20.148807   0.000000
   15       20.839072   0.000000
   16       22.586461   0.000000
   17       25.072410   0.000000
   18       27.059512   0.000000
   19       29.997804   0.000000
   20       40.742554   0.000000
   21       42.662876   0.000000
   22       43.937121   0.000000
   23       45.367067   0.000000
   24       46.707314   0.000000
   25       50.375604   0.000000
   26       50.668187   0.000000
   27       51.555082   0.000000
   28       54.026289   0.000000
   29       55.939227   0.000000
   30       57.948577   0.000000
   31       59.308629   0.000000
   32       60.728189   0.000000
   33       62.734505   0.000000
   34       62.749582   0.000000
   35       67.783833   0.000000
   36       68.587359   0.000000
   37       70.312405   0.000000
   38       70.340238   0.000000
   39       70.401443   0.000000
   40       70.868433   0.000000
 
  0.0000000E+00  0.0000000E+00  0.2000000E+00  0.1600000E-01
    1       -1.295962   1.000000
    2        1.951036   1.000000
    3        4.890279   1.000000
    4        5.602407   1.000000
    5        5.604105   1.000000
    6        5.857729   1.000000
    7        5.917634   1.000000
    8        5.919435   1.000000
    9        7.275014   1.032108
   10        7.275427   1.031996
   11        8.050018  -0.000295
   12        8.050525  -0.000291
   13       16.948389   0.000000
   14       29.098176   0.000000
   15       31.855894   0.000000
   16       33.882104   0.000000
   17       37.512619   0.000000
   18       37.513725   0.000000
   19       38.198328   0.000000
   20       38.200515   0.000000
   21       40.630092   0.000000
   22       40.631392   0.000000
   23       40.944344   0.000000
   24       42.930915   0.000000
   25       43.794529   0.000000
   26       43.795888   0.000000
   27       46.950516   0.000000
   28       50.453227   0.000000
   29       50.457561   0.000000
   30       52.562082   0.000000
   31       52.649378   0.000000
   32       52.651888   0.000000
   33       58.580537   0.000000
   34       62.272681   0.000000
   35       62.281265   0.000000
   36       62.554174   0.000000
   37       62.558412   0.000000
   38       63.138909   0.000000
   39       64.213935   0.000000
   40       68.280416   0.000000
 
  0.2000000E+00 -0.1306388E-16  0.2000000E+00  0.9600000E-01
    1        0.208117   1.000000
    2        3.009597   1.000000
    3        4.208245   1.000000
    4        4.888819   1.000000
    5        5.167414   1.000000
    6        5.849611   1.000000
    7        6.409791   1.000000
    8        6.717640   1.000000
    9        6.945994   1.000381
   10        7.028629   1.002475
   11        8.108376  -0.000060
   12       10.330294  -0.000000
   13       17.701729   0.000000
   14       26.054207   0.000000
   15       29.690536   0.000000
   16       30.889669   0.000000
   17       31.402027   0.000000
   18       32.794107   0.000000
   19       35.767037   0.000000
   20       37.474612   0.000000
   21       39.184452   0.000000
   22       40.869972   0.000000
   23       43.645431   0.000000
   24       45.753051   0.000000
   25       47.667654   0.000000
   26       47.920661   0.000000
   27       48.645704   0.000000
   28       51.019928   0.000000
   29       52.932761   0.000000
   30       56.016955   0.000000
   31       57.188168   0.000000
   32       57.883151   0.000000
   33       58.377434   0.000000
   34       58.588940   0.000000
   35       61.894943   0.000000
   36       63.276274   0.000000
   37       64.998181   0.000000
   38       65.601093   0.000000
   39       66.401866   0.000000
   40       69.301216   0.000000
 
  0.4000000E+00  0.1037082E-16  0.2000000E+00  0.9600000E-01
    1        2.230108   1.000000
    2        2.748206   1.000000
    3        3.541670   1.000000
    4        4.318025   1.000000
    5        5.947921   1.000000
    6        6.160535   1.000000
    7        6.823515   1.000012
    8        8.034022  -0.000441
    9        8.489710  -0.000000
   10        8.554708  -0.000000
   11        8.580600  -0.000000
   12       12.929387  -0.000000
   13       18.034447   0.000000
   14       20.149713   0.000000
   15       23.280434   0.000000
   16       27.071084   0.000000
   17       27.588546   0.000000
   18       31.818749   0.000000
   19       34.180547   0.000000
   20       34.337113   0.000000
   21       37.330888   0.000000
   22       41.449105   0.000000
   23       42.210150   0.000000
   24       45.576045   0.000000
   25       49.612811   0.000000
   26       52.267617   0.000000
   27       54.579381   0.000000
   28       56.810712   0.000000
   29       56.989484   0.000000
   30       59.664675   0.000000
   31       60.124306   0.000000
   32       61.115141   0.000000
   33       62.518415   0.000000
   34       64.138665   0.000000
   35       64.690938   0.000000
   36       66.102963   0.000000
   37       66.951290   0.000000
   38       67.615753   0.000000
   39       70.031939   0.000000
   40       70.476277   0.000000
 
  0.2000000E+00  0.2000000E+00  0.2000000E+00  0.9600000E-01
    1        2.408294   1.000000
    2        3.330543   1.000000
    3        4.083024   1.000000
    4        4.148567   1.000000
    5        5.340080   1.000000
    6        5.436240   1.000000
    7        6.194116   1.000000
    8        6.910401   1.000151
    9        7.701456  -0.028992
   10        8.279972  -0.000000
   11        9.056455  -0.000000
   12       12.887175  -0.000000
   13       19.637629   0.000000
   14       21.850928   0.000000
   15       22.749217   0.000000
   16       26.404993   0.000000
   17       27.445911   0.000000
   18       32.381515   0.000000
   19       32.949595   0.000000
   20       35.832395   0.000000
   21       40.950372   0.000000
   22       43.895631   0.000000
   23       44.397978   0.000000
   24       45.210864   0.000000
   25       47.524422   0.000000
   26       49.575995   0.000000
   27       51.588230   0.000000
   28       53.451336   0.000000
   29       55.182775   0.000000
   30       58.402766   0.000000
   31       60.480489   0.000000
   32       62.253233   0.000000
   33       62.280168   0.000000
   34       62.550209   0.000000
   35       63.595205   0.000000
   36       65.836675   0.000000
   37       66.134316   0.000000
   38       67.546889   0.000000
   39       68.685247   0.000000
   40       68.868915   0.000000
 
  0.4000000E+00  0.2000000E+00  0.2000000E+00  0.9600000E-01
    1        2.968014   1.000000
    2        3.480342   1.000000
    3        4.104529   1.000000
    4        4.260699   1.000000
    5        5.122399   1.000000
    6        5.819597   1.000000
    7        6.435196   1.000000
    8        7.592072   0.132350
    9        7.979263  -0.001564
   10        8.360868  -0.000000
   11       12.574529  -0.000000
   12       14.136570   0.000000
   13       18.751023   0.000000
   14       19.332375   0.000000
   15       20.771323   0.000000
   16       24.740131   0.000000
   17       25.692435   0.000000
   18       26.645913   0.000000
   19       32.027962   0.000000
   20       38.302687   0.000000
   21       39.949381   0.000000
   22       42.069279   0.000000
   23       46.156845   0.000000
   24       47.525764   0.000000
   25       50.783322   0.000000
   26       50.847418   0.000000
   27       54.466201   0.000000
   28       55.283388   0.000000
   29       57.799477   0.000000
   30       58.063691   0.000000
   31       59.150863   0.000000
   32       59.474457   0.000000
   33       63.295479   0.000000
   34       63.692966   0.000000
   35       66.088818   0.000000
   36       68.310696   0.000000
   37       68.411638   0.000000
   38       70.255619   0.000000
   39       70.679822   0.000000
   40       71.491890   0.000000
 
  0.0000000E+00  0.0000000E+00  0.4000000E+00  0.1600000E-01
    1       -0.201047   1.000000
    2        1.180985   1.000000
    3        4.762196   1.000000
    4        4.896388   1.000000
    5        5.636974   1.000000
    6        5.638663   1.000000
    7        5.744538   1.000000
    8        5.746269   1.000000
    9        7.603876   0.101411
   10        7.604416   0.100078
   11        8.000089  -0.000986
   12        8.000631  -0.000974
   13       20.753163   0.000000
   14       25.040016   0.000000
   15       31.997461   0.000000
   16       32.698004   0.000000
   17       37.923875   0.000000
   18       37.924606   0.000000
   19       38.179237   0.000000
   20       38.180548   0.000000
   21       40.832302   0.000000
   22       40.835030   0.000000
   23       41.899684   0.000000
   24       41.902216   0.000000
   25       43.702229   0.000000
   26       44.836083   0.000000
   27       49.727366   0.000000
   28       50.826201   0.000000
   29       52.856483   0.000000
   30       52.859791   0.000000
   31       54.763768   0.000000
   32       54.766257   0.000000
   33       56.308174   0.000000
   34       59.003584   0.000000
   35       59.228389   0.000000
   36       59.232274   0.000000
   37       60.961245   0.000000
   38       60.965872   0.000000
   39       66.595753   0.000000
   40       69.007369   0.000000
 
  0.2000000E+00 -0.1306388E-16  0.4000000E+00  0.9600000E-01
    1        1.119935   1.000000
    2        2.293250   1.000000
    3        4.216423   1.000000
    4        4.666811   1.000000
    5        5.181094   1.000000
    6        5.527087   1.000000
    7        6.428512   1.000000
    8        6.565318   1.000000
    9        7.501428   0.464204
   10        7.691357  -0.024275
   11        7.947165  -0.003028
   12        8.723518  -0.000000
   13       21.728580   0.000000
   14       26.180448   0.000000
   15       26.940241   0.000000
   16       28.312534   0.000000
   17       32.768813   0.000000
   18       33.478778   0.000000
   19       34.344469   0.000000
   20       34.909147   0.000000
   21       42.213659   0.000000
   22       43.815067   0.000000
   23       45.308662   0.000000
   24       45.878776   0.000000
   25       46.840196   0.000000
   26       47.292569   0.000000
   27       50.871291   0.000000
   28       51.069848   0.000000
   29       53.665622   0.000000
   30       53.993272   0.000000
   31       54.947096   0.000000
   32       55.721359   0.000000
   33       57.659945   0.000000
   34       60.606196   0.000000
   35       61.384309   0.000000
   36       64.018866   0.000000
   37       64.434983   0.000000
   38       65.264973   0.000000
   39       66.044516   0.000000
   40       68.016541   0.000000
 
  0.4000000E+00  0.1037082E-16  0.4000000E+00  0.9600000E-01
    1        2.252200   1.000000
    2        2.555203   1.000000
    3        3.726645   1.000000
    4        3.945497   1.000000
    5        6.630634   1.000000
    6        6.701318   1.000000
    7        7.366467   0.934052
    8        7.684640  -0.020254
    9        8.468571  -0.000000
   10        8.478091  -0.000000
   11        8.507412  -0.000000
   12       10.467614  -0.000000
   13       18.985080   0.000000
   14       20.010870   0.000000
   15       25.176170   0.000000
   16       28.012058   0.000000
   17       28.782562   0.000000
   18       31.335060   0.000000
   19       31.898837   0.000000
   20       32.704415   0.000000
   21       36.892156   0.000000
   22       39.667693   0.000000
   23       45.130676   0.000000
   24       46.858440   0.000000
   25       48.792655   0.000000
   26       50.354577   0.000000
   27       54.693585   0.000000
   28       57.378196   0.000000
   29       58.521763   0.000000
   30       58.779250   0.000000
   31       59.957879   0.000000
   32       61.433189   0.000000
   33       64.841708   0.000000
   34       65.048351   0.000000
   35       65.125928   0.000000
   36       65.951318   0.000000
   37       66.278758   0.000000
   38       66.924946   0.000000
   39       69.025383   0.000000
   40       70.846284   0.000000
 
  0.2000000E+00  0.2000000E+00  0.4000000E+00  0.9600000E-01
    1        2.691405   1.000000
    2        3.031182   1.000000
    3        4.377368   1.000000
    4        4.480542   1.000000
    5        5.110218   1.000000
    6        5.143659   1.000000
    7        6.441840   1.000000
    8        7.005146   1.001514
    9        7.945885  -0.003105
   10        8.488909  -0.000000
   11        9.355321  -0.000000
   12       10.479689  -0.000000
   13       22.796958   0.000000
   14       23.279636   0.000000
   15       23.678941   0.000000
   16       25.367988   0.000000
   17       25.530090   0.000000
   18       28.696274   0.000000
   19       36.341378   0.000000
   20       38.100211   0.000000
   21       40.065239   0.000000
   22       41.863110   0.000000
   23       42.541190   0.000000
   24       43.092357   0.000000
   25       49.431548   0.000000
   26       50.283526   0.000000
   27       52.768310   0.000000
   28       55.022097   0.000000
   29       57.294408   0.000000
   30       59.128823   0.000000
   31       59.211441   0.000000
   32       61.006332   0.000000
   33       62.837119   0.000000
   34       62.898215   0.000000
   35       63.348071   0.000000
   36       63.634933   0.000000
   37       66.284399   0.000000
   38       69.092023   0.000000
   39       69.587205   0.000000
   40       70.424104   0.000000
 
  0.4000000E+00  0.2000000E+00  0.4000000E+00  0.9600000E-01
    1        2.957845   1.000000
    2        3.311877   1.000000
    3        4.057204   1.000000
    4        4.494641   1.000000
    5        5.055234   1.000000
    6        5.809338   1.000000
    7        6.837753   1.000018
    8        7.109770   1.010389
    9        8.106364  -0.000064
   10        8.324752  -0.000000
   11       12.929636  -0.000000
   12       13.570237   0.000000
   13       17.950411   0.000000
   14       18.093118   0.000000
   15       21.897910   0.000000
   16       23.544899   0.000000
   17       28.083841   0.000000
   18       29.284159   0.000000
   19       34.506216   0.000000
   20       34.822493   0.000000
   21       36.708340   0.000000
   22       39.748387   0.000000
   23       44.669990   0.000000
   24       45.727329   0.000000
   25       54.469347   0.000000
   26       54.549738   0.000000
   27       56.036591   0.000000
   28       56.998526   0.000000
   29       57.334402   0.000000
   30       58.091283   0.000000
   31       59.428383   0.000000
   32       61.092017   0.000000
   33       63.164965   0.000000
   34       64.115568   0.000000
   35       64.532657   0.000000
   36       66.939844   0.000000
   37       67.746528   0.000000
   38       68.958890   0.000000
   39       69.902431   0.000000
   40       70.622812   0.000000
