<?xml version="1.0" encoding="ISO-8859-1"?>
<modeling>
 <generator>
  <i name="program" type="string">vasp </i>
  <i name="version" type="string">6.2.0  </i>
  <i name="subversion" type="string">18Jan21 (build Mar 17 2021 09:06:54) complex                          serial </i>
  <i name="platform" type="string">LinuxIFC </i>
  <i name="date" type="string">2021 09 09 </i>
  <i name="time" type="string">13:51:15 </i>
 </generator>
 <incar>
  <i type="string" name="PREC">normal</i>
  <i type="int" name="ICHARG">     1</i>
  <i type="int" name="IBRION">    -1</i>
  <i name="EDIFF">      0.00000100</i>
  <i type="int" name="NSW">     0</i>
  <i name="ENCUT">    210.00000000</i>
  <i type="int" name="NBANDS">    40</i>
  <i type="int" name="ISMEAR">     1</i>
  <i name="SIGMA">      0.20000000</i>
  <i type="logical" name="LCHARG"> T  </i>
  <i type="int" name="KPAR">     1</i>
  <i type="int" name="NCORE">     1</i>
  <i type="string" name="GGA">PE</i>
 </incar>
 <primitive_cell>
  <structure name="primitive_cell" >
   <crystal>
    <varray name="basis" >
     <v>       2.33000000       0.00000000       0.00000000 </v>
     <v>      -1.16500000       2.01783919       0.00000000 </v>
     <v>       0.00000000       0.00000000       4.10000000 </v>
    </varray>
    <i name="volume">     19.27641779 </i>
    <varray name="rec_basis" >
     <v>       0.42918455       0.24778982       0.00000000 </v>
     <v>       0.00000000       0.49557963       0.00000000 </v>
     <v>       0.00000000       0.00000000       0.24390244 </v>
    </varray>
   </crystal>
   <varray name="positions" >
    <v>       0.00000000       0.00000000       0.00000000 </v>
    <v>       0.33333333       0.66666667       0.50000000 </v>
   </varray>
  </structure>
  <varray name="primitive_index" >
   <v type="int" >        1 </v>
   <v type="int" >        2 </v>
  </varray>
 </primitive_cell>
 <kpoints>
  <generation param="Monkhorst-Pack">
   <v type="int" name="divisions">       5        5        5 </v>
   <v name="usershift">      0.00000000       0.00000000       0.00000000 </v>
   <v name="genvec1">      0.20000000       0.00000000       0.00000000 </v>
   <v name="genvec2">      0.00000000       0.20000000       0.00000000 </v>
   <v name="genvec3">      0.00000000       0.00000000       0.20000000 </v>
   <v name="shift">      0.00000000       0.00000000       0.00000000 </v>
  </generation>
  <varray name="kpointlist" >
   <v>       0.00000000       0.00000000       0.00000000 </v>
   <v>       0.20000000      -0.00000000       0.00000000 </v>
   <v>       0.40000000       0.00000000       0.00000000 </v>
   <v>       0.20000000       0.20000000       0.00000000 </v>
   <v>       0.40000000       0.20000000       0.00000000 </v>
   <v>       0.00000000       0.00000000       0.20000000 </v>
   <v>       0.20000000      -0.00000000       0.20000000 </v>
   <v>       0.40000000       0.00000000       0.20000000 </v>
   <v>       0.20000000       0.20000000       0.20000000 </v>
   <v>       0.40000000       0.20000000       0.20000000 </v>
   <v>       0.00000000       0.00000000       0.40000000 </v>
   <v>       0.20000000      -0.00000000       0.40000000 </v>
   <v>       0.40000000       0.00000000       0.40000000 </v>
   <v>       0.20000000       0.20000000       0.40000000 </v>
   <v>       0.40000000       0.20000000       0.40000000 </v>
  </varray>
  <varray name="weights" >
   <v>       0.00800000 </v>
   <v>       0.04800000 </v>
   <v>       0.04800000 </v>
   <v>       0.04800000 </v>
   <v>       0.04800000 </v>
   <v>       0.01600000 </v>
   <v>       0.09600000 </v>
   <v>       0.09600000 </v>
   <v>       0.09600000 </v>
   <v>       0.09600000 </v>
   <v>       0.01600000 </v>
   <v>       0.09600000 </v>
   <v>       0.09600000 </v>
   <v>       0.09600000 </v>
   <v>       0.09600000 </v>
  </varray>
 </kpoints>
 <parameters>
  <separator name="general" >
   <i type="string" name="SYSTEM">unknown system</i>
   <i type="logical" name="LCOMPAT"> F  </i>
  </separator>
  <separator name="electronic" >
   <i type="string" name="PREC">normal</i>
   <i name="ENMAX">    210.00000000</i>
   <i name="ENAUG">    511.36800000</i>
   <i name="EDIFF">      0.00000100</i>
   <i type="int" name="IALGO">    38</i>
   <i type="int" name="IWAVPR">     0</i>
   <i type="int" name="NBANDS">    40</i>
   <i type="int" name="NBANDSLOW">    -1</i>
   <i type="int" name="NBANDSHIGH">    -1</i>
   <i name="NELECT">     16.00000000</i>
   <i type="int" name="TURBO">     0</i>
   <i type="int" name="IRESTART">     0</i>
   <i type="int" name="NREBOOT">     0</i>
   <i type="int" name="NMIN">     0</i>
   <i name="EREF">      0.00000000</i>
   <separator name="electronic smearing" >
    <i type="int" name="ISMEAR">     1</i>
    <i name="SIGMA">      0.20000000</i>
    <i name="KSPACING">      0.50000000</i>
    <i type="logical" name="KGAMMA"> T  </i>
    <i type="logical" name="KBLOWUP"> T  </i>
   </separator>
   <separator name="electronic projectors" >
    <i type="logical" name="LREAL"> F  </i>
    <v name="ROPT">      0.00000000</v>
    <i type="int" name="LMAXPAW">  -100</i>
    <i type="int" name="LMAXMIX">     2</i>
    <i type="logical" name="NLSPLINE"> F  </i>
   </separator>
   <separator name="electronic startup" >
    <i type="int" name="ISTART">     1</i>
    <i type="int" name="ICHARG">     1</i>
    <i type="int" name="INIWAV">     1</i>
   </separator>
   <separator name="electronic spin" >
    <i type="int" name="ISPIN">     1</i>
    <i type="logical" name="LNONCOLLINEAR"> F  </i>
    <v name="MAGMOM">      1.00000000      1.00000000</v>
    <i name="NUPDOWN">     -1.00000000</i>
    <i type="logical" name="LSORBIT"> F  </i>
    <v name="SAXIS">      0.00000000      0.00000000      1.00000000</v>
    <i type="logical" name="LSPIRAL"> F  </i>
    <v name="QSPIRAL">      0.00000000      0.00000000      0.00000000</v>
    <i type="logical" name="LZEROZ"> F  </i>
   </separator>
   <separator name="electronic exchange-correlation" >
    <i type="logical" name="LASPH"> F  </i>
    <i type="logical" name="LMETAGGA"> F  </i>
   </separator>
   <separator name="electronic convergence" >
    <i type="int" name="NELM">    60</i>
    <i type="int" name="NELMDL">     0</i>
    <i type="int" name="NELMIN">     2</i>
    <i name="ENINI">    210.00000000</i>
    <separator name="electronic convergence detail" >
     <i type="logical" name="LDIAG"> T  </i>
     <i type="logical" name="LSUBROT"> F  </i>
     <i name="WEIMIN">      0.00000000</i>
     <i name="EBREAK">      0.00000001</i>
     <i name="DEPER">      0.30000000</i>
     <i type="int" name="NRMM">     4</i>
     <i name="TIME">      0.40000000</i>
    </separator>
   </separator>
   <separator name="electronic mixer" >
    <i name="AMIX">      0.40000000</i>
    <i name="BMIX">      1.00000000</i>
    <i name="AMIN">      0.10000000</i>
    <i name="AMIX_MAG">      1.60000000</i>
    <i name="BMIX_MAG">      1.00000000</i>
    <separator name="electronic mixer details" >
     <i type="int" name="IMIX">     4</i>
     <i type="logical" name="MIXFIRST"> F  </i>
     <i type="int" name="MAXMIX">   -45</i>
     <i name="WC">    100.00000000</i>
     <i type="int" name="INIMIX">     1</i>
     <i type="int" name="MIXPRE">     1</i>
     <i type="int" name="MREMOVE">     5</i>
    </separator>
   </separator>
   <separator name="electronic dipolcorrection" >
    <i type="logical" name="LDIPOL"> F  </i>
    <i type="logical" name="LMONO"> F  </i>
    <i type="int" name="IDIPOL">     0</i>
    <i name="EPSILON">      1.00000000</i>
    <v name="DIPOL">   -100.00000000   -100.00000000   -100.00000000</v>
    <i name="EFIELD">      0.00000000</i>
   </separator>
  </separator>
  <separator name="grids" >
   <i type="int" name="NGX">     8</i>
   <i type="int" name="NGY">     8</i>
   <i type="int" name="NGZ">    16</i>
   <i type="int" name="NGXF">    16</i>
   <i type="int" name="NGYF">    16</i>
   <i type="int" name="NGZF">    32</i>
   <i type="logical" name="ADDGRID"> F  </i>
  </separator>
  <separator name="ionic" >
   <i type="int" name="NSW">     0</i>
   <i type="int" name="IBRION">    -1</i>
   <i type="int" name="MDALGO">     0</i>
   <i type="int" name="ISIF">     2</i>
   <i name="PSTRESS">      0.00000000</i>
   <i name="EDIFFG">      0.00001000</i>
   <i type="int" name="NFREE">     0</i>
   <i name="POTIM">      0.50000000</i>
   <i name="SMASS">     -3.00000000</i>
   <i name="SCALEE">      1.00000000</i>
  </separator>
  <separator name="ionic md" >
   <i name="TEBEG">      0.00010000</i>
   <i name="TEEND">      0.00010000</i>
   <i type="int" name="NBLOCK">     1</i>
   <i type="int" name="KBLOCK">     1</i>
   <i type="int" name="NPACO">   256</i>
   <i name="APACO">     16.00000000</i>
  </separator>
  <separator name="symmetry" >
   <i type="int" name="ISYM">     2</i>
   <i name="SYMPREC">      0.00001000</i>
  </separator>
  <separator name="dos" >
   <i type="int" name="LORBIT">     0</i>
   <v name="RWIGS">     -1.00000000</v>
   <i type="int" name="NEDOS">   301</i>
   <i name="EMIN">     10.00000000</i>
   <i name="EMAX">    -10.00000000</i>
   <i name="EFERMI">      0.00000000</i>
  </separator>
  <separator name="writing" >
   <i type="int" name="NWRITE">     2</i>
   <i type="logical" name="LWAVE"> T  </i>
   <i type="logical" name="LDOWNSAMPLE"> F  </i>
   <i type="logical" name="LCHARG"> T  </i>
   <i type="logical" name="LPARD"> F  </i>
   <i type="logical" name="LVTOT"> F  </i>
   <i type="logical" name="LVHAR"> F  </i>
   <i type="logical" name="LELF"> F  </i>
   <i type="logical" name="LOPTICS"> F  </i>
   <v name="STM">      0.00000000      0.00000000      0.00000000      0.00000000      0.00000000      0.00000000      0.00000000</v>
  </separator>
  <separator name="performance" >
   <i type="int" name="NPAR">     1</i>
   <i type="int" name="NSIM">     4</i>
   <i type="int" name="NBLK">    -1</i>
   <i type="logical" name="LPLANE"> T  </i>
   <i type="logical" name="LSCALAPACK"> F  </i>
   <i type="logical" name="LSCAAWARE"> F  </i>
   <i type="logical" name="LSCALU"> F  </i>
   <i type="logical" name="LASYNC"> F  </i>
   <i type="logical" name="LORBITALREAL"> F  </i>
  </separator>
  <separator name="miscellaneous" >
   <i type="int" name="IDIOT">     3</i>
   <i type="int" name="PHON_NSTRUCT">    -1</i>
   <i type="logical" name="LMUSIC"> F  </i>
   <v name="POMASS">     55.84700000</v>
   <v name="DARWINR">      0.00000000</v>
   <v name="DARWINV">      1.00000000</v>
   <i type="logical" name="LCORR"> T  </i>
  </separator>
  <i type="logical" name="GGA_COMPAT"> T  </i>
  <i type="logical" name="LBERRY"> F  </i>
  <i type="int" name="ICORELEVEL">     0</i>
  <i type="logical" name="LDAU"> F  </i>
  <i type="int" name="I_CONSTRAINED_M">     0</i>
  <separator name="electronic exchange-correlation" >
   <i type="string" name="GGA">PE</i>
   <i type="int" name="VOSKOWN">     0</i>
   <i type="logical" name="LHFCALC"> F  </i>
   <i type="string" name="PRECFOCK"></i>
   <i type="logical" name="LSYMGRAD"> F  </i>
   <i type="logical" name="LHFONE"> F  </i>
   <i type="logical" name="LRHFCALC"> F  </i>
   <i type="logical" name="LTHOMAS"> F  </i>
   <i type="logical" name="LMODELHF"> F  </i>
   <i type="logical" name="LFOCKACE"> F  </i>
   <i name="ENCUT4O">     -1.00000000</i>
   <i type="int" name="EXXOEP">     0</i>
   <i type="int" name="FOURORBIT">     0</i>
   <i name="AEXX">      0.00000000</i>
   <i name="HFALPHA">      0.00000000</i>
   <i name="MCALPHA">      0.00000000</i>
   <i name="ALDAX">      1.00000000</i>
   <i name="AGGAX">      1.00000000</i>
   <i name="ALDAC">      1.00000000</i>
   <i name="AGGAC">      1.00000000</i>
   <i type="int" name="NKREDX">     1</i>
   <i type="int" name="NKREDY">     1</i>
   <i type="int" name="NKREDZ">     1</i>
   <i type="logical" name="SHIFTRED"> F  </i>
   <i type="logical" name="ODDONLY"> F  </i>
   <i type="logical" name="EVENONLY"> F  </i>
   <i type="int" name="LMAXFOCK">     0</i>
   <i type="int" name="NMAXFOCKAE">     0</i>
   <i type="logical" name="LFOCKAEDFT"> F  </i>
   <i name="HFSCREEN">      0.00000000</i>
   <i name="HFSCREENC">      0.00000000</i>
   <i type="int" name="NBANDSGWLOW">     0</i>
  </separator>
  <separator name="vdW DFT" >
   <i type="logical" name="LUSE_VDW"> F  </i>
   <i name="Zab_VDW">     -0.84910000</i>
   <i name="PARAM1">      0.12340000</i>
   <i name="PARAM2">      1.00000000</i>
   <i name="PARAM3">      0.00000000</i>
  </separator>
  <separator name="model GW" >
   <i type="int" name="MODEL_GW">     0</i>
   <i name="MODEL_EPS0">      5.78292534</i>
   <i name="MODEL_ALPHA">      1.00000000</i>
  </separator>
  <separator name="linear response parameters" >
   <i type="logical" name="LEPSILON"> F  </i>
   <i type="logical" name="LRPA"> F  </i>
   <i type="logical" name="LNABLA"> F  </i>
   <i type="logical" name="LVEL"> F  </i>
   <i type="int" name="KINTER">     0</i>
   <i name="CSHIFT">      0.10000000</i>
   <i name="OMEGAMAX">     -1.00000000</i>
   <i name="DEG_THRESHOLD">      0.00200000</i>
   <i name="RTIME">     -0.10000000</i>
   <i name="WPLASMAI">      0.00000000</i>
   <v name="DFIELD">      0.00000000      0.00000000      0.00000000</v>
   <v name="WPLASMA">      0.00000000      0.00000000      0.00000000      0.00000000      0.00000000      0.00000000      0.00000000      0.00000000      0.00000000</v>
  </separator>
  <separator name="orbital magnetization" >
   <i type="logical" name="NUCIND"> F  </i>
   <v name="MAGPOS">      0.00000000      0.00000000      0.00000000</v>
   <i type="logical" name="LNICSALL"> T  </i>
   <i type="logical" name="ORBITALMAG"> F  </i>
   <i type="logical" name="LMAGBLOCH"> F  </i>
   <i type="logical" name="LCHIMAG"> F  </i>
   <i type="logical" name="LGAUGE"> T  </i>
   <i type="int" name="MAGATOM">     0</i>
   <v name="MAGDIPOL">      0.00000000      0.00000000      0.00000000</v>
   <v name="AVECCONST">      0.00000000      0.00000000      0.00000000</v>
  </separator>
  <separator name="response functions" >
   <i type="logical" name="LFINITE_TEMPERATURE"> F  </i>
   <i type="logical" name="LADDER"> F  </i>
   <i type="logical" name="LRPAFORCE"> F  </i>
   <i type="logical" name="LFXC"> F  </i>
   <i type="logical" name="LHARTREE"> T  </i>
   <i type="int" name="IBSE">     0</i>
   <v type="int" name="KPOINT">    -1     0     0     0</v>
   <i type="logical" name="LTCTC"> F  </i>
   <i type="logical" name="LTCTE"> F  </i>
   <i type="logical" name="LTETE"> F  </i>
   <i type="logical" name="LTRIPLET"> F  </i>
   <i type="logical" name="LFXCEPS"> F  </i>
   <i type="logical" name="LFXHEG"> F  </i>
   <i type="int" name="NATURALO">     2</i>
   <i type="logical" name="LHOLEGF"> F  </i>
   <i type="logical" name="L2ORDER"> F  </i>
   <i type="logical" name="LDMP1"> F  </i>
   <i type="logical" name="LMP2LT"> F  </i>
   <i type="logical" name="LSMP2LT"> F  </i>
   <i type="logical" name="LGWLF"> F  </i>
   <i name="ENCUTGW">     -2.00000000</i>
   <i name="ENCUTGWSOFT">     -2.00000000</i>
   <i name="ENCUTLF">     -1.00000000</i>
   <i type="logical" name="LESF_SPLINES"> F  </i>
   <i type="int" name="LMAXMP2">    -1</i>
   <i name="SCISSOR">      0.00000000</i>
   <i type="int" name="NOMEGA">     0</i>
   <i type="int" name="NOMEGAR">     0</i>
   <i type="int" name="NBANDSGW">    -1</i>
   <i type="int" name="NBANDSO">    -1</i>
   <i type="int" name="NBANDSV">    -1</i>
   <i type="int" name="NELM">     1</i>
   <i type="int" name="NELMHF">     1</i>
   <i type="int" name="DIM">     3</i>
   <i type="int" name="IESPILON">     4</i>
   <i type="int" name="ANTIRES">     0</i>
   <i name="OMEGAMAX">    -30.00000000</i>
   <i name="OMEGAMIN">    -30.00000000</i>
   <i name="OMEGATL">   -200.00000000</i>
   <i type="int" name="OMEGAGRID">     0</i>
   <i name="CSHIFT">     -0.10000000</i>
   <i type="logical" name="LSELFENERGY"> F  </i>
   <i type="logical" name="LSPECTRAL"> F  </i>
   <i type="logical" name="LSPECTRALGW"> F  </i>
   <i type="logical" name="LSINGLES"> F  </i>
   <i type="logical" name="LFERMIGW"> F  </i>
   <i type="logical" name="ODDONLYGW"> F  </i>
   <i type="logical" name="EVENONLYGW"> F  </i>
   <i type="int" name="NKREDLFX">     1</i>
   <i type="int" name="NKREDLFY">     1</i>
   <i type="int" name="NKREDLFZ">     1</i>
   <i type="int" name="MAXMEM">  2800</i>
   <i type="int" name="TELESCOPE">     0</i>
   <i type="int" name="NTAUPAR">    -1</i>
   <i type="int" name="NOMEGAPAR">    -1</i>
   <i name="DAMP_NEWTON">      0.80000001</i>
   <i name="LAMBDA">      1.00000000</i>
  </separator>
  <separator name="External order field" >
   <i name="OFIELD_KAPPA">      0.00000000</i>
   <v name="OFIELD_K">      0.00000000      0.00000000      0.00000000</v>
   <i name="OFIELD_Q6_NEAR">      0.00000000</i>
   <i name="OFIELD_Q6_FAR">      0.00000000</i>
   <i name="OFIELD_A">      0.00000000</i>
  </separator>
 </parameters>
 <atominfo>
  <atoms>       2 </atoms>
  <types>       1 </types>
  <array name="atoms" >
   <dimension dim="1">ion</dimension>
   <field type="string">element</field>
   <field type="int">atomtype</field>
   <set>
    <rc><c>Fe</c><c>   1</c></rc>
    <rc><c>Fe</c><c>   1</c></rc>
   </set>
  </array>
  <array name="atomtypes" >
   <dimension dim="1">type</dimension>
   <field type="int">atomspertype</field>
   <field type="string">element</field>
   <field>mass</field>
   <field>valence</field>
   <field type="string">pseudopotential</field>
   <set>
    <rc><c>   2</c><c>Fe</c><c>     55.84700000</c><c>      8.00000000</c><c>  PAW_PBE Fe 06Sep2000                  </c></rc>
   </set>
  </array>
 </atominfo>
 <structure name="initialpos" >
  <crystal>
   <varray name="basis" >
    <v>       2.33000000       0.00000000       0.00000000 </v>
    <v>      -1.16500000       2.01783919       0.00000000 </v>
    <v>       0.00000000       0.00000000       4.10000000 </v>
   </varray>
   <i name="volume">     19.27641779 </i>
   <varray name="rec_basis" >
    <v>       0.42918455       0.24778982       0.00000000 </v>
    <v>       0.00000000       0.49557963       0.00000000 </v>
    <v>       0.00000000       0.00000000       0.24390244 </v>
   </varray>
  </crystal>
  <varray name="positions" >
   <v>       0.00000000       0.00000000       0.00000000 </v>
   <v>       0.33333333       0.66666667       0.50000000 </v>
  </varray>
 </structure>
 <calculation>
  <scstep>
   <time name="dav">    0.07    0.08</time>
   <time name="total">    0.08    0.09</time>
   <energy>
    <i name="alphaZ">    143.41622339 </i>
    <i name="ewald">  -1249.69361233 </i>
    <i name="hartreedc">   -165.21859587 </i>
    <i name="XCdc">      7.17672980 </i>
    <i name="pawpsdc">   1570.21565833 </i>
    <i name="pawaedc">  -1585.34008840 </i>
    <i name="eentropy">      0.00103267 </i>
    <i name="bandstr">     76.08099842 </i>
    <i name="atom">   1187.72960955 </i>
    <i name="e_fr_energy">    -15.63204444 </i>
    <i name="e_wo_entrp">    -15.63307710 </i>
    <i name="e_0_energy">    -15.63238866 </i>
   </energy>
  </scstep>
  <scstep>
   <time name="dav">    0.06    0.06</time>
   <time name="total">    0.07    0.07</time>
   <energy>
    <i name="e_fr_energy">    -15.63183919 </i>
    <i name="e_wo_entrp">    -15.63276962 </i>
    <i name="e_0_energy">    -15.63214933 </i>
   </energy>
  </scstep>
  <scstep>
   <time name="dav">    0.05    0.05</time>
   <time name="total">    0.06    0.06</time>
   <energy>
    <i name="e_fr_energy">    -15.63185328 </i>
    <i name="e_wo_entrp">    -15.63278933 </i>
    <i name="e_0_energy">    -15.63216530 </i>
   </energy>
  </scstep>
  <scstep>
   <time name="dav">    0.05    0.05</time>
   <time name="total">    0.05    0.05</time>
   <energy>
    <i name="alphaZ">    143.41622339 </i>
    <i name="ewald">  -1249.69361233 </i>
    <i name="hartreedc">   -165.21859594 </i>
    <i name="XCdc">      7.17672997 </i>
    <i name="pawpsdc">   1570.21803226 </i>
    <i name="pawaedc">  -1585.34274644 </i>
    <i name="eentropy">      0.00093530 </i>
    <i name="bandstr">     76.08157120 </i>
    <i name="atom">   1187.72960955 </i>
    <i name="e_fr_energy">    -15.63185304 </i>
    <i name="e_wo_entrp">    -15.63278835 </i>
    <i name="e_0_energy">    -15.63216481 </i>
   </energy>
  </scstep>
  <structure>
   <crystal>
    <varray name="basis" >
     <v>       2.33000000       0.00000000       0.00000000 </v>
     <v>      -1.16500000       2.01783919       0.00000000 </v>
     <v>       0.00000000       0.00000000       4.10000000 </v>
    </varray>
    <i name="volume">     19.27641779 </i>
    <varray name="rec_basis" >
     <v>       0.42918455       0.24778982       0.00000000 </v>
     <v>       0.00000000       0.49557963       0.00000000 </v>
     <v>       0.00000000       0.00000000       0.24390244 </v>
    </varray>
   </crystal>
   <varray name="positions" >
    <v>       0.00000000       0.00000000       0.00000000 </v>
    <v>       0.33333333       0.66666667       0.50000000 </v>
   </varray>
  </structure>
  <varray name="forces" >
   <v>      -0.00000000       0.00000000      -0.00000000 </v>
   <v>       0.00000000      -0.00000000       0.00000000 </v>
  </varray>
  <varray name="stress" >
   <v>    -454.91714539      -0.00000000       0.00000000 </v>
   <v>      -0.00000000    -454.91714539      -0.00000000 </v>
   <v>       0.00000000       0.00000000   -1057.65277304 </v>
  </varray>
  <energy>
   <i name="e_fr_energy">    -15.63185304 </i>
   <i name="e_wo_entrp">    -15.63278835 </i>
   <i name="e_0_energy">    -15.63216481 </i>
  </energy>
  <time name="totalsc">    0.30    0.32</time>
  <eigenvalues>
   <array>
    <dimension dim="1">band</dimension>
    <dimension dim="2">kpoint</dimension>
    <dimension dim="3">spin</dimension>
    <field>eigene</field>
    <field>occ</field>
    <set>
     <set comment="spin 1">
      <set comment="kpoint 1">
       <r>   -1.6931    1.0000 </r>
       <r>    2.1177    1.0000 </r>
       <r>    4.9822    1.0000 </r>
       <r>    5.6341    1.0000 </r>
       <r>    5.6358    1.0000 </r>
       <r>    5.9982    1.0000 </r>
       <r>    6.0001    1.0000 </r>
       <r>    6.7834    1.0000 </r>
       <r>    7.0770    1.0061 </r>
       <r>    7.0774    1.0062 </r>
       <r>    8.0904   -0.0001 </r>
       <r>    8.0909   -0.0001 </r>
       <r>   15.2956    0.0000 </r>
       <r>   31.4760    0.0000 </r>
       <r>   31.6672    0.0000 </r>
       <r>   34.6324    0.0000 </r>
       <r>   37.3352    0.0000 </r>
       <r>   37.3367    0.0000 </r>
       <r>   38.1804    0.0000 </r>
       <r>   38.1829    0.0000 </r>
       <r>   39.4046    0.0000 </r>
       <r>   40.7841    0.0000 </r>
       <r>   40.7845    0.0000 </r>
       <r>   41.7589    0.0000 </r>
       <r>   45.2652    0.0000 </r>
       <r>   45.2657    0.0000 </r>
       <r>   45.4598    0.0000 </r>
       <r>   49.3533    0.0000 </r>
       <r>   49.3582    0.0000 </r>
       <r>   50.7443    0.0000 </r>
       <r>   50.7475    0.0000 </r>
       <r>   53.5517    0.0000 </r>
       <r>   61.1555    0.0000 </r>
       <r>   63.2964    0.0000 </r>
       <r>   63.3072    0.0000 </r>
       <r>   63.6190    0.0000 </r>
       <r>   65.1505    0.0000 </r>
       <r>   66.3249    0.0000 </r>
       <r>   66.3343    0.0000 </r>
       <r>   68.1293    0.0000 </r>
      </set>
      <set comment="kpoint 2">
       <r>   -0.1245    1.0000 </r>
       <r>    3.0876    1.0000 </r>
       <r>    4.4997    1.0000 </r>
       <r>    4.8161    1.0000 </r>
       <r>    5.3556    1.0000 </r>
       <r>    6.1598    1.0000 </r>
       <r>    6.4193    1.0000 </r>
       <r>    6.5908    1.0000 </r>
       <r>    6.6364    1.0000 </r>
       <r>    6.9008    1.0001 </r>
       <r>    8.2838   -0.0000 </r>
       <r>   11.8018   -0.0000 </r>
       <r>   15.4679    0.0000 </r>
       <r>   25.8189    0.0000 </r>
       <r>   30.9535    0.0000 </r>
       <r>   31.5062    0.0000 </r>
       <r>   31.6187    0.0000 </r>
       <r>   33.1287    0.0000 </r>
       <r>   37.1387    0.0000 </r>
       <r>   38.5043    0.0000 </r>
       <r>   38.6080    0.0000 </r>
       <r>   39.4740    0.0000 </r>
       <r>   42.0496    0.0000 </r>
       <r>   43.2148    0.0000 </r>
       <r>   46.7593    0.0000 </r>
       <r>   48.1402    0.0000 </r>
       <r>   49.5037    0.0000 </r>
       <r>   51.9052    0.0000 </r>
       <r>   53.5427    0.0000 </r>
       <r>   56.2541    0.0000 </r>
       <r>   57.3863    0.0000 </r>
       <r>   58.8148    0.0000 </r>
       <r>   59.8562    0.0000 </r>
       <r>   59.9367    0.0000 </r>
       <r>   60.4345    0.0000 </r>
       <r>   62.4042    0.0000 </r>
       <r>   64.4916    0.0000 </r>
       <r>   68.3149    0.0000 </r>
       <r>   68.6710    0.0000 </r>
       <r>   69.0036    0.0000 </r>
      </set>
      <set comment="kpoint 3">
       <r>    2.3835    1.0000 </r>
       <r>    2.8633    1.0000 </r>
       <r>    3.0902    1.0000 </r>
       <r>    5.2567    1.0000 </r>
       <r>    5.5017    1.0000 </r>
       <r>    5.8644    1.0000 </r>
       <r>    5.9540    1.0000 </r>
       <r>    8.2724   -0.0000 </r>
       <r>    8.4588   -0.0000 </r>
       <r>    8.5228   -0.0000 </r>
       <r>    8.8683   -0.0000 </r>
       <r>   14.9541    0.0000 </r>
       <r>   16.8058    0.0000 </r>
       <r>   19.2621    0.0000 </r>
       <r>   24.0778    0.0000 </r>
       <r>   26.1204    0.0000 </r>
       <r>   26.4418    0.0000 </r>
       <r>   31.8254    0.0000 </r>
       <r>   34.4058    0.0000 </r>
       <r>   37.0076    0.0000 </r>
       <r>   38.5356    0.0000 </r>
       <r>   40.8320    0.0000 </r>
       <r>   41.8719    0.0000 </r>
       <r>   43.5519    0.0000 </r>
       <r>   49.9876    0.0000 </r>
       <r>   53.2174    0.0000 </r>
       <r>   54.1442    0.0000 </r>
       <r>   57.7375    0.0000 </r>
       <r>   58.0637    0.0000 </r>
       <r>   58.1988    0.0000 </r>
       <r>   58.9703    0.0000 </r>
       <r>   61.4711    0.0000 </r>
       <r>   62.1644    0.0000 </r>
       <r>   62.6054    0.0000 </r>
       <r>   64.6785    0.0000 </r>
       <r>   66.7549    0.0000 </r>
       <r>   67.0878    0.0000 </r>
       <r>   68.1327    0.0000 </r>
       <r>   69.0418    0.0000 </r>
       <r>   69.0800    0.0000 </r>
      </set>
      <set comment="kpoint 4">
       <r>    2.3237    1.0000 </r>
       <r>    3.4767    1.0000 </r>
       <r>    3.9341    1.0000 </r>
       <r>    4.0038    1.0000 </r>
       <r>    5.3866    1.0000 </r>
       <r>    5.5205    1.0000 </r>
       <r>    6.2457    1.0000 </r>
       <r>    6.6225    1.0000 </r>
       <r>    8.0681   -0.0002 </r>
       <r>    8.1150   -0.0000 </r>
       <r>    8.9521   -0.0000 </r>
       <r>   15.6025    0.0000 </r>
       <r>   16.3978    0.0000 </r>
       <r>   21.5371    0.0000 </r>
       <r>   22.3358    0.0000 </r>
       <r>   27.6088    0.0000 </r>
       <r>   28.9672    0.0000 </r>
       <r>   31.1009    0.0000 </r>
       <r>   31.7563    0.0000 </r>
       <r>   38.2826    0.0000 </r>
       <r>   40.1455    0.0000 </r>
       <r>   43.7646    0.0000 </r>
       <r>   44.1625    0.0000 </r>
       <r>   46.5530    0.0000 </r>
       <r>   47.4834    0.0000 </r>
       <r>   49.4947    0.0000 </r>
       <r>   49.8960    0.0000 </r>
       <r>   54.3835    0.0000 </r>
       <r>   56.8525    0.0000 </r>
       <r>   57.1283    0.0000 </r>
       <r>   57.1545    0.0000 </r>
       <r>   62.1291    0.0000 </r>
       <r>   62.3209    0.0000 </r>
       <r>   62.9247    0.0000 </r>
       <r>   65.3360    0.0000 </r>
       <r>   65.8015    0.0000 </r>
       <r>   66.4109    0.0000 </r>
       <r>   67.7516    0.0000 </r>
       <r>   68.3258    0.0000 </r>
       <r>   71.1429    0.0000 </r>
      </set>
      <set comment="kpoint 5">
       <r>    3.1912    1.0000 </r>
       <r>    3.3786    1.0000 </r>
       <r>    3.5602    1.0000 </r>
       <r>    4.9155    1.0000 </r>
       <r>    5.3099    1.0000 </r>
       <r>    5.3892    1.0000 </r>
       <r>    6.1031    1.0000 </r>
       <r>    7.8787   -0.0100 </r>
       <r>    7.9001   -0.0071 </r>
       <r>    8.2551   -0.0000 </r>
       <r>   12.4589   -0.0000 </r>
       <r>   14.2938    0.0000 </r>
       <r>   19.7122    0.0000 </r>
       <r>   20.1488    0.0000 </r>
       <r>   20.8391    0.0000 </r>
       <r>   22.5865    0.0000 </r>
       <r>   25.0724    0.0000 </r>
       <r>   27.0595    0.0000 </r>
       <r>   29.9978    0.0000 </r>
       <r>   40.7426    0.0000 </r>
       <r>   42.6629    0.0000 </r>
       <r>   43.9371    0.0000 </r>
       <r>   45.3671    0.0000 </r>
       <r>   46.7073    0.0000 </r>
       <r>   50.3756    0.0000 </r>
       <r>   50.6682    0.0000 </r>
       <r>   51.5551    0.0000 </r>
       <r>   54.0263    0.0000 </r>
       <r>   55.9392    0.0000 </r>
       <r>   57.9486    0.0000 </r>
       <r>   59.3086    0.0000 </r>
       <r>   60.7282    0.0000 </r>
       <r>   62.7345    0.0000 </r>
       <r>   62.7496    0.0000 </r>
       <r>   67.7838    0.0000 </r>
       <r>   68.5874    0.0000 </r>
       <r>   70.3124    0.0000 </r>
       <r>   70.3402    0.0000 </r>
       <r>   70.4014    0.0000 </r>
       <r>   70.8684    0.0000 </r>
      </set>
      <set comment="kpoint 6">
       <r>   -1.2960    1.0000 </r>
       <r>    1.9510    1.0000 </r>
       <r>    4.8903    1.0000 </r>
       <r>    5.6024    1.0000 </r>
       <r>    5.6041    1.0000 </r>
       <r>    5.8577    1.0000 </r>
       <r>    5.9176    1.0000 </r>
       <r>    5.9194    1.0000 </r>
       <r>    7.2750    1.0321 </r>
       <r>    7.2754    1.0320 </r>
       <r>    8.0500   -0.0003 </r>
       <r>    8.0505   -0.0003 </r>
       <r>   16.9484    0.0000 </r>
       <r>   29.0982    0.0000 </r>
       <r>   31.8559    0.0000 </r>
       <r>   33.8821    0.0000 </r>
       <r>   37.5126    0.0000 </r>
       <r>   37.5137    0.0000 </r>
       <r>   38.1983    0.0000 </r>
       <r>   38.2005    0.0000 </r>
       <r>   40.6301    0.0000 </r>
       <r>   40.6314    0.0000 </r>
       <r>   40.9443    0.0000 </r>
       <r>   42.9309    0.0000 </r>
       <r>   43.7945    0.0000 </r>
       <r>   43.7959    0.0000 </r>
       <r>   46.9505    0.0000 </r>
       <r>   50.4532    0.0000 </r>
       <r>   50.4576    0.0000 </r>
       <r>   52.5621    0.0000 </r>
       <r>   52.6494    0.0000 </r>
       <r>   52.6519    0.0000 </r>
       <r>   58.5805    0.0000 </r>
       <r>   62.2727    0.0000 </r>
       <r>   62.2813    0.0000 </r>
       <r>   62.5542    0.0000 </r>
       <r>   62.5584    0.0000 </r>
       <r>   63.1389    0.0000 </r>
       <r>   64.2139    0.0000 </r>
       <r>   68.2804    0.0000 </r>
      </set>
      <set comment="kpoint 7">
       <r>    0.2081    1.0000 </r>
       <r>    3.0096    1.0000 </r>
       <r>    4.2082    1.0000 </r>
       <r>    4.8888    1.0000 </r>
       <r>    5.1674    1.0000 </r>
       <r>    5.8496    1.0000 </r>
       <r>    6.4098    1.0000 </r>
       <r>    6.7176    1.0000 </r>
       <r>    6.9460    1.0004 </r>
       <r>    7.0286    1.0025 </r>
       <r>    8.1084   -0.0001 </r>
       <r>   10.3303   -0.0000 </r>
       <r>   17.7017    0.0000 </r>
       <r>   26.0542    0.0000 </r>
       <r>   29.6905    0.0000 </r>
       <r>   30.8897    0.0000 </r>
       <r>   31.4020    0.0000 </r>
       <r>   32.7941    0.0000 </r>
       <r>   35.7670    0.0000 </r>
       <r>   37.4746    0.0000 </r>
       <r>   39.1845    0.0000 </r>
       <r>   40.8700    0.0000 </r>
       <r>   43.6454    0.0000 </r>
       <r>   45.7531    0.0000 </r>
       <r>   47.6677    0.0000 </r>
       <r>   47.9207    0.0000 </r>
       <r>   48.6457    0.0000 </r>
       <r>   51.0199    0.0000 </r>
       <r>   52.9328    0.0000 </r>
       <r>   56.0170    0.0000 </r>
       <r>   57.1882    0.0000 </r>
       <r>   57.8832    0.0000 </r>
       <r>   58.3774    0.0000 </r>
       <r>   58.5889    0.0000 </r>
       <r>   61.8949    0.0000 </r>
       <r>   63.2763    0.0000 </r>
       <r>   64.9982    0.0000 </r>
       <r>   65.6011    0.0000 </r>
       <r>   66.4019    0.0000 </r>
       <r>   69.3012    0.0000 </r>
      </set>
      <set comment="kpoint 8">
       <r>    2.2301    1.0000 </r>
       <r>    2.7482    1.0000 </r>
       <r>    3.5417    1.0000 </r>
       <r>    4.3180    1.0000 </r>
       <r>    5.9479    1.0000 </r>
       <r>    6.1605    1.0000 </r>
       <r>    6.8235    1.0000 </r>
       <r>    8.0340   -0.0004 </r>
       <r>    8.4897   -0.0000 </r>
       <r>    8.5547   -0.0000 </r>
       <r>    8.5806   -0.0000 </r>
       <r>   12.9294   -0.0000 </r>
       <r>   18.0344    0.0000 </r>
       <r>   20.1497    0.0000 </r>
       <r>   23.2804    0.0000 </r>
       <r>   27.0711    0.0000 </r>
       <r>   27.5885    0.0000 </r>
       <r>   31.8187    0.0000 </r>
       <r>   34.1805    0.0000 </r>
       <r>   34.3371    0.0000 </r>
       <r>   37.3309    0.0000 </r>
       <r>   41.4491    0.0000 </r>
       <r>   42.2101    0.0000 </r>
       <r>   45.5760    0.0000 </r>
       <r>   49.6128    0.0000 </r>
       <r>   52.2676    0.0000 </r>
       <r>   54.5794    0.0000 </r>
       <r>   56.8107    0.0000 </r>
       <r>   56.9895    0.0000 </r>
       <r>   59.6647    0.0000 </r>
       <r>   60.1243    0.0000 </r>
       <r>   61.1151    0.0000 </r>
       <r>   62.5184    0.0000 </r>
       <r>   64.1387    0.0000 </r>
       <r>   64.6909    0.0000 </r>
       <r>   66.1030    0.0000 </r>
       <r>   66.9513    0.0000 </r>
       <r>   67.6158    0.0000 </r>
       <r>   70.0319    0.0000 </r>
       <r>   70.4763    0.0000 </r>
      </set>
      <set comment="kpoint 9">
       <r>    2.4083    1.0000 </r>
       <r>    3.3305    1.0000 </r>
       <r>    4.0830    1.0000 </r>
       <r>    4.1486    1.0000 </r>
       <r>    5.3401    1.0000 </r>
       <r>    5.4362    1.0000 </r>
       <r>    6.1941    1.0000 </r>
       <r>    6.9104    1.0002 </r>
       <r>    7.7015   -0.0290 </r>
       <r>    8.2800   -0.0000 </r>
       <r>    9.0565   -0.0000 </r>
       <r>   12.8872   -0.0000 </r>
       <r>   19.6376    0.0000 </r>
       <r>   21.8509    0.0000 </r>
       <r>   22.7492    0.0000 </r>
       <r>   26.4050    0.0000 </r>
       <r>   27.4459    0.0000 </r>
       <r>   32.3815    0.0000 </r>
       <r>   32.9496    0.0000 </r>
       <r>   35.8324    0.0000 </r>
       <r>   40.9504    0.0000 </r>
       <r>   43.8956    0.0000 </r>
       <r>   44.3980    0.0000 </r>
       <r>   45.2109    0.0000 </r>
       <r>   47.5244    0.0000 </r>
       <r>   49.5760    0.0000 </r>
       <r>   51.5882    0.0000 </r>
       <r>   53.4513    0.0000 </r>
       <r>   55.1828    0.0000 </r>
       <r>   58.4028    0.0000 </r>
       <r>   60.4805    0.0000 </r>
       <r>   62.2532    0.0000 </r>
       <r>   62.2802    0.0000 </r>
       <r>   62.5502    0.0000 </r>
       <r>   63.5952    0.0000 </r>
       <r>   65.8367    0.0000 </r>
       <r>   66.1343    0.0000 </r>
       <r>   67.5469    0.0000 </r>
       <r>   68.6852    0.0000 </r>
       <r>   68.8689    0.0000 </r>
      </set>
      <set comment="kpoint 10">
       <r>    2.9680    1.0000 </r>
       <r>    3.4803    1.0000 </r>
       <r>    4.1045    1.0000 </r>
       <r>    4.2607    1.0000 </r>
       <r>    5.1224    1.0000 </r>
       <r>    5.8196    1.0000 </r>
       <r>    6.4352    1.0000 </r>
       <r>    7.5921    0.1323 </r>
       <r>    7.9793   -0.0016 </r>
       <r>    8.3609   -0.0000 </r>
       <r>   12.5745   -0.0000 </r>
       <r>   14.1366    0.0000 </r>
       <r>   18.7510    0.0000 </r>
       <r>   19.3324    0.0000 </r>
       <r>   20.7713    0.0000 </r>
       <r>   24.7401    0.0000 </r>
       <r>   25.6924    0.0000 </r>
       <r>   26.6459    0.0000 </r>
       <r>   32.0280    0.0000 </r>
       <r>   38.3027    0.0000 </r>
       <r>   39.9494    0.0000 </r>
       <r>   42.0693    0.0000 </r>
       <r>   46.1568    0.0000 </r>
       <r>   47.5258    0.0000 </r>
       <r>   50.7833    0.0000 </r>
       <r>   50.8474    0.0000 </r>
       <r>   54.4662    0.0000 </r>
       <r>   55.2834    0.0000 </r>
       <r>   57.7995    0.0000 </r>
       <r>   58.0637    0.0000 </r>
       <r>   59.1509    0.0000 </r>
       <r>   59.4745    0.0000 </r>
       <r>   63.2955    0.0000 </r>
       <r>   63.6930    0.0000 </r>
       <r>   66.0888    0.0000 </r>
       <r>   68.3107    0.0000 </r>
       <r>   68.4116    0.0000 </r>
       <r>   70.2556    0.0000 </r>
       <r>   70.6798    0.0000 </r>
       <r>   71.4919    0.0000 </r>
      </set>
      <set comment="kpoint 11">
       <r>   -0.2010    1.0000 </r>
       <r>    1.1810    1.0000 </r>
       <r>    4.7622    1.0000 </r>
       <r>    4.8964    1.0000 </r>
       <r>    5.6370    1.0000 </r>
       <r>    5.6387    1.0000 </r>
       <r>    5.7445    1.0000 </r>
       <r>    5.7463    1.0000 </r>
       <r>    7.6039    0.1014 </r>
       <r>    7.6044    0.1001 </r>
       <r>    8.0001   -0.0010 </r>
       <r>    8.0006   -0.0010 </r>
       <r>   20.7532    0.0000 </r>
       <r>   25.0400    0.0000 </r>
       <r>   31.9975    0.0000 </r>
       <r>   32.6980    0.0000 </r>
       <r>   37.9239    0.0000 </r>
       <r>   37.9246    0.0000 </r>
       <r>   38.1792    0.0000 </r>
       <r>   38.1805    0.0000 </r>
       <r>   40.8323    0.0000 </r>
       <r>   40.8350    0.0000 </r>
       <r>   41.8997    0.0000 </r>
       <r>   41.9022    0.0000 </r>
       <r>   43.7022    0.0000 </r>
       <r>   44.8361    0.0000 </r>
       <r>   49.7274    0.0000 </r>
       <r>   50.8262    0.0000 </r>
       <r>   52.8565    0.0000 </r>
       <r>   52.8598    0.0000 </r>
       <r>   54.7638    0.0000 </r>
       <r>   54.7663    0.0000 </r>
       <r>   56.3082    0.0000 </r>
       <r>   59.0036    0.0000 </r>
       <r>   59.2284    0.0000 </r>
       <r>   59.2323    0.0000 </r>
       <r>   60.9612    0.0000 </r>
       <r>   60.9659    0.0000 </r>
       <r>   66.5958    0.0000 </r>
       <r>   69.0074    0.0000 </r>
      </set>
      <set comment="kpoint 12">
       <r>    1.1199    1.0000 </r>
       <r>    2.2932    1.0000 </r>
       <r>    4.2164    1.0000 </r>
       <r>    4.6668    1.0000 </r>
       <r>    5.1811    1.0000 </r>
       <r>    5.5271    1.0000 </r>
       <r>    6.4285    1.0000 </r>
       <r>    6.5653    1.0000 </r>
       <r>    7.5014    0.4642 </r>
       <r>    7.6914   -0.0243 </r>
       <r>    7.9472   -0.0030 </r>
       <r>    8.7235   -0.0000 </r>
       <r>   21.7286    0.0000 </r>
       <r>   26.1804    0.0000 </r>
       <r>   26.9402    0.0000 </r>
       <r>   28.3125    0.0000 </r>
       <r>   32.7688    0.0000 </r>
       <r>   33.4788    0.0000 </r>
       <r>   34.3445    0.0000 </r>
       <r>   34.9091    0.0000 </r>
       <r>   42.2137    0.0000 </r>
       <r>   43.8151    0.0000 </r>
       <r>   45.3087    0.0000 </r>
       <r>   45.8788    0.0000 </r>
       <r>   46.8402    0.0000 </r>
       <r>   47.2926    0.0000 </r>
       <r>   50.8713    0.0000 </r>
       <r>   51.0698    0.0000 </r>
       <r>   53.6656    0.0000 </r>
       <r>   53.9933    0.0000 </r>
       <r>   54.9471    0.0000 </r>
       <r>   55.7214    0.0000 </r>
       <r>   57.6599    0.0000 </r>
       <r>   60.6062    0.0000 </r>
       <r>   61.3843    0.0000 </r>
       <r>   64.0189    0.0000 </r>
       <r>   64.4350    0.0000 </r>
       <r>   65.2650    0.0000 </r>
       <r>   66.0445    0.0000 </r>
       <r>   68.0165    0.0000 </r>
      </set>
      <set comment="kpoint 13">
       <r>    2.2522    1.0000 </r>
       <r>    2.5552    1.0000 </r>
       <r>    3.7266    1.0000 </r>
       <r>    3.9455    1.0000 </r>
       <r>    6.6306    1.0000 </r>
       <r>    6.7013    1.0000 </r>
       <r>    7.3665    0.9341 </r>
       <r>    7.6846   -0.0203 </r>
       <r>    8.4686   -0.0000 </r>
       <r>    8.4781   -0.0000 </r>
       <r>    8.5074   -0.0000 </r>
       <r>   10.4676   -0.0000 </r>
       <r>   18.9851    0.0000 </r>
       <r>   20.0109    0.0000 </r>
       <r>   25.1762    0.0000 </r>
       <r>   28.0121    0.0000 </r>
       <r>   28.7826    0.0000 </r>
       <r>   31.3351    0.0000 </r>
       <r>   31.8988    0.0000 </r>
       <r>   32.7044    0.0000 </r>
       <r>   36.8922    0.0000 </r>
       <r>   39.6677    0.0000 </r>
       <r>   45.1307    0.0000 </r>
       <r>   46.8584    0.0000 </r>
       <r>   48.7927    0.0000 </r>
       <r>   50.3546    0.0000 </r>
       <r>   54.6936    0.0000 </r>
       <r>   57.3782    0.0000 </r>
       <r>   58.5218    0.0000 </r>
       <r>   58.7792    0.0000 </r>
       <r>   59.9579    0.0000 </r>
       <r>   61.4332    0.0000 </r>
       <r>   64.8417    0.0000 </r>
       <r>   65.0484    0.0000 </r>
       <r>   65.1259    0.0000 </r>
       <r>   65.9513    0.0000 </r>
       <r>   66.2788    0.0000 </r>
       <r>   66.9249    0.0000 </r>
       <r>   69.0254    0.0000 </r>
       <r>   70.8463    0.0000 </r>
      </set>
      <set comment="kpoint 14">
       <r>    2.6914    1.0000 </r>
       <r>    3.0312    1.0000 </r>
       <r>    4.3774    1.0000 </r>
       <r>    4.4805    1.0000 </r>
       <r>    5.1102    1.0000 </r>
       <r>    5.1437    1.0000 </r>
       <r>    6.4418    1.0000 </r>
       <r>    7.0051    1.0015 </r>
       <r>    7.9459   -0.0031 </r>
       <r>    8.4889   -0.0000 </r>
       <r>    9.3553   -0.0000 </r>
       <r>   10.4797   -0.0000 </r>
       <r>   22.7970    0.0000 </r>
       <r>   23.2796    0.0000 </r>
       <r>   23.6789    0.0000 </r>
       <r>   25.3680    0.0000 </r>
       <r>   25.5301    0.0000 </r>
       <r>   28.6963    0.0000 </r>
       <r>   36.3414    0.0000 </r>
       <r>   38.1002    0.0000 </r>
       <r>   40.0652    0.0000 </r>
       <r>   41.8631    0.0000 </r>
       <r>   42.5412    0.0000 </r>
       <r>   43.0924    0.0000 </r>
       <r>   49.4315    0.0000 </r>
       <r>   50.2835    0.0000 </r>
       <r>   52.7683    0.0000 </r>
       <r>   55.0221    0.0000 </r>
       <r>   57.2944    0.0000 </r>
       <r>   59.1288    0.0000 </r>
       <r>   59.2114    0.0000 </r>
       <r>   61.0063    0.0000 </r>
       <r>   62.8371    0.0000 </r>
       <r>   62.8982    0.0000 </r>
       <r>   63.3481    0.0000 </r>
       <r>   63.6349    0.0000 </r>
       <r>   66.2844    0.0000 </r>
       <r>   69.0920    0.0000 </r>
       <r>   69.5872    0.0000 </r>
       <r>   70.4241    0.0000 </r>
      </set>
      <set comment="kpoint 15">
       <r>    2.9578    1.0000 </r>
       <r>    3.3119    1.0000 </r>
       <r>    4.0572    1.0000 </r>
       <r>    4.4946    1.0000 </r>
       <r>    5.0552    1.0000 </r>
       <r>    5.8093    1.0000 </r>
       <r>    6.8378    1.0000 </r>
       <r>    7.1098    1.0104 </r>
       <r>    8.1064   -0.0001 </r>
       <r>    8.3248   -0.0000 </r>
       <r>   12.9296   -0.0000 </r>
       <r>   13.5702    0.0000 </r>
       <r>   17.9504    0.0000 </r>
       <r>   18.0931    0.0000 </r>
       <r>   21.8979    0.0000 </r>
       <r>   23.5449    0.0000 </r>
       <r>   28.0838    0.0000 </r>
       <r>   29.2842    0.0000 </r>
       <r>   34.5062    0.0000 </r>
       <r>   34.8225    0.0000 </r>
       <r>   36.7083    0.0000 </r>
       <r>   39.7484    0.0000 </r>
       <r>   44.6700    0.0000 </r>
       <r>   45.7273    0.0000 </r>
       <r>   54.4693    0.0000 </r>
       <r>   54.5497    0.0000 </r>
       <r>   56.0366    0.0000 </r>
       <r>   56.9985    0.0000 </r>
       <r>   57.3344    0.0000 </r>
       <r>   58.0913    0.0000 </r>
       <r>   59.4284    0.0000 </r>
       <r>   61.0920    0.0000 </r>
       <r>   63.1650    0.0000 </r>
       <r>   64.1156    0.0000 </r>
       <r>   64.5327    0.0000 </r>
       <r>   66.9398    0.0000 </r>
       <r>   67.7465    0.0000 </r>
       <r>   68.9589    0.0000 </r>
       <r>   69.9024    0.0000 </r>
       <r>   70.6228    0.0000 </r>
      </set>
     </set>
    </set>
   </array>
  </eigenvalues>
  <separator name="orbital magnetization" >
   <v name="MAGDIPOLOUT">      0.00000000      0.00000000      0.00000000</v>
  </separator>
  <dos>
   <i name="efermi">      7.49296025 </i>
   <total>
    <array>
     <dimension dim="1">gridpoints</dimension>
     <dimension dim="2">spin</dimension>
     <field>energy</field>
     <field>total</field>
     <field>integrated</field>
     <set>
      <set comment="spin 1">
       <r>    -5.3524     0.0000     0.0000 </r>
       <r>    -5.0840     0.0000     0.0000 </r>
       <r>    -4.8157     0.0000     0.0000 </r>
       <r>    -4.5473     0.0000     0.0000 </r>
       <r>    -4.2790     0.0000     0.0000 </r>
       <r>    -4.0106     0.0000     0.0000 </r>
       <r>    -3.7423     0.0000     0.0000 </r>
       <r>    -3.4739    -0.0000    -0.0000 </r>
       <r>    -3.2056    -0.0000    -0.0000 </r>
       <r>    -2.9372    -0.0000    -0.0000 </r>
       <r>    -2.6689    -0.0000    -0.0000 </r>
       <r>    -2.4006    -0.0000    -0.0000 </r>
       <r>    -2.1322    -0.0002    -0.0001 </r>
       <r>    -1.8639     0.0001    -0.0000 </r>
       <r>    -1.5955     0.0483     0.0129 </r>
       <r>    -1.3272     0.0563     0.0280 </r>
       <r>    -1.0588     0.0786     0.0491 </r>
       <r>    -0.7905    -0.0041     0.0480 </r>
       <r>    -0.5221    -0.0058     0.0465 </r>
       <r>    -0.2538     0.0594     0.0624 </r>
       <r>     0.0145     0.3968     0.1689 </r>
       <r>     0.2829     0.5969     0.3290 </r>
       <r>     0.5512     0.1579     0.3714 </r>
       <r>     0.8196    -0.0340     0.3623 </r>
       <r>     1.0879     0.3014     0.4431 </r>
       <r>     1.3563     0.5807     0.5990 </r>
       <r>     1.6246    -0.0276     0.5916 </r>
       <r>     1.8930    -0.0014     0.5912 </r>
       <r>     2.1613     0.4381     0.7088 </r>
       <r>     2.4297     2.8732     1.4798 </r>
       <r>     2.6980     1.6837     1.9316 </r>
       <r>     2.9663     2.4305     2.5838 </r>
       <r>     3.2347     2.9232     3.3682 </r>
       <r>     3.5030     2.6020     4.0665 </r>
       <r>     3.7714     1.6640     4.5130 </r>
       <r>     4.0397     2.1257     5.0834 </r>
       <r>     4.3081     4.6667     6.3357 </r>
       <r>     4.5764     2.9482     7.1268 </r>
       <r>     4.8448     1.4829     7.5248 </r>
       <r>     5.1131     3.0542     8.3443 </r>
       <r>     5.3814     4.4851     9.5479 </r>
       <r>     5.6498     2.9733    10.3458 </r>
       <r>     5.9181     3.1466    11.1901 </r>
       <r>     6.1865     2.7461    11.9270 </r>
       <r>     6.4548     3.2204    12.7912 </r>
       <r>     6.7232     4.4026    13.9726 </r>
       <r>     6.9915     4.2535    15.1140 </r>
       <r>     7.2599     2.1969    15.7036 </r>
       <r>     7.5282     1.4055    16.0807 </r>
       <r>     7.7966     2.9784    16.8800 </r>
       <r>     8.0649     4.2646    18.0244 </r>
       <r>     8.3332     4.3846    19.2009 </r>
       <r>     8.6016     5.9865    20.8074 </r>
       <r>     8.8699     1.8211    21.2961 </r>
       <r>     9.1383     1.0010    21.5647 </r>
       <r>     9.4066     0.6521    21.7397 </r>
       <r>     9.6750     0.2116    21.7965 </r>
       <r>     9.9433    -0.0243    21.7899 </r>
       <r>    10.2117     0.0180    21.7948 </r>
       <r>    10.4800     1.4417    22.1816 </r>
       <r>    10.7483     0.7455    22.3817 </r>
       <r>    11.0167    -0.0503    22.3682 </r>
       <r>    11.2850    -0.0009    22.3679 </r>
       <r>    11.5534    -0.0124    22.3646 </r>
       <r>    11.8217     0.2216    22.4241 </r>
       <r>    12.0901     0.1539    22.4654 </r>
       <r>    12.3584     0.0177    22.4701 </r>
       <r>    12.6268     0.7814    22.6798 </r>
       <r>    12.8951     1.1793    22.9962 </r>
       <r>    13.1635     1.3045    23.3463 </r>
       <r>    13.4318    -0.0357    23.3367 </r>
       <r>    13.7001     0.6377    23.5078 </r>
       <r>    13.9685     0.0436    23.5195 </r>
       <r>    14.2368     0.7212    23.7131 </r>
       <r>    14.5052     0.3725    23.8130 </r>
       <r>    14.7735    -0.0224    23.8070 </r>
       <r>    15.0419     0.2982    23.8870 </r>
       <r>    15.3102     0.0963    23.9129 </r>
       <r>    15.5786     0.4925    24.0450 </r>
       <r>    15.8469     0.2660    24.1164 </r>
       <r>    16.1152    -0.0274    24.1091 </r>
       <r>    16.3836     0.1663    24.1537 </r>
       <r>    16.6519     0.2180    24.2122 </r>
       <r>    16.9203     0.3547    24.3074 </r>
       <r>    17.1886     0.1140    24.3380 </r>
       <r>    17.4570    -0.0337    24.3289 </r>
       <r>    17.7253     0.4032    24.4371 </r>
       <r>    17.9937     1.1761    24.7527 </r>
       <r>    18.2620     1.3509    25.1152 </r>
       <r>    18.5303    -0.0635    25.0982 </r>
       <r>    18.7987     0.5061    25.2340 </r>
       <r>    19.0670     0.7999    25.4487 </r>
       <r>    19.3354     0.7837    25.6590 </r>
       <r>    19.6037     0.7561    25.8619 </r>
       <r>    19.8721     0.7706    26.0687 </r>
       <r>    20.1404     1.1537    26.3783 </r>
       <r>    20.4088     0.6470    26.5519 </r>
       <r>    20.6771     0.1027    26.5794 </r>
       <r>    20.9455     1.0267    26.8550 </r>
       <r>    21.2138     0.0323    26.8636 </r>
       <r>    21.4821     0.0615    26.8801 </r>
       <r>    21.7505     0.8442    27.1067 </r>
       <r>    22.0188     1.5571    27.5245 </r>
       <r>    22.2872     0.1481    27.5642 </r>
       <r>    22.5555     0.3561    27.6598 </r>
       <r>    22.8239     1.2688    28.0003 </r>
       <r>    23.0922     0.4226    28.1137 </r>
       <r>    23.3606     1.1286    28.4165 </r>
       <r>    23.6289     1.1192    28.7168 </r>
       <r>    23.8972     0.6383    28.8881 </r>
       <r>    24.1656     0.2693    28.9604 </r>
       <r>    24.4339     0.0448    28.9724 </r>
       <r>    24.7023     0.2506    29.0397 </r>
       <r>    24.9706     0.5486    29.1869 </r>
       <r>    25.2390     0.9677    29.4465 </r>
       <r>    25.5073     1.1258    29.7487 </r>
       <r>    25.7757     1.1579    30.0594 </r>
       <r>    26.0440     0.8182    30.2789 </r>
       <r>    26.3124     1.4539    30.6691 </r>
       <r>    26.5807     1.1217    30.9701 </r>
       <r>    26.8490     0.6594    31.1470 </r>
       <r>    27.1174     1.3618    31.5125 </r>
       <r>    27.3857     0.5073    31.6486 </r>
       <r>    27.6541     1.3314    32.0059 </r>
       <r>    27.9224     0.4140    32.1170 </r>
       <r>    28.1908     1.2745    32.4590 </r>
       <r>    28.4591     0.6827    32.6422 </r>
       <r>    28.7275     0.6903    32.8274 </r>
       <r>    28.9958     1.0489    33.1089 </r>
       <r>    29.2641     0.5254    33.2499 </r>
       <r>    29.5325     0.4445    33.3691 </r>
       <r>    29.8008     0.6000    33.5301 </r>
       <r>    30.0692     0.3691    33.6292 </r>
       <r>    30.3375     0.0765    33.6497 </r>
       <r>    30.6059    -0.0351    33.6403 </r>
       <r>    30.8742     0.3940    33.7460 </r>
       <r>    31.1426     0.9336    33.9965 </r>
       <r>    31.4109     1.1355    34.3013 </r>
       <r>    31.6793     1.2554    34.6381 </r>
       <r>    31.9476     2.1543    35.2162 </r>
       <r>    32.2159     0.9993    35.4844 </r>
       <r>    32.4843     0.5150    35.6226 </r>
       <r>    32.7526     1.2715    35.9638 </r>
       <r>    33.0210     1.8144    36.4507 </r>
       <r>    33.2893     0.4055    36.5595 </r>
       <r>    33.5577     0.5782    36.7147 </r>
       <r>    33.8260     0.1715    36.7607 </r>
       <r>    34.0944     0.1480    36.8004 </r>
       <r>    34.3627     1.6469    37.2423 </r>
       <r>    34.6310     1.5112    37.6478 </r>
       <r>    34.8994     0.9703    37.9082 </r>
       <r>    35.1677     0.5582    38.0580 </r>
       <r>    35.4361    -0.0576    38.0426 </r>
       <r>    35.7044     0.2434    38.1079 </r>
       <r>    35.9728     1.1904    38.4273 </r>
       <r>    36.2411     0.1146    38.4581 </r>
       <r>    36.5095     0.5926    38.6171 </r>
       <r>    36.7778     0.6323    38.7868 </r>
       <r>    37.0462     1.0855    39.0781 </r>
       <r>    37.3145     0.8288    39.3005 </r>
       <r>    37.5828     1.3094    39.6518 </r>
       <r>    37.8512     0.1282    39.6862 </r>
       <r>    38.1195     0.7589    39.8899 </r>
       <r>    38.3879     1.7424    40.3574 </r>
       <r>    38.6562     1.0450    40.6379 </r>
       <r>    38.9246     0.1161    40.6690 </r>
       <r>    39.1929     0.3797    40.7709 </r>
       <r>    39.4613     0.5301    40.9132 </r>
       <r>    39.7296     1.0455    41.1937 </r>
       <r>    39.9979     1.3362    41.5523 </r>
       <r>    40.2663     1.0759    41.8410 </r>
       <r>    40.5346    -0.0156    41.8368 </r>
       <r>    40.8030     1.0018    42.1057 </r>
       <r>    41.0713     1.8521    42.6027 </r>
       <r>    41.3397     0.1041    42.6306 </r>
       <r>    41.6080     0.5769    42.7854 </r>
       <r>    41.8764     0.7458    42.9855 </r>
       <r>    42.1447     1.9256    43.5022 </r>
       <r>    42.4131     1.3457    43.8633 </r>
       <r>    42.6814     0.8009    44.0783 </r>
       <r>    42.9497     0.2836    44.1544 </r>
       <r>    43.2181     0.8646    44.3864 </r>
       <r>    43.4864     0.2989    44.4666 </r>
       <r>    43.7548     1.4713    44.8614 </r>
       <r>    44.0231     1.9893    45.3952 </r>
       <r>    44.2915     0.4698    45.5213 </r>
       <r>    44.5598     0.7185    45.7141 </r>
       <r>    44.8282     0.6695    45.8937 </r>
       <r>    45.0965     0.3922    45.9990 </r>
       <r>    45.3648     1.9181    46.5137 </r>
       <r>    45.6332     1.1646    46.8262 </r>
       <r>    45.9015     1.8552    47.3241 </r>
       <r>    46.1699     0.7342    47.5211 </r>
       <r>    46.4382     0.3198    47.6069 </r>
       <r>    46.7066     0.6531    47.7822 </r>
       <r>    46.9749     1.8062    48.2669 </r>
       <r>    47.2433     0.3073    48.3493 </r>
       <r>    47.5116     1.4308    48.7333 </r>
       <r>    47.7800     1.6340    49.1718 </r>
       <r>    48.0483     0.7194    49.3648 </r>
       <r>    48.3166     0.3324    49.4540 </r>
       <r>    48.5850     0.1711    49.5000 </r>
       <r>    48.8533     1.1044    49.7963 </r>
       <r>    49.1217     0.1457    49.8354 </r>
       <r>    49.3900     0.3666    49.9338 </r>
       <r>    49.6584     2.3042    50.5521 </r>
       <r>    49.9267     0.7838    50.7624 </r>
       <r>    50.1951     0.5101    50.8993 </r>
       <r>    50.4634     1.6136    51.3323 </r>
       <r>    50.7317     0.9113    51.5768 </r>
       <r>    51.0001     2.5485    52.2607 </r>
       <r>    51.2684     1.0231    52.5353 </r>
       <r>    51.5368     0.3295    52.6237 </r>
       <r>    51.8051     0.7967    52.8375 </r>
       <r>    52.0735     0.2633    52.9081 </r>
       <r>    52.3418     0.5682    53.0606 </r>
       <r>    52.6102     0.3214    53.1468 </r>
       <r>    52.8785     1.1837    53.4645 </r>
       <r>    53.1469     0.7776    53.6731 </r>
       <r>    53.4152     0.5244    53.8139 </r>
       <r>    53.6835     1.2673    54.1539 </r>
       <r>    53.9519     0.6458    54.3272 </r>
       <r>    54.2202     0.9902    54.5929 </r>
       <r>    54.4886     1.5445    55.0074 </r>
       <r>    54.7569     2.4732    55.6711 </r>
       <r>    55.0253     1.2264    56.0002 </r>
       <r>    55.2936     1.5405    56.4136 </r>
       <r>    55.5620     0.3981    56.5204 </r>
       <r>    55.8303     0.6123    56.6847 </r>
       <r>    56.0986     1.5558    57.1022 </r>
       <r>    56.3670     0.7410    57.3010 </r>
       <r>    56.6353     0.0087    57.3034 </r>
       <r>    56.9037     1.0611    57.5881 </r>
       <r>    57.1720     2.2911    58.2029 </r>
       <r>    57.4404     2.7402    58.9382 </r>
       <r>    57.7087     1.1223    59.2394 </r>
       <r>    57.9771     2.1402    59.8137 </r>
       <r>    58.2454     2.0491    60.3636 </r>
       <r>    58.5138     1.8904    60.8709 </r>
       <r>    58.7821     1.6835    61.3226 </r>
       <r>    59.0504     1.1791    61.6390 </r>
       <r>    59.3188     2.4124    62.2864 </r>
       <r>    59.5871     1.6809    62.7374 </r>
       <r>    59.8555     0.9845    63.0016 </r>
       <r>    60.1238     1.4505    63.3908 </r>
       <r>    60.3922     0.5948    63.5505 </r>
       <r>    60.6605     1.4351    63.9356 </r>
       <r>    60.9289     0.7206    64.1289 </r>
       <r>    61.1972     1.9434    64.6504 </r>
       <r>    61.4655     1.4872    65.0495 </r>
       <r>    61.7339     0.6051    65.2119 </r>
       <r>    62.0022     0.5503    65.3595 </r>
       <r>    62.2706     1.7019    65.8162 </r>
       <r>    62.5389     2.4512    66.4740 </r>
       <r>    62.8073     2.1020    67.0381 </r>
       <r>    63.0756     1.6117    67.4706 </r>
       <r>    63.3440     2.1525    68.0482 </r>
       <r>    63.6123     1.7502    68.5178 </r>
       <r>    63.8807     1.3308    68.8750 </r>
       <r>    64.1490     1.4746    69.2706 </r>
       <r>    64.4173     1.2062    69.5943 </r>
       <r>    64.6857     1.8645    70.0946 </r>
       <r>    64.9540     1.5349    70.5065 </r>
       <r>    65.2224     2.1098    71.0727 </r>
       <r>    65.4907     0.9744    71.3341 </r>
       <r>    65.7591     0.8107    71.5517 </r>
       <r>    66.0274     2.1436    72.1269 </r>
       <r>    66.2958     3.3527    73.0266 </r>
       <r>    66.5641     1.6556    73.4709 </r>
       <r>    66.8324     0.5947    73.6304 </r>
       <r>    67.1008     2.1566    74.2092 </r>
       <r>    67.3691     0.1500    74.2494 </r>
       <r>    67.6375     1.1626    74.5614 </r>
       <r>    67.9058     1.7614    75.0341 </r>
       <r>    68.1742     0.9984    75.3020 </r>
       <r>    68.4425     1.9863    75.8350 </r>
       <r>    68.7109     1.3464    76.1963 </r>
       <r>    68.9792     2.1526    76.7739 </r>
       <r>    69.2476     2.6197    77.4769 </r>
       <r>    69.5159     0.6374    77.6480 </r>
       <r>    69.7842     0.5877    77.8057 </r>
       <r>    70.0526     1.0082    78.0762 </r>
       <r>    70.3209     1.4184    78.4568 </r>
       <r>    70.5893     2.4802    79.1224 </r>
       <r>    70.8576     1.7117    79.5817 </r>
       <r>    71.1260     0.6680    79.7610 </r>
       <r>    71.3943     0.2862    79.8378 </r>
       <r>    71.6627     0.6067    80.0006 </r>
       <r>    71.9310     0.0008    80.0008 </r>
       <r>    72.1993    -0.0029    80.0000 </r>
       <r>    72.4677    -0.0000    80.0000 </r>
       <r>    72.7360    -0.0000    80.0000 </r>
       <r>    73.0044     0.0000    80.0000 </r>
       <r>    73.2727     0.0000    80.0000 </r>
       <r>    73.5411     0.0000    80.0000 </r>
       <r>    73.8094     0.0000    80.0000 </r>
       <r>    74.0778     0.0000    80.0000 </r>
       <r>    74.3461     0.0000    80.0000 </r>
       <r>    74.6144     0.0000    80.0000 </r>
       <r>    74.8828     0.0000    80.0000 </r>
       <r>    75.1511     0.0000    80.0000 </r>
      </set>
     </set>
    </array>
   </total>
  </dos>
 </calculation>
 <structure name="finalpos" >
  <crystal>
   <varray name="basis" >
    <v>       2.33000000       0.00000000       0.00000000 </v>
    <v>      -1.16500000       2.01783919       0.00000000 </v>
    <v>       0.00000000       0.00000000       4.10000000 </v>
   </varray>
   <i name="volume">     19.27641779 </i>
   <varray name="rec_basis" >
    <v>       0.42918455       0.24778982       0.00000000 </v>
    <v>       0.00000000       0.49557963       0.00000000 </v>
    <v>       0.00000000       0.00000000       0.24390244 </v>
   </varray>
  </crystal>
  <varray name="positions" >
   <v>       0.00000000       0.00000000       0.00000000 </v>
   <v>       0.33333333       0.66666667       0.50000000 </v>
  </varray>
 </structure>
</modeling>
