 vasp.6.2.0 18Jan21 (build Mar 17 2021 09:06:54) complex                        
  
 executed on             LinuxIFC date 2021.09.09  09:02:39
 serial version


--------------------------------------------------------------------------------------------------------


 INCAR:
   ENCUT = 300.000000
   SIGMA = 0.200000
   EDIFF = 1.00e-06
   GGA = PE
   PREC = normal
   IBRION = -1
   ICHARG = 1
   ISMEAR = 1
   KPAR = 1
   NBANDS = 40
   NSW = 0
   NCORE = 1
   LCHARG = .TRUE.

 POTCAR:    PAW_PBE Fe 06Sep2000                  
 POTCAR:    PAW_PBE Fe 06Sep2000                  
   SHA256 =  cd5a22d9368cc8b5cc476bea79732366149640da08ac9009b0e1b7fc627eea28 Fe/POTCAR             
   COPYR  = (c) Copyright 06Sep2000 Georg Kresse                                                    
   COPYR  = This file is part of the software VASP. Any use, copying, and all other rights are regul
   COPYR  = If you do not have a valid VASP license, you may not use, copy or distribute this file. 
   VRHFIN =Fe:  d7 s1                                                                               
   LEXCH  = PE                                                                                      
   EATOM  =   594.3153 eV,   43.6809 Ry                                                             
                                                                                                    
   TITEL  = PAW_PBE Fe 06Sep2000                                                                    
   LULTRA =        F    use ultrasoft PP ?                                                          
   IUNSCR =        1    unscreen: 0-lin 1-nonlin 2-no                                               
   RPACOR =    2.000    partial core radius                                                         
   POMASS =   55.847; ZVAL   =    8.000    mass and valenz                                          
   RCORE  =    2.300    outmost cutoff radius                                                       
   RWIGS  =    2.460; RWIGS  =    1.302    wigner-seitz radius (au A)                               
   ENMAX  =  267.882; ENMIN  =  200.911 eV                                                          
   RCLOC  =    1.701    cutoff for local pot                                                        
   LCOR   =        T    correct aug charges                                                         
   LPAW   =        T    paw PP                                                                      
   EAUG   =  511.368                                                                                
   DEXC   =    0.000                                                                                
   RMAX   =    2.356    core radius for proj-oper                                                   
   RAUG   =    1.300    factor for augmentation sphere                                              
   RDEP   =    2.442    radius for radial grids                                                     
   RDEPT  =    1.890    core radius for aug-charge                                                  
                                                                                                    
   Atomic configuration                                                                             
    9 entries                                                                                       
     n  l   j            E        occ.                                                              
     1  0  0.50     -6993.8440   2.0000                                                             
     2  0  0.50      -814.6047   2.0000                                                             
     2  1  1.50      -693.3689   6.0000                                                             
     3  0  0.50       -89.4732   2.0000                                                             
     3  1  1.50       -55.6373   6.0000                                                             
     3  2  2.50        -3.8151   7.0000                                                             
     4  0  0.50        -4.2551   1.0000                                                             
     4  1  1.50        -3.4015   0.0000                                                             
     4  3  2.50        -1.3606   0.0000                                                             
   Description                                                                                      
     l       E           TYP  RCUT    TYP  RCUT                                                     
     2     -3.8151135     23  2.300                                                                 
     2     -5.1756961     23  2.300                                                                 
     0     -4.2550963     23  2.300                                                                 
     0      7.2035603     23  2.300                                                                 
     1     -2.7211652     23  2.300                                                                 
     1     18.4316424     23  2.300                                                                 
  local pseudopotential read in
  partial core-charges read in
  partial kinetic energy density read in
  atomic valenz-charges read in
  non local Contribution for L=           2  read in
    real space projection operators read in
  non local Contribution for L=           2  read in
    real space projection operators read in
  non local Contribution for L=           0  read in
    real space projection operators read in
  non local Contribution for L=           0  read in
    real space projection operators read in
  non local Contribution for L=           1  read in
    real space projection operators read in
  non local Contribution for L=           1  read in
    real space projection operators read in
    PAW grid and wavefunctions read in
 
   number of l-projection  operators is LMAX  =           6
   number of lm-projection operators is LMMAX =          18
 
  PAW_PBE Fe 06Sep2000                  :
 energy of atom  1       EATOM= -594.3153
 kinetic energy error for atom=    0.0269 (will be added to EATOM!!)
 
 
 POSCAR: Fe
  positions in cartesian coordinates
  No initial velocities read in
 exchange correlation table for  LEXCH =        8
   RHO(1)=    0.500       N(1)  =     2000
   RHO(2)=  100.500       N(2)  =     4000
 


--------------------------------------------------------------------------------------------------------


 ion  position               nearest neighbor table
   1  0.000  0.000  0.000-   2 2.44   3 2.44   4 2.44   3 2.44   4 2.44   2 2.44   4 2.44   4 2.44
                             2 2.44   3 2.44   3 2.44   2 2.44
   2  0.500  0.500  0.000-   1 2.44   3 2.44   4 2.44   3 2.44   4 2.44   1 2.44   3 2.44   3 2.44
                             1 2.44   4 2.44   4 2.44   1 2.44
   3  0.500  0.000  0.500-   1 2.44   2 2.44   4 2.44   1 2.44   2 2.44   2 2.44   4 2.44   2 2.44
                             1 2.44   4 2.44   1 2.44   4 2.44
   4  0.000  0.500  0.500-   1 2.44   2 2.44   3 2.44   1 2.44   2 2.44   1 2.44   3 2.44   1 2.44
                             2 2.44   3 2.44   2 2.44   3 2.44
 
  LATTYP: Found a simple cubic cell.
 ALAT       =     3.4450830000
  
  Lattice vectors:
  
 A1 = (   3.4450830000,   0.0000000000,   0.0000000000)
 A2 = (   0.0000000000,   3.4450830000,   0.0000000000)
 A3 = (   0.0000000000,   0.0000000000,   3.4450830000)


Analysis of symmetry for initial positions (statically):
=====================================================================
 Subroutine PRICEL returns following result:
 
  LATTYP: Found a face centered cubic cell.
 ALAT       =     3.4450830000
  
  Lattice vectors:
  
 A1 = (   1.7225415000,  -1.7225415000,   0.0000000000)
 A2 = (   1.7225415000,   0.0000000000,   1.7225415000)
 A3 = (   0.0000000000,  -1.7225415000,   1.7225415000)
 
   4 primitive cells build up your supercell.
 

 Routine SETGRP: Setting up the symmetry group for a 
 simple cubic supercell.


 Subroutine GETGRP returns: Found 48 space group operations
 (whereof 48 operations were pure point group operations)
 out of a pool of 48 trial point group operations.


The static configuration has the point symmetry O_h .


Analysis of symmetry for dynamics (positions and initial velocities):
=====================================================================
 Subroutine PRICEL returns following result:
 
  LATTYP: Found a face centered cubic cell.
 ALAT       =     3.4450830000
  
  Lattice vectors:
  
 A1 = (   1.7225415000,  -1.7225415000,   0.0000000000)
 A2 = (   1.7225415000,   0.0000000000,   1.7225415000)
 A3 = (   0.0000000000,  -1.7225415000,   1.7225415000)
 
   4 primitive cells build up your supercell.
 

 Routine SETGRP: Setting up the symmetry group for a 
 simple cubic supercell.


 Subroutine GETGRP returns: Found 48 space group operations
 (whereof 48 operations were pure point group operations)
 out of a pool of 48 trial point group operations.


The dynamic configuration has the point symmetry O_h .


 Subroutine INISYM returns: Found 48 space group operations
 (whereof 48 operations are pure point group operations),
 and found     4 'primitive' translations


----------------------------------------------------------------------------------------

                                     Primitive cell                                     

  volume of cell :      10.2221

  direct lattice vectors                    reciprocal lattice vectors
     1.722541500 -1.722541500  0.000000000     0.290268769 -0.290268769 -0.290268769
     1.722541500  0.000000000  1.722541500     0.290268769  0.290268769  0.290268769
     0.000000000 -1.722541500  1.722541500    -0.290268769 -0.290268769  0.290268769

  length of vectors
     2.436041551  2.436041551  2.436041551     0.502760255  0.502760255  0.502760255

  position of ions in fractional coordinates (direct lattice)
     0.000000000  0.000000000  0.000000000

  ion indices of the primitive-cell ions
   primitive index   ion index
                 1           1

----------------------------------------------------------------------------------------

 
 
 KPOINTS: KPOINTS created by Atomic Simulation Env

Automatic generation of k-mesh.
 Grid dimensions read from file:
 generate k-points for:    5    5    5

 Generating k-lattice:

  Cartesian coordinates                     Fractional coordinates (reciprocal lattice)
     0.058053754  0.000000000  0.000000000     0.200000000  0.000000000  0.000000000
     0.000000000  0.058053754  0.000000000     0.000000000  0.200000000  0.000000000
     0.000000000  0.000000000  0.058053754     0.000000000  0.000000000  0.200000000

  Length of vectors
     0.058053754  0.058053754  0.058053754

  Shift w.r.t. Gamma in fractional coordinates (k-lattice)
     0.000000000  0.000000000  0.000000000

 
 Subroutine IBZKPT returns following result:
 ===========================================
 
 Found     10 irreducible k-points:
 
 Following reciprocal coordinates:
            Coordinates               Weight
  0.000000  0.000000  0.000000      1.000000
  0.200000  0.000000  0.000000      6.000000
  0.400000  0.000000  0.000000      6.000000
  0.200000  0.200000  0.000000     12.000000
  0.400000  0.200000  0.000000     24.000000
  0.400000  0.400000  0.000000     12.000000
  0.200000  0.200000  0.200000      8.000000
  0.400000  0.200000  0.200000     24.000000
  0.400000  0.400000  0.200000     24.000000
  0.400000  0.400000  0.400000      8.000000
 
 Following cartesian coordinates:
            Coordinates               Weight
  0.000000  0.000000  0.000000      1.000000
  0.058054  0.000000  0.000000      6.000000
  0.116108  0.000000  0.000000      6.000000
  0.058054  0.058054  0.000000     12.000000
  0.116108  0.058054  0.000000     24.000000
  0.116108  0.116108  0.000000     12.000000
  0.058054  0.058054  0.058054      8.000000
  0.116108  0.058054  0.058054     24.000000
  0.116108  0.116108  0.058054     24.000000
  0.116108  0.116108  0.116108      8.000000
 


--------------------------------------------------------------------------------------------------------




 Dimension of arrays:
   k-points           NKPTS =     10   k-points in BZ     NKDIM =     10   number of bands    NBANDS=     40
   number of dos      NEDOS =    301   number of ions     NIONS =      4
   non local maximal  LDIM  =      6   non local SUM 2l+1 LMDIM =     18
   total plane-waves  NPLWV =   4096
   max r-space proj   IRMAX =      1   max aug-charges    IRDMAX=   3768
   dimension x,y,z NGX =    16 NGY =   16 NGZ =   16
   dimension x,y,z NGXF=    32 NGYF=   32 NGZF=   32
   support grid    NGXF=    32 NGYF=   32 NGZF=   32
   ions per type =               4
   NGX,Y,Z   is equivalent  to a cutoff of   7.72,  7.72,  7.72 a.u.
   NGXF,Y,Z  is equivalent  to a cutoff of  15.44, 15.44, 15.44 a.u.

 SYSTEM =  unknown system                          
 POSCAR =  Fe                                      

 Startparameter for this run:
   NWRITE =      2    write-flag & timer
   PREC   = normal    normal or accurate (medium, high low for compatibility)
   ISTART =      0    job   : 0-new  1-cont  2-samecut
   ICHARG =      1    charge: 1-file 2-atom 10-const
   ISPIN  =      1    spin polarized calculation?
   LNONCOLLINEAR =      F non collinear calculations
   LSORBIT =      F    spin-orbit coupling
   INIWAV =      1    electr: 0-lowe 1-rand  2-diag
   LASPH  =      F    aspherical Exc in radial PAW
   METAGGA=      F    non-selfconsistent MetaGGA calc.

 Electronic Relaxation 1
   ENCUT  =  300.0 eV  22.05 Ry    4.70 a.u.   4.87  4.87  4.87*2*pi/ulx,y,z
   ENINI  =  300.0     initial cutoff
   ENAUG  =  511.4 eV  augmentation charge cutoff
   NELM   =     60;   NELMIN=  2; NELMDL= -5     # of ELM steps 
   EDIFF  = 0.1E-05   stopping-criterion for ELM
   LREAL  =      F    real-space projection
   NLSPLINE    = F    spline interpolate recip. space projectors
   LCOMPAT=      F    compatible to vasp.4.4
   GGA_COMPAT  = T    GGA compatible to vasp.4.4-vasp.4.6
   LMAXPAW     = -100 max onsite density
   LMAXMIX     =    2 max onsite mixed and CHGCAR
   VOSKOWN=      0    Vosko Wilk Nusair interpolation
   ROPT   =    0.00000
 Ionic relaxation
   EDIFFG = 0.1E-04   stopping-criterion for IOM
   NSW    =      0    number of steps for IOM
   NBLOCK =      1;   KBLOCK =      1    inner block; outer block 
   IBRION =     -1    ionic relax: 0-MD 1-quasi-New 2-CG
   NFREE  =      0    steps in history (QN), initial steepest desc. (CG)
   ISIF   =      2    stress and relaxation
   IWAVPR =      0    prediction:  0-non 1-charg 2-wave 3-comb
   ISYM   =      2    0-nonsym 1-usesym 2-fastsym
   LCORR  =      T    Harris-Foulkes like correction to forces

   POTIM  = 0.5000    time-step for ionic-motion
   TEIN   =    0.0    initial temperature
   TEBEG  =    0.0;   TEEND  =   0.0 temperature during run
   SMASS  =  -3.00    Nose mass-parameter (am)
   estimated Nose-frequenzy (Omega)   =  0.10E-29 period in steps = 0.13E+47 mass=  -0.271E-27a.u.
   SCALEE = 1.0000    scale energy and forces
   NPACO  =    256;   APACO  = 16.0  distance and # of slots for P.C.
   PSTRESS=    0.0 pullay stress

  Mass of Ions in am
   POMASS =  55.85
  Ionic Valenz
   ZVAL   =   8.00
  Atomic Wigner-Seitz radii
   RWIGS  =  -1.00
  virtual crystal weights 
   VCA    =   1.00
   NELECT =      32.0000    total number of electrons
   NUPDOWN=      -1.0000    fix difference up-down

 DOS related values:
   EMIN   =  10.00;   EMAX   =-10.00  energy-range for DOS
   EFERMI =   0.00
   ISMEAR =     1;   SIGMA  =   0.20  broadening in eV -4-tet -1-fermi 0-gaus

 Electronic relaxation 2 (details)
   IALGO  =     38    algorithm
   LDIAG  =      T    sub-space diagonalisation (order eigenvalues)
   LSUBROT=      F    optimize rotation matrix (better conditioning)
   TURBO    =      0    0=normal 1=particle mesh
   IRESTART =      0    0=no restart 2=restart with 2 vectors
   NREBOOT  =      0    no. of reboots
   NMIN     =      0    reboot dimension
   EREF     =   0.00    reference energy to select bands
   IMIX   =      4    mixing-type and parameters
     AMIX     =   0.40;   BMIX     =  1.00
     AMIX_MAG =   1.60;   BMIX_MAG =  1.00
     AMIN     =   0.10
     WC   =   100.;   INIMIX=   1;  MIXPRE=   1;  MAXMIX= -45

 Intra band minimization:
   WEIMIN = 0.0000     energy-eigenvalue tresh-hold
   EBREAK =  0.62E-08  absolut break condition
   DEPER  =   0.30     relativ break condition  

   TIME   =   0.40     timestep for ELM

  volume/ion in A,a.u.               =      10.22        68.98
  Fermi-wavevector in a.u.,A,eV,Ry     =   1.508661  2.850957 30.967669  2.276059
  Thomas-Fermi vector in A             =   2.619086
 
 Write flags
   LWAVE        =      T    write WAVECAR
   LDOWNSAMPLE  =      F    k-point downsampling of WAVECAR
   LCHARG       =      T    write CHGCAR
   LVTOT        =      F    write LOCPOT, total local potential
   LVHAR        =      F    write LOCPOT, Hartree potential only
   LELF         =      F    write electronic localiz. function (ELF)
   LORBIT       =      0    0 simple, 1 ext, 2 COOP (PROOUT), +10 PAW based schemes


 Dipole corrections
   LMONO  =      F    monopole corrections only (constant potential shift)
   LDIPOL =      F    correct potential (dipole corrections)
   IDIPOL =      0    1-x, 2-y, 3-z, 4-all directions 
   EPSILON=  1.0000000 bulk dielectric constant

 Exchange correlation treatment:
   GGA     =    PE    GGA type
   LEXCH   =     8    internal setting for exchange type
   VOSKOWN=      0    Vosko Wilk Nusair interpolation
   LHFCALC =     F    Hartree Fock is set to
   LHFONE  =     F    Hartree Fock one center treatment
   AEXX    =    0.0000 exact exchange contribution

 Linear response parameters
   LEPSILON=     F    determine dielectric tensor
   LRPA    =     F    only Hartree local field effects (RPA)
   LNABLA  =     F    use nabla operator in PAW spheres
   LVEL    =     F    velocity operator in full k-point grid
   LINTERFAST=   F  fast interpolation
   KINTER  =     0    interpolate to denser k-point grid
   CSHIFT  =0.1000    complex shift for real part using Kramers Kronig
   OMEGAMAX=  -1.0    maximum frequency
   DEG_THRESHOLD= 0.2000000E-02 threshold for treating states as degnerate
   RTIME   =   -0.100 relaxation time in fs
  (WPLASMAI=    0.000 imaginary part of plasma frequency in eV, 0.658/RTIME)
   DFIELD  = 0.0000000 0.0000000 0.0000000 field for delta impulse in time
 
 Orbital magnetization related:
   ORBITALMAG=     F  switch on orbital magnetization
   LCHIMAG   =     F  perturbation theory with respect to B field
   DQ        =  0.001000  dq finite difference perturbation B field
   LLRAUG    =     F  two centre corrections for induced B field



--------------------------------------------------------------------------------------------------------


 Static calculation
 charge density and potential will be updated during run
 non-spin polarized calculation
 Variant of blocked Davidson
 Davidson routine will perform the subspace rotation
 perform sub-space diagonalisation
    after iterative eigenvector-optimisation
 modified Broyden-mixing scheme, WC =      100.0
 initial mixing is a Kerker type mixing with AMIX =  0.4000 and BMIX =      1.0000
 Hartree-type preconditioning will be used
 using additional bands           24
 reciprocal scheme for non local part
 use partial core corrections
 calculate Harris-corrections to forces 
   (improved forces if not selfconsistent)
 use gradient corrections 
 use of overlap-Matrix (Vanderbilt PP)
 Methfessel and Paxton  Order N= 1 SIGMA  =   0.20


--------------------------------------------------------------------------------------------------------


  energy-cutoff  :      300.00
  volume of cell :       40.89
      direct lattice vectors                 reciprocal lattice vectors
     3.445083000  0.000000000  0.000000000     0.290268769  0.000000000  0.000000000
     0.000000000  3.445083000  0.000000000     0.000000000  0.290268769  0.000000000
     0.000000000  0.000000000  3.445083000     0.000000000  0.000000000  0.290268769

  length of vectors
     3.445083000  3.445083000  3.445083000     0.290268769  0.290268769  0.290268769


 
 k-points in units of 2pi/SCALE and weight: KPOINTS created by Atomic Simulation Env
   0.00000000  0.00000000  0.00000000       0.008
   0.05805375  0.00000000  0.00000000       0.048
   0.11610751  0.00000000  0.00000000       0.048
   0.05805375  0.05805375  0.00000000       0.096
   0.11610751  0.05805375  0.00000000       0.192
   0.11610751  0.11610751  0.00000000       0.096
   0.05805375  0.05805375  0.05805375       0.064
   0.11610751  0.05805375  0.05805375       0.192
   0.11610751  0.11610751  0.05805375       0.192
   0.11610751  0.11610751  0.11610751       0.064
 
 k-points in reciprocal lattice and weights: KPOINTS created by Atomic Simulation Env
   0.00000000  0.00000000  0.00000000       0.008
   0.20000000  0.00000000  0.00000000       0.048
   0.40000000  0.00000000  0.00000000       0.048
   0.20000000  0.20000000  0.00000000       0.096
   0.40000000  0.20000000  0.00000000       0.192
   0.40000000  0.40000000  0.00000000       0.096
   0.20000000  0.20000000  0.20000000       0.064
   0.40000000  0.20000000  0.20000000       0.192
   0.40000000  0.40000000  0.20000000       0.192
   0.40000000  0.40000000  0.40000000       0.064
 
 position of ions in fractional coordinates (direct lattice) 
   0.00000000  0.00000000  0.00000000
   0.50000000  0.50000000  0.00000000
   0.50000000  0.00000000  0.50000000
   0.00000000  0.50000000  0.50000000
 
 position of ions in cartesian coordinates  (Angst):
   0.00000000  0.00000000  0.00000000
   1.72254150  1.72254150  0.00000000
   1.72254150  0.00000000  1.72254150
   0.00000000  1.72254150  1.72254150
 


--------------------------------------------------------------------------------------------------------


 k-point   1 :   0.0000 0.0000 0.0000  plane waves:     461
 k-point   2 :   0.2000 0.0000 0.0000  plane waves:     478
 k-point   3 :   0.4000 0.0000 0.0000  plane waves:     478
 k-point   4 :   0.2000 0.2000 0.0000  plane waves:     477
 k-point   5 :   0.4000 0.2000 0.0000  plane waves:     486
 k-point   6 :   0.4000 0.4000 0.0000  plane waves:     483
 k-point   7 :   0.2000 0.2000 0.2000  plane waves:     474
 k-point   8 :   0.4000 0.2000 0.2000  plane waves:     481
 k-point   9 :   0.4000 0.4000 0.2000  plane waves:     487
 k-point  10 :   0.4000 0.4000 0.4000  plane waves:     480

 maximum number of plane-waves:       487
 maximum index in each direction: 
   IXMAX=    4   IYMAX=    4   IZMAX=    4
   IXMIN=   -5   IYMIN=   -5   IZMIN=   -5


 total amount of memory used by VASP MPI-rank0    36177. kBytes
=======================================================================

   base      :      30000. kBytes
   nonl-proj :        732. kBytes
   grid      :       1806. kBytes
   one-center:         62. kBytes
   wavefun   :       3577. kBytes
 
     INWAV:  cpu time    0.0000: real time    0.0000
 Broyden mixing: mesh for mixing (old mesh)
   NGX =  9   NGY =  9   NGZ =  9
  (NGX  = 32   NGY  = 32   NGZ  = 32)
  gives a total of    729 points

 initial charge density was supplied:
 charge density of overlapping atoms calculated
 number of electron      32.0000000 magnetization 
 keeping initial charge density in first step


--------------------------------------------------------------------------------------------------------


 Maximum index for augmentation-charges         3431 (set IRDMAX)


--------------------------------------------------------------------------------------------------------


 First call to EWALD:  gamma=   0.514
 Maximum number of real-space cells 3x 3x 3
 Maximum number of reciprocal cells 3x 3x 3

    FEWALD:  cpu time    0.0009: real time    0.0009


--------------------------------------- Iteration      1(   1)  ---------------------------------------


    POTLOK:  cpu time    0.0073: real time    0.0073
    SETDIJ:  cpu time    0.0043: real time    0.0043
     EDDAV:  cpu time    0.1675: real time    0.1882
       DOS:  cpu time    0.0008: real time    0.0008
    --------------------------------------------
      LOOP:  cpu time    0.1799: real time    0.2006

 eigenvalue-minimisations  :   880
 total energy-change (2. order) : 0.1632683E+03  (-0.8483790E+03)
 number of electron      32.0000000 magnetization 
 augmentation part       32.0000000 magnetization 

 Free energy of the ion-electron system (eV)
  ---------------------------------------------------
  alpha Z        PSCENC =       270.44909666
  Ewald energy   TEWEN  =     -2452.97223925
  -Hartree energ DENC   =      -414.53988425
  -exchange      EXHF   =         0.00000000
  -V(xc)+E(xc)   XCENC  =        16.92999131
  PAW double counting   =      2219.38341365    -2250.19294531
  entropy T*S    EENTRO =        -0.02017959
  eigenvalues    EBANDS =       397.07752643
  atomic energy  EATOM  =      2377.15350596
  Solvation  Ediel_sol  =         0.00000000
  ---------------------------------------------------
  free energy    TOTEN  =       163.26828563 eV

  energy without entropy =      163.28846522  energy(sigma->0) =      163.27501216


--------------------------------------------------------------------------------------------------------




--------------------------------------- Iteration      1(   2)  ---------------------------------------


     EDDAV:  cpu time    0.1500: real time    0.1500
       DOS:  cpu time    0.0010: real time    0.0010
    --------------------------------------------
      LOOP:  cpu time    0.1510: real time    0.1510

 eigenvalue-minimisations  :   832
 total energy-change (2. order) :-0.1889941E+03  (-0.1654527E+03)
 number of electron      32.0000000 magnetization 
 augmentation part       32.0000000 magnetization 

 Free energy of the ion-electron system (eV)
  ---------------------------------------------------
  alpha Z        PSCENC =       270.44909666
  Ewald energy   TEWEN  =     -2452.97223925
  -Hartree energ DENC   =      -414.53988425
  -exchange      EXHF   =         0.00000000
  -V(xc)+E(xc)   XCENC  =        16.92999131
  PAW double counting   =      2219.38341365    -2250.19294531
  entropy T*S    EENTRO =         0.01150327
  eigenvalues    EBANDS =       208.05174616
  atomic energy  EATOM  =      2377.15350596
  Solvation  Ediel_sol  =         0.00000000
  ---------------------------------------------------
  free energy    TOTEN  =       -25.72581178 eV

  energy without entropy =      -25.73731505  energy(sigma->0) =      -25.72964620


--------------------------------------------------------------------------------------------------------




--------------------------------------- Iteration      1(   3)  ---------------------------------------


     EDDAV:  cpu time    0.1606: real time    0.1606
       DOS:  cpu time    0.0010: real time    0.0010
    --------------------------------------------
      LOOP:  cpu time    0.1616: real time    0.1616

 eigenvalue-minimisations  :   904
 total energy-change (2. order) :-0.1260532E+02  (-0.1142141E+02)
 number of electron      32.0000000 magnetization 
 augmentation part       32.0000000 magnetization 

 Free energy of the ion-electron system (eV)
  ---------------------------------------------------
  alpha Z        PSCENC =       270.44909666
  Ewald energy   TEWEN  =     -2452.97223925
  -Hartree energ DENC   =      -414.53988425
  -exchange      EXHF   =         0.00000000
  -V(xc)+E(xc)   XCENC  =        16.92999131
  PAW double counting   =      2219.38341365    -2250.19294531
  entropy T*S    EENTRO =        -0.03085533
  eigenvalues    EBANDS =       195.48878598
  atomic energy  EATOM  =      2377.15350596
  Solvation  Ediel_sol  =         0.00000000
  ---------------------------------------------------
  free energy    TOTEN  =       -38.33113056 eV

  energy without entropy =      -38.30027522  energy(sigma->0) =      -38.32084545


--------------------------------------------------------------------------------------------------------




--------------------------------------- Iteration      1(   4)  ---------------------------------------


     EDDAV:  cpu time    0.1589: real time    0.1589
       DOS:  cpu time    0.0010: real time    0.0010
    --------------------------------------------
      LOOP:  cpu time    0.1599: real time    0.1599

 eigenvalue-minimisations  :   888
 total energy-change (2. order) :-0.1671137E+00  (-0.1667654E+00)
 number of electron      32.0000000 magnetization 
 augmentation part       32.0000000 magnetization 

 Free energy of the ion-electron system (eV)
  ---------------------------------------------------
  alpha Z        PSCENC =       270.44909666
  Ewald energy   TEWEN  =     -2452.97223925
  -Hartree energ DENC   =      -414.53988425
  -exchange      EXHF   =         0.00000000
  -V(xc)+E(xc)   XCENC  =        16.92999131
  PAW double counting   =      2219.38341365    -2250.19294531
  entropy T*S    EENTRO =        -0.03205258
  eigenvalues    EBANDS =       195.32286949
  atomic energy  EATOM  =      2377.15350596
  Solvation  Ediel_sol  =         0.00000000
  ---------------------------------------------------
  free energy    TOTEN  =       -38.49824429 eV

  energy without entropy =      -38.46619172  energy(sigma->0) =      -38.48756010


--------------------------------------------------------------------------------------------------------




--------------------------------------- Iteration      1(   5)  ---------------------------------------


     EDDAV:  cpu time    0.1588: real time    0.1588
       DOS:  cpu time    0.0010: real time    0.0010
    CHARGE:  cpu time    0.0105: real time    0.0105
    MIXING:  cpu time    0.0003: real time    0.0003
    --------------------------------------------
      LOOP:  cpu time    0.1706: real time    0.1706

 eigenvalue-minimisations  :   896
 total energy-change (2. order) :-0.1492993E-02  (-0.1492961E-02)
 number of electron      32.0000517 magnetization 
 augmentation part       14.1413027 magnetization 

 Broyden mixing:
  rms(total) = 0.23958E+01    rms(broyden)= 0.23952E+01
  rms(prec ) = 0.47112E+01
  weight for this iteration     100.00

 Free energy of the ion-electron system (eV)
  ---------------------------------------------------
  alpha Z        PSCENC =       270.44909666
  Ewald energy   TEWEN  =     -2452.97223925
  -Hartree energ DENC   =      -414.53988425
  -exchange      EXHF   =         0.00000000
  -V(xc)+E(xc)   XCENC  =        16.92999131
  PAW double counting   =      2219.38341365    -2250.19294531
  entropy T*S    EENTRO =        -0.03205859
  eigenvalues    EBANDS =       195.32138251
  atomic energy  EATOM  =      2377.15350596
  Solvation  Ediel_sol  =         0.00000000
  ---------------------------------------------------
  free energy    TOTEN  =       -38.49973729 eV

  energy without entropy =      -38.46767870  energy(sigma->0) =      -38.48905109


--------------------------------------------------------------------------------------------------------




--------------------------------------- Iteration      1(   6)  ---------------------------------------


    POTLOK:  cpu time    0.0070: real time    0.0070
    SETDIJ:  cpu time    0.0042: real time    0.0042
     EDDAV:  cpu time    0.1624: real time    0.1624
       DOS:  cpu time    0.0010: real time    0.0010
    CHARGE:  cpu time    0.0103: real time    0.0103
    MIXING:  cpu time    0.0003: real time    0.0003
    --------------------------------------------
      LOOP:  cpu time    0.1852: real time    0.1852

 eigenvalue-minimisations  :   904
 total energy-change (2. order) : 0.5795398E+01  (-0.1273885E+01)
 number of electron      32.0000598 magnetization 
 augmentation part       16.9762788 magnetization 

 Broyden mixing:
  rms(total) = 0.37149E+00    rms(broyden)= 0.36931E+00
  rms(prec ) = 0.68623E+00
  weight for this iteration     100.00

 eigenvalues of (default mixing * dielectric matrix)
  average eigenvalue GAMMA=   0.9221
  0.9221

 Free energy of the ion-electron system (eV)
  ---------------------------------------------------
  alpha Z        PSCENC =       270.44909666
  Ewald energy   TEWEN  =     -2452.97223925
  -Hartree energ DENC   =      -345.23536892
  -exchange      EXHF   =         0.00000000
  -V(xc)+E(xc)   XCENC  =        13.53563765
  PAW double counting   =      2505.52030116    -2527.35321375
  entropy T*S    EENTRO =        -0.05750475
  eigenvalues    EBANDS =       126.25544557
  atomic energy  EATOM  =      2377.15350596
  Solvation  Ediel_sol  =         0.00000000
  ---------------------------------------------------
  free energy    TOTEN  =       -32.70433967 eV

  energy without entropy =      -32.64683492  energy(sigma->0) =      -32.68517142


--------------------------------------------------------------------------------------------------------




--------------------------------------- Iteration      1(   7)  ---------------------------------------


    POTLOK:  cpu time    0.0069: real time    0.0069
    SETDIJ:  cpu time    0.0040: real time    0.0040
     EDDAV:  cpu time    0.1674: real time    0.1674
       DOS:  cpu time    0.0010: real time    0.0010
    CHARGE:  cpu time    0.0103: real time    0.0103
    MIXING:  cpu time    0.0003: real time    0.0003
    --------------------------------------------
      LOOP:  cpu time    0.1899: real time    0.1900

 eigenvalue-minimisations  :   960
 total energy-change (2. order) : 0.3484968E+00  (-0.1121934E+00)
 number of electron      32.0000583 magnetization 
 augmentation part       16.3683033 magnetization 

 Broyden mixing:
  rms(total) = 0.14192E+00    rms(broyden)= 0.14159E+00
  rms(prec ) = 0.31154E+00
  weight for this iteration     100.00

 eigenvalues of (default mixing * dielectric matrix)
  average eigenvalue GAMMA=   0.9911
  1.2268  0.7554

 Free energy of the ion-electron system (eV)
  ---------------------------------------------------
  alpha Z        PSCENC =       270.44909666
  Ewald energy   TEWEN  =     -2452.97223925
  -Hartree energ DENC   =      -353.40427426
  -exchange      EXHF   =         0.00000000
  -V(xc)+E(xc)   XCENC  =        14.02455951
  PAW double counting   =      2671.91469747    -2700.93241943
  entropy T*S    EENTRO =        -0.05202144
  eigenvalues    EBANDS =       141.46325192
  atomic energy  EATOM  =      2377.15350596
  Solvation  Ediel_sol  =         0.00000000
  ---------------------------------------------------
  free energy    TOTEN  =       -32.35584284 eV

  energy without entropy =      -32.30382140  energy(sigma->0) =      -32.33850236


--------------------------------------------------------------------------------------------------------




--------------------------------------- Iteration      1(   8)  ---------------------------------------


    POTLOK:  cpu time    0.0069: real time    0.0069
    SETDIJ:  cpu time    0.0041: real time    0.0041
     EDDAV:  cpu time    0.1862: real time    0.1862
       DOS:  cpu time    0.0011: real time    0.0011
    CHARGE:  cpu time    0.0103: real time    0.0103
    MIXING:  cpu time    0.0003: real time    0.0003
    --------------------------------------------
      LOOP:  cpu time    0.2089: real time    0.2089

 eigenvalue-minimisations  :  1072
 total energy-change (2. order) : 0.5470143E-01  (-0.1223193E-02)
 number of electron      32.0000584 magnetization 
 augmentation part       16.4191137 magnetization 

 Broyden mixing:
  rms(total) = 0.62708E-01    rms(broyden)= 0.62685E-01
  rms(prec ) = 0.14097E+00
  weight for this iteration     100.00

 eigenvalues of (default mixing * dielectric matrix)
  average eigenvalue GAMMA=   1.4591
  0.7988  1.0656  2.5129

 Free energy of the ion-electron system (eV)
  ---------------------------------------------------
  alpha Z        PSCENC =       270.44909666
  Ewald energy   TEWEN  =     -2452.97223925
  -Hartree energ DENC   =      -349.24700319
  -exchange      EXHF   =         0.00000000
  -V(xc)+E(xc)   XCENC  =        13.85784967
  PAW double counting   =      2794.43900055    -2826.37517525
  entropy T*S    EENTRO =        -0.05351829
  eigenvalues    EBANDS =       140.44734172
  atomic energy  EATOM  =      2377.15350596
  Solvation  Ediel_sol  =         0.00000000
  ---------------------------------------------------
  free energy    TOTEN  =       -32.30114141 eV

  energy without entropy =      -32.24762312  energy(sigma->0) =      -32.28330198


--------------------------------------------------------------------------------------------------------




--------------------------------------- Iteration      1(   9)  ---------------------------------------


    POTLOK:  cpu time    0.0073: real time    0.0073
    SETDIJ:  cpu time    0.0041: real time    0.0041
     EDDAV:  cpu time    0.1716: real time    0.1716
       DOS:  cpu time    0.0010: real time    0.0010
    CHARGE:  cpu time    0.0101: real time    0.0101
    MIXING:  cpu time    0.0003: real time    0.0003
    --------------------------------------------
      LOOP:  cpu time    0.1944: real time    0.1944

 eigenvalue-minimisations  :   992
 total energy-change (2. order) : 0.1996108E-01  (-0.4223220E-03)
 number of electron      32.0000585 magnetization 
 augmentation part       16.4460767 magnetization 

 Broyden mixing:
  rms(total) = 0.91435E-02    rms(broyden)= 0.91280E-02
  rms(prec ) = 0.10317E-01
  weight for this iteration     100.00

 eigenvalues of (default mixing * dielectric matrix)
  average eigenvalue GAMMA=   1.3537
  2.5456  1.1774  0.7911  0.9006

 Free energy of the ion-electron system (eV)
  ---------------------------------------------------
  alpha Z        PSCENC =       270.44909666
  Ewald energy   TEWEN  =     -2452.97223925
  -Hartree energ DENC   =      -345.11127848
  -exchange      EXHF   =         0.00000000
  -V(xc)+E(xc)   XCENC  =        13.70611387
  PAW double counting   =      2942.00445345    -2977.44872103
  entropy T*S    EENTRO =        -0.05294642
  eigenvalues    EBANDS =       139.99083490
  atomic energy  EATOM  =      2377.15350596
  Solvation  Ediel_sol  =         0.00000000
  ---------------------------------------------------
  free energy    TOTEN  =       -32.28118033 eV

  energy without entropy =      -32.22823391  energy(sigma->0) =      -32.26353153


--------------------------------------------------------------------------------------------------------




--------------------------------------- Iteration      1(  10)  ---------------------------------------


    POTLOK:  cpu time    0.0069: real time    0.0069
    SETDIJ:  cpu time    0.0041: real time    0.0041
     EDDAV:  cpu time    0.1568: real time    0.1568
       DOS:  cpu time    0.0010: real time    0.0010
    CHARGE:  cpu time    0.0105: real time    0.0105
    MIXING:  cpu time    0.0004: real time    0.0004
    --------------------------------------------
      LOOP:  cpu time    0.1796: real time    0.1796

 eigenvalue-minimisations  :   888
 total energy-change (2. order) :-0.4032627E-04  (-0.4776506E-04)
 number of electron      32.0000585 magnetization 
 augmentation part       16.4471920 magnetization 

 Broyden mixing:
  rms(total) = 0.43500E-02    rms(broyden)= 0.43497E-02
  rms(prec ) = 0.57778E-02
  weight for this iteration     100.00

 eigenvalues of (default mixing * dielectric matrix)
  average eigenvalue GAMMA=   1.7037
  2.8298  2.8298  1.1366  0.9255  0.7967

 Free energy of the ion-electron system (eV)
  ---------------------------------------------------
  alpha Z        PSCENC =       270.44909666
  Ewald energy   TEWEN  =     -2452.97223925
  -Hartree energ DENC   =      -345.20707969
  -exchange      EXHF   =         0.00000000
  -V(xc)+E(xc)   XCENC  =        13.71015842
  PAW double counting   =      2940.24154579    -2975.53854459
  entropy T*S    EENTRO =        -0.05301241
  eigenvalues    EBANDS =       139.93534844
  atomic energy  EATOM  =      2377.15350596
  Solvation  Ediel_sol  =         0.00000000
  ---------------------------------------------------
  free energy    TOTEN  =       -32.28122066 eV

  energy without entropy =      -32.22820825  energy(sigma->0) =      -32.26354986


--------------------------------------------------------------------------------------------------------




--------------------------------------- Iteration      1(  11)  ---------------------------------------


    POTLOK:  cpu time    0.0069: real time    0.0069
    SETDIJ:  cpu time    0.0041: real time    0.0041
     EDDAV:  cpu time    0.1588: real time    0.1588
       DOS:  cpu time    0.0010: real time    0.0010
    CHARGE:  cpu time    0.0103: real time    0.0103
    MIXING:  cpu time    0.0004: real time    0.0004
    --------------------------------------------
      LOOP:  cpu time    0.1815: real time    0.1815

 eigenvalue-minimisations  :   904
 total energy-change (2. order) :-0.4507375E-05  (-0.4105846E-06)
 number of electron      32.0000585 magnetization 
 augmentation part       16.4469190 magnetization 

 Broyden mixing:
  rms(total) = 0.25144E-02    rms(broyden)= 0.25128E-02
  rms(prec ) = 0.47814E-02
  weight for this iteration     100.00

 eigenvalues of (default mixing * dielectric matrix)
  average eigenvalue GAMMA=   1.5040
  2.5550  2.5550  1.2129  0.7969  1.0157  0.8888

 Free energy of the ion-electron system (eV)
  ---------------------------------------------------
  alpha Z        PSCENC =       270.44909666
  Ewald energy   TEWEN  =     -2452.97223925
  -Hartree energ DENC   =      -345.51187896
  -exchange      EXHF   =         0.00000000
  -V(xc)+E(xc)   XCENC  =        13.72274449
  PAW double counting   =      2935.18921393    -2970.17458818
  entropy T*S    EENTRO =        -0.05296331
  eigenvalues    EBANDS =       139.91588349
  atomic energy  EATOM  =      2377.15350596
  Solvation  Ediel_sol  =         0.00000000
  ---------------------------------------------------
  free energy    TOTEN  =       -32.28122517 eV

  energy without entropy =      -32.22826185  energy(sigma->0) =      -32.26357073


--------------------------------------------------------------------------------------------------------




--------------------------------------- Iteration      1(  12)  ---------------------------------------


    POTLOK:  cpu time    0.0069: real time    0.0069
    SETDIJ:  cpu time    0.0042: real time    0.0042
     EDDAV:  cpu time    0.1587: real time    0.1587
       DOS:  cpu time    0.0010: real time    0.0010
    CHARGE:  cpu time    0.0104: real time    0.0104
    MIXING:  cpu time    0.0004: real time    0.0004
    --------------------------------------------
      LOOP:  cpu time    0.1817: real time    0.1817

 eigenvalue-minimisations  :   904
 total energy-change (2. order) : 0.8338580E-05  (-0.5129717E-06)
 number of electron      32.0000585 magnetization 
 augmentation part       16.4470732 magnetization 

 Broyden mixing:
  rms(total) = 0.16618E-03    rms(broyden)= 0.16611E-03
  rms(prec ) = 0.25602E-03
  weight for this iteration     100.00

 eigenvalues of (default mixing * dielectric matrix)
  average eigenvalue GAMMA=   1.4735
  2.5588  2.5588  1.3567  0.7967  0.9574  1.0431  1.0431

 Free energy of the ion-electron system (eV)
  ---------------------------------------------------
  alpha Z        PSCENC =       270.44909666
  Ewald energy   TEWEN  =     -2452.97223925
  -Hartree energ DENC   =      -345.36068323
  -exchange      EXHF   =         0.00000000
  -V(xc)+E(xc)   XCENC  =        13.71716452
  PAW double counting   =      2940.49371809    -2975.63294540
  entropy T*S    EENTRO =        -0.05296936
  eigenvalues    EBANDS =       139.92413517
  atomic energy  EATOM  =      2377.15350596
  Solvation  Ediel_sol  =         0.00000000
  ---------------------------------------------------
  free energy    TOTEN  =       -32.28121683 eV

  energy without entropy =      -32.22824747  energy(sigma->0) =      -32.26356037


--------------------------------------------------------------------------------------------------------




--------------------------------------- Iteration      1(  13)  ---------------------------------------


    POTLOK:  cpu time    0.0069: real time    0.0069
    SETDIJ:  cpu time    0.0041: real time    0.0041
     EDDAV:  cpu time    0.1051: real time    0.1051
       DOS:  cpu time    0.0010: real time    0.0010
    --------------------------------------------
      LOOP:  cpu time    0.1171: real time    0.1171

 eigenvalue-minimisations  :   480
 total energy-change (2. order) :-0.8435086E-06  (-0.9112846E-08)
 number of electron      32.0000585 magnetization 
 augmentation part       16.4470732 magnetization 

 Free energy of the ion-electron system (eV)
  ---------------------------------------------------
  alpha Z        PSCENC =       270.44909666
  Ewald energy   TEWEN  =     -2452.97223925
  -Hartree energ DENC   =      -345.35562989
  -exchange      EXHF   =         0.00000000
  -V(xc)+E(xc)   XCENC  =        13.71697598
  PAW double counting   =      2940.70706883    -2975.85076141
  entropy T*S    EENTRO =        -0.05296574
  eigenvalues    EBANDS =       139.92373118
  atomic energy  EATOM  =      2377.15350596
  Solvation  Ediel_sol  =         0.00000000
  ---------------------------------------------------
  free energy    TOTEN  =       -32.28121767 eV

  energy without entropy =      -32.22825193  energy(sigma->0) =      -32.26356243


--------------------------------------------------------------------------------------------------------




 average (electrostatic) potential at core
  the test charge radii are     1.0103
  (the norm of the test charge is              1.0000)
       1 -42.6690       2 -42.6690       3 -42.6690       4 -42.6690
 
 
 
 E-fermi :   6.8138     XC(G=0): -13.7786     alpha+bet :-15.1637

 Fermi energy:         6.8138386818

 k-point     1 :       0.0000    0.0000    0.0000
  band No.  band energies     occupation 
      1      -2.0273      2.00000
      2       1.8684      2.00000
      3       1.8684      2.00000
      4       1.8684      2.00000
      5       2.6090      2.00000
      6       2.6090      2.00000
      7       2.6090      2.00000
      8       5.1791      2.00000
      9       5.1791      2.00000
     10       5.1791      2.00000
     11       6.7421      1.56565
     12       6.7421      1.56565
     13       7.7799     -0.00000
     14       7.7799     -0.00000
     15       7.7799     -0.00000
     16       8.0778     -0.00000
     17       8.0778     -0.00000
     18       8.0778     -0.00000
     19       8.0778     -0.00000
     20       8.0778     -0.00000
     21       8.0778     -0.00000
     22      10.0781     -0.00000
     23      10.0781     -0.00000
     24      10.0781     -0.00000
     25      18.5790      0.00000
     26      18.5790      0.00000
     27      18.5790      0.00000
     28      23.0860      0.00000
     29      23.0860      0.00000
     30      23.0860      0.00000
     31      23.0860      0.00000
     32      23.0860      0.00000
     33      23.0860      0.00000
     34      28.5129      0.00000
     35      28.5129      0.00000
     36      28.5129      0.00000
     37      30.1495      0.00000
     38      33.4331      0.00000
     39      33.4331      0.00000
     40      33.4331      0.00000

 k-point     2 :       0.2000    0.0000    0.0000
  band No.  band energies     occupation 
      1      -1.4660      2.00000
      2       1.9684      2.00000
      3       2.2031      2.00000
      4       2.2031      2.00000
      5       2.8260      2.00000
      6       2.8668      2.00000
      7       2.8668      2.00000
      8       4.8995      2.00000
      9       5.3858      2.00000
     10       5.3858      2.00000
     11       6.4848      2.04199
     12       6.6222      2.04042
     13       6.6222      2.04042
     14       6.8369      0.80667
     15       7.4426     -0.00008
     16       7.4426     -0.00008
     17       7.6768     -0.00000
     18       7.6982     -0.00000
     19       7.6982     -0.00000
     20       8.0784     -0.00000
     21       8.0784     -0.00000
     22       8.2473     -0.00000
     23      11.9247     -0.00000
     24      11.9247     -0.00000
     25      18.5749      0.00000
     26      18.5749      0.00000
     27      21.0985      0.00000
     28      21.0985      0.00000
     29      21.1295      0.00000
     30      22.0130      0.00000
     31      22.0130      0.00000
     32      24.0145      0.00000
     33      24.0145      0.00000
     34      28.5768      0.00000
     35      29.7971      0.00000
     36      30.9889      0.00000
     37      30.9889      0.00000
     38      33.1660      0.00000
     39      33.3637      0.00000
     40      33.3639      0.00000

 k-point     3 :       0.4000    0.0000    0.0000
  band No.  band energies     occupation 
      1       0.0465      2.00000
      2       1.6421      2.00000
      3       2.8840      2.00000
      4       2.8840      2.00000
      5       3.4188      2.00000
      6       3.6387      2.00000
      7       3.6387      2.00000
      8       4.2074      2.00000
      9       4.9122      2.00000
     10       4.9122      2.00000
     11       5.9357      2.00000
     12       5.9789      2.00000
     13       5.9789      2.00000
     14       6.0898      2.00000
     15       6.7435      1.55650
     16       6.7435      1.55650
     17       6.8432      0.75470
     18       6.8432      0.75470
     19       7.0896     -0.06505
     20       7.4101     -0.00021
     21       8.0796     -0.00000
     22       8.0796     -0.00000
     23      14.7923      0.00000
     24      14.7923      0.00000
     25      17.9285      0.00000
     26      17.9285      0.00000
     27      18.5841      0.00000
     28      18.5841      0.00000
     29      20.7277      0.00000
     30      20.7277      0.00000
     31      25.6812      0.00000
     32      26.4594      0.00000
     33      26.4594      0.00000
     34      28.7968      0.00000
     35      29.2081      0.00000
     36      29.7192      0.00000
     37      29.7893      0.00000
     38      29.7893      0.00000
     39      34.9682      0.00000
     40      35.6946      0.00000

 k-point     4 :       0.2000    0.2000    0.0000
  band No.  band energies     occupation 
      1      -0.9305      2.00000
      2       2.3299      2.00000
      3       2.3299      2.00000
      4       2.5001      2.00000
      5       3.0579      2.00000
      6       3.0579      2.00000
      7       3.0764      2.00000
      8       4.7765      2.00000
      9       5.4531      2.00000
     10       5.4762      2.00000
     11       6.0450      2.00000
     12       6.0489      2.00000
     13       6.0489      2.00000
     14       6.4399      2.02381
     15       6.8665      0.57133
     16       7.1864     -0.02427
     17       7.4020     -0.00026
     18       7.4020     -0.00026
     19       7.6953     -0.00000
     20       7.6953     -0.00000
     21       7.8297     -0.00000
     22      10.0973     -0.00000
     23      10.0973     -0.00000
     24      13.1518      0.00000
     25      17.3680      0.00000
     26      19.2026      0.00000
     27      21.1426      0.00000
     28      21.1426      0.00000
     29      21.8631      0.00000
     30      21.8631      0.00000
     31      22.9594      0.00000
     32      22.9594      0.00000
     33      24.8669      0.00000
     34      28.3452      0.00000
     35      29.6243      0.00000
     36      30.0551      0.00000
     37      31.2490      0.00000
     38      31.2490      0.00000
     39      34.3216      0.00000
     40      36.0903      0.00000

 k-point     5 :       0.4000    0.2000    0.0000
  band No.  band energies     occupation 
      1       0.5089      2.00000
      2       2.0464      2.00000
      3       3.1108      2.00000
      4       3.1748      2.00000
      5       3.5750      2.00000
      6       3.5991      2.00000
      7       3.7433      2.00000
      8       4.2456      2.00000
      9       4.5451      2.00000
     10       4.8235      2.00000
     11       5.2392      2.00000
     12       5.4249      2.00000
     13       5.9993      2.00000
     14       6.3009      2.00173
     15       6.6361      2.01881
     16       6.7383      1.59136
     17       6.8421      0.76349
     18       6.9067      0.30026
     19       7.3308     -0.00157
     20       7.6904     -0.00000
     21       7.7053     -0.00000
     22       8.1776     -0.00000
     23      12.2780      0.00000
     24      14.6041      0.00000
     25      15.6809      0.00000
     26      18.6880      0.00000
     27      19.4604      0.00000
     28      20.3591      0.00000
     29      22.8079      0.00000
     30      23.7526      0.00000
     31      24.0186      0.00000
     32      24.2454      0.00000
     33      26.0607      0.00000
     34      26.5711      0.00000
     35      26.9757      0.00000
     36      32.0760      0.00000
     37      32.2511      0.00000
     38      33.2751      0.00000
     39      33.4945      0.00000
     40      36.0431      0.00000

 k-point     6 :       0.4000    0.4000    0.0000
  band No.  band energies     occupation 
      1       1.7032      2.00000
      2       2.9617      2.00000
      3       2.9617      2.00000
      4       3.4732      2.00000
      5       3.8613      2.00000
      6       3.9964      2.00000
      7       3.9964      2.00000
      8       4.2190      2.00000
      9       4.4308      2.00000
     10       4.4308      2.00000
     11       4.5011      2.00000
     12       5.0648      2.00000
     13       6.0422      2.00000
     14       6.2405      2.00039
     15       6.2834      2.00114
     16       6.3700      2.00740
     17       6.3700      2.00740
     18       6.8901      0.40402
     19       6.8901      0.40402
     20       7.1447     -0.04116
     21       8.2495     -0.00000
     22       9.7032     -0.00000
     23       9.7032     -0.00000
     24      11.6622     -0.00000
     25      17.8170      0.00000
     26      20.2835      0.00000
     27      20.5909      0.00000
     28      20.5909      0.00000
     29      21.7987      0.00000
     30      21.7987      0.00000
     31      23.1136      0.00000
     32      23.8225      0.00000
     33      28.0575      0.00000
     34      28.0575      0.00000
     35      29.2496      0.00000
     36      30.7864      0.00000
     37      33.2680      0.00000
     38      34.7693      0.00000
     39      35.8355      0.00000
     40      35.8355      0.00000

 k-point     7 :       0.2000    0.2000    0.2000
  band No.  band energies     occupation 
      1      -0.4378      2.00000
      2       2.6020      2.00000
      3       2.6020      2.00000
      4       2.6020      2.00000
      5       3.2584      2.00000
      6       3.2584      2.00000
      7       3.2584      2.00000
      8       4.7249      2.00000
      9       5.4665      2.00000
     10       5.4665      2.00000
     11       5.6258      2.00000
     12       5.6258      2.00000
     13       5.6258      2.00000
     14       6.7141      1.73861
     15       6.7141      1.73861
     16       6.7695      1.36520
     17       6.7695      1.36520
     18       6.7695      1.36520
     19       7.9130     -0.00000
     20       7.9130     -0.00000
     21       7.9130     -0.00000
     22      10.9221     -0.00000
     23      10.9221     -0.00000
     24      10.9221     -0.00000
     25      18.4538      0.00000
     26      18.4538      0.00000
     27      18.4538      0.00000
     28      21.8361      0.00000
     29      21.8361      0.00000
     30      21.8361      0.00000
     31      25.5626      0.00000
     32      25.6533      0.00000
     33      25.6533      0.00000
     34      25.6533      0.00000
     35      30.2035      0.00000
     36      30.2035      0.00000
     37      30.2035      0.00000
     38      31.0526      0.00000
     39      34.6536      0.00000
     40      34.6536      0.00000

 k-point     8 :       0.4000    0.2000    0.2000
  band No.  band energies     occupation 
      1       0.8645      2.00000
      2       2.2483      2.00000
      3       3.1936      2.00000
      4       3.1936      2.00000
      5       3.6504      2.00000
      6       3.6504      2.00000
      7       3.8067      2.00000
      8       4.3863      2.00000
      9       4.8255      2.00000
     10       4.8255      2.00000
     11       5.0773      2.00000
     12       5.3495      2.00000
     13       5.6390      2.00000
     14       6.1143      2.00001
     15       6.3394      2.00402
     16       6.3394      2.00402
     17       6.8736      0.51849
     18       7.2611     -0.00693
     19       7.7367     -0.00000
     20       7.7367     -0.00000
     21       7.7381     -0.00000
     22       8.3038     -0.00000
     23      12.3885      0.00000
     24      12.3885      0.00000
     25      15.9342      0.00000
     26      15.9342      0.00000
     27      20.2971      0.00000
     28      22.6077      0.00000
     29      22.6077      0.00000
     30      22.6863      0.00000
     31      24.8966      0.00000
     32      24.8966      0.00000
     33      26.4801      0.00000
     34      27.8430      0.00000
     35      29.5236      0.00000
     36      31.0339      0.00000
     37      31.0936      0.00000
     38      33.3488      0.00000
     39      33.3488      0.00000
     40      34.6423      0.00000

 k-point     9 :       0.4000    0.4000    0.2000
  band No.  band energies     occupation 
      1       1.7140      2.00000
      2       2.5965      2.00000
      3       2.5965      2.00000
      4       2.9066      2.00000
      5       4.1592      2.00000
      6       4.3601      2.00000
      7       4.3601      2.00000
      8       4.7083      2.00000
      9       4.8917      2.00000
     10       4.8917      2.00000
     11       5.0777      2.00000
     12       5.1511      2.00000
     13       5.4779      2.00000
     14       5.7884      2.00000
     15       5.7884      2.00000
     16       5.8196      2.00000
     17       6.9475      0.10321
     18       7.4888     -0.00002
     19       7.4888     -0.00002
     20       7.5386     -0.00000
     21       8.0139     -0.00000
     22       9.5328     -0.00000
     23       9.5328     -0.00000
     24      11.1645     -0.00000
     25      15.6489      0.00000
     26      17.4934      0.00000
     27      17.4934      0.00000
     28      19.7566      0.00000
     29      23.7998      0.00000
     30      25.5399      0.00000
     31      25.5399      0.00000
     32      27.5825      0.00000
     33      28.5194      0.00000
     34      28.5194      0.00000
     35      29.7715      0.00000
     36      30.7588      0.00000
     37      32.4223      0.00000
     38      33.6829      0.00000
     39      33.6829      0.00000
     40      35.1609      0.00000

 k-point    10 :       0.4000    0.4000    0.4000
  band No.  band energies     occupation 
      1       1.8316      2.00000
      2       2.2215      2.00000
      3       2.2215      2.00000
      4       2.2215      2.00000
      5       4.8028      2.00000
      6       4.8028      2.00000
      7       4.8028      2.00000
      8       5.1761      2.00000
      9       5.1761      2.00000
     10       5.3111      2.00000
     11       5.3111      2.00000
     12       5.3111      2.00000
     13       5.8618      2.00000
     14       5.8618      2.00000
     15       5.8618      2.00000
     16       5.9432      2.00000
     17       7.5941     -0.00000
     18       7.5941     -0.00000
     19       7.8201     -0.00000
     20       7.8201     -0.00000
     21       7.8201     -0.00000
     22       9.1024     -0.00000
     23       9.1024     -0.00000
     24       9.1024     -0.00000
     25      15.4381      0.00000
     26      15.4381      0.00000
     27      15.4381      0.00000
     28      17.0330      0.00000
     29      27.7629      0.00000
     30      27.7629      0.00000
     31      27.7629      0.00000
     32      29.0869      0.00000
     33      31.3609      0.00000
     34      31.3609      0.00000
     35      31.3609      0.00000
     36      31.8549      0.00000
     37      31.8549      0.00000
     38      31.8549      0.00000
     39      33.9526      0.00000
     40      33.9526      0.00000


--------------------------------------------------------------------------------------------------------


 soft charge-density along one line, spin component           1
         0         1         2         3         4         5         6         7         8         9
x    15.5530    0.0000   -0.0000    0.0000   -0.2579   -0.0000    0.0000    0.0000   -0.1412    0.0000
x    -0.0000   -0.0000    0.0354    0.0000   -0.0000   -0.0000    0.0000    0.0000
y    15.5530    0.0000   -0.0000    0.0000   -0.2579   -0.0000    0.0000    0.0000   -0.1412    0.0000
y    -0.0000   -0.0000    0.0354    0.0000   -0.0000   -0.0000    0.0000    0.0000
z    15.5530    0.0000   -0.0000    0.0000   -0.2579   -0.0000    0.0000    0.0000   -0.1412    0.0000
z    -0.0000   -0.0000    0.0354    0.0000   -0.0000   -0.0000    0.0000    0.0000
 total charge-density along one line
x    32.0001    0.0000   -0.0000   -0.0000    9.1054   -0.0000   -0.0000   -0.0000    1.0556    0.0000
x     0.0000   -0.0000   -0.0046    0.0000    0.0000    0.0000    0.0102   -0.0000    0.0000   -0.0000
x    -0.0014    0.0000    0.0000   -0.0000   -0.0003    0.0000   -0.0000    0.0000    0.0006   -0.0000
x    -0.0000   -0.0000   -0.0006    0.0000
y    32.0001    0.0000   -0.0000   -0.0000    9.1054    0.0000    0.0000    0.0000    1.0556   -0.0000
y     0.0000    0.0000   -0.0046   -0.0000    0.0000    0.0000    0.0102   -0.0000    0.0000    0.0000
y    -0.0014    0.0000    0.0000    0.0000   -0.0003   -0.0000   -0.0000    0.0000    0.0006    0.0000
y    -0.0000    0.0000   -0.0006    0.0000
z    32.0001    0.0000    0.0000   -0.0000    9.1054    0.0000    0.0000    0.0000    1.0556    0.0000
z     0.0000    0.0000   -0.0046    0.0000    0.0000    0.0000    0.0102    0.0000   -0.0000   -0.0000
z    -0.0014   -0.0000   -0.0000   -0.0000   -0.0003   -0.0000   -0.0000   -0.0000    0.0006    0.0000
z    -0.0000   -0.0000   -0.0006    0.0000
 
 pseudopotential strength for first ion, spin component:           1
 -4.469   0.000   0.000   0.000  -0.000  -5.032   0.000   0.000
  0.000  -4.469   0.000  -0.000  -0.000   0.000  -5.032   0.000
  0.000   0.000  -4.449   0.000   0.000   0.000   0.000  -5.013
  0.000  -0.000   0.000  -4.469   0.000   0.000  -0.000   0.000
 -0.000  -0.000   0.000   0.000  -4.449  -0.000  -0.000   0.000
 -5.032   0.000   0.000   0.000  -0.000  -5.552   0.000   0.000
  0.000  -5.032   0.000  -0.000  -0.000   0.000  -5.552   0.000
  0.000   0.000  -5.013   0.000   0.000   0.000   0.000  -5.533
  0.000  -0.000   0.000  -5.032   0.000   0.000  -0.000   0.000
 -0.000  -0.000   0.000   0.000  -5.013  -0.000  -0.000   0.000
  0.000  -0.000   0.000  -0.000   0.000   0.000  -0.000   0.000
  0.000  -0.000   0.000  -0.000   0.000   0.000  -0.000   0.000
  0.000  -0.000  -0.000  -0.000  -0.000   0.000  -0.000  -0.000
 -0.000  -0.000  -0.000   0.000   0.000  -0.000  -0.000  -0.000
  0.000  -0.000  -0.000  -0.000   0.000   0.000  -0.000  -0.000
  0.000  -0.000  -0.000  -0.000  -0.000   0.000  -0.000  -0.000
 -0.000  -0.000  -0.000   0.000   0.000  -0.000  -0.000  -0.000
  0.000  -0.000  -0.000  -0.000   0.000   0.000  -0.000  -0.000
 total augmentation occupancy for first ion, spin component:           1
  1.329  -0.000  -0.000  -0.000  -0.000  -0.729  -0.000   0.000  -0.000   0.000   0.000   0.000   0.000   0.000  -0.000  -0.000
 -0.000   1.329  -0.000   0.000  -0.000   0.000  -0.729   0.000   0.000   0.000   0.000   0.000   0.000  -0.000   0.000   0.000
 -0.000  -0.000   2.435   0.000   0.000  -0.000   0.000  -1.371   0.000  -0.000   0.000   0.000   0.000   0.000  -0.000  -0.000
 -0.000   0.000   0.000   1.329  -0.000   0.000  -0.000   0.000  -0.729  -0.000   0.000  -0.000  -0.000   0.000  -0.000   0.000
  0.000   0.000   0.000   0.000   2.435  -0.000   0.000   0.000  -0.000  -1.371  -0.000  -0.000   0.000   0.000  -0.000   0.000
 -0.729   0.000  -0.000   0.000  -0.000   1.454  -0.000  -0.000  -0.000  -0.000  -0.000   0.000  -0.000  -0.000   0.000   0.000
  0.000  -0.729   0.000  -0.000   0.000   0.000   1.454   0.000   0.000   0.000   0.000   0.000  -0.000  -0.000  -0.000  -0.000
 -0.000  -0.000  -1.371  -0.000  -0.000  -0.000   0.000   1.694   0.000   0.000  -0.000  -0.000  -0.000   0.000  -0.000   0.000
 -0.000  -0.000   0.000  -0.729  -0.000  -0.000  -0.000   0.000   1.454  -0.000  -0.000   0.000   0.000   0.000   0.000   0.000
  0.000   0.000   0.000  -0.000  -1.371  -0.000   0.000  -0.000  -0.000   1.694  -0.000   0.000   0.000   0.000   0.000  -0.000
  0.000   0.000   0.000   0.000   0.000   0.000  -0.000  -0.000   0.000   0.000   2.656  -0.304  -0.000  -0.000  -0.000  -0.000
  0.000   0.000  -0.000  -0.000  -0.000  -0.000   0.000  -0.000   0.000   0.000  -0.304   0.039   0.000   0.000  -0.000   0.000
  0.000  -0.000   0.000   0.000  -0.000  -0.000   0.000   0.000  -0.000  -0.000   0.000   0.000   0.344   0.000   0.000  -0.029
 -0.000  -0.000   0.000   0.000   0.000  -0.000   0.000   0.000   0.000   0.000   0.000  -0.000   0.000   0.344  -0.000   0.000
 -0.000   0.000  -0.000  -0.000   0.000   0.000   0.000  -0.000   0.000   0.000  -0.000  -0.000   0.000  -0.000   0.344   0.000
 -0.000  -0.000   0.000   0.000   0.000  -0.000   0.000   0.000   0.000  -0.000  -0.000   0.000  -0.029   0.000   0.000   0.003
  0.000   0.000  -0.000   0.000  -0.000  -0.000  -0.000   0.000  -0.000   0.000  -0.000   0.000  -0.000  -0.029  -0.000  -0.000
  0.000  -0.000  -0.000   0.000  -0.000   0.000   0.000   0.000   0.000  -0.000   0.000   0.000   0.000   0.000  -0.029  -0.000


------------------------ aborting loop because EDIFF is reached ----------------------------------------


    CHARGE:  cpu time    0.0103: real time    0.0103
    FORLOC:  cpu time    0.0006: real time    0.0006
    FORNL :  cpu time    0.0465: real time    0.0465
    STRESS:  cpu time    0.0607: real time    0.0607
    FORCOR:  cpu time    0.0075: real time    0.0075
    FORHAR:  cpu time    0.0018: real time    0.0018
    MIXING:  cpu time    0.0004: real time    0.0004

  FORCE on cell =-STRESS in cart. coord.  units (eV):
  Direction    XX          YY          ZZ          XY          YZ          ZX
  --------------------------------------------------------------------------------------
  Alpha Z   270.44910   270.44910   270.44910
  Ewald    -817.65777  -817.65777  -817.65777    -0.00000    -0.00000    -0.00000
  Hartree   115.11820   115.11820   115.11820    -0.00000    -0.00000    -0.00000
  E(xc)    -156.85555  -156.85555  -156.85555    -0.00000     0.00000     0.00000
  Local     244.68031   244.68031   244.68031     0.00000     0.00000     0.00000
  n-local  -107.64063  -106.19768  -101.43981     3.63884     1.03124     1.36168
  augment   151.87604   151.87604   151.87604     0.00000     0.00000    -0.00000
  Kinetic   312.53111   293.94560   286.38465     2.58870     5.11732     4.00494
  Fock        0.00000     0.00000     0.00000     0.00000     0.00000     0.00000
  -------------------------------------------------------------------------------------
  Total       0.13807     0.13807     0.13807     0.00000    -0.00000     0.00000
  in kB       5.41024     5.41024     5.41024     0.00000    -0.00000     0.00000
  external pressure =        5.41 kB  Pullay stress =        0.00 kB


 VOLUME and BASIS-vectors are now :
 -----------------------------------------------------------------------------
  energy-cutoff  :      300.00
  volume of cell :       40.89
      direct lattice vectors                 reciprocal lattice vectors
     3.445083000  0.000000000  0.000000000     0.290268769  0.000000000  0.000000000
     0.000000000  3.445083000  0.000000000     0.000000000  0.290268769  0.000000000
     0.000000000  0.000000000  3.445083000     0.000000000  0.000000000  0.290268769

  length of vectors
     3.445083000  3.445083000  3.445083000     0.290268769  0.290268769  0.290268769


 FORCES acting on ions
    electron-ion (+dipol)            ewald-force                    non-local-force                 convergence-correction
 -----------------------------------------------------------------------------------------------
   -.272E-13 0.960E-14 0.791E-14   0.950E-15 -.636E-14 -.192E-14   0.906E-24 0.202E-23 -.678E-24   -.264E-13 0.178E-13 0.443E-14
   0.421E-13 0.792E-13 0.675E-14   -.151E-14 0.210E-14 -.192E-14   0.114E-23 -.798E-24 0.967E-24   -.252E-13 0.720E-14 0.726E-14
   0.507E-13 0.822E-14 0.774E-13   0.725E-14 -.267E-14 0.266E-14   -.710E-24 0.150E-23 0.152E-25   -.383E-13 0.237E-14 0.145E-13
   -.228E-13 0.775E-13 0.777E-13   -.832E-14 0.579E-14 0.266E-14   -.572E-24 -.204E-23 0.511E-24   -.336E-13 0.118E-13 0.162E-13
 -----------------------------------------------------------------------------------------------
   0.428E-13 0.175E-12 0.170E-12   -.163E-14 -.114E-14 0.147E-14   0.764E-24 0.684E-24 0.815E-24   -.123E-12 0.392E-13 0.423E-13
 
 
 POSITION                                       TOTAL-FORCE (eV/Angst)
 -----------------------------------------------------------------------------------
      0.00000      0.00000      0.00000         0.000000     -0.000000     -0.000000
      1.72254      1.72254      0.00000         0.000000      0.000000      0.000000
      1.72254      0.00000      1.72254        -0.000000     -0.000000     -0.000000
      0.00000      1.72254      1.72254         0.000000      0.000000      0.000000
 -----------------------------------------------------------------------------------
    total drift:                               -0.000000      0.000000      0.000000


--------------------------------------------------------------------------------------------------------



  FREE ENERGIE OF THE ION-ELECTRON SYSTEM (eV)
  ---------------------------------------------------
  free  energy   TOTEN  =       -32.28121767 eV

  energy  without entropy=      -32.22825193  energy(sigma->0) =      -32.26356243
 


--------------------------------------------------------------------------------------------------------


    POTLOK:  cpu time    0.0112: real time    0.0112


--------------------------------------------------------------------------------------------------------


 writing wavefunctions
     LOOP+:  cpu time    2.4297: real time    2.4505
    4ORBIT:  cpu time    0.0000: real time    0.0000

 total amount of memory used by VASP MPI-rank0    36177. kBytes
=======================================================================

   base      :      30000. kBytes
   nonl-proj :        732. kBytes
   grid      :       1806. kBytes
   one-center:         62. kBytes
   wavefun   :       3577. kBytes
 
  
  
 General timing and accounting informations for this job:
 ========================================================
  
                  Total CPU time used (sec):        2.570
                            User time (sec):        2.542
                          System time (sec):        0.028
                         Elapsed time (sec):        2.580
  
                   Maximum memory used (kb):       41444.
                   Average memory used (kb):          N/A
  
                          Minor page faults:         4218
                          Major page faults:            0
                 Voluntary context switches:           26
