unknown system                          
   1.00000000000000     
     3.635000    0.000000    0.000000
     0.000000    3.635000    0.000000
     0.000000    0.000000    3.635000
   Cu
     4
Direct
  0.000000  0.000000  0.000000
  0.500000  0.500000  0.000000
  0.500000  0.000000  0.500000
  0.000000  0.500000  0.500000
 
   24   24   24
  829.77      747.87      543.86      312.60      138.81      51.858      25.095      13.646      7.6808      7.2542    
  7.1970      5.0930      3.6455      5.0930      7.1970      7.2542      7.6808      13.646      25.095      51.858    
  138.81      312.60      543.86      747.87      747.87      673.43      488.28      279.26      123.57      47.144    
  24.026      13.240      7.8230      7.5954      7.8206      6.2461      5.0930      6.2461      7.8206      7.5954    
  7.8230      13.240      24.026      47.144      123.57      279.26      488.28      673.43      543.86      488.28    
  350.86      197.95      87.549      36.618      21.246      12.177      8.0807      8.0738      8.5454      7.8206    
  7.1970      7.8206      8.5454      8.0738      8.0807      12.177      21.246      36.618      87.549      197.95    
  350.86      488.28      312.60      279.26      197.95      110.47      51.454      27.010      17.380      10.795    
  8.1712      8.0059      8.0738      7.5954      7.2542      7.5954      8.0738      8.0059      8.1712      10.795    
  17.380      27.010      51.454      110.47      197.95      279.26      138.81      123.57      87.549      51.454    
  29.865      20.271      13.393      9.5163      8.2808      8.1712      8.0807      7.8230      7.6808      7.8230    
  8.0807      8.1712      8.2808      9.5163      13.393      20.271      29.865      51.454      87.549      123.57    
  51.858      47.144      36.618      27.010      20.271      14.316      10.399      9.0404      9.5163      10.795    
  12.177      13.240      13.646      13.240      12.177      10.795      9.5163      9.0404      10.399      14.316    
  20.271      27.010      36.618      47.144      25.095      24.026      21.246      17.380      13.393      10.399    
  9.2868      10.399      13.393      17.380      21.246      24.026      25.095      24.026      21.246      17.380    
  13.393      10.399      9.2868      10.399      13.393      17.380      21.246      24.026      13.646      13.240    
  12.177      10.795      9.5163      9.0404      10.399      14.316      20.271      27.010      36.618      47.144    
  51.858      47.144      36.618      27.010      20.271      14.316      10.399      9.0404      9.5163      10.795    
  12.177      13.240      7.6808      7.8230      8.0807      8.1712      8.2808      9.5163      13.393      20.271    
  29.865      51.454      87.549      123.57      138.81      123.57      87.549      51.454      29.865      20.271    
  13.393      9.5163      8.2808      8.1712      8.0807      7.8230      7.2542      7.5954      8.0738      8.0059    
  8.1712      10.795      17.380      27.010      51.454      110.47      197.95      279.26      312.60      279.26    
  197.95      110.47      51.454      27.010      17.380      10.795      8.1712      8.0059      8.0738      7.5954    
  7.1970      7.8206      8.5454      8.0738      8.0807      12.177      21.246      36.618      87.549      197.95    
  350.86      488.28      543.86      488.28      350.86      197.95      87.549      36.618      21.246      12.177    
  8.0807      8.0738      8.5454      7.8206      5.0930      6.2461      7.8206      7.5954      7.8230      13.240    
  24.026      47.144      123.57      279.26      488.28      673.43      747.87      673.43      488.28      279.26    
  123.57      47.144      24.026      13.240      7.8230      7.5954      7.8206      6.2461      3.6455      5.0930    
  7.1970      7.2542      7.6808      13.646      25.095      51.858      138.81      312.60      543.86      747.87    
  829.77      747.87      543.86      312.60      138.81      51.858      25.095      13.646      7.6808      7.2542    
  7.1970      5.0930      5.0930      6.2461      7.8206      7.5954      7.8230      13.240      24.026      47.144    
  123.57      279.26      488.28      673.43      747.87      673.43      488.28      279.26      123.57      47.144    
  24.026      13.240      7.8230      7.5954      7.8206      6.2461      7.1970      7.8206      8.5454      8.0738    
  8.0807      12.177      21.246      36.618      87.549      197.95      350.86      488.28      543.86      488.28    
  350.86      197.95      87.549      36.618      21.246      12.177      8.0807      8.0738      8.5454      7.8206    
  7.2542      7.5954      8.0738      8.0059      8.1712      10.795      17.380      27.010      51.454      110.47    
  197.95      279.26      312.60      279.26      197.95      110.47      51.454      27.010      17.380      10.795    
  8.1712      8.0059      8.0738      7.5954      7.6808      7.8230      8.0807      8.1712      8.2808      9.5163    
  13.393      20.271      29.865      51.454      87.549      123.57      138.81      123.57      87.549      51.454    
  29.865      20.271      13.393      9.5163      8.2808      8.1712      8.0807      7.8230      13.646      13.240    
  12.177      10.795      9.5163      9.0404      10.399      14.316      20.271      27.010      36.618      47.144    
  51.858      47.144      36.618      27.010      20.271      14.316      10.399      9.0404      9.5163      10.795    
  12.177      13.240      25.095      24.026      21.246      17.380      13.393      10.399      9.2868      10.399    
  13.393      17.380      21.246      24.026      25.095      24.026      21.246      17.380      13.393      10.399    
  9.2868      10.399      13.393      17.380      21.246      24.026      51.858      47.144      36.618      27.010    
  20.271      14.316      10.399      9.0404      9.5163      10.795      12.177      13.240      13.646      13.240    
  12.177      10.795      9.5163      9.0404      10.399      14.316      20.271      27.010      36.618      47.144    
  138.81      123.57      87.549      51.454      29.865      20.271      13.393      9.5163      8.2808      8.1712    
  8.0807      7.8230      7.6808      7.8230      8.0807      8.1712      8.2808      9.5163      13.393      20.271    
  29.865      51.454      87.549      123.57      312.60      279.26      197.95      110.47      51.454      27.010    
  17.380      10.795      8.1712      8.0059      8.0738      7.5954      7.2542      7.5954      8.0738      8.0059    
  8.1712      10.795      17.380      27.010      51.454      110.47      197.95      279.26      543.86      488.28    
  350.86      197.95      87.549      36.618      21.246      12.177      8.0807      8.0738      8.5454      7.8206    
  7.1970      7.8206      8.5454      8.0738      8.0807      12.177      21.246      36.618      87.549      197.95    
  350.86      488.28      747.87      673.43      488.28      279.26      123.57      47.144      24.026      13.240    
  7.8230      7.5954      7.8206      6.2461      5.0930      6.2461      7.8206      7.5954      7.8230      13.240    
  24.026      47.144      123.57      279.26      488.28      673.43      747.87      673.43      488.28      279.26    
  123.57      47.144      24.026      13.240      7.8230      7.5954      7.8206      6.2461      5.0930      6.2461    
  7.8206      7.5954      7.8230      13.240      24.026      47.144      123.57      279.26      488.28      673.43    
  673.43      605.80      437.92      249.22      110.04      43.072      23.049      12.866      7.9328      7.8455    
  8.2809      7.1478      6.2461      7.1478      8.2809      7.8455      7.9328      12.866      23.049      43.072    
  110.04      249.22      437.92      605.80      488.28      437.92      313.67      176.23      78.210      34.034    
  20.416      11.889      8.1376      8.1721      8.7334      8.2809      7.8206      8.2809      8.7334      8.1721    
  8.1376      11.889      20.416      34.034      78.210      176.23      313.67      437.92      279.26      249.22    
  176.23      98.374      46.734      25.771      16.761      10.629      8.2197      8.0613      8.1721      7.8455    
  7.5954      7.8455      8.1721      8.0613      8.2197      10.629      16.761      25.771      46.734      98.374    
  176.23      249.22      123.57      110.04      78.210      46.734      28.230      19.510      13.035      9.4665    
  8.3372      8.2197      8.1376      7.9328      7.8230      7.9328      8.1376      8.2197      8.3372      9.4665    
  13.035      19.510      28.230      46.734      78.210      110.04      47.144      43.072      34.034      25.771    
  19.510      13.889      10.261      9.0264      9.4665      10.629      11.889      12.866      13.240      12.866    
  11.889      10.629      9.4665      9.0264      10.261      13.889      19.510      25.771      34.034      43.072    
  24.026      23.049      20.416      16.761      13.035      10.261      9.2367      10.261      13.035      16.761    
  20.416      23.049      24.026      23.049      20.416      16.761      13.035      10.261      9.2367      10.261    
  13.035      16.761      20.416      23.049      13.240      12.866      11.889      10.629      9.4665      9.0264    
  10.261      13.889      19.510      25.771      34.034      43.072      47.144      43.072      34.034      25.771    
  19.510      13.889      10.261      9.0264      9.4665      10.629      11.889      12.866      7.8230      7.9328    
  8.1376      8.2197      8.3372      9.4665      13.035      19.510      28.230      46.734      78.210      110.04    
  123.57      110.04      78.210      46.734      28.230      19.510      13.035      9.4665      8.3372      8.2197    
  8.1376      7.9328      7.5954      7.8455      8.1721      8.0613      8.2197      10.629      16.761      25.771    
  46.734      98.374      176.23      249.22      279.26      249.22      176.23      98.374      46.734      25.771    
  16.761      10.629      8.2197      8.0613      8.1721      7.8455      7.8206      8.2809      8.7334      8.1721    
  8.1376      11.889      20.416      34.034      78.210      176.23      313.67      437.92      488.28      437.92    
  313.67      176.23      78.210      34.034      20.416      11.889      8.1376      8.1721      8.7334      8.2809    
  6.2461      7.1478      8.2809      7.8455      7.9328      12.866      23.049      43.072      110.04      249.22    
  437.92      605.80      673.43      605.80      437.92      249.22      110.04      43.072      23.049      12.866    
  7.9328      7.8455      8.2809      7.1478      5.0930      6.2461      7.8206      7.5954      7.8230      13.240    
  24.026      47.144      123.57      279.26      488.28      673.43      747.87      673.43      488.28      279.26    
  123.57      47.144      24.026      13.240      7.8230      7.5954      7.8206      6.2461      6.2461      7.1478    
  8.2809      7.8455      7.9328      12.866      23.049      43.072      110.04      249.22      437.92      605.80    
  673.43      605.80      437.92      249.22      110.04      43.072      23.049      12.866      7.9328      7.8455    
  8.2809      7.1478      7.8206      8.2809      8.7334      8.1721      8.1376      11.889      20.416      34.034    
  78.210      176.23      313.67      437.92      488.28      437.92      313.67      176.23      78.210      34.034    
  20.416      11.889      8.1376      8.1721      8.7334      8.2809      7.5954      7.8455      8.1721      8.0613    
  8.2197      10.629      16.761      25.771      46.734      98.374      176.23      249.22      279.26      249.22    
  176.23      98.374      46.734      25.771      16.761      10.629      8.2197      8.0613      8.1721      7.8455    
  7.8230      7.9328      8.1376      8.2197      8.3372      9.4665      13.035      19.510      28.230      46.734    
  78.210      110.04      123.57      110.04      78.210      46.734      28.230      19.510      13.035      9.4665    
  8.3372      8.2197      8.1376      7.9328      13.240      12.866      11.889      10.629      9.4665      9.0264    
  10.261      13.889      19.510      25.771      34.034      43.072      47.144      43.072      34.034      25.771    
  19.510      13.889      10.261      9.0264      9.4665      10.629      11.889      12.866      24.026      23.049    
  20.416      16.761      13.035      10.261      9.2367      10.261      13.035      16.761      20.416      23.049    
  24.026      23.049      20.416      16.761      13.035      10.261      9.2367      10.261      13.035      16.761    
  20.416      23.049      47.144      43.072      34.034      25.771      19.510      13.889      10.261      9.0264    
  9.4665      10.629      11.889      12.866      13.240      12.866      11.889      10.629      9.4665      9.0264    
  10.261      13.889      19.510      25.771      34.034      43.072      123.57      110.04      78.210      46.734    
  28.230      19.510      13.035      9.4665      8.3372      8.2197      8.1376      7.9328      7.8230      7.9328    
  8.1376      8.2197      8.3372      9.4665      13.035      19.510      28.230      46.734      78.210      110.04    
  279.26      249.22      176.23      98.374      46.734      25.771      16.761      10.629      8.2197      8.0613    
  8.1721      7.8455      7.5954      7.8455      8.1721      8.0613      8.2197      10.629      16.761      25.771    
  46.734      98.374      176.23      249.22      488.28      437.92      313.67      176.23      78.210      34.034    
  20.416      11.889      8.1376      8.1721      8.7334      8.2809      7.8206      8.2809      8.7334      8.1721    
  8.1376      11.889      20.416      34.034      78.210      176.23      313.67      437.92      673.43      605.80    
  437.92      249.22      110.04      43.072      23.049      12.866      7.9328      7.8455      8.2809      7.1478    
  6.2461      7.1478      8.2809      7.8455      7.9328      12.866      23.049      43.072      110.04      249.22    
  437.92      605.80      543.86      488.28      350.86      197.95      87.549      36.618      21.246      12.177    
  8.0807      8.0738      8.5454      7.8206      7.1970      7.8206      8.5454      8.0738      8.0807      12.177    
  21.246      36.618      87.549      197.95      350.86      488.28      488.28      437.92      313.67      176.23    
  78.210      34.034      20.416      11.889      8.1376      8.1721      8.7334      8.2809      7.8206      8.2809    
  8.7334      8.1721      8.1376      11.889      20.416      34.034      78.210      176.23      313.67      437.92    
  350.86      313.67      222.70      124.10      56.674      28.345      18.163      11.144      8.2589      8.2751    
  8.8031      8.7334      8.5454      8.7334      8.8031      8.2751      8.2589      11.144      18.163      28.345    
  56.674      124.10      222.70      313.67      197.95      176.23      124.10      70.119      36.242      22.827    
  15.117      10.194      8.3376      8.1676      8.2751      8.1721      8.0738      8.1721      8.2751      8.1676    
  8.3376      10.194      15.117      22.827      36.242      70.119      124.10      176.23      87.549      78.210    
  56.674      36.242      24.583      17.492      12.109      9.3208      8.4620      8.3376      8.2589      8.1376    
  8.0807      8.1376      8.2589      8.3376      8.4620      9.3208      12.109      17.492      24.583      36.242    
  56.674      78.210      36.618      34.034      28.345      22.827      17.492      12.812      9.9299      8.9838    
  9.3208      10.194      11.144      11.889      12.177      11.889      11.144      10.194      9.3208      8.9838    
  9.9299      12.812      17.492      22.827      28.345      34.034      21.246      20.416      18.163      15.117    
  12.109      9.9299      9.1375      9.9299      12.109      15.117      18.163      20.416      21.246      20.416    
  18.163      15.117      12.109      9.9299      9.1375      9.9299      12.109      15.117      18.163      20.416    
  12.177      11.889      11.144      10.194      9.3208      8.9838      9.9299      12.812      17.492      22.827    
  28.345      34.034      36.618      34.034      28.345      22.827      17.492      12.812      9.9299      8.9838    
  9.3208      10.194      11.144      11.889      8.0807      8.1376      8.2589      8.3376      8.4620      9.3208    
  12.109      17.492      24.583      36.242      56.674      78.210      87.549      78.210      56.674      36.242    
  24.583      17.492      12.109      9.3208      8.4620      8.3376      8.2589      8.1376      8.0738      8.1721    
  8.2751      8.1676      8.3376      10.194      15.117      22.827      36.242      70.119      124.10      176.23    
  197.95      176.23      124.10      70.119      36.242      22.827      15.117      10.194      8.3376      8.1676    
  8.2751      8.1721      8.5454      8.7334      8.8031      8.2751      8.2589      11.144      18.163      28.345    
  56.674      124.10      222.70      313.67      350.86      313.67      222.70      124.10      56.674      28.345    
  18.163      11.144      8.2589      8.2751      8.8031      8.7334      7.8206      8.2809      8.7334      8.1721    
  8.1376      11.889      20.416      34.034      78.210      176.23      313.67      437.92      488.28      437.92    
  313.67      176.23      78.210      34.034      20.416      11.889      8.1376      8.1721      8.7334      8.2809    
  7.1970      7.8206      8.5454      8.0738      8.0807      12.177      21.246      36.618      87.549      197.95    
  350.86      488.28      543.86      488.28      350.86      197.95      87.549      36.618      21.246      12.177    
  8.0807      8.0738      8.5454      7.8206      7.8206      8.2809      8.7334      8.1721      8.1376      11.889    
  20.416      34.034      78.210      176.23      313.67      437.92      488.28      437.92      313.67      176.23    
  78.210      34.034      20.416      11.889      8.1376      8.1721      8.7334      8.2809      8.5454      8.7334    
  8.8031      8.2751      8.2589      11.144      18.163      28.345      56.674      124.10      222.70      313.67    
  350.86      313.67      222.70      124.10      56.674      28.345      18.163      11.144      8.2589      8.2751    
  8.8031      8.7334      8.0738      8.1721      8.2751      8.1676      8.3376      10.194      15.117      22.827    
  36.242      70.119      124.10      176.23      197.95      176.23      124.10      70.119      36.242      22.827    
  15.117      10.194      8.3376      8.1676      8.2751      8.1721      8.0807      8.1376      8.2589      8.3376    
  8.4620      9.3208      12.109      17.492      24.583      36.242      56.674      78.210      87.549      78.210    
  56.674      36.242      24.583      17.492      12.109      9.3208      8.4620      8.3376      8.2589      8.1376    
  12.177      11.889      11.144      10.194      9.3208      8.9838      9.9299      12.812      17.492      22.827    
  28.345      34.034      36.618      34.034      28.345      22.827      17.492      12.812      9.9299      8.9838    
  9.3208      10.194      11.144      11.889      21.246      20.416      18.163      15.117      12.109      9.9299    
  9.1375      9.9299      12.109      15.117      18.163      20.416      21.246      20.416      18.163      15.117    
  12.109      9.9299      9.1375      9.9299      12.109      15.117      18.163      20.416      36.618      34.034    
  28.345      22.827      17.492      12.812      9.9299      8.9838      9.3208      10.194      11.144      11.889    
  12.177      11.889      11.144      10.194      9.3208      8.9838      9.9299      12.812      17.492      22.827    
  28.345      34.034      87.549      78.210      56.674      36.242      24.583      17.492      12.109      9.3208    
  8.4620      8.3376      8.2589      8.1376      8.0807      8.1376      8.2589      8.3376      8.4620      9.3208    
  12.109      17.492      24.583      36.242      56.674      78.210      197.95      176.23      124.10      70.119    
  36.242      22.827      15.117      10.194      8.3376      8.1676      8.2751      8.1721      8.0738      8.1721    
  8.2751      8.1676      8.3376      10.194      15.117      22.827      36.242      70.119      124.10      176.23    
  350.86      313.67      222.70      124.10      56.674      28.345      18.163      11.144      8.2589      8.2751    
  8.8031      8.7334      8.5454      8.7334      8.8031      8.2751      8.2589      11.144      18.163      28.345    
  56.674      124.10      222.70      313.67      488.28      437.92      313.67      176.23      78.210      34.034    
  20.416      11.889      8.1376      8.1721      8.7334      8.2809      7.8206      8.2809      8.7334      8.1721    
  8.1376      11.889      20.416      34.034      78.210      176.23      313.67      437.92      312.60      279.26    
  197.95      110.47      51.454      27.010      17.380      10.795      8.1712      8.0059      8.0738      7.5954    
  7.2542      7.5954      8.0738      8.0059      8.1712      10.795      17.380      27.010      51.454      110.47    
  197.95      279.26      279.26      249.22      176.23      98.374      46.734      25.771      16.761      10.629    
  8.2197      8.0613      8.1721      7.8455      7.5954      7.8455      8.1721      8.0613      8.2197      10.629    
  16.761      25.771      46.734      98.374      176.23      249.22      197.95      176.23      124.10      70.119    
  36.242      22.827      15.117      10.194      8.3376      8.1676      8.2751      8.1721      8.0738      8.1721    
  8.2751      8.1676      8.3376      10.194      15.117      22.827      36.242      70.119      124.10      176.23    
  110.47      98.374      70.119      42.617      26.823      18.965      12.981      9.6283      8.4463      8.2330    
  8.1676      8.0613      8.0059      8.0613      8.1676      8.2330      8.4463      9.6283      12.981      18.965    
  26.823      42.617      70.119      98.374      51.454      46.734      36.242      26.823      20.460      14.868    
  10.973      9.1076      8.5608      8.4463      8.3376      8.2197      8.1712      8.2197      8.3376      8.4463    
  8.5608      9.1076      10.973      14.868      20.460      26.823      36.242      46.734      27.010      25.771    
  22.827      18.965      14.868      11.543      9.5827      8.9300      9.1076      9.6283      10.194      10.629    
  10.795      10.629      10.194      9.6283      9.1076      8.9300      9.5827      11.543      14.868      18.965    
  22.827      25.771      17.380      16.761      15.117      12.981      10.973      9.5827      9.0911      9.5827    
  10.973      12.981      15.117      16.761      17.380      16.761      15.117      12.981      10.973      9.5827    
  9.0911      9.5827      10.973      12.981      15.117      16.761      10.795      10.629      10.194      9.6283    
  9.1076      8.9300      9.5827      11.543      14.868      18.965      22.827      25.771      27.010      25.771    
  22.827      18.965      14.868      11.543      9.5827      8.9300      9.1076      9.6283      10.194      10.629    
  8.1712      8.2197      8.3376      8.4463      8.5608      9.1076      10.973      14.868      20.460      26.823    
  36.242      46.734      51.454      46.734      36.242      26.823      20.460      14.868      10.973      9.1076    
  8.5608      8.4463      8.3376      8.2197      8.0059      8.0613      8.1676      8.2330      8.4463      9.6283    
  12.981      18.965      26.823      42.617      70.119      98.374      110.47      98.374      70.119      42.617    
  26.823      18.965      12.981      9.6283      8.4463      8.2330      8.1676      8.0613      8.0738      8.1721    
  8.2751      8.1676      8.3376      10.194      15.117      22.827      36.242      70.119      124.10      176.23    
  197.95      176.23      124.10      70.119      36.242      22.827      15.117      10.194      8.3376      8.1676    
  8.2751      8.1721      7.5954      7.8455      8.1721      8.0613      8.2197      10.629      16.761      25.771    
  46.734      98.374      176.23      249.22      279.26      249.22      176.23      98.374      46.734      25.771    
  16.761      10.629      8.2197      8.0613      8.1721      7.8455      7.2542      7.5954      8.0738      8.0059    
  8.1712      10.795      17.380      27.010      51.454      110.47      197.95      279.26      312.60      279.26    
  197.95      110.47      51.454      27.010      17.380      10.795      8.1712      8.0059      8.0738      7.5954    
  7.5954      7.8455      8.1721      8.0613      8.2197      10.629      16.761      25.771      46.734      98.374    
  176.23      249.22      279.26      249.22      176.23      98.374      46.734      25.771      16.761      10.629    
  8.2197      8.0613      8.1721      7.8455      8.0738      8.1721      8.2751      8.1676      8.3376      10.194    
  15.117      22.827      36.242      70.119      124.10      176.23      197.95      176.23      124.10      70.119    
  36.242      22.827      15.117      10.194      8.3376      8.1676      8.2751      8.1721      8.0059      8.0613    
  8.1676      8.2330      8.4463      9.6283      12.981      18.965      26.823      42.617      70.119      98.374    
  110.47      98.374      70.119      42.617      26.823      18.965      12.981      9.6283      8.4463      8.2330    
  8.1676      8.0613      8.1712      8.2197      8.3376      8.4463      8.5608      9.1076      10.973      14.868    
  20.460      26.823      36.242      46.734      51.454      46.734      36.242      26.823      20.460      14.868    
  10.973      9.1076      8.5608      8.4463      8.3376      8.2197      10.795      10.629      10.194      9.6283    
  9.1076      8.9300      9.5827      11.543      14.868      18.965      22.827      25.771      27.010      25.771    
  22.827      18.965      14.868      11.543      9.5827      8.9300      9.1076      9.6283      10.194      10.629    
  17.380      16.761      15.117      12.981      10.973      9.5827      9.0911      9.5827      10.973      12.981    
  15.117      16.761      17.380      16.761      15.117      12.981      10.973      9.5827      9.0911      9.5827    
  10.973      12.981      15.117      16.761      27.010      25.771      22.827      18.965      14.868      11.543    
  9.5827      8.9300      9.1076      9.6283      10.194      10.629      10.795      10.629      10.194      9.6283    
  9.1076      8.9300      9.5827      11.543      14.868      18.965      22.827      25.771      51.454      46.734    
  36.242      26.823      20.460      14.868      10.973      9.1076      8.5608      8.4463      8.3376      8.2197    
  8.1712      8.2197      8.3376      8.4463      8.5608      9.1076      10.973      14.868      20.460      26.823    
  36.242      46.734      110.47      98.374      70.119      42.617      26.823      18.965      12.981      9.6283    
  8.4463      8.2330      8.1676      8.0613      8.0059      8.0613      8.1676      8.2330      8.4463      9.6283    
  12.981      18.965      26.823      42.617      70.119      98.374      197.95      176.23      124.10      70.119    
  36.242      22.827      15.117      10.194      8.3376      8.1676      8.2751      8.1721      8.0738      8.1721    
  8.2751      8.1676      8.3376      10.194      15.117      22.827      36.242      70.119      124.10      176.23    
  279.26      249.22      176.23      98.374      46.734      25.771      16.761      10.629      8.2197      8.0613    
  8.1721      7.8455      7.5954      7.8455      8.1721      8.0613      8.2197      10.629      16.761      25.771    
  46.734      98.374      176.23      249.22      138.81      123.57      87.549      51.454      29.865      20.271    
  13.393      9.5163      8.2808      8.1712      8.0807      7.8230      7.6808      7.8230      8.0807      8.1712    
  8.2808      9.5163      13.393      20.271      29.865      51.454      87.549      123.57      123.57      110.04    
  78.210      46.734      28.230      19.510      13.035      9.4665      8.3372      8.2197      8.1376      7.9328    
  7.8230      7.9328      8.1376      8.2197      8.3372      9.4665      13.035      19.510      28.230      46.734    
  78.210      110.04      87.549      78.210      56.674      36.242      24.583      17.492      12.109      9.3208    
  8.4620      8.3376      8.2589      8.1376      8.0807      8.1376      8.2589      8.3376      8.4620      9.3208    
  12.109      17.492      24.583      36.242      56.674      78.210      51.454      46.734      36.242      26.823    
  20.460      14.868      10.973      9.1076      8.5608      8.4463      8.3376      8.2197      8.1712      8.2197    
  8.3376      8.4463      8.5608      9.1076      10.973      14.868      20.460      26.823      36.242      46.734    
  29.865      28.230      24.583      20.460      16.072      12.361      9.9856      8.9158      8.6248      8.5608    
  8.4620      8.3372      8.2808      8.3372      8.4620      8.5608      8.6248      8.9158      9.9856      12.361    
  16.072      20.460      24.583      28.230      20.271      19.510      17.492      14.868      12.361      10.469    
  9.3575      8.9188      8.9158      9.1076      9.3208      9.4665      9.5163      9.4665      9.3208      9.1076    
  8.9158      8.9188      9.3575      10.469      12.361      14.868      17.492      19.510      13.393      13.035    