unknown system                          
   1.00000000000000     
     3.635000    0.000000    0.000000
     0.000000    3.635000    0.000000
     0.000000    0.000000    3.635000
   Cu
     4
Direct
  0.000000  0.000000  0.000000
  0.500000  0.500000  0.000000
  0.500000  0.000000  0.500000
  0.000000  0.500000  0.500000
 
   24   24   24
 0.82977109453E+03 0.74786966617E+03 0.54386038503E+03 0.31260113193E+03 0.13881111621E+03
 0.51858331724E+02 0.25095397582E+02 0.13646288292E+02 0.76808396871E+01 0.72542444570E+01
 0.71970381354E+01 0.50930411154E+01 0.36455220515E+01 0.50930411154E+01 0.71970381354E+01
 0.72542444570E+01 0.76808396871E+01 0.13646288292E+02 0.25095397582E+02 0.51858331724E+02
 0.13881111621E+03 0.31260113193E+03 0.54386038503E+03 0.74786966617E+03 0.74786966617E+03
 0.67342550356E+03 0.48828375566E+03 0.27925866619E+03 0.12357481050E+03 0.47143970891E+02
 0.24026217166E+02 0.13240437955E+02 0.78229545277E+01 0.75954031105E+01 0.78206434569E+01
 0.62460709737E+01 0.50930411154E+01 0.62460709737E+01 0.78206434569E+01 0.75954031105E+01
 0.78229545277E+01 0.13240437955E+02 0.24026217166E+02 0.47143970891E+02 0.12357481050E+03
 0.27925866619E+03 0.48828375566E+03 0.67342550356E+03 0.54386038503E+03 0.48828375566E+03
 0.35086491426E+03 0.19795418864E+03 0.87549449458E+02 0.36618150299E+02 0.21246206679E+02
 0.12177204080E+02 0.80806948948E+01 0.80738101744E+01 0.85454098240E+01 0.78206434569E+01
 0.71970381354E+01 0.78206434569E+01 0.85454098240E+01 0.80738101744E+01 0.80806948948E+01
 0.12177204080E+02 0.21246206679E+02 0.36618150299E+02 0.87549449458E+02 0.19795418864E+03
 0.35086491426E+03 0.48828375566E+03 0.31260113193E+03 0.27925866619E+03 0.19795418864E+03
 0.11047358779E+03 0.51453854570E+02 0.27009999513E+02 0.17379973948E+02 0.10794836851E+02
 0.81712433171E+01 0.80058821306E+01 0.80738101744E+01 0.75954031105E+01 0.72542444570E+01
 0.75954031105E+01 0.80738101744E+01 0.80058821306E+01 0.81712433171E+01 0.10794836851E+02
 0.17379973948E+02 0.27009999513E+02 0.51453854570E+02 0.11047358779E+03 0.19795418864E+03
 0.27925866619E+03 0.13881111621E+03 0.12357481050E+03 0.87549449458E+02 0.51453854570E+02
 0.29864954768E+02 0.20271177341E+02 0.13393495820E+02 0.95163428150E+01 0.82808313488E+01
 0.81712433171E+01 0.80806948948E+01 0.78229545277E+01 0.76808396871E+01 0.78229545277E+01
 0.80806948948E+01 0.81712433171E+01 0.82808313488E+01 0.95163428150E+01 0.13393495820E+02
 0.20271177341E+02 0.29864954768E+02 0.51453854570E+02 0.87549449458E+02 0.12357481050E+03
 0.51858331724E+02 0.47143970891E+02 0.36618150299E+02 0.27009999513E+02 0.20271177341E+02
 0.14315907078E+02 0.10398958866E+02 0.90404354174E+01 0.95163428150E+01 0.10794836851E+02
 0.12177204080E+02 0.13240437955E+02 0.13646288292E+02 0.13240437955E+02 0.12177204080E+02
 0.10794836851E+02 0.95163428150E+01 0.90404354174E+01 0.10398958866E+02 0.14315907078E+02
 0.20271177341E+02 0.27009999513E+02 0.36618150299E+02 0.47143970891E+02 0.25095397582E+02
 0.24026217166E+02 0.21246206679E+02 0.17379973948E+02 0.13393495820E+02 0.10398958866E+02
 0.92867725110E+01 0.10398958866E+02 0.13393495820E+02 0.17379973948E+02 0.21246206679E+02
 0.24026217166E+02 0.25095397582E+02 0.24026217166E+02 0.21246206679E+02 0.17379973948E+02
 0.13393495820E+02 0.10398958866E+02 0.92867725110E+01 0.10398958866E+02 0.13393495820E+02
 0.17379973948E+02 0.21246206679E+02 0.24026217166E+02 0.13646288292E+02 0.13240437955E+02
 0.12177204080E+02 0.10794836851E+02 0.95163428150E+01 0.90404354174E+01 0.10398958866E+02
 0.14315907078E+02 0.20271177341E+02 0.27009999513E+02 0.36618150299E+02 0.47143970891E+02
 0.51858331724E+02 0.47143970891E+02 0.36618150299E+02 0.27009999513E+02 0.20271177341E+02
 0.14315907078E+02 0.10398958866E+02 0.90404354174E+01 0.95163428150E+01 0.10794836851E+02
 0.12177204080E+02 0.13240437955E+02 0.76808396871E+01 0.78229545277E+01 0.80806948948E+01
 0.81712433171E+01 0.82808313488E+01 0.95163428150E+01 0.13393495820E+02 0.20271177341E+02
 0.29864954768E+02 0.51453854570E+02 0.87549449458E+02 0.12357481050E+03 0.13881111621E+03
 0.12357481050E+03 0.87549449458E+02 0.51453854570E+02 0.29864954768E+02 0.20271177341E+02
 0.13393495820E+02 0.95163428150E+01 0.82808313488E+01 0.81712433171E+01 0.80806948948E+01
 0.78229545277E+01 0.72542444570E+01 0.75954031105E+01 0.80738101744E+01 0.80058821306E+01
 0.81712433171E+01 0.10794836851E+02 0.17379973948E+02 0.27009999513E+02 0.51453854570E+02
 0.11047358779E+03 0.19795418864E+03 0.27925866619E+03 0.31260113193E+03 0.27925866619E+03
 0.19795418864E+03 0.11047358779E+03 0.51453854570E+02 0.27009999513E+02 0.17379973948E+02
 0.10794836851E+02 0.81712433171E+01 0.80058821306E+01 0.80738101744E+01 0.75954031105E+01
 0.71970381354E+01 0.78206434569E+01 0.85454098240E+01 0.80738101744E+01 0.80806948948E+01
 0.12177204080E+02 0.21246206679E+02 0.36618150299E+02 0.87549449458E+02 0.19795418864E+03
 0.35086491426E+03 0.48828375566E+03 0.54386038503E+03 0.48828375566E+03 0.35086491426E+03
 0.19795418864E+03 0.87549449458E+02 0.36618150299E+02 0.21246206679E+02 0.12177204080E+02
 0.80806948948E+01 0.80738101744E+01 0.85454098240E+01 0.78206434569E+01 0.50930411154E+01
 0.62460709737E+01 0.78206434569E+01 0.75954031105E+01 0.78229545277E+01 0.13240437955E+02
 0.24026217166E+02 0.47143970891E+02 0.12357481050E+03 0.27925866619E+03 0.48828375566E+03
 0.67342550356E+03 0.74786966617E+03 0.67342550356E+03 0.48828375566E+03 0.27925866619E+03
 0.12357481050E+03 0.47143970891E+02 0.24026217166E+02 0.13240437955E+02 0.78229545277E+01
 0.75954031105E+01 0.78206434569E+01 0.62460709737E+01 0.36455220515E+01 0.50930411154E+01
 0.71970381354E+01 0.72542444570E+01 0.76808396871E+01 0.13646288292E+02 0.25095397582E+02
 0.51858331724E+02 0.13881111621E+03 0.31260113193E+03 0.54386038503E+03 0.74786966617E+03
 0.82977109453E+03 0.74786966617E+03 0.54386038503E+03 0.31260113193E+03 0.13881111621E+03
 0.51858331724E+02 0.25095397582E+02 0.13646288292E+02 0.76808396871E+01 0.72542444570E+01
 0.71970381354E+01 0.50930411154E+01 0.50930411154E+01 0.62460709737E+01 0.78206434569E+01
 0.75954031105E+01 0.78229545277E+01 0.13240437955E+02 0.24026217166E+02 0.47143970891E+02
 0.12357481050E+03 0.27925866619E+03 0.48828375566E+03 0.67342550356E+03 0.74786966617E+03
 0.67342550356E+03 0.48828375566E+03 0.27925866619E+03 0.12357481050E+03 0.47143970891E+02
 0.24026217166E+02 0.13240437955E+02 0.78229545277E+01 0.75954031105E+01 0.78206434569E+01
 0.62460709737E+01 0.71970381354E+01 0.78206434569E+01 0.85454098240E+01 0.80738101744E+01
 0.80806948948E+01 0.12177204080E+02 0.21246206679E+02 0.36618150299E+02 0.87549449458E+02
 0.19795418864E+03 0.35086491426E+03 0.48828375566E+03 0.54386038503E+03 0.48828375566E+03
 0.35086491426E+03 0.19795418864E+03 0.87549449458E+02 0.36618150299E+02 0.21246206679E+02
 0.12177204080E+02 0.80806948948E+01 0.80738101744E+01 0.85454098240E+01 0.78206434569E+01
 0.72542444570E+01 0.75954031105E+01 0.80738101744E+01 0.80058821306E+01 0.81712433171E+01
 0.10794836851E+02 0.17379973948E+02 0.27009999513E+02 0.51453854570E+02 0.11047358779E+03
 0.19795418864E+03 0.27925866619E+03 0.31260113193E+03 0.27925866619E+03 0.19795418864E+03
 0.11047358779E+03 0.51453854570E+02 0.27009999513E+02 0.17379973948E+02 0.10794836851E+02
 0.81712433171E+01 0.80058821306E+01 0.80738101744E+01 0.75954031105E+01 0.76808396871E+01
 0.78229545277E+01 0.80806948948E+01 0.81712433171E+01 0.82808313488E+01 0.95163428150E+01
 0.13393495820E+02 0.20271177341E+02 0.29864954768E+02 0.51453854570E+02 0.87549449458E+02
 0.12357481050E+03 0.13881111621E+03 0.12357481050E+03 0.87549449458E+02 0.51453854570E+02
 0.29864954768E+02 0.20271177341E+02 0.13393495820E+02 0.95163428150E+01 0.82808313488E+01
 0.81712433171E+01 0.80806948948E+01 0.78229545277E+01 0.13646288292E+02 0.13240437955E+02
 0.12177204080E+02 0.10794836851E+02 0.95163428150E+01 0.90404354174E+01 0.10398958866E+02
 0.14315907078E+02 0.20271177341E+02 0.27009999513E+02 0.36618150299E+02 0.47143970891E+02
 0.51858331724E+02 0.47143970891E+02 0.36618150299E+02 0.27009999513E+02 0.20271177341E+02
 0.14315907078E+02 0.10398958866E+02 0.90404354174E+01 0.95163428150E+01 0.10794836851E+02
 0.12177204080E+02 0.13240437955E+02 0.25095397582E+02 0.24026217166E+02 0.21246206679E+02
 0.17379973948E+02 0.13393495820E+02 0.10398958866E+02 0.92867725110E+01 0.10398958866E+02
 0.13393495820E+02 0.17379973948E+02 0.21246206679E+02 0.24026217166E+02 0.25095397582E+02
 0.24026217166E+02 0.21246206679E+02 0.17379973948E+02 0.13393495820E+02 0.10398958866E+02
 0.92867725110E+01 0.10398958866E+02 0.13393495820E+02 0.17379973948E+02 0.21246206679E+02
 0.24026217166E+02 0.51858331724E+02 0.47143970891E+02 0.36618150299E+02 0.27009999513E+02
 0.20271177341E+02 0.14315907078E+02 0.10398958866E+02 0.90404354174E+01 0.95163428150E+01
 0.10794836851E+02 0.12177204080E+02 0.13240437955E+02 0.13646288292E+02 0.13240437955E+02
 0.12177204080E+02 0.10794836851E+02 0.95163428150E+01 0.90404354174E+01 0.10398958866E+02
 0.14315907078E+02 0.20271177341E+02 0.27009999513E+02 0.36618150299E+02 0.47143970891E+02
 0.13881111621E+03 0.12357481050E+03 0.87549449458E+02 0.51453854570E+02 0.29864954768E+02
 0.20271177341E+02 0.13393495820E+02 0.95163428150E+01 0.82808313488E+01 0.81712433171E+01
 0.80806948948E+01 0.78229545277E+01 0.76808396871E+01 0.78229545277E+01 0.80806948948E+01
 0.81712433171E+01 0.82808313488E+01 0.95163428150E+01 0.13393495820E+02 0.20271177341E+02
 0.29864954768E+02 0.51453854570E+02 0.87549449458E+02 0.12357481050E+03 0.31260113193E+03
 0.27925866619E+03 0.19795418864E+03 0.11047358779E+03 0.51453854570E+02 0.27009999513E+02
 0.17379973948E+02 0.10794836851E+02 0.81712433171E+01 0.80058821306E+01 0.80738101744E+01
 0.75954031105E+01 0.72542444570E+01 0.75954031105E+01 0.80738101744E+01 0.80058821306E+01
 0.81712433171E+01 0.10794836851E+02 0.17379973948E+02 0.27009999513E+02 0.51453854570E+02
 0.11047358779E+03 0.19795418864E+03 0.27925866619E+03 0.54386038503E+03 0.48828375566E+03
 0.35086491426E+03 0.19795418864E+03 0.87549449458E+02 0.36618150299E+02 0.21246206679E+02
 0.12177204080E+02 0.80806948948E+01 0.80738101744E+01 0.85454098240E+01 0.78206434569E+01
 0.71970381354E+01 0.78206434569E+01 0.85454098240E+01 0.80738101744E+01 0.80806948948E+01
 0.12177204080E+02 0.21246206679E+02 0.36618150299E+02 0.87549449458E+02 0.19795418864E+03
 0.35086491426E+03 0.48828375566E+03 0.74786966617E+03 0.67342550356E+03 0.48828375566E+03
 0.27925866619E+03 0.12357481050E+03 0.47143970891E+02 0.24026217166E+02 0.13240437955E+02
 0.78229545277E+01 0.75954031105E+01 0.78206434569E+01 0.62460709737E+01 0.50930411154E+01
 0.62460709737E+01 0.78206434569E+01 0.75954031105E+01 0.78229545277E+01 0.13240437955E+02
 0.24026217166E+02 0.47143970891E+02 0.12357481050E+03 0.27925866619E+03 0.48828375566E+03
 0.67342550356E+03 0.74786966617E+03 0.67342550356E+03 0.48828375566E+03 0.27925866619E+03
 0.12357481050E+03 0.47143970891E+02 0.24026217166E+02 0.13240437955E+02 0.78229545277E+01
 0.75954031105E+01 0.78206434569E+01 0.62460709737E+01 0.50930411154E+01 0.62460709737E+01
 0.78206434569E+01 0.75954031105E+01 0.78229545277E+01 0.13240437955E+02 0.24026217166E+02
 0.47143970891E+02 0.12357481050E+03 0.27925866619E+03 0.48828375566E+03 0.67342550356E+03
 0.67342550356E+03 0.60580130630E+03 0.43791657484E+03 0.24921903295E+03 0.11003652769E+03
 0.43072118974E+02 0.23048998865E+02 0.12865666397E+02 0.79327854411E+01 0.78454877128E+01
 0.82808871926E+01 0.71477925473E+01 0.62460709737E+01 0.71477925473E+01 0.82808871926E+01
 0.78454877128E+01 0.79327854411E+01 0.12865666397E+02 0.23048998865E+02 0.43072118974E+02
 0.11003652769E+03 0.24921903295E+03 0.43791657484E+03 0.60580130630E+03 0.48828375566E+03
 0.43791657484E+03 0.31367314877E+03 0.17623078134E+03 0.78209735588E+02 0.34033643323E+02
 0.20416365511E+02 0.11889142772E+02 0.81375543760E+01 0.81721464598E+01 0.87333887720E+01
 0.82808871926E+01 0.78206434569E+01 0.82808871926E+01 0.87333887720E+01 0.81721464598E+01
 0.81375543760E+01 0.11889142772E+02 0.20416365511E+02 0.34033643323E+02 0.78209735588E+02
 0.17623078134E+03 0.31367314877E+03 0.43791657484E+03 0.27925866619E+03 0.24921903295E+03
 0.17623078134E+03 0.98373672882E+02 0.46733547536E+02 0.25771193644E+02 0.16761138989E+02
 0.10629070499E+02 0.82197473674E+01 0.80612697870E+01 0.81721464598E+01 0.78454877128E+01
 0.75954031105E+01 0.78454877128E+01 0.81721464598E+01 0.80612697870E+01 0.82197473674E+01
 0.10629070499E+02 0.16761138989E+02 0.25771193644E+02 0.46733547536E+02 0.98373672882E+02
 0.17623078134E+03 0.24921903295E+03 0.12357481050E+03 0.11003652769E+03 0.78209735588E+02
 0.46733547536E+02 0.28230469872E+02 0.19510441528E+02 0.13034573340E+02 0.94665402269E+01
 0.83371928389E+01 0.82197473674E+01 0.81375543760E+01 0.79327854411E+01 0.78229545277E+01
 0.79327854411E+01 0.81375543760E+01 0.82197473674E+01 0.83371928389E+01 0.94665402269E+01
 0.13034573340E+02 0.19510441528E+02 0.28230469872E+02 0.46733547536E+02 0.78209735588E+02
 0.11003652769E+03 0.47143970891E+02 0.43072118974E+02 0.34033643323E+02 0.25771193644E+02
 0.19510441528E+02 0.13888633458E+02 0.10261310882E+02 0.90263743413E+01 0.94665402269E+01
 0.10629070499E+02 0.11889142772E+02 0.12865666397E+02 0.13240437955E+02 0.12865666397E+02
 0.11889142772E+02 0.10629070499E+02 0.94665402269E+01 0.90263743413E+01 0.10261310882E+02
 0.13888633458E+02 0.19510441528E+02 0.25771193644E+02 0.34033643323E+02 0.43072118974E+02
 0.24026217166E+02 0.23048998865E+02 0.20416365511E+02 0.16761138989E+02 0.13034573340E+02
 0.10261310882E+02 0.92366688027E+01 0.10261310882E+02 0.13034573340E+02 0.16761138989E+02
 0.20416365511E+02 0.23048998865E+02 0.24026217166E+02 0.23048998865E+02 0.20416365511E+02
 0.16761138989E+02 0.13034573340E+02 0.10261310882E+02 0.92366688027E+01 0.10261310882E+02
 0.13034573340E+02 0.16761138989E+02 0.20416365511E+02 0.23048998865E+02 0.13240437955E+02
 0.12865666397E+02 0.11889142772E+02 0.10629070499E+02 0.94665402269E+01 0.90263743413E+01
 0.10261310882E+02 0.13888633458E+02 0.19510441528E+02 0.25771193644E+02 0.34033643323E+02
 0.43072118974E+02 0.47143970891E+02 0.43072118974E+02 0.34033643323E+02 0.25771193644E+02
 0.19510441528E+02 0.13888633458E+02 0.10261310882E+02 0.90263743413E+01 0.94665402269E+01
 0.10629070499E+02 0.11889142772E+02 0.12865666397E+02 0.78229545277E+01 0.79327854411E+01
 0.81375543760E+01 0.82197473674E+01 0.83371928389E+01 0.94665402269E+01 0.13034573340E+02
 0.19510441528E+02 0.28230469872E+02 0.46733547536E+02 0.78209735588E+02 0.11003652769E+03
 0.12357481050E+03 0.11003652769E+03 0.78209735588E+02 0.46733547536E+02 0.28230469872E+02
 0.19510441528E+02 0.13034573340E+02 0.94665402269E+01 0.83371928389E+01 0.82197473674E+01
 0.81375543760E+01 0.79327854411E+01 0.75954031105E+01 0.78454877128E+01 0.81721464598E+01
 0.80612697870E+01 0.82197473674E+01 0.10629070499E+02 0.16761138989E+02 0.25771193644E+02
 0.46733547536E+02 0.98373672882E+02 0.17623078134E+03 0.24921903295E+03 0.27925866619E+03
 0.24921903295E+03 0.17623078134E+03 0.98373672882E+02 0.46733547536E+02 0.25771193644E+02
 0.16761138989E+02 0.10629070499E+02 0.82197473674E+01 0.80612697870E+01 0.81721464598E+01
 0.78454877128E+01 0.78206434569E+01 0.82808871926E+01 0.87333887720E+01 0.81721464598E+01
 0.81375543760E+01 0.11889142772E+02 0.20416365511E+02 0.34033643323E+02 0.78209735588E+02
 0.17623078134E+03 0.31367314877E+03 0.43791657484E+03 0.48828375566E+03 0.43791657484E+03
 0.31367314877E+03 0.17623078134E+03 0.78209735588E+02 0.34033643323E+02 0.20416365511E+02
 0.11889142772E+02 0.81375543760E+01 0.81721464598E+01 0.87333887720E+01 0.82808871926E+01
 0.62460709737E+01 0.71477925473E+01 0.82808871926E+01 0.78454877128E+01 0.79327854411E+01
 0.12865666397E+02 0.23048998865E+02 0.43072118974E+02 0.11003652769E+03 0.24921903295E+03
 0.43791657484E+03 0.60580130630E+03 0.67342550356E+03 0.60580130630E+03 0.43791657484E+03
 0.24921903295E+03 0.11003652769E+03 0.43072118974E+02 0.23048998865E+02 0.12865666397E+02
 0.79327854411E+01 0.78454877128E+01 0.82808871926E+01 0.71477925473E+01 0.50930411154E+01
 0.62460709737E+01 0.78206434569E+01 0.75954031105E+01 0.78229545277E+01 0.13240437955E+02
 0.24026217166E+02 0.47143970891E+02 0.12357481050E+03 0.27925866619E+03 0.48828375566E+03
 0.67342550356E+03 0.74786966617E+03 0.67342550356E+03 0.48828375566E+03 0.27925866619E+03
 0.12357481050E+03 0.47143970891E+02 0.24026217166E+02 0.13240437955E+02 0.78229545277E+01
 0.75954031105E+01 0.78206434569E+01 0.62460709737E+01 0.62460709737E+01 0.71477925473E+01
 0.82808871926E+01 0.78454877128E+01 0.79327854411E+01 0.12865666397E+02 0.23048998865E+02
 0.43072118974E+02 0.11003652769E+03 0.24921903295E+03 0.43791657484E+03 0.60580130630E+03
 0.67342550356E+03 0.60580130630E+03 0.43791657484E+03 0.24921903295E+03 0.11003652769E+03
 0.43072118974E+02 0.23048998865E+02 0.12865666397E+02 0.79327854411E+01 0.78454877128E+01
 0.82808871926E+01 0.71477925473E+01 0.78206434569E+01 0.82808871926E+01 0.87333887720E+01
 0.81721464598E+01 0.81375543760E+01 0.11889142772E+02 0.20416365511E+02 0.34033643323E+02
 0.78209735588E+02 0.17623078134E+03 0.31367314877E+03 0.43791657484E+03 0.48828375566E+03
 0.43791657484E+03 0.31367314877E+03 0.17623078134E+03 0.78209735588E+02 0.34033643323E+02
 0.20416365511E+02 0.11889142772E+02 0.81375543760E+01 0.81721464598E+01 0.87333887720E+01
 0.82808871926E+01 0.75954031105E+01 0.78454877128E+01 0.81721464598E+01 0.80612697870E+01
 0.82197473674E+01 0.10629070499E+02 0.16761138989E+02 0.25771193644E+02 0.46733547536E+02
 0.98373672882E+02 0.17623078134E+03 0.24921903295E+03 0.27925866619E+03 0.24921903295E+03
 0.17623078134E+03 0.98373672882E+02 0.46733547536E+02 0.25771193644E+02 0.16761138989E+02
 0.10629070499E+02 0.82197473674E+01 0.80612697870E+01 0.81721464598E+01 0.78454877128E+01
 0.78229545277E+01 0.79327854411E+01 0.81375543760E+01 0.82197473674E+01 0.83371928389E+01
 0.94665402269E+01 0.13034573340E+02 0.19510441528E+02 0.28230469872E+02 0.46733547536E+02
 0.78209735588E+02 0.11003652769E+03 0.12357481050E+03 0.11003652769E+03 0.78209735588E+02
 0.46733547536E+02 0.28230469872E+02 0.19510441528E+02 0.13034573340E+02 0.94665402269E+01
 0.83371928389E+01 0.82197473674E+01 0.81375543760E+01 0.79327854411E+01 0.13240437955E+02
 0.12865666397E+02 0.11889142772E+02 0.10629070499E+02 0.94665402269E+01 0.90263743413E+01
 0.10261310882E+02 0.13888633458E+02 0.19510441528E+02 0.25771193644E+02 0.34033643323E+02
 0.43072118974E+02 0.47143970891E+02 0.43072118974E+02 0.34033643323E+02 0.25771193644E+02
 0.19510441528E+02 0.13888633458E+02 0.10261310882E+02 0.90263743413E+01 0.94665402269E+01
 0.10629070499E+02 0.11889142772E+02 0.12865666397E+02 0.24026217166E+02 0.23048998865E+02
 0.20416365511E+02 0.16761138989E+02 0.13034573340E+02 0.10261310882E+02 0.92366688027E+01
 0.10261310882E+02 0.13034573340E+02 0.16761138989E+02 0.20416365511E+02 0.23048998865E+02
 0.24026217166E+02 0.23048998865E+02 0.20416365511E+02 0.16761138989E+02 0.13034573340E+02
 0.10261310882E+02 0.92366688027E+01 0.10261310882E+02 0.13034573340E+02 0.16761138989E+02
 0.20416365511E+02 0.23048998865E+02 0.47143970891E+02 0.43072118974E+02 0.34033643323E+02
 0.25771193644E+02 0.19510441528E+02 0.13888633458E+02 0.10261310882E+02 0.90263743413E+01
 0.94665402269E+01 0.10629070499E+02 0.11889142772E+02 0.12865666397E+02 0.13240437955E+02
 0.12865666397E+02 0.11889142772E+02 0.10629070499E+02 0.94665402269E+01 0.90263743413E+01
 0.10261310882E+02 0.13888633458E+02 0.19510441528E+02 0.25771193644E+02 0.34033643323E+02
 0.43072118974E+02 0.12357481050E+03 0.11003652769E+03 0.78209735588E+02 0.46733547536E+02
 0.28230469872E+02 0.19510441528E+02 0.13034573340E+02 0.94665402269E+01 0.83371928389E+01
 0.82197473674E+01 0.81375543760E+01 0.79327854411E+01 0.78229545277E+01 0.79327854411E+01
 0.81375543760E+01 0.82197473674E+01 0.83371928389E+01 0.94665402269E+01 0.13034573340E+02
 0.19510441528E+02 0.28230469872E+02 0.46733547536E+02 0.78209735588E+02 0.11003652769E+03
 0.27925866619E+03 0.24921903295E+03 0.17623078134E+03 0.98373672882E+02 0.46733547536E+02
 0.25771193644E+02 0.16761138989E+02 0.10629070499E+02 0.82197473674E+01 0.80612697870E+01
 0.81721464598E+01 0.78454877128E+01 0.75954031105E+01 0.78454877128E+01 0.81721464598E+01
 0.80612697870E+01 0.82197473674E+01 0.10629070499E+02 0.16761138989E+02 0.25771193644E+02
 0.46733547536E+02 0.98373672882E+02 0.17623078134E+03 0.24921903295E+03 0.48828375566E+03
 0.43791657484E+03 0.31367314877E+03 0.17623078134E+03 0.78209735588E+02 0.34033643323E+02
 0.20416365511E+02 0.11889142772E+02 0.81375543760E+01 0.81721464598E+01 0.87333887720E+01
 0.82808871926E+01 0.78206434569E+01 0.82808871926E+01 0.87333887720E+01 0.81721464598E+01
 0.81375543760E+01 0.11889142772E+02 0.20416365511E+02 0.34033643323E+02 0.78209735588E+02
 0.17623078134E+03 0.31367314877E+03 0.43791657484E+03 0.67342550356E+03 0.60580130630E+03
 0.43791657484E+03 0.24921903295E+03 0.11003652769E+03 0.43072118974E+02 0.23048998865E+02
 0.12865666397E+02 0.79327854411E+01 0.78454877128E+01 0.82808871926E+01 0.71477925473E+01
 0.62460709737E+01 0.71477925473E+01 0.82808871926E+01 0.78454877128E+01 0.79327854411E+01
 0.12865666397E+02 0.23048998865E+02 0.43072118974E+02 0.11003652769E+03 0.24921903295E+03
 0.43791657484E+03 0.60580130630E+03 0.54386038503E+03 0.48828375566E+03 0.35086491426E+03
 0.19795418864E+03 0.87549449458E+02 0.36618150299E+02 0.21246206679E+02 0.12177204080E+02
 0.80806948948E+01 0.80738101744E+01 0.85454098240E+01 0.78206434569E+01 0.71970381354E+01
 0.78206434569E+01 0.85454098240E+01 0.80738101744E+01 0.80806948948E+01 0.12177204080E+02
 0.21246206679E+02 0.36618150299E+02 0.87549449458E+02 0.19795418864E+03 0.35086491426E+03
 0.48828375566E+03 0.48828375566E+03 0.43791657484E+03 0.31367314877E+03 0.17623078134E+03
 0.78209735588E+02 0.34033643323E+02 0.20416365511E+02 0.11889142772E+02 0.81375543760E+01
 0.81721464598E+01 0.87333887720E+01 0.82808871926E+01 0.78206434569E+01 0.82808871926E+01
 0.87333887720E+01 0.81721464598E+01 0.81375543760E+01 0.11889142772E+02 0.20416365511E+02
 0.34033643323E+02 0.78209735588E+02 0.17623078134E+03 0.31367314877E+03 0.43791657484E+03
 0.35086491426E+03 0.31367314877E+03 0.22269909505E+03 0.12410277136E+03 0.56674396948E+02
 0.28344812485E+02 0.18162893029E+02 0.11144325583E+02 0.82588917077E+01 0.82750618485E+01
 0.88030733742E+01 0.87333887720E+01 0.85454098240E+01 0.87333887720E+01 0.88030733742E+01
 0.82750618485E+01 0.82588917077E+01 0.11144325583E+02 0.18162893029E+02 0.28344812485E+02
 0.56674396948E+02 0.12410277136E+03 0.22269909505E+03 0.31367314877E+03 0.19795418864E+03
 0.17623078134E+03 0.12410277136E+03 0.70119117075E+02 0.36242310399E+02 0.22826774789E+02
 0.15116996690E+02 0.10194038113E+02 0.83376272738E+01 0.81676481362E+01 0.82750618485E+01
 0.81721464598E+01 0.80738101744E+01 0.81721464598E+01 0.82750618485E+01 0.81676481362E+01
 0.83376272738E+01 0.10194038113E+02 0.15116996690E+02 0.22826774789E+02 0.36242310399E+02
 0.70119117075E+02 0.12410277136E+03 0.17623078134E+03 0.87549449458E+02 0.78209735588E+02
 0.56674396948E+02 0.36242310399E+02 0.24582581262E+02 0.17492088654E+02 0.12108517748E+02
 0.93208429295E+01 0.84619822923E+01 0.83376272738E+01 0.82588917077E+01 0.81375543760E+01
 0.80806948948E+01 0.81375543760E+01 0.82588917077E+01 0.83376272738E+01 0.84619822923E+01
 0.93208429295E+01 0.12108517748E+02 0.17492088654E+02 0.24582581262E+02 0.36242310399E+02
 0.56674396948E+02 0.78209735588E+02 0.36618150299E+02 0.34033643323E+02 0.28344812485E+02
 0.22826774789E+02 0.17492088654E+02 0.12812382203E+02 0.99298800928E+01 0.89837675137E+01
 0.93208429295E+01 0.10194038113E+02 0.11144325583E+02 0.11889142772E+02 0.12177204080E+02
 0.11889142772E+02 0.11144325583E+02 0.10194038113E+02 0.93208429295E+01 0.89837675137E+01
 0.99298800928E+01 0.12812382203E+02 0.17492088654E+02 0.22826774789E+02 0.28344812485E+02
 0.34033643323E+02 0.21246206679E+02 0.20416365511E+02 0.18162893029E+02 0.15116996690E+02
 0.12108517748E+02 0.99298800928E+01 0.91374563529E+01 0.99298800928E+01 0.12108517748E+02
 0.15116996690E+02 0.18162893029E+02 0.20416365511E+02 0.21246206679E+02 0.20416365511E+02
 0.18162893029E+02 0.15116996690E+02 0.12108517748E+02 0.99298800928E+01 0.91374563529E+01
 0.99298800928E+01 0.12108517748E+02 0.15116996690E+02 0.18162893029E+02 0.20416365511E+02
 0.12177204080E+02 0.11889142772E+02 0.11144325583E+02 0.10194038113E+02 0.93208429295E+01
 0.89837675137E+01 0.99298800928E+01 0.12812382203E+02 0.17492088654E+02 0.22826774789E+02
 0.28344812485E+02 0.34033643323E+02 0.36618150299E+02 0.34033643323E+02 0.28344812485E+02
 0.22826774789E+02 0.17492088654E+02 0.12812382203E+02 0.99298800928E+01 0.89837675137E+01
 0.93208429295E+01 0.10194038113E+02 0.11144325583E+02 0.11889142772E+02 0.80806948948E+01
 0.81375543760E+01 0.82588917077E+01 0.83376272738E+01 0.84619822923E+01 0.93208429295E+01
 0.12108517748E+02 0.17492088654E+02 0.24582581262E+02 0.36242310399E+02 0.56674396948E+02
 0.78209735588E+02 0.87549449458E+02 0.78209735588E+02 0.56674396948E+02 0.36242310399E+02
 0.24582581262E+02 0.17492088654E+02 0.12108517748E+02 0.93208429295E+01 0.84619822923E+01
 0.83376272738E+01 0.82588917077E+01 0.81375543760E+01 0.80738101744E+01 0.81721464598E+01
 0.82750618485E+01 0.81676481362E+01 0.83376272738E+01 0.10194038113E+02 0.15116996690E+02
 0.22826774789E+02 0.36242310399E+02 0.70119117075E+02 0.12410277136E+03 0.17623078134E+03
 0.19795418864E+03 0.17623078134E+03 0.12410277136E+03 0.70119117075E+02 0.36242310399E+02
 0.22826774789E+02 0.15116996690E+02 0.10194038113E+02 0.83376272738E+01 0.81676481362E+01
 0.82750618485E+01 0.81721464598E+01 0.85454098240E+01 0.87333887720E+01 0.88030733742E+01
 0.82750618485E+01 0.82588917077E+01 0.11144325583E+02 0.18162893029E+02 0.28344812485E+02
 0.56674396948E+02 0.12410277136E+03 0.22269909505E+03 0.31367314877E+03 0.35086491426E+03
 0.31367314877E+03 0.22269909505E+03 0.12410277136E+03 0.56674396948E+02 0.28344812485E+02
 0.18162893029E+02 0.11144325583E+02 0.82588917077E+01 0.82750618485E+01 0.88030733742E+01
 0.87333887720E+01 0.78206434569E+01 0.82808871926E+01 0.87333887720E+01 0.81721464598E+01
 0.81375543760E+01 0.11889142772E+02 0.20416365511E+02 0.34033643323E+02 0.78209735588E+02
 0.17623078134E+03 0.31367314877E+03 0.43791657484E+03 0.48828375566E+03 0.43791657484E+03
 0.31367314877E+03 0.17623078134E+03 0.78209735588E+02 0.34033643323E+02 0.20416365511E+02
 0.11889142772E+02 0.81375543760E+01 0.81721464598E+01 0.87333887720E+01 0.82808871926E+01
 0.71970381354E+01 0.78206434569E+01 0.85454098240E+01 0.80738101744E+01 0.80806948948E+01
 0.12177204080E+02 0.21246206679E+02 0.36618150299E+02 0.87549449458E+02 0.19795418864E+03
 0.35086491426E+03 0.48828375566E+03 0.54386038503E+03 0.48828375566E+03 0.35086491426E+03
 0.19795418864E+03 0.87549449458E+02 0.36618150299E+02 0.21246206679E+02 0.12177204080E+02
 0.80806948948E+01 0.80738101744E+01 0.85454098240E+01 0.78206434569E+01 0.78206434569E+01
 0.82808871926E+01 0.87333887720E+01 0.81721464598E+01 0.81375543760E+01 0.11889142772E+02
 0.20416365511E+02 0.34033643323E+02 0.78209735588E+02 0.17623078134E+03 0.31367314877E+03
 0.43791657484E+03 0.48828375566E+03 0.43791657484E+03 0.31367314877E+03 0.17623078134E+03
 0.78209735588E+02 0.34033643323E+02 0.20416365511E+02 0.11889142772E+02 0.81375543760E+01
 0.81721464598E+01 0.87333887720E+01 0.82808871926E+01 0.85454098240E+01 0.87333887720E+01
 0.88030733742E+01 0.82750618485E+01 0.82588917077E+01 0.11144325583E+02 0.18162893029E+02
 0.28344812485E+02 0.56674396948E+02 0.12410277136E+03 0.22269909505E+03 0.31367314877E+03
 0.35086491426E+03 0.31367314877E+03 0.22269909505E+03 0.12410277136E+03 0.56674396948E+02
 0.28344812485E+02 0.18162893029E+02 0.11144325583E+02 0.82588917077E+01 0.82750618485E+01
 0.88030733742E+01 0.87333887720E+01 0.80738101744E+01 0.81721464598E+01 0.82750618485E+01
 0.81676481362E+01 0.83376272738E+01 0.10194038113E+02 0.15116996690E+02 0.22826774789E+02
 0.36242310399E+02 0.70119117075E+02 0.12410277136E+03 0.17623078134E+03 0.19795418864E+03
 0.17623078134E+03 0.12410277136E+03 0.70119117075E+02 0.36242310399E+02 0.22826774789E+02
 0.15116996690E+02 0.10194038113E+02 0.83376272738E+01 0.81676481362E+01 0.82750618485E+01
 0.81721464598E+01 0.80806948948E+01 0.81375543760E+01 0.82588917077E+01 0.83376272738E+01
 0.84619822923E+01 0.93208429295E+01 0.12108517748E+02 0.17492088654E+02 0.24582581262E+02
 0.36242310399E+02 0.56674396948E+02 0.78209735588E+02 0.87549449458E+02 0.78209735588E+02
 0.56674396948E+02 0.36242310399E+02 0.24582581262E+02 0.17492088654E+02 0.12108517748E+02
 0.93208429295E+01 0.84619822923E+01 0.83376272738E+01 0.82588917077E+01 0.81375543760E+01
 0.12177204080E+02 0.11889142772E+02 0.11144325583E+02 0.10194038113E+02 0.93208429295E+01
 0.89837675137E+01 0.99298800928E+01 0.12812382203E+02 0.17492088654E+02 0.22826774789E+02
 0.28344812485E+02 0.34033643323E+02 0.36618150299E+02 0.34033643323E+02 0.28344812485E+02
 0.22826774789E+02 0.17492088654E+02 0.12812382203E+02 0.99298800928E+01 0.89837675137E+01
 0.93208429295E+01 0.10194038113E+02 0.11144325583E+02 0.11889142772E+02 0.21246206679E+02
 0.20416365511E+02 0.18162893029E+02 0.15116996690E+02 0.12108517748E+02 0.99298800928E+01
 0.91374563529E+01 0.99298800928E+01 0.12108517748E+02 0.15116996690E+02 0.18162893029E+02
 0.20416365511E+02 0.21246206679E+02 0.20416365511E+02 0.18162893029E+02 0.15116996690E+02
 0.12108517748E+02 0.99298800928E+01 0.91374563529E+01 0.99298800928E+01 0.12108517748E+02
 0.15116996690E+02 0.18162893029E+02 0.20416365511E+02 0.36618150299E+02 0.34033643323E+02
 0.28344812485E+02 0.22826774789E+02 0.17492088654E+02 0.12812382203E+02 0.99298800928E+01
 0.89837675137E+01 0.93208429295E+01 0.10194038113E+02 0.11144325583E+02 0.11889142772E+02
 0.12177204080E+02 0.11889142772E+02 0.11144325583E+02 0.10194038113E+02 0.93208429295E+01