   4   4   0   0
  0.1200752E+02  0.3635000E-09  0.3635000E-09  0.3635000E-09  0.5000000E-15
  1.000000000000000E-004
  CAR 
 unknown system                          
     27.71759886     -3.72176090  301      6.99725234      1.00000000
     -3.722  0.0000E+00  0.0000E+00
     -3.617  0.0000E+00  0.0000E+00
     -3.512  0.0000E+00  0.0000E+00
     -3.407 -0.5143E-31 -0.5390E-32
     -3.303 -0.2511E-27 -0.2632E-28
     -3.198 -0.7049E-24 -0.7390E-25
     -3.093 -0.1137E-20 -0.1192E-21
     -2.988 -0.1052E-17 -0.1104E-18
     -2.883 -0.5415E-15 -0.5685E-16
     -2.779 -0.1636E-12 -0.1721E-13
     -2.674 -0.2815E-10 -0.2968E-11
     -2.569 -0.2749E-08 -0.2910E-09
     -2.464 -0.1513E-06 -0.1614E-07
     -2.359 -0.4638E-05 -0.5022E-06
     -2.255 -0.7752E-04 -0.8626E-05
     -2.150 -0.6739E-03 -0.7925E-04
     -2.045 -0.2652E-02 -0.3571E-03
     -1.940 -0.1519E-02 -0.5163E-03
     -1.835  0.1928E-01  0.1505E-02
     -1.731  0.5481E-01  0.7249E-02
     -1.626  0.5203E-01  0.1270E-01
     -1.521  0.5560E-02  0.1328E-01
     -1.416  0.2746E-01  0.1616E-01
     -1.311  0.2153E+00  0.3872E-01
     -1.207  0.3789E+00  0.7843E-01
     -1.102  0.2469E+00  0.1043E+00
     -0.997  0.4841E-01  0.1094E+00
     -0.892  0.2268E+00  0.1331E+00
     -0.787  0.6688E+00  0.2032E+00
     -0.683  0.6983E+00  0.2764E+00
     -0.578  0.2695E+00  0.3047E+00
     -0.473  0.9629E-01  0.3147E+00
     -0.368  0.3544E+00  0.3519E+00
     -0.263  0.4940E+00  0.4037E+00
     -0.159  0.2512E+00  0.4300E+00
     -0.054  0.5791E-01  0.4361E+00
      0.051  0.1936E+00  0.4564E+00
      0.156  0.3380E+00  0.4918E+00
      0.261  0.1928E+00  0.5120E+00
      0.365  0.2418E+00  0.5373E+00
      0.470  0.9786E+00  0.6399E+00
      0.575  0.1485E+01  0.7955E+00
      0.680  0.9639E+00  0.8965E+00
      0.785  0.7067E+00  0.9705E+00
      0.889  0.1327E+01  0.1110E+01
      0.994  0.1361E+01  0.1252E+01
      1.099  0.5247E+00  0.1307E+01
      1.204 -0.3024E-01  0.1304E+01
      1.309 -0.1079E+00  0.1293E+01
      1.413 -0.6252E-01  0.1286E+01
      1.518  0.1759E+00  0.1305E+01
      1.623  0.7897E+00  0.1387E+01
      1.728  0.1653E+01  0.1561E+01
      1.833  0.2089E+01  0.1780E+01
      1.937  0.1510E+01  0.1938E+01
      2.042  0.1040E+01  0.2047E+01
      2.147  0.1563E+01  0.2211E+01
      2.252  0.2268E+01  0.2448E+01
      2.357  0.2427E+01  0.2703E+01
      2.461  0.1564E+01  0.2866E+01
      2.566  0.5366E+00  0.2923E+01
      2.671  0.1497E+01  0.3080E+01
      2.776  0.4605E+01  0.3562E+01
      2.881  0.6562E+01  0.4250E+01
      2.985  0.5499E+01  0.4826E+01
      3.090  0.2857E+01  0.5126E+01
      3.195  0.4839E+00  0.5176E+01
      3.300  0.1695E+01  0.5354E+01
      3.404  0.8694E+01  0.6265E+01
      3.509  0.1664E+02  0.8009E+01
      3.614  0.1794E+02  0.9889E+01
      3.719  0.1417E+02  0.1137E+02
      3.824  0.1256E+02  0.1269E+02
      3.928  0.1344E+02  0.1410E+02
      4.033  0.1398E+02  0.1556E+02
      4.138  0.1426E+02  0.1706E+02
      4.243  0.1445E+02  0.1857E+02
      4.348  0.1560E+02  0.2021E+02
      4.452  0.1937E+02  0.2224E+02
      4.557  0.2204E+02  0.2455E+02
      4.662  0.2080E+02  0.2673E+02
      4.767  0.1918E+02  0.2874E+02
      4.872  0.1968E+02  0.3080E+02
      4.976  0.2318E+02  0.3323E+02
      5.081  0.2752E+02  0.3611E+02
      5.186  0.2594E+02  0.3883E+02
      5.291  0.1682E+02  0.4059E+02
      5.396  0.8069E+01  0.4144E+02
      5.500  0.4497E+01  0.4191E+02
      5.605  0.3055E+01  0.4223E+02
      5.710  0.1639E+01  0.4240E+02
      5.815  0.1275E+01  0.4253E+02
      5.920  0.1693E+01  0.4271E+02
      6.024  0.1277E+01  0.4285E+02
      6.129  0.3258E+00  0.4288E+02
      6.234 -0.8013E-01  0.4287E+02
      6.339 -0.7843E-01  0.4286E+02
      6.444 -0.9982E-01  0.4285E+02
      6.548 -0.1429E+00  0.4284E+02
      6.653  0.3314E+00  0.4287E+02
      6.758  0.1924E+01  0.4307E+02
      6.863  0.3818E+01  0.4347E+02
      6.968  0.4082E+01  0.4390E+02
      7.072  0.2785E+01  0.4419E+02
      7.177  0.1757E+01  0.4438E+02
      7.282  0.1017E+01  0.4448E+02
      7.387  0.2127E+00  0.4451E+02
      7.492 -0.1557E+00  0.4449E+02
      7.596  0.5848E-01  0.4450E+02
      7.701  0.8732E+00  0.4459E+02
      7.806  0.1552E+01  0.4475E+02
      7.911  0.1101E+01  0.4487E+02
      8.016  0.1992E+00  0.4489E+02
      8.120 -0.1413E+00  0.4487E+02
      8.225  0.2335E+00  0.4490E+02
      8.330  0.1118E+01  0.4501E+02
      8.435  0.1437E+01  0.4516E+02
      8.540  0.8289E+00  0.4525E+02
      8.644  0.9701E+00  0.4535E+02
      8.749  0.2069E+01  0.4557E+02
      8.854  0.2026E+01  0.4578E+02
      8.959  0.8268E+00  0.4587E+02
      9.064  0.1327E+00  0.4588E+02
      9.168 -0.1068E-01  0.4588E+02
      9.273 -0.5475E-01  0.4588E+02
      9.378  0.3002E+00  0.4591E+02
      9.483  0.1090E+01  0.4602E+02
      9.588  0.1571E+01  0.4619E+02
      9.692  0.2111E+01  0.4641E+02
      9.797  0.3059E+01  0.4673E+02
      9.902  0.2794E+01  0.4702E+02
     10.007  0.1475E+01  0.4718E+02
     10.112  0.5393E+00  0.4723E+02
     10.216  0.9113E-01  0.4724E+02
     10.321 -0.5311E-01  0.4724E+02
     10.426 -0.5035E-01  0.4723E+02
     10.531 -0.4715E-01  0.4723E+02
     10.636  0.5940E-01  0.4723E+02
     10.740  0.4486E+00  0.4728E+02
     10.845  0.7698E+00  0.4736E+02
     10.950  0.5038E+00  0.4741E+02
     11.055  0.4539E-01  0.4742E+02
     11.160  0.1898E+00  0.4744E+02
     11.264  0.1040E+01  0.4755E+02
     11.369  0.1480E+01  0.4770E+02
     11.474  0.8502E+00  0.4779E+02
     11.579  0.5684E+00  0.4785E+02
     11.684  0.1494E+01  0.4801E+02
     11.788  0.2377E+01  0.4826E+02
     11.893  0.2073E+01  0.4847E+02
     11.998  0.1057E+01  0.4858E+02
     12.103  0.5234E+00  0.4864E+02
     12.208  0.7519E+00  0.4872E+02
     12.312  0.1801E+01  0.4891E+02
     12.417  0.3020E+01  0.4922E+02
     12.522  0.2410E+01  0.4947E+02
     12.627  0.7637E+00  0.4955E+02
     12.732  0.5710E+00  0.4961E+02
     12.836  0.1354E+01  0.4976E+02
     12.941  0.1284E+01  0.4989E+02
     13.046  0.6663E+00  0.4996E+02
     13.151  0.4623E+00  0.5001E+02
     13.255  0.3267E+00  0.5004E+02
     13.360  0.5681E-01  0.5005E+02
     13.465 -0.1380E+00  0.5004E+02
     13.570 -0.1280E+00  0.5002E+02
     13.675  0.7382E+00  0.5010E+02
     13.779  0.2517E+01  0.5036E+02
     13.884  0.3011E+01  0.5068E+02
     13.989  0.1428E+01  0.5083E+02
     14.094  0.3256E-01  0.5083E+02
     14.199 -0.2118E+00  0.5081E+02
     14.303  0.2165E+00  0.5083E+02
     14.408  0.1209E+01  0.5096E+02
     14.513  0.2074E+01  0.5118E+02
     14.618  0.1734E+01  0.5136E+02
     14.723  0.7554E+00  0.5144E+02
     14.827  0.6656E+00  0.5151E+02
     14.932  0.1355E+01  0.5165E+02
     15.037  0.1594E+01  0.5182E+02
     15.142  0.1629E+01  0.5199E+02
     15.247  0.1880E+01  0.5218E+02
     15.351  0.2042E+01  0.5240E+02
     15.456  0.2658E+01  0.5268E+02
     15.561  0.2970E+01  0.5299E+02
     15.666  0.1657E+01  0.5316E+02
     15.771  0.1729E+00  0.5318E+02
     15.875  0.4382E-01  0.5318E+02
     15.980  0.9529E+00  0.5328E+02
     16.085  0.1529E+01  0.5344E+02
     16.190  0.9200E+00  0.5354E+02
     16.295  0.2090E+00  0.5356E+02
     16.399  0.3876E+00  0.5360E+02
     16.504  0.9809E+00  0.5371E+02
     16.609  0.1450E+01  0.5386E+02
     16.714  0.1788E+01  0.5404E+02
     16.819  0.1773E+01  0.5423E+02
     16.923  0.1778E+01  0.5442E+02
     17.028  0.2418E+01  0.5467E+02
     17.133  0.2590E+01  0.5494E+02
     17.238  0.1605E+01  0.5511E+02
     17.343  0.5377E+00  0.5517E+02
     17.447  0.1188E+00  0.5518E+02
     17.552  0.5165E+00  0.5523E+02
     17.657  0.1327E+01  0.5537E+02
     17.762  0.1276E+01  0.5551E+02
     17.867  0.6418E+00  0.5557E+02
     17.971  0.1097E+01  0.5569E+02
     18.076  0.2298E+01  0.5593E+02
     18.181  0.2695E+01  0.5621E+02
     18.286  0.2044E+01  0.5643E+02
     18.391  0.8493E+00  0.5651E+02
     18.495  0.1258E+00  0.5653E+02
     18.600  0.8603E+00  0.5662E+02
     18.705  0.2445E+01  0.5687E+02
     18.810  0.2849E+01  0.5717E+02
     18.915  0.1760E+01  0.5736E+02
     19.019  0.1848E+01  0.5755E+02
     19.124  0.3755E+01  0.5794E+02
     19.229  0.4055E+01  0.5837E+02
     19.334  0.1853E+01  0.5856E+02
     19.439  0.9866E-01  0.5857E+02
     19.543 -0.2014E+00  0.5855E+02
     19.648 -0.7141E-01  0.5855E+02
     19.753 -0.1547E-01  0.5854E+02
     19.858 -0.3440E-01  0.5854E+02
     19.963 -0.9662E-01  0.5853E+02
     20.067  0.1955E-01  0.5853E+02
     20.172  0.7893E+00  0.5861E+02
     20.277  0.2040E+01  0.5883E+02
     20.382  0.2640E+01  0.5910E+02
     20.487  0.1927E+01  0.5931E+02
     20.591  0.6575E+00  0.5938E+02
     20.696 -0.2830E-01  0.5937E+02
     20.801 -0.9167E-01  0.5936E+02
     20.906 -0.2732E-01  0.5936E+02
     21.011 -0.3674E-02  0.5936E+02
     21.115 -0.2585E-03  0.5936E+02
     21.220 -0.1001E-04  0.5936E+02
     21.325 -0.2180E-06  0.5936E+02
     21.430 -0.3107E-08  0.5936E+02
     21.535 -0.4145E-07  0.5936E+02
     21.639 -0.2426E-05  0.5936E+02
     21.744 -0.7927E-04  0.5936E+02
     21.849 -0.1417E-02  0.5936E+02
     21.954 -0.1326E-01  0.5936E+02
     22.059 -0.5765E-01  0.5935E+02
     22.163 -0.5388E-01  0.5935E+02
     22.268  0.3802E+00  0.5939E+02
     22.373  0.1268E+01  0.5952E+02
     22.478  0.1502E+01  0.5968E+02
     22.583  0.7093E+00  0.5975E+02
     22.687  0.3710E-01  0.5976E+02
     22.792 -0.7618E-01  0.5975E+02
     22.897 -0.2584E-01  0.5974E+02
     23.002 -0.3621E-02  0.5974E+02
     23.106 -0.2578E-03  0.5974E+02
     23.211 -0.9914E-05  0.5974E+02
     23.316 -0.2114E-06  0.5974E+02
     23.421 -0.2535E-08  0.5974E+02
     23.526 -0.1722E-10  0.5974E+02
     23.630 -0.6672E-13  0.5974E+02
     23.735  0.0000E+00  0.5974E+02
     23.840  0.0000E+00  0.5974E+02
     23.945  0.0000E+00  0.5974E+02
     24.050 -0.3585E-29  0.5974E+02
     24.154 -0.1595E-25  0.5974E+02
     24.259 -0.4077E-22  0.5974E+02
     24.364 -0.5987E-19  0.5974E+02
     24.469 -0.5046E-16  0.5974E+02
     24.574 -0.2370E-13  0.5974E+02
     24.678 -0.6492E-11  0.5974E+02
     24.783 -0.1015E-08  0.5974E+02
     24.888 -0.9006E-07  0.5974E+02
     24.993 -0.4494E-05  0.5974E+02
     25.098 -0.1246E-03  0.5974E+02
     25.202 -0.1874E-02  0.5974E+02
     25.307 -0.1446E-01  0.5974E+02
     25.412 -0.4802E-01  0.5974E+02
     25.517  0.2158E-02  0.5974E+02
     25.622  0.4073E+00  0.5978E+02
     25.726  0.9677E+00  0.5988E+02
     25.831  0.8986E+00  0.5998E+02
     25.936  0.3103E+00  0.6001E+02
     26.041 -0.2423E-01  0.6001E+02
     26.146 -0.4242E-01  0.6000E+02
     26.250 -0.1078E-01  0.6000E+02
     26.355 -0.1240E-02  0.6000E+02
     26.460 -0.7420E-04  0.6000E+02
     26.565 -0.2420E-05  0.6000E+02
     26.670 -0.4398E-07  0.6000E+02
     26.774 -0.4505E-09  0.6000E+02
     26.879 -0.2618E-11  0.6000E+02
     26.984 -0.8679E-14  0.6000E+02
     27.089  0.0000E+00  0.6000E+02
     27.194  0.0000E+00  0.6000E+02
     27.298  0.0000E+00  0.6000E+02
     27.403  0.0000E+00  0.6000E+02
     27.508  0.0000E+00  0.6000E+02
     27.613  0.0000E+00  0.6000E+02
     27.718  0.0000E+00  0.6000E+02
