       N       E                     dE             d eps       ncg     rms          rms(c)
DAV:   1     0.208352495006E+03    0.20835E+03   -0.11339E+04   608   0.902E+02
DAV:   2    -0.232340222374E+01   -0.21068E+03   -0.19991E+03   618   0.240E+02
DAV:   3    -0.949696437319E+01   -0.71736E+01   -0.70546E+01   660   0.572E+01
DAV:   4    -0.953573673988E+01   -0.38772E-01   -0.38761E-01   642   0.465E+00
DAV:   5    -0.953594560354E+01   -0.20886E-03   -0.20885E-03   654   0.315E-01    0.220E+01
DAV:   6    -0.449196261780E+01    0.50440E+01   -0.59867E+01   612   0.957E+01    0.102E+01
DAV:   7    -0.204558863274E+01    0.24464E+01   -0.74821E+00   666   0.326E+01    0.123E+00
DAV:   8    -0.207653815336E+01   -0.30950E-01   -0.40148E-01   652   0.694E+00    0.131E+00
DAV:   9    -0.205510442536E+01    0.21434E-01   -0.92005E-02   672   0.362E+00    0.916E-02
DAV:  10    -0.205505816447E+01    0.46261E-04   -0.86709E-04   608   0.267E-01    0.330E-02
DAV:  11    -0.205503457565E+01    0.23589E-04   -0.56918E-05   724   0.891E-02    0.885E-03
DAV:  12    -0.205503334150E+01    0.12342E-05   -0.82850E-06   610   0.296E-02    0.120E-03
DAV:  13    -0.205503349501E+01   -0.15351E-06   -0.59399E-08   324   0.157E-03
   1 F= -.20550335E+01 E0= -.20533249E+01  d E =-.512589E-02
