<?xml version="1.0" encoding="ISO-8859-1"?>
<modeling>
 <generator>
  <i name="program" type="string">vasp </i>
  <i name="version" type="string">6.2.0  </i>
  <i name="subversion" type="string">18Jan21 (build Mar 17 2021 09:06:54) complex                          serial </i>
  <i name="platform" type="string">LinuxIFC </i>
  <i name="date" type="string">2021 08 03 </i>
  <i name="time" type="string">10:19:38 </i>
 </generator>
 <incar>
  <i type="string" name="PREC">normal</i>
  <i type="int" name="ICHARG">     1</i>
  <i type="int" name="IBRION">    -1</i>
  <i name="EDIFF">      0.00000100</i>
  <i type="int" name="NSW">     0</i>
  <i name="ENCUT">    190.00000000</i>
  <i type="int" name="NBANDS">    30</i>
  <i type="int" name="ISMEAR">     1</i>
  <i name="SIGMA">      0.20000000</i>
  <i type="logical" name="LCHARG"> T  </i>
  <i type="int" name="KPAR">     1</i>
  <i type="int" name="NCORE">     1</i>
  <i type="string" name="GGA">PE</i>
 </incar>
 <primitive_cell>
  <structure name="primitive_cell" >
   <crystal>
    <varray name="basis" >
     <v>       1.81750000      -1.81750000       0.00000000 </v>
     <v>       1.81750000       0.00000000       1.81750000 </v>
     <v>       0.00000000      -1.81750000       1.81750000 </v>
    </varray>
    <i name="volume">     12.00751822 </i>
    <varray name="rec_basis" >
     <v>       0.27510316      -0.27510316      -0.27510316 </v>
     <v>       0.27510316       0.27510316       0.27510316 </v>
     <v>      -0.27510316      -0.27510316       0.27510316 </v>
    </varray>
   </crystal>
   <varray name="positions" >
    <v>       0.00000000       0.00000000       0.00000000 </v>
   </varray>
  </structure>
  <varray name="primitive_index" >
   <v type="int" >        1 </v>
  </varray>
 </primitive_cell>
 <kpoints>
  <generation param="Monkhorst-Pack">
   <v type="int" name="divisions">       5        5        5 </v>
   <v name="usershift">      0.00000000       0.00000000       0.00000000 </v>
   <v name="genvec1">      0.20000000       0.00000000       0.00000000 </v>
   <v name="genvec2">      0.00000000       0.20000000       0.00000000 </v>
   <v name="genvec3">      0.00000000       0.00000000       0.20000000 </v>
   <v name="shift">      0.00000000       0.00000000       0.00000000 </v>
  </generation>
  <varray name="kpointlist" >
   <v>       0.00000000       0.00000000       0.00000000 </v>
   <v>       0.20000000       0.00000000       0.00000000 </v>
   <v>       0.40000000       0.00000000       0.00000000 </v>
   <v>       0.20000000       0.20000000       0.00000000 </v>
   <v>       0.40000000       0.20000000       0.00000000 </v>
   <v>       0.40000000       0.40000000       0.00000000 </v>
   <v>       0.20000000       0.20000000       0.20000000 </v>
   <v>       0.40000000       0.20000000       0.20000000 </v>
   <v>       0.40000000       0.40000000       0.20000000 </v>
   <v>       0.40000000       0.40000000       0.40000000 </v>
  </varray>
  <varray name="weights" >
   <v>       0.00800000 </v>
   <v>       0.04800000 </v>
   <v>       0.04800000 </v>
   <v>       0.09600000 </v>
   <v>       0.19200000 </v>
   <v>       0.09600000 </v>
   <v>       0.06400000 </v>
   <v>       0.19200000 </v>
   <v>       0.19200000 </v>
   <v>       0.06400000 </v>
  </varray>
 </kpoints>
 <parameters>
  <separator name="general" >
   <i type="string" name="SYSTEM">unknown system</i>
   <i type="logical" name="LCOMPAT"> F  </i>
  </separator>
  <separator name="electronic" >
   <i type="string" name="PREC">normal</i>
   <i name="ENMAX">    190.00000000</i>
   <i name="ENAUG">    586.98000000</i>
   <i name="EDIFF">      0.00000100</i>
   <i type="int" name="IALGO">    38</i>
   <i type="int" name="IWAVPR">     0</i>
   <i type="int" name="NBANDS">    30</i>
   <i type="int" name="NBANDSLOW">    -1</i>
   <i type="int" name="NBANDSHIGH">    -1</i>
   <i name="NELECT">     44.00000000</i>
   <i type="int" name="TURBO">     0</i>
   <i type="int" name="IRESTART">     0</i>
   <i type="int" name="NREBOOT">     0</i>
   <i type="int" name="NMIN">     0</i>
   <i name="EREF">      0.00000000</i>
   <separator name="electronic smearing" >
    <i type="int" name="ISMEAR">     1</i>
    <i name="SIGMA">      0.20000000</i>
    <i name="KSPACING">      0.50000000</i>
    <i type="logical" name="KGAMMA"> T  </i>
    <i type="logical" name="KBLOWUP"> T  </i>
   </separator>
   <separator name="electronic projectors" >
    <i type="logical" name="LREAL"> F  </i>
    <v name="ROPT">      0.00000000</v>
    <i type="int" name="LMAXPAW">  -100</i>
    <i type="int" name="LMAXMIX">     2</i>
    <i type="logical" name="NLSPLINE"> F  </i>
   </separator>
   <separator name="electronic startup" >
    <i type="int" name="ISTART">     0</i>
    <i type="int" name="ICHARG">     1</i>
    <i type="int" name="INIWAV">     1</i>
   </separator>
   <separator name="electronic spin" >
    <i type="int" name="ISPIN">     1</i>
    <i type="logical" name="LNONCOLLINEAR"> F  </i>
    <v name="MAGMOM">      1.00000000      1.00000000      1.00000000      1.00000000</v>
    <i name="NUPDOWN">     -1.00000000</i>
    <i type="logical" name="LSORBIT"> F  </i>
    <v name="SAXIS">      0.00000000      0.00000000      1.00000000</v>
    <i type="logical" name="LSPIRAL"> F  </i>
    <v name="QSPIRAL">      0.00000000      0.00000000      0.00000000</v>
    <i type="logical" name="LZEROZ"> F  </i>
   </separator>
   <separator name="electronic exchange-correlation" >
    <i type="logical" name="LASPH"> F  </i>
    <i type="logical" name="LMETAGGA"> F  </i>
   </separator>
   <separator name="electronic convergence" >
    <i type="int" name="NELM">    60</i>
    <i type="int" name="NELMDL">    -5</i>
    <i type="int" name="NELMIN">     2</i>
    <i name="ENINI">    190.00000000</i>
    <separator name="electronic convergence detail" >
     <i type="logical" name="LDIAG"> T  </i>
     <i type="logical" name="LSUBROT"> F  </i>
     <i name="WEIMIN">      0.00000000</i>
     <i name="EBREAK">      0.00000001</i>
     <i name="DEPER">      0.30000000</i>
     <i type="int" name="NRMM">     4</i>
     <i name="TIME">      0.40000000</i>
    </separator>
   </separator>
   <separator name="electronic mixer" >
    <i name="AMIX">      0.40000000</i>
    <i name="BMIX">      1.00000000</i>
    <i name="AMIN">      0.10000000</i>
    <i name="AMIX_MAG">      1.60000000</i>
    <i name="BMIX_MAG">      1.00000000</i>
    <separator name="electronic mixer details" >
     <i type="int" name="IMIX">     4</i>
     <i type="logical" name="MIXFIRST"> F  </i>
     <i type="int" name="MAXMIX">   -45</i>
     <i name="WC">    100.00000000</i>
     <i type="int" name="INIMIX">     1</i>
     <i type="int" name="MIXPRE">     1</i>
     <i type="int" name="MREMOVE">     5</i>
    </separator>
   </separator>
   <separator name="electronic dipolcorrection" >
    <i type="logical" name="LDIPOL"> F  </i>
    <i type="logical" name="LMONO"> F  </i>
    <i type="int" name="IDIPOL">     0</i>
    <i name="EPSILON">      1.00000000</i>
    <v name="DIPOL">   -100.00000000   -100.00000000   -100.00000000</v>
    <i name="EFIELD">      0.00000000</i>
   </separator>
  </separator>
  <separator name="grids" >
   <i type="int" name="NGX">    12</i>
   <i type="int" name="NGY">    12</i>
   <i type="int" name="NGZ">    12</i>
   <i type="int" name="NGXF">    24</i>
   <i type="int" name="NGYF">    24</i>
   <i type="int" name="NGZF">    24</i>
   <i type="logical" name="ADDGRID"> F  </i>
  </separator>
  <separator name="ionic" >
   <i type="int" name="NSW">     0</i>
   <i type="int" name="IBRION">    -1</i>
   <i type="int" name="MDALGO">     0</i>
   <i type="int" name="ISIF">     2</i>
   <i name="PSTRESS">      0.00000000</i>
   <i name="EDIFFG">      0.00001000</i>
   <i type="int" name="NFREE">     0</i>
   <i name="POTIM">      0.50000000</i>
   <i name="SMASS">     -3.00000000</i>
   <i name="SCALEE">      1.00000000</i>
  </separator>
  <separator name="ionic md" >
   <i name="TEBEG">      0.00010000</i>
   <i name="TEEND">      0.00010000</i>
   <i type="int" name="NBLOCK">     1</i>
   <i type="int" name="KBLOCK">     1</i>
   <i type="int" name="NPACO">   256</i>
   <i name="APACO">     16.00000000</i>
  </separator>
  <separator name="symmetry" >
   <i type="int" name="ISYM">     2</i>
   <i name="SYMPREC">      0.00001000</i>
  </separator>
  <separator name="dos" >
   <i type="int" name="LORBIT">     0</i>
   <v name="RWIGS">     -1.00000000</v>
   <i type="int" name="NEDOS">   301</i>
   <i name="EMIN">     10.00000000</i>
   <i name="EMAX">    -10.00000000</i>
   <i name="EFERMI">      0.00000000</i>
  </separator>
  <separator name="writing" >
   <i type="int" name="NWRITE">     2</i>
   <i type="logical" name="LWAVE"> T  </i>
   <i type="logical" name="LDOWNSAMPLE"> F  </i>
   <i type="logical" name="LCHARG"> T  </i>
   <i type="logical" name="LPARD"> F  </i>
   <i type="logical" name="LVTOT"> F  </i>
   <i type="logical" name="LVHAR"> F  </i>
   <i type="logical" name="LELF"> F  </i>
   <i type="logical" name="LOPTICS"> F  </i>
   <v name="STM">      0.00000000      0.00000000      0.00000000      0.00000000      0.00000000      0.00000000      0.00000000</v>
  </separator>
  <separator name="performance" >
   <i type="int" name="NPAR">     1</i>
   <i type="int" name="NSIM">     4</i>
   <i type="int" name="NBLK">    -1</i>
   <i type="logical" name="LPLANE"> T  </i>
   <i type="logical" name="LSCALAPACK"> F  </i>
   <i type="logical" name="LSCAAWARE"> F  </i>
   <i type="logical" name="LSCALU"> F  </i>
   <i type="logical" name="LASYNC"> F  </i>
   <i type="logical" name="LORBITALREAL"> F  </i>
  </separator>
  <separator name="miscellaneous" >
   <i type="int" name="IDIOT">     3</i>
   <i type="int" name="PHON_NSTRUCT">    -1</i>
   <i type="logical" name="LMUSIC"> F  </i>
   <v name="POMASS">     63.54600000</v>
   <v name="DARWINR">      0.00000000</v>
   <v name="DARWINV">      1.00000000</v>
   <i type="logical" name="LCORR"> T  </i>
  </separator>
  <i type="logical" name="GGA_COMPAT"> T  </i>
  <i type="logical" name="LBERRY"> F  </i>
  <i type="int" name="ICORELEVEL">     0</i>
  <i type="logical" name="LDAU"> F  </i>
  <i type="int" name="I_CONSTRAINED_M">     0</i>
  <separator name="electronic exchange-correlation" >
   <i type="string" name="GGA">PE</i>
   <i type="int" name="VOSKOWN">     0</i>
   <i type="logical" name="LHFCALC"> F  </i>
   <i type="string" name="PRECFOCK"></i>
   <i type="logical" name="LSYMGRAD"> F  </i>
   <i type="logical" name="LHFONE"> F  </i>
   <i type="logical" name="LRHFCALC"> F  </i>
   <i type="logical" name="LTHOMAS"> F  </i>
   <i type="logical" name="LMODELHF"> F  </i>
   <i type="logical" name="LFOCKACE"> F  </i>
   <i name="ENCUT4O">     -1.00000000</i>
   <i type="int" name="EXXOEP">     0</i>
   <i type="int" name="FOURORBIT">     0</i>
   <i name="AEXX">      0.00000000</i>
   <i name="HFALPHA">      0.00000000</i>
   <i name="MCALPHA">      0.00000000</i>
   <i name="ALDAX">      1.00000000</i>
   <i name="AGGAX">      1.00000000</i>
   <i name="ALDAC">      1.00000000</i>
   <i name="AGGAC">      1.00000000</i>
   <i type="int" name="NKREDX">     1</i>
   <i type="int" name="NKREDY">     1</i>
   <i type="int" name="NKREDZ">     1</i>
   <i type="logical" name="SHIFTRED"> F  </i>
   <i type="logical" name="ODDONLY"> F  </i>
   <i type="logical" name="EVENONLY"> F  </i>
   <i type="int" name="LMAXFOCK">     0</i>
   <i type="int" name="NMAXFOCKAE">     0</i>
   <i type="logical" name="LFOCKAEDFT"> F  </i>
   <i name="HFSCREEN">      0.00000000</i>
   <i name="HFSCREENC">      0.00000000</i>
   <i type="int" name="NBANDSGWLOW">     0</i>
  </separator>
  <separator name="vdW DFT" >
   <i type="logical" name="LUSE_VDW"> F  </i>
   <i name="Zab_VDW">     -0.84910000</i>
   <i name="PARAM1">      0.12340000</i>
   <i name="PARAM2">      1.00000000</i>
   <i name="PARAM3">      0.00000000</i>
  </separator>
  <separator name="model GW" >
   <i type="int" name="MODEL_GW">     0</i>
   <i name="MODEL_EPS0">      7.20451093</i>
   <i name="MODEL_ALPHA">      1.00000000</i>
  </separator>
  <separator name="linear response parameters" >
   <i type="logical" name="LEPSILON"> F  </i>
   <i type="logical" name="LRPA"> F  </i>
   <i type="logical" name="LNABLA"> F  </i>
   <i type="logical" name="LVEL"> F  </i>
   <i type="int" name="KINTER">     0</i>
   <i name="CSHIFT">      0.10000000</i>
   <i name="OMEGAMAX">     -1.00000000</i>
   <i name="DEG_THRESHOLD">      0.00200000</i>
   <i name="RTIME">     -0.10000000</i>
   <i name="WPLASMAI">      0.00000000</i>
   <v name="DFIELD">      0.00000000      0.00000000      0.00000000</v>
   <v name="WPLASMA">      0.00000000      0.00000000      0.00000000      0.00000000      0.00000000      0.00000000      0.00000000      0.00000000      0.00000000</v>
  </separator>
  <separator name="orbital magnetization" >
   <i type="logical" name="NUCIND"> F  </i>
   <v name="MAGPOS">      0.00000000      0.00000000      0.00000000</v>
   <i type="logical" name="LNICSALL"> T  </i>
   <i type="logical" name="ORBITALMAG"> F  </i>
   <i type="logical" name="LMAGBLOCH"> F  </i>
   <i type="logical" name="LCHIMAG"> F  </i>
   <i type="logical" name="LGAUGE"> T  </i>
   <i type="int" name="MAGATOM">     0</i>
   <v name="MAGDIPOL">      0.00000000      0.00000000      0.00000000</v>
   <v name="AVECCONST">      0.00000000      0.00000000      0.00000000</v>
  </separator>
  <separator name="response functions" >
   <i type="logical" name="LFINITE_TEMPERATURE"> F  </i>
   <i type="logical" name="LADDER"> F  </i>
   <i type="logical" name="LRPAFORCE"> F  </i>
   <i type="logical" name="LFXC"> F  </i>
   <i type="logical" name="LHARTREE"> T  </i>
   <i type="int" name="IBSE">     0</i>
   <v type="int" name="KPOINT">    -1     0     0     0</v>
   <i type="logical" name="LTCTC"> F  </i>
   <i type="logical" name="LTCTE"> F  </i>
   <i type="logical" name="LTETE"> F  </i>
   <i type="logical" name="LTRIPLET"> F  </i>
   <i type="logical" name="LFXCEPS"> F  </i>
   <i type="logical" name="LFXHEG"> F  </i>
   <i type="int" name="NATURALO">     2</i>
   <i type="logical" name="LHOLEGF"> F  </i>
   <i type="logical" name="L2ORDER"> F  </i>
   <i type="logical" name="LDMP1"> F  </i>
   <i type="logical" name="LMP2LT"> F  </i>
   <i type="logical" name="LSMP2LT"> F  </i>
   <i type="logical" name="LGWLF"> F  </i>
   <i name="ENCUTGW">     -2.00000000</i>
   <i name="ENCUTGWSOFT">     -2.00000000</i>
   <i name="ENCUTLF">     -1.00000000</i>
   <i type="logical" name="LESF_SPLINES"> F  </i>
   <i type="int" name="LMAXMP2">    -1</i>
   <i name="SCISSOR">      0.00000000</i>
   <i type="int" name="NOMEGA">     0</i>
   <i type="int" name="NOMEGAR">     0</i>
   <i type="int" name="NBANDSGW">    -1</i>
   <i type="int" name="NBANDSO">    -1</i>
   <i type="int" name="NBANDSV">    -1</i>
   <i type="int" name="NELM">     1</i>
   <i type="int" name="NELMHF">     1</i>
   <i type="int" name="DIM">     3</i>
   <i type="int" name="IESPILON">     4</i>
   <i type="int" name="ANTIRES">     0</i>
   <i name="OMEGAMAX">    -30.00000000</i>
   <i name="OMEGAMIN">    -30.00000000</i>
   <i name="OMEGATL">   -200.00000000</i>
   <i type="int" name="OMEGAGRID">     0</i>
   <i name="CSHIFT">     -0.10000000</i>
   <i type="logical" name="LSELFENERGY"> F  </i>
   <i type="logical" name="LSPECTRAL"> F  </i>
   <i type="logical" name="LSPECTRALGW"> F  </i>
   <i type="logical" name="LSINGLES"> F  </i>
   <i type="logical" name="LFERMIGW"> F  </i>
   <i type="logical" name="ODDONLYGW"> F  </i>
   <i type="logical" name="EVENONLYGW"> F  </i>
   <i type="int" name="NKREDLFX">     1</i>
   <i type="int" name="NKREDLFY">     1</i>
   <i type="int" name="NKREDLFZ">     1</i>
   <i type="int" name="MAXMEM">  2800</i>
   <i type="int" name="TELESCOPE">     0</i>
   <i type="int" name="NTAUPAR">    -1</i>
   <i type="int" name="NOMEGAPAR">    -1</i>
   <i name="DAMP_NEWTON">      0.80000001</i>
   <i name="LAMBDA">      1.00000000</i>
  </separator>
  <separator name="External order field" >
   <i name="OFIELD_KAPPA">      0.00000000</i>
   <v name="OFIELD_K">      0.00000000      0.00000000      0.00000000</v>
   <i name="OFIELD_Q6_NEAR">      0.00000000</i>
   <i name="OFIELD_Q6_FAR">      0.00000000</i>
   <i name="OFIELD_A">      0.00000000</i>
  </separator>
 </parameters>
 <atominfo>
  <atoms>       4 </atoms>
  <types>       1 </types>
  <array name="atoms" >
   <dimension dim="1">ion</dimension>
   <field type="string">element</field>
   <field type="int">atomtype</field>
   <set>
    <rc><c>Cu</c><c>   1</c></rc>
    <rc><c>Cu</c><c>   1</c></rc>
    <rc><c>Cu</c><c>   1</c></rc>
    <rc><c>Cu</c><c>   1</c></rc>
   </set>
  </array>
  <array name="atomtypes" >
   <dimension dim="1">type</dimension>
   <field type="int">atomspertype</field>
   <field type="string">element</field>
   <field>mass</field>
   <field>valence</field>
   <field type="string">pseudopotential</field>
   <set>
    <rc><c>   4</c><c>Cu</c><c>     63.54600000</c><c>     11.00000000</c><c>  PAW_PBE Cu 22Jun2005                  </c></rc>
   </set>
  </array>
 </atominfo>
 <structure name="initialpos" >
  <crystal>
   <varray name="basis" >
    <v>       3.63500000       0.00000000       0.00000000 </v>
    <v>       0.00000000       3.63500000       0.00000000 </v>
    <v>       0.00000000       0.00000000       3.63500000 </v>
   </varray>
   <i name="volume">     48.03007287 </i>
   <varray name="rec_basis" >
    <v>       0.27510316       0.00000000       0.00000000 </v>
    <v>       0.00000000       0.27510316       0.00000000 </v>
    <v>       0.00000000       0.00000000       0.27510316 </v>
   </varray>
  </crystal>
  <varray name="positions" >
   <v>       0.00000000       0.00000000       0.00000000 </v>
   <v>       0.50000000       0.50000000       0.00000000 </v>
   <v>       0.50000000       0.00000000       0.50000000 </v>
   <v>       0.00000000       0.50000000       0.50000000 </v>
  </varray>
 </structure>
 <calculation>
  <scstep>
   <time name="dav">    0.09    0.12</time>
   <time name="total">    0.10    0.12</time>
   <energy>
    <i name="alphaZ">    243.62337785 </i>
    <i name="ewald">  -4395.34838493 </i>
    <i name="hartreedc">  -1460.68396462 </i>
    <i name="XCdc">    182.95351701 </i>
    <i name="pawpsdc">   4912.82663951 </i>
    <i name="pawaedc">  -5336.19386850 </i>
    <i name="eentropy">     -0.00059459 </i>
    <i name="bandstr">    508.88345339 </i>
    <i name="atom">   5552.29231990 </i>
    <i name="e_fr_energy">    208.35249501 </i>
    <i name="e_wo_entrp">    208.35308960 </i>
    <i name="e_0_energy">    208.35269320 </i>
   </energy>
  </scstep>
  <scstep>
   <time name="dav">    0.06    0.06</time>
   <time name="total">    0.06    0.06</time>
   <energy>
    <i name="e_fr_energy">     -2.32340222 </i>
    <i name="e_wo_entrp">     -2.30662786 </i>
    <i name="e_0_energy">     -2.31781077 </i>
   </energy>
  </scstep>
  <scstep>
   <time name="dav">    0.07    0.07</time>
   <time name="total">    0.08    0.08</time>
   <energy>
    <i name="e_fr_energy">     -9.49696437 </i>
    <i name="e_wo_entrp">     -9.47298691 </i>
    <i name="e_0_energy">     -9.48897189 </i>
   </energy>
  </scstep>
  <scstep>
   <time name="dav">    0.06    0.06</time>
   <time name="total">    0.06    0.06</time>
   <energy>
    <i name="e_fr_energy">     -9.53573674 </i>
    <i name="e_wo_entrp">     -9.51176201 </i>
    <i name="e_0_energy">     -9.52774516 </i>
   </energy>
  </scstep>
  <scstep>
   <time name="dav">    0.06    0.06</time>
   <time name="total">    0.07    0.07</time>
   <energy>
    <i name="e_fr_energy">     -9.53594560 </i>
    <i name="e_wo_entrp">     -9.51197087 </i>
    <i name="e_0_energy">     -9.52795403 </i>
   </energy>
  </scstep>
  <scstep>
   <time name="dav">    0.06    0.06</time>
   <time name="total">    0.07    0.07</time>
   <energy>
    <i name="e_fr_energy">     -4.49196262 </i>
    <i name="e_wo_entrp">     -4.49601614 </i>
    <i name="e_0_energy">     -4.49331379 </i>
   </energy>
  </scstep>
  <scstep>
   <time name="dav">    0.06    0.06</time>
   <time name="total">    0.07    0.07</time>
   <energy>
    <i name="e_fr_energy">     -2.04558863 </i>
    <i name="e_wo_entrp">     -2.04428958 </i>
    <i name="e_0_energy">     -2.04515561 </i>
   </energy>
  </scstep>
  <scstep>
   <time name="dav">    0.06    0.06</time>
   <time name="total">    0.07    0.07</time>
   <energy>
    <i name="e_fr_energy">     -2.07653815 </i>
    <i name="e_wo_entrp">     -2.06451607 </i>
    <i name="e_0_energy">     -2.07253079 </i>
   </energy>
  </scstep>
  <scstep>
   <time name="dav">    0.06    0.06</time>
   <time name="total">    0.07    0.07</time>
   <energy>
    <i name="e_fr_energy">     -2.05510443 </i>
    <i name="e_wo_entrp">     -2.05038050 </i>
    <i name="e_0_energy">     -2.05352978 </i>
   </energy>
  </scstep>
  <scstep>
   <time name="dav">    0.06    0.06</time>
   <time name="total">    0.07    0.07</time>
   <energy>
    <i name="e_fr_energy">     -2.05505816 </i>
    <i name="e_wo_entrp">     -2.05006681 </i>
    <i name="e_0_energy">     -2.05339438 </i>
   </energy>
  </scstep>
  <scstep>
   <time name="dav">    0.07    0.07</time>
   <time name="total">    0.08    0.08</time>
   <energy>
    <i name="e_fr_energy">     -2.05503458 </i>
    <i name="e_wo_entrp">     -2.04987320 </i>
    <i name="e_0_energy">     -2.05331412 </i>
   </energy>
  </scstep>
  <scstep>
   <time name="dav">    0.05    0.05</time>
   <time name="total">    0.07    0.07</time>
   <energy>
    <i name="e_fr_energy">     -2.05503334 </i>
    <i name="e_wo_entrp">     -2.04990766 </i>
    <i name="e_0_energy">     -2.05332478 </i>
   </energy>
  </scstep>
  <scstep>
   <time name="dav">    0.04    0.04</time>
   <time name="total">    0.04    0.04</time>
   <energy>
    <i name="alphaZ">    243.62337785 </i>
    <i name="ewald">  -4395.34838493 </i>
    <i name="hartreedc">  -1365.38936735 </i>
    <i name="XCdc">    177.79696631 </i>
    <i name="pawpsdc">   5570.04392485 </i>
    <i name="pawaedc">  -5971.35660781 </i>
    <i name="eentropy">     -0.00512589 </i>
    <i name="bandstr">    186.28786358 </i>
    <i name="atom">   5552.29231990 </i>
    <i name="e_fr_energy">     -2.05503350 </i>
    <i name="e_wo_entrp">     -2.04990761 </i>
    <i name="e_0_energy">     -2.05332487 </i>
   </energy>
  </scstep>
  <structure>
   <crystal>
    <varray name="basis" >
     <v>       3.63500000       0.00000000       0.00000000 </v>
     <v>       0.00000000       3.63500000       0.00000000 </v>
     <v>       0.00000000       0.00000000       3.63500000 </v>
    </varray>
    <i name="volume">     48.03007287 </i>
    <varray name="rec_basis" >
     <v>       0.27510316       0.00000000       0.00000000 </v>
     <v>       0.00000000       0.27510316       0.00000000 </v>
     <v>       0.00000000       0.00000000       0.27510316 </v>
    </varray>
   </crystal>
   <varray name="positions" >
    <v>       0.00000000       0.00000000       0.00000000 </v>
    <v>       0.50000000       0.50000000       0.00000000 </v>
    <v>       0.50000000       0.00000000       0.50000000 </v>
    <v>       0.00000000       0.50000000       0.50000000 </v>
   </varray>
  </structure>
  <varray name="forces" >
   <v>      -0.00000000      -0.00000000       0.00000000 </v>
   <v>       0.00000000       0.00000000      -0.00000000 </v>
   <v>      -0.00000000      -0.00000000       0.00000000 </v>
   <v>       0.00000000       0.00000000       0.00000000 </v>
  </varray>
  <varray name="stress" >
   <v>   -4493.22013624       0.00000000      -0.00000000 </v>
   <v>       0.00000000   -4493.22013624      -0.00000000 </v>
   <v>       0.00000000       0.00000000   -4493.22013624 </v>
  </varray>
  <energy>
   <i name="e_fr_energy">     -2.05503350 </i>
   <i name="e_wo_entrp">     -2.04990761 </i>
   <i name="e_0_energy">     -2.05332487 </i>
  </energy>
  <time name="totalsc">    0.99    1.01</time>
  <eigenvalues>
   <array>
    <dimension dim="1">band</dimension>
    <dimension dim="2">kpoint</dimension>
    <dimension dim="3">spin</dimension>
    <field>eigene</field>
    <field>occ</field>
    <set>
     <set comment="spin 1">
      <set comment="kpoint 1">
       <r>   -1.7218    1.0000 </r>
       <r>    3.6018    1.0000 </r>
       <r>    3.6018    1.0000 </r>
       <r>    3.6018    1.0000 </r>
       <r>    3.6511    1.0000 </r>
       <r>    3.6511    1.0000 </r>
       <r>    3.6511    1.0000 </r>
       <r>    4.6125    1.0000 </r>
       <r>    4.6125    1.0000 </r>
       <r>    4.6125    1.0000 </r>
       <r>    4.8134    1.0000 </r>
       <r>    4.8134    1.0000 </r>
       <r>    5.7121    1.0000 </r>
       <r>    5.7121    1.0000 </r>
       <r>    5.7121    1.0000 </r>
       <r>    5.7121    1.0000 </r>
       <r>    5.7121    1.0000 </r>
       <r>    5.7121    1.0000 </r>
       <r>    5.9008    1.0000 </r>
       <r>    5.9008    1.0000 </r>
       <r>    5.9008    1.0000 </r>
       <r>    9.0284   -0.0000 </r>
       <r>    9.0284   -0.0000 </r>
       <r>    9.0284   -0.0000 </r>
       <r>   14.3372    0.0000 </r>
       <r>   14.3372    0.0000 </r>
       <r>   14.3372    0.0000 </r>
       <r>   20.4330    0.0000 </r>
       <r>   20.4330    0.0000 </r>
       <r>   20.4330    0.0000 </r>
      </set>
      <set comment="kpoint 2">
       <r>   -1.2454    1.0000 </r>
       <r>    2.4703    1.0000 </r>
       <r>    3.3932    1.0000 </r>
       <r>    3.5106    1.0000 </r>
       <r>    3.5106    1.0000 </r>
       <r>    3.5281    1.0000 </r>
       <r>    3.5281    1.0000 </r>
       <r>    4.5171    1.0000 </r>
       <r>    4.7466    1.0000 </r>
       <r>    4.7466    1.0000 </r>
       <r>    4.7832    1.0000 </r>
       <r>    4.7832    1.0000 </r>
       <r>    4.8883    1.0000 </r>
       <r>    4.9442    1.0000 </r>
       <r>    5.0288    1.0000 </r>
       <r>    5.0288    1.0000 </r>
       <r>    5.1532    1.0000 </r>
       <r>    5.3368    1.0000 </r>
       <r>    5.3368    1.0000 </r>
       <r>    5.3427    1.0000 </r>
       <r>    5.3427    1.0000 </r>
       <r>    6.8216    1.0074 </r>
       <r>    9.9912   -0.0000 </r>
       <r>    9.9912   -0.0000 </r>
       <r>   14.4728    0.0000 </r>
       <r>   14.4728    0.0000 </r>
       <r>   17.2907    0.0000 </r>
       <r>   18.0937    0.0000 </r>
       <r>   18.0937    0.0000 </r>
       <r>   18.7907    0.0000 </r>
      </set>
      <set comment="kpoint 3">
       <r>    0.1134    1.0000 </r>
       <r>    1.8006    1.0000 </r>
       <r>    3.5203    1.0000 </r>
       <r>    3.5203    1.0000 </r>
       <r>    3.6470    1.0000 </r>
       <r>    3.7909    1.0000 </r>
       <r>    3.7909    1.0000 </r>
       <r>    3.9447    1.0000 </r>
       <r>    3.9447    1.0000 </r>
       <r>    4.2804    1.0000 </r>
       <r>    4.6225    1.0000 </r>
       <r>    4.6225    1.0000 </r>
       <r>    4.6506    1.0000 </r>
       <r>    4.7374    1.0000 </r>
       <r>    4.9354    1.0000 </r>
       <r>    4.9354    1.0000 </r>
       <r>    4.9866    1.0000 </r>
       <r>    5.1007    1.0000 </r>
       <r>    5.1339    1.0000 </r>
       <r>    5.1339    1.0000 </r>
       <r>    5.3206    1.0000 </r>
       <r>    5.3206    1.0000 </r>
       <r>   12.1361   -0.0000 </r>
       <r>   12.1361   -0.0000 </r>
       <r>   14.9200    0.0000 </r>
       <r>   14.9200    0.0000 </r>
       <r>   15.1207    0.0000 </r>
       <r>   15.1207    0.0000 </r>
       <r>   16.5984    0.0000 </r>
       <r>   16.5984    0.0000 </r>
      </set>
      <set comment="kpoint 4">
       <r>   -0.7817    1.0000 </r>
       <r>    2.9787    1.0000 </r>
       <r>    2.9787    1.0000 </r>
       <r>    3.3999    1.0000 </r>
       <r>    3.5442    1.0000 </r>
       <r>    3.5442    1.0000 </r>
       <r>    3.5568    1.0000 </r>
       <r>    4.3740    1.0000 </r>
       <r>    4.4442    1.0000 </r>
       <r>    4.4442    1.0000 </r>
       <r>    4.4800    1.0000 </r>
       <r>    4.5009    1.0000 </r>
       <r>    4.8192    1.0000 </r>
       <r>    4.9047    1.0000 </r>
       <r>    4.9279    1.0000 </r>
       <r>    5.0244    1.0000 </r>
       <r>    5.0244    1.0000 </r>
       <r>    5.0816    1.0000 </r>
       <r>    5.0905    1.0000 </r>
       <r>    5.0905    1.0000 </r>
       <r>    5.4822    1.0000 </r>
       <r>    7.7664   -0.0000 </r>
       <r>    7.7664   -0.0000 </r>
       <r>   10.8040   -0.0000 </r>
       <r>   14.4542    0.0000 </r>
       <r>   14.9121    0.0000 </r>
       <r>   17.6567    0.0000 </r>
       <r>   17.6567    0.0000 </r>
       <r>   18.6665    0.0000 </r>
       <r>   18.6665    0.0000 </r>
      </set>
      <set comment="kpoint 5">
       <r>    0.5207    1.0000 </r>
       <r>    2.1182    1.0000 </r>
       <r>    3.5408    1.0000 </r>
       <r>    3.7081    1.0000 </r>
       <r>    3.7234    1.0000 </r>
       <r>    3.7627    1.0000 </r>
       <r>    3.7792    1.0000 </r>
       <r>    3.9689    1.0000 </r>
       <r>    4.0465    1.0000 </r>
       <r>    4.0965    1.0000 </r>
       <r>    4.1358    1.0000 </r>
       <r>    4.5058    1.0000 </r>
       <r>    4.7123    1.0000 </r>
       <r>    4.7768    1.0000 </r>
       <r>    4.8519    1.0000 </r>
       <r>    4.9553    1.0000 </r>
       <r>    4.9585    1.0000 </r>
       <r>    5.0518    1.0000 </r>
       <r>    5.1014    1.0000 </r>
       <r>    5.1407    1.0000 </r>
       <r>    5.2432    1.0000 </r>
       <r>    5.5611    1.0000 </r>
       <r>    9.5052   -0.0000 </r>
       <r>   11.6859   -0.0000 </r>
       <r>   12.8180    0.0000 </r>
       <r>   15.4709    0.0000 </r>
       <r>   15.5213    0.0000 </r>
       <r>   16.9868    0.0000 </r>
       <r>   18.7773    0.0000 </r>
       <r>   20.2430    0.0000 </r>
      </set>
      <set comment="kpoint 6">
       <r>    1.6209    1.0000 </r>
       <r>    2.8077    1.0000 </r>
       <r>    2.8077    1.0000 </r>
       <r>    3.3961    1.0000 </r>
       <r>    3.5650    1.0000 </r>
       <r>    3.5650    1.0000 </r>
       <r>    3.6281    1.0000 </r>
       <r>    3.8896    1.0000 </r>
       <r>    3.8896    1.0000 </r>
       <r>    3.9416    1.0000 </r>
       <r>    4.0975    1.0000 </r>
       <r>    4.2361    1.0000 </r>
       <r>    4.4581    1.0000 </r>
       <r>    4.6228    1.0000 </r>
       <r>    4.6856    1.0000 </r>
       <r>    4.6856    1.0000 </r>
       <r>    5.0785    1.0000 </r>
       <r>    5.1589    1.0000 </r>
       <r>    5.1589    1.0000 </r>
       <r>    5.1999    1.0000 </r>
       <r>    5.4910    1.0000 </r>
       <r>    6.7676    1.0345 </r>
       <r>    6.7676    1.0345 </r>
       <r>    8.7458   -0.0000 </r>
       <r>   14.5796    0.0000 </r>
       <r>   16.4490    0.0000 </r>
       <r>   17.1003    0.0000 </r>
       <r>   17.1003    0.0000 </r>
       <r>   18.2368    0.0000 </r>
       <r>   18.2368    0.0000 </r>
      </set>
      <set comment="kpoint 7">
       <r>   -0.3361    1.0000 </r>
       <r>    3.0237    1.0000 </r>
       <r>    3.0237    1.0000 </r>
       <r>    3.0237    1.0000 </r>
       <r>    3.4591    1.0000 </r>
       <r>    3.4591    1.0000 </r>
       <r>    3.4591    1.0000 </r>
       <r>    3.9932    1.0000 </r>
       <r>    4.3175    1.0000 </r>
       <r>    4.3175    1.0000 </r>
       <r>    4.3175    1.0000 </r>
       <r>    4.7063    1.0000 </r>
       <r>    4.7063    1.0000 </r>
       <r>    4.7063    1.0000 </r>
       <r>    4.7302    1.0000 </r>
       <r>    4.7302    1.0000 </r>
       <r>    5.1056    1.0000 </r>
       <r>    5.1056    1.0000 </r>
       <r>    5.1056    1.0000 </r>
       <r>    5.1590    1.0000 </r>
       <r>    5.1590    1.0000 </r>
       <r>    8.3640   -0.0000 </r>
       <r>    8.3640   -0.0000 </r>
       <r>    8.3640   -0.0000 </r>
       <r>   15.2430    0.0000 </r>
       <r>   15.2430    0.0000 </r>
       <r>   15.2430    0.0000 </r>
       <r>   18.0243    0.0000 </r>
       <r>   18.0243    0.0000 </r>
       <r>   18.0243    0.0000 </r>
      </set>
      <set comment="kpoint 8">
       <r>    0.8889    1.0000 </r>
       <r>    2.3215    1.0000 </r>
       <r>    3.4110    1.0000 </r>
       <r>    3.4110    1.0000 </r>
       <r>    3.5252    1.0000 </r>
       <r>    3.5600    1.0000 </r>
       <r>    3.5600    1.0000 </r>
       <r>    3.9069    1.0000 </r>
       <r>    4.2022    1.0000 </r>
       <r>    4.3713    1.0000 </r>
       <r>    4.3713    1.0000 </r>
       <r>    4.4637    1.0000 </r>
       <r>    4.5581    1.0000 </r>
       <r>    4.5632    1.0000 </r>
       <r>    4.7840    1.0000 </r>
       <r>    4.7840    1.0000 </r>
       <r>    4.9396    1.0000 </r>
       <r>    5.0536    1.0000 </r>
       <r>    5.1742    1.0000 </r>
       <r>    5.1742    1.0000 </r>
       <r>    5.2038    1.0000 </r>
       <r>    5.8887    1.0000 </r>
       <r>    9.7771   -0.0000 </r>
       <r>    9.7771   -0.0000 </r>
       <r>   12.3963   -0.0000 </r>
       <r>   12.3963   -0.0000 </r>
       <r>   16.7488    0.0000 </r>
       <r>   19.0767    0.0000 </r>
       <r>   19.1580    0.0000 </r>
       <r>   19.1580    0.0000 </r>
      </set>
      <set comment="kpoint 9">
       <r>    1.8041    1.0000 </r>
       <r>    2.8275    1.0000 </r>
       <r>    2.8275    1.0000 </r>
       <r>    3.4103    1.0000 </r>
       <r>    3.8373    1.0000 </r>
       <r>    3.8373    1.0000 </r>
       <r>    3.9586    1.0000 </r>
       <r>    4.0332    1.0000 </r>
       <r>    4.1820    1.0000 </r>
       <r>    4.1820    1.0000 </r>
       <r>    4.2455    1.0000 </r>
       <r>    4.4458    1.0000 </r>
       <r>    4.4758    1.0000 </r>
       <r>    4.5510    1.0000 </r>
       <r>    4.5510    1.0000 </r>
       <r>    4.6320    1.0000 </r>
       <r>    4.7622    1.0000 </r>
       <r>    4.9491    1.0000 </r>
       <r>    4.9491    1.0000 </r>
       <r>    5.1166    1.0000 </r>
       <r>    5.4070    1.0000 </r>
       <r>    6.9123    0.8261 </r>
       <r>    6.9123    0.8261 </r>
       <r>    8.7413   -0.0000 </r>
       <r>   11.8383   -0.0000 </r>
       <r>   13.8009    0.0000 </r>
       <r>   13.8009    0.0000 </r>
       <r>   16.0295    0.0000 </r>
       <r>   20.3896    0.0000 </r>
       <r>   22.3930    0.0000 </r>
      </set>
      <set comment="kpoint 10">
       <r>    2.3127    1.0000 </r>
       <r>    2.7332    1.0000 </r>
       <r>    2.7332    1.0000 </r>
       <r>    2.7332    1.0000 </r>
       <r>    4.1569    1.0000 </r>
       <r>    4.1569    1.0000 </r>
       <r>    4.1569    1.0000 </r>
       <r>    4.2989    1.0000 </r>
       <r>    4.2989    1.0000 </r>
       <r>    4.3914    1.0000 </r>
       <r>    4.3914    1.0000 </r>
       <r>    4.3914    1.0000 </r>
       <r>    4.5267    1.0000 </r>
       <r>    4.5267    1.0000 </r>
       <r>    4.5267    1.0000 </r>
       <r>    4.9184    1.0000 </r>
       <r>    4.9184    1.0000 </r>
       <r>    5.0302    1.0000 </r>
       <r>    5.0302    1.0000 </r>
       <r>    5.0302    1.0000 </r>
       <r>    5.2430    1.0000 </r>
       <r>    7.1500    0.0198 </r>
       <r>    7.1500    0.0198 </r>
       <r>    7.1500    0.0198 </r>
       <r>   11.3074   -0.0000 </r>
       <r>   11.3074   -0.0000 </r>
       <r>   11.3074   -0.0000 </r>
       <r>   13.1174    0.0000 </r>
       <r>   25.7176    0.0000 </r>
       <r>   25.7176    0.0000 </r>
      </set>
     </set>
    </set>
   </array>
  </eigenvalues>
  <separator name="orbital magnetization" >
   <v name="MAGDIPOLOUT">      0.00000000      0.00000000      0.00000000</v>
  </separator>
  <dos>
   <i name="efermi">      6.99725234 </i>
   <total>
    <array>
     <dimension dim="1">gridpoints</dimension>
     <dimension dim="2">spin</dimension>
     <field>energy</field>
     <field>total</field>
     <field>integrated</field>
     <set>
      <set comment="spin 1">
       <r>    -3.7218     0.0000     0.0000 </r>
       <r>    -3.6170     0.0000     0.0000 </r>
       <r>    -3.5122     0.0000     0.0000 </r>
       <r>    -3.4074    -0.0000    -0.0000 </r>
       <r>    -3.3026    -0.0000    -0.0000 </r>
       <r>    -3.1978    -0.0000    -0.0000 </r>
       <r>    -3.0930    -0.0000    -0.0000 </r>
       <r>    -2.9882    -0.0000    -0.0000 </r>
       <r>    -2.8834    -0.0000    -0.0000 </r>
       <r>    -2.7786    -0.0000    -0.0000 </r>
       <r>    -2.6738    -0.0000    -0.0000 </r>
       <r>    -2.5690    -0.0000    -0.0000 </r>
       <r>    -2.4642    -0.0000    -0.0000 </r>
       <r>    -2.3594    -0.0000    -0.0000 </r>
       <r>    -2.2546    -0.0001    -0.0000 </r>
       <r>    -2.1498    -0.0007    -0.0001 </r>
       <r>    -2.0450    -0.0027    -0.0004 </r>
       <r>    -1.9402    -0.0015    -0.0005 </r>
       <r>    -1.8354     0.0193     0.0015 </r>
       <r>    -1.7306     0.0548     0.0072 </r>
       <r>    -1.6258     0.0520     0.0127 </r>
       <r>    -1.5210     0.0056     0.0133 </r>
       <r>    -1.4162     0.0275     0.0162 </r>
       <r>    -1.3114     0.2153     0.0387 </r>
       <r>    -1.2066     0.3789     0.0784 </r>
       <r>    -1.1018     0.2469     0.1043 </r>
       <r>    -0.9970     0.0484     0.1094 </r>
       <r>    -0.8922     0.2268     0.1331 </r>
       <r>    -0.7874     0.6688     0.2032 </r>
       <r>    -0.6826     0.6983     0.2764 </r>
       <r>    -0.5778     0.2695     0.3047 </r>
       <r>    -0.4730     0.0963     0.3147 </r>
       <r>    -0.3682     0.3544     0.3519 </r>
       <r>    -0.2634     0.4940     0.4037 </r>
       <r>    -0.1586     0.2512     0.4300 </r>
       <r>    -0.0538     0.0579     0.4361 </r>
       <r>     0.0510     0.1936     0.4564 </r>
       <r>     0.1558     0.3380     0.4918 </r>
       <r>     0.2606     0.1928     0.5120 </r>
       <r>     0.3654     0.2418     0.5373 </r>
       <r>     0.4702     0.9786     0.6399 </r>
       <r>     0.5750     1.4848     0.7955 </r>
       <r>     0.6797     0.9639     0.8965 </r>
       <r>     0.7845     0.7067     0.9705 </r>
       <r>     0.8893     1.3275     1.1097 </r>
       <r>     0.9941     1.3611     1.2523 </r>
       <r>     1.0989     0.5247     1.3073 </r>
       <r>     1.2037    -0.0302     1.3041 </r>
       <r>     1.3085    -0.1079     1.2928 </r>
       <r>     1.4133    -0.0625     1.2863 </r>
       <r>     1.5181     0.1759     1.3047 </r>
       <r>     1.6229     0.7897     1.3875 </r>
       <r>     1.7277     1.6529     1.5607 </r>
       <r>     1.8325     2.0889     1.7796 </r>
       <r>     1.9373     1.5100     1.9379 </r>
       <r>     2.0421     1.0397     2.0468 </r>
       <r>     2.1469     1.5626     2.2106 </r>
       <r>     2.2517     2.2679     2.4482 </r>
       <r>     2.3565     2.4267     2.7026 </r>
       <r>     2.4613     1.5641     2.8665 </r>
       <r>     2.5661     0.5366     2.9227 </r>
       <r>     2.6709     1.4968     3.0796 </r>
       <r>     2.7757     4.6048     3.5621 </r>
       <r>     2.8805     6.5621     4.2498 </r>
       <r>     2.9853     5.4986     4.8261 </r>
       <r>     3.0901     2.8570     5.1255 </r>
       <r>     3.1949     0.4839     5.1762 </r>
       <r>     3.2997     1.6952     5.3539 </r>
       <r>     3.4045     8.6941     6.2650 </r>
       <r>     3.5093    16.6376     8.0086 </r>
       <r>     3.6141    17.9409     9.8887 </r>
       <r>     3.7189    14.1679    11.3735 </r>
       <r>     3.8237    12.5616    12.6899 </r>
       <r>     3.9285    13.4407    14.0985 </r>
       <r>     4.0333    13.9772    15.5633 </r>
       <r>     4.1381    14.2576    17.0574 </r>
       <r>     4.2429    14.4461    18.5714 </r>
       <r>     4.3477    15.5989    20.2061 </r>
       <r>     4.4525    19.3726    22.2363 </r>
       <r>     4.5573    22.0435    24.5464 </r>
       <r>     4.6621    20.7957    26.7258 </r>
       <r>     4.7669    19.1754    28.7353 </r>
       <r>     4.8717    19.6825    30.7980 </r>
       <r>     4.9765    23.1753    33.2267 </r>
       <r>     5.0813    27.5214    36.1109 </r>
       <r>     5.1861    25.9409    38.8294 </r>
       <r>     5.2909    16.8207    40.5922 </r>
       <r>     5.3957     8.0692    41.4378 </r>
       <r>     5.5005     4.4966    41.9091 </r>
       <r>     5.6052     3.0552    42.2292 </r>
       <r>     5.7100     1.6388    42.4010 </r>
       <r>     5.8148     1.2746    42.5346 </r>
       <r>     5.9196     1.6927    42.7120 </r>
       <r>     6.0244     1.2766    42.8457 </r>
       <r>     6.1292     0.3258    42.8799 </r>
       <r>     6.2340    -0.0801    42.8715 </r>
       <r>     6.3388    -0.0784    42.8633 </r>
       <r>     6.4436    -0.0998    42.8528 </r>
       <r>     6.5484    -0.1429    42.8378 </r>
       <r>     6.6532     0.3314    42.8726 </r>
       <r>     6.7580     1.9236    43.0742 </r>
       <r>     6.8628     3.8182    43.4743 </r>
       <r>     6.9676     4.0819    43.9021 </r>
       <r>     7.0724     2.7850    44.1939 </r>
       <r>     7.1772     1.7566    44.3780 </r>
       <r>     7.2820     1.0170    44.4846 </r>
       <r>     7.3868     0.2127    44.5069 </r>
       <r>     7.4916    -0.1557    44.4906 </r>
       <r>     7.5964     0.0585    44.4967 </r>
       <r>     7.7012     0.8732    44.5882 </r>
       <r>     7.8060     1.5525    44.7509 </r>
       <r>     7.9108     1.1010    44.8663 </r>
       <r>     8.0156     0.1992    44.8872 </r>
       <r>     8.1204    -0.1413    44.8724 </r>
       <r>     8.2252     0.2335    44.8968 </r>
       <r>     8.3300     1.1178    45.0140 </r>
       <r>     8.4348     1.4367    45.1645 </r>
       <r>     8.5396     0.8289    45.2514 </r>
       <r>     8.6444     0.9701    45.3531 </r>
       <r>     8.7492     2.0689    45.5699 </r>
       <r>     8.8540     2.0258    45.7822 </r>
       <r>     8.9588     0.8268    45.8688 </r>
       <r>     9.0636     0.1327    45.8827 </r>
       <r>     9.1684    -0.0107    45.8816 </r>
       <r>     9.2732    -0.0547    45.8759 </r>
       <r>     9.3780     0.3002    45.9073 </r>
       <r>     9.4828     1.0905    46.0216 </r>
       <r>     9.5876     1.5710    46.1862 </r>
       <r>     9.6924     2.1106    46.4074 </r>
       <r>     9.7972     3.0593    46.7280 </r>
       <r>     9.9020     2.7943    47.0209 </r>
       <r>    10.0068     1.4753    47.1755 </r>
       <r>    10.1116     0.5393    47.2320 </r>
       <r>    10.2164     0.0911    47.2415 </r>
       <r>    10.3212    -0.0531    47.2360 </r>
       <r>    10.4260    -0.0503    47.2307 </r>
       <r>    10.5307    -0.0471    47.2258 </r>
       <r>    10.6355     0.0594    47.2320 </r>
       <r>    10.7403     0.4486    47.2790 </r>
       <r>    10.8451     0.7698    47.3597 </r>
       <r>    10.9499     0.5038    47.4125 </r>
       <r>    11.0547     0.0454    47.4172 </r>
       <r>    11.1595     0.1898    47.4371 </r>
       <r>    11.2643     1.0401    47.5461 </r>
       <r>    11.3691     1.4804    47.7013 </r>
       <r>    11.4739     0.8502    47.7904 </r>
       <r>    11.5787     0.5684    47.8499 </r>
       <r>    11.6835     1.4935    48.0064 </r>
       <r>    11.7883     2.3768    48.2555 </r>
       <r>    11.8931     2.0733    48.4728 </r>
       <r>    11.9979     1.0570    48.5836 </r>
       <r>    12.1027     0.5234    48.6384 </r>
       <r>    12.2075     0.7519    48.7172 </r>
       <r>    12.3123     1.8006    48.9059 </r>
       <r>    12.4171     3.0199    49.2224 </r>
       <r>    12.5219     2.4096    49.4749 </r>
       <r>    12.6267     0.7637    49.5550 </r>
       <r>    12.7315     0.5710    49.6148 </r>
       <r>    12.8363     1.3536    49.7567 </r>
       <r>    12.9411     1.2839    49.8912 </r>
       <r>    13.0459     0.6663    49.9610 </r>
       <r>    13.1507     0.4623    50.0095 </r>
       <r>    13.2555     0.3267    50.0437 </r>
       <r>    13.3603     0.0568    50.0497 </r>
       <r>    13.4651    -0.1380    50.0352 </r>
       <r>    13.5699    -0.1280    50.0218 </r>
       <r>    13.6747     0.7382    50.0992 </r>
       <r>    13.7795     2.5166    50.3629 </r>
       <r>    13.8843     3.0111    50.6785 </r>
       <r>    13.9891     1.4281    50.8281 </r>
       <r>    14.0939     0.0326    50.8315 </r>
       <r>    14.1987    -0.2118    50.8093 </r>
       <r>    14.3035     0.2165    50.8320 </r>
       <r>    14.4083     1.2094    50.9588 </r>
       <r>    14.5131     2.0739    51.1761 </r>
       <r>    14.6179     1.7343    51.3578 </r>
       <r>    14.7227     0.7554    51.4370 </r>
       <r>    14.8275     0.6656    51.5068 </r>
       <r>    14.9323     1.3551    51.6488 </r>
       <r>    15.0371     1.5939    51.8158 </r>
       <r>    15.1419     1.6289    51.9865 </r>
       <r>    15.2467     1.8801    52.1835 </r>
       <r>    15.3515     2.0421    52.3976 </r>
       <r>    15.4562     2.6581    52.6761 </r>
       <r>    15.5610     2.9700    52.9874 </r>
       <r>    15.6658     1.6567    53.1610 </r>
       <r>    15.7706     0.1729    53.1791 </r>
       <r>    15.8754     0.0438    53.1837 </r>
       <r>    15.9802     0.9529    53.2836 </r>
       <r>    16.0850     1.5292    53.4438 </r>
       <r>    16.1898     0.9200    53.5402 </r>
       <r>    16.2946     0.2090    53.5621 </r>
       <r>    16.3994     0.3876    53.6028 </r>
       <r>    16.5042     0.9809    53.7056 </r>
       <r>    16.6090     1.4495    53.8575 </r>
       <r>    16.7138     1.7880    54.0448 </r>
       <r>    16.8186     1.7734    54.2307 </r>
       <r>    16.9234     1.7784    54.4171 </r>
       <r>    17.0282     2.4179    54.6704 </r>
       <r>    17.1330     2.5903    54.9419 </r>
       <r>    17.2378     1.6047    55.1101 </r>
       <r>    17.3426     0.5377    55.1664 </r>
       <r>    17.4474     0.1188    55.1789 </r>
       <r>    17.5522     0.5165    55.2330 </r>
       <r>    17.6570     1.3268    55.3720 </r>
       <r>    17.7618     1.2757    55.5057 </r>
       <r>    17.8666     0.6418    55.5730 </r>
       <r>    17.9714     1.0970    55.6880 </r>
       <r>    18.0762     2.2985    55.9288 </r>
       <r>    18.1810     2.6947    56.2112 </r>
       <r>    18.2858     2.0443    56.4255 </r>
       <r>    18.3906     0.8493    56.5145 </r>
       <r>    18.4954     0.1258    56.5277 </r>
       <r>    18.6002     0.8603    56.6178 </r>
       <r>    18.7050     2.4449    56.8740 </r>
       <r>    18.8098     2.8489    57.1726 </r>
       <r>    18.9146     1.7603    57.3571 </r>
       <r>    19.0194     1.8477    57.5507 </r>
       <r>    19.1242     3.7552    57.9442 </r>
       <r>    19.2290     4.0553    58.3692 </r>
       <r>    19.3338     1.8529    58.5634 </r>
       <r>    19.4386     0.0987    58.5737 </r>
       <r>    19.5434    -0.2014    58.5526 </r>
       <r>    19.6482    -0.0714    58.5451 </r>
       <r>    19.7530    -0.0155    58.5435 </r>
       <r>    19.8578    -0.0344    58.5399 </r>
       <r>    19.9626    -0.0966    58.5298 </r>
       <r>    20.0674     0.0196    58.5318 </r>
       <r>    20.1722     0.7893    58.6146 </r>
       <r>    20.2770     2.0399    58.8283 </r>
       <r>    20.3817     2.6398    59.1050 </r>
       <r>    20.4865     1.9271    59.3069 </r>
       <r>    20.5913     0.6575    59.3759 </r>
       <r>    20.6961    -0.0283    59.3729 </r>
       <r>    20.8009    -0.0917    59.3633 </r>
       <r>    20.9057    -0.0273    59.3604 </r>
       <r>    21.0105    -0.0037    59.3600 </r>
       <r>    21.1153    -0.0003    59.3600 </r>
       <r>    21.2201    -0.0000    59.3600 </r>
       <r>    21.3249    -0.0000    59.3600 </r>
       <r>    21.4297    -0.0000    59.3600 </r>
       <r>    21.5345    -0.0000    59.3600 </r>
       <r>    21.6393    -0.0000    59.3600 </r>
       <r>    21.7441    -0.0001    59.3600 </r>
       <r>    21.8489    -0.0014    59.3598 </r>
       <r>    21.9537    -0.0133    59.3585 </r>
       <r>    22.0585    -0.0576    59.3524 </r>
       <r>    22.1633    -0.0539    59.3468 </r>
       <r>    22.2681     0.3802    59.3866 </r>
       <r>    22.3729     1.2682    59.5195 </r>
       <r>    22.4777     1.5016    59.6769 </r>
       <r>    22.5825     0.7093    59.7512 </r>
       <r>    22.6873     0.0371    59.7551 </r>
       <r>    22.7921    -0.0762    59.7471 </r>
       <r>    22.8969    -0.0258    59.7444 </r>
       <r>    23.0017    -0.0036    59.7440 </r>
       <r>    23.1065    -0.0003    59.7440 </r>
       <r>    23.2113    -0.0000    59.7440 </r>
       <r>    23.3161    -0.0000    59.7440 </r>
       <r>    23.4209    -0.0000    59.7440 </r>
       <r>    23.5257    -0.0000    59.7440 </r>
       <r>    23.6305    -0.0000    59.7440 </r>
       <r>    23.7353     0.0000    59.7440 </r>
       <r>    23.8401     0.0000    59.7440 </r>
       <r>    23.9449     0.0000    59.7440 </r>
       <r>    24.0497    -0.0000    59.7440 </r>
       <r>    24.1545    -0.0000    59.7440 </r>
       <r>    24.2593    -0.0000    59.7440 </r>
       <r>    24.3641    -0.0000    59.7440 </r>
       <r>    24.4689    -0.0000    59.7440 </r>
       <r>    24.5737    -0.0000    59.7440 </r>
       <r>    24.6785    -0.0000    59.7440 </r>
       <r>    24.7833    -0.0000    59.7440 </r>
       <r>    24.8881    -0.0000    59.7440 </r>
       <r>    24.9929    -0.0000    59.7440 </r>
       <r>    25.0977    -0.0001    59.7440 </r>
       <r>    25.2025    -0.0019    59.7438 </r>
       <r>    25.3072    -0.0145    59.7423 </r>
       <r>    25.4120    -0.0480    59.7372 </r>
       <r>    25.5168     0.0022    59.7375 </r>
       <r>    25.6216     0.4073    59.7801 </r>
       <r>    25.7264     0.9677    59.8816 </r>
       <r>    25.8312     0.8986    59.9757 </r>
       <r>    25.9360     0.3103    60.0083 </r>
       <r>    26.0408    -0.0242    60.0057 </r>
       <r>    26.1456    -0.0424    60.0013 </r>
       <r>    26.2504    -0.0108    60.0001 </r>
       <r>    26.3552    -0.0012    60.0000 </r>
       <r>    26.4600    -0.0001    60.0000 </r>
       <r>    26.5648    -0.0000    60.0000 </r>
       <r>    26.6696    -0.0000    60.0000 </r>
       <r>    26.7744    -0.0000    60.0000 </r>
       <r>    26.8792    -0.0000    60.0000 </r>
       <r>    26.9840    -0.0000    60.0000 </r>
       <r>    27.0888     0.0000    60.0000 </r>
       <r>    27.1936     0.0000    60.0000 </r>
       <r>    27.2984     0.0000    60.0000 </r>
       <r>    27.4032     0.0000    60.0000 </r>
       <r>    27.5080     0.0000    60.0000 </r>
       <r>    27.6128     0.0000    60.0000 </r>
       <r>    27.7176     0.0000    60.0000 </r>
      </set>
     </set>
    </array>
   </total>
  </dos>
 </calculation>
 <structure name="finalpos" >
  <crystal>
   <varray name="basis" >
    <v>       3.63500000       0.00000000       0.00000000 </v>
    <v>       0.00000000       3.63500000       0.00000000 </v>
    <v>       0.00000000       0.00000000       3.63500000 </v>
   </varray>
   <i name="volume">     48.03007287 </i>
   <varray name="rec_basis" >
    <v>       0.27510316       0.00000000       0.00000000 </v>
    <v>       0.00000000       0.27510316       0.00000000 </v>
    <v>       0.00000000       0.00000000       0.27510316 </v>
   </varray>
  </crystal>
  <varray name="positions" >
   <v>       0.00000000       0.00000000       0.00000000 </v>
   <v>       0.50000000       0.50000000       0.00000000 </v>
   <v>       0.50000000       0.00000000       0.50000000 </v>
   <v>       0.00000000       0.50000000       0.50000000 </v>
  </varray>
 </structure>
</modeling>
