unknown system                          
   1.00000000000000     
     3.635000    0.000000    0.000000
     0.000000    3.635000    0.000000
     0.000000    0.000000    3.635000
   Pd   Ir   Pt   Cu
     1     1     1     1
Direct
  0.000000  0.000000  0.000000
  0.500000  0.500000  0.000000
  0.500000  0.000000  0.500000
  0.000000  0.500000  0.500000
 
   32   32   32
  297.10      284.97      253.41      212.90      171.85      133.10      96.901      65.131      41.322      27.071    
  19.752      15.401      12.937      11.661      10.988      10.602      10.462      10.602      10.988      11.661    
  12.937      15.401      19.752      27.071      41.322      65.131      96.901      133.10      171.85      212.90    
  253.41      284.97      285.09      273.50      243.32      204.49      165.00      127.70      92.953      62.637    
  40.060      26.606      19.621      15.422      13.045      11.814      11.164      10.791      10.656      10.791    
  11.164      11.814      13.045      15.422      19.621      26.606      40.060      62.637      92.953      127.70    
  165.00      204.49      243.32      273.50      253.39      243.21      216.59      182.06      146.68      113.22    
  82.408      56.020      36.756      25.404      19.286      15.520      13.400      12.305      11.730      11.402    
  11.283      11.402      11.730      12.305      13.400      15.520      19.286      25.404      36.756      56.020    
  82.408      113.22      146.68      182.06      216.59      243.21      211.71      203.29      181.14      152.09    
  122.06      93.800      68.394      47.380      32.552      23.917      18.915      15.810      14.099      13.245    
  12.817      12.582      12.497      12.582      12.817      13.245      14.099      15.810      18.915      23.917    
  32.552      47.380      68.394      93.800      122.06      152.09      181.14      203.29      168.56      161.87    
  144.15      120.67      96.302      73.742      54.248      38.941      28.628      22.578      18.756      16.486    
  15.337      14.856      14.685      14.615      14.591      14.615      14.685      14.856      15.337      16.486    
  18.756      22.578      28.628      38.941      54.248      73.742      96.302      120.67      144.15      161.87    
  128.03      122.94      109.39      91.340      72.719      55.960      42.238      32.151      25.669      21.636    
  19.096      17.809      17.387      17.450      17.685      17.887      17.961      17.887      17.685      17.450    
  17.387      17.809      19.096      21.636      25.669      32.151      42.238      55.960      72.719      91.340    
  109.39      122.94      91.592      88.012      78.474      65.818      52.965      41.839      33.293      27.445    
  23.734      21.354      20.196      20.024      20.526      21.427      22.410      23.157      23.434      23.157    
  22.410      21.427      20.526      20.024      20.196      21.354      23.734      27.445      33.293      41.839    
  52.965      65.818      78.474      88.012      61.130      58.939      53.126      45.504      37.970      31.766    
  27.332      24.458      22.653      21.924      22.210      23.411      25.357      27.717      30.009      31.685    
  32.300      31.685      30.009      27.717      25.357      23.411      22.210      21.924      22.653      24.458    
  27.332      31.766      37.970      45.504      53.126      58.939      39.023      37.941      35.099      31.455    
  28.000      25.337      23.561      22.573      22.508      23.419      25.414      28.477      32.383      36.673    
  40.646      43.488      44.523      43.488      40.646      36.673      32.383      28.477      25.414      23.419    
  22.508      22.573      23.561      25.337      28.000      31.455      35.099      37.941      25.785      25.397    
  24.392      23.145      22.023      21.251      21.083      21.729      23.295      26.015      30.014      35.176    
  41.161      47.383      52.977      56.923      58.353      56.923      52.977      47.383      41.161      35.176    
  30.014      26.015      23.295      21.729      21.083      21.251      22.023      23.145      24.392      25.397    
  18.718      18.623      18.385      18.147      18.125      18.582      19.763      21.826      25.058      29.740    
  35.797      42.904      50.599      58.265      65.024      69.762      71.478      69.762      65.024      58.265    
  50.599      42.904      35.797      29.740      25.058      21.826      19.763      18.582      18.125      18.147    
  18.385      18.623      14.375      14.416      14.571      14.942      15.707      17.104      19.360      22.733    
  27.718      34.393      42.348      50.980      59.775      68.259      75.694      80.943      82.857      80.943    
  75.694      68.259      59.775      50.980      42.348      34.393      27.718      22.733      19.360      17.104    
  15.707      14.942      14.571      14.416      11.829      11.949      12.337      13.086      14.376      16.456    
  19.577      24.270      31.040      39.648      49.262      59.021      68.492      77.508      85.541      91.355    
  93.509      91.355      85.541      77.508      68.492      59.021      49.262      39.648      31.040      24.270    
  19.577      16.456      14.376      13.086      12.337      11.949      10.448      10.607      11.117      12.083    
  13.713      16.289      20.162      26.143      34.635      45.037      56.106      66.815      76.949      86.732    
  95.787      102.58      105.14      102.58      95.787      86.732      76.949      66.815      56.106      45.037    
  34.635      26.143      20.162      16.289      13.713      12.083      11.117      10.607      9.6858      9.8645    
  10.438      11.533      13.389      16.324      20.846      27.960      37.943      49.876      62.194      73.815    
  84.811      95.772      106.35      114.51      117.64      114.51      106.35      95.772      84.811      73.815    
  62.194      49.876      37.943      27.960      20.846      16.324      13.389      11.533      10.438      9.8645    
  9.2458      9.4352      10.046      11.219      13.218      16.387      21.375      29.285      40.307      53.304    
  66.521      78.889      90.721      102.86      114.90      124.35      127.99      124.35      114.90      102.86    
  90.721      78.889      66.521      53.304      40.307      29.285      21.375      16.387      13.218      11.219    
  10.046      9.4352      9.0886      9.2820      9.9063      11.108      13.158      16.412      21.571      29.772    
  41.168      54.551      68.103      80.768      92.956      105.60      118.24      128.23      132.08      128.23    
  118.24      105.60      92.956      80.768      68.103      54.551      41.168      29.772      21.571      16.412    
  13.158      11.108      9.9063      9.2820      9.2458      9.4352      10.046      11.219      13.218      16.387    
  21.375      29.285      40.307      53.304      66.521      78.889      90.721      102.86      114.90      124.35    
  127.99      124.35      114.90      102.86      90.721      78.889      66.521      53.304      40.307      29.285    
  21.375      16.387      13.218      11.219      10.046      9.4352      9.6858      9.8645      10.438      11.533    
  13.389      16.324      20.846      27.960      37.943      49.876      62.194      73.815      84.811      95.772    
  106.35      114.51      117.64      114.51      106.35      95.772      84.811      73.815      62.194      49.876    
  37.943      27.960      20.846      16.324      13.389      11.533      10.438      9.8645      10.448      10.607    
  11.117      12.083      13.713      16.289      20.162      26.143      34.635      45.037      56.106      66.815    
  76.949      86.732      95.787      102.58      105.14      102.58      95.787      86.732      76.949      66.815    
  56.106      45.037      34.635      26.143      20.162      16.289      13.713      12.083      11.117      10.607    
  11.829      11.949      12.337      13.086      14.376      16.456      19.577      24.270      31.040      39.648    
  49.262      59.021      68.492      77.508      85.541      91.355      93.509      91.355      85.541      77.508    
  68.492      59.021      49.262      39.648      31.040      24.270      19.577      16.456      14.376      13.086    
  12.337      11.949      14.375      14.416      14.571      14.942      15.707      17.104      19.360      22.733    
  27.718      34.393      42.348      50.980      59.775      68.259      75.694      80.943      82.857      80.943    
  75.694      68.259      59.775      50.980      42.348      34.393      27.718      22.733      19.360      17.104    
  15.707      14.942      14.571      14.416      18.718      18.623      18.385      18.147      18.125      18.582    
  19.763      21.826      25.058      29.740      35.797      42.904      50.599      58.265      65.024      69.762    
  71.478      69.762      65.024      58.265      50.599      42.904      35.797      29.740      25.058      21.826    
  19.763      18.582      18.125      18.147      18.385      18.623      25.785      25.397      24.392      23.145    
  22.023      21.251      21.083      21.729      23.295      26.015      30.014      35.176      41.161      47.383    
  52.977      56.923      58.353      56.923      52.977      47.383      41.161      35.176      30.014      26.015    
  23.295      21.729      21.083      21.251      22.023      23.145      24.392      25.397      39.023      37.941    
  35.099      31.455      28.000      25.337      23.561      22.573      22.508      23.419      25.414      28.477    
  32.383      36.673      40.646      43.488      44.523      43.488      40.646      36.673      32.383      28.477    
  25.414      23.419      22.508      22.573      23.561      25.337      28.000      31.455      35.099      37.941    
  61.130      58.939      53.126      45.504      37.970      31.766      27.332      24.458      22.653      21.924    
  22.210      23.411      25.357      27.717      30.009      31.685      32.300      31.685      30.009      27.717    
  25.357      23.411      22.210      21.924      22.653      24.458      27.332      31.766      37.970      45.504    
  53.126      58.939      91.592      88.012      78.474      65.818      52.965      41.839      33.293      27.445    
  23.734      21.354      20.196      20.024      20.526      21.427      22.410      23.157      23.434      23.157    
  22.410      21.427      20.526      20.024      20.196      21.354      23.734      27.445      33.293      41.839    
  52.965      65.818      78.474      88.012      128.03      122.94      109.39      91.340      72.719      55.960    
  42.238      32.151      25.669      21.636      19.096      17.809      17.387      17.450      17.685      17.887    
  17.961      17.887      17.685      17.450      17.387      17.809      19.096      21.636      25.669      32.151    
  42.238      55.960      72.719      91.340      109.39      122.94      168.56      161.87      144.15      120.67    
  96.302      73.742      54.248      38.941      28.628      22.578      18.756      16.486      15.337      14.856    
  14.685      14.615      14.591      14.615      14.685      14.856      15.337      16.486      18.756      22.578    
  28.628      38.941      54.248      73.742      96.302      120.67      144.15      161.87      211.71      203.29    
  181.14      152.09      122.06      93.800      68.394      47.380      32.552      23.917      18.915      15.810    
  14.099      13.245      12.817      12.582      12.497      12.582      12.817      13.245      14.099      15.810    
  18.915      23.917      32.552      47.380      68.394      93.800      122.06      152.09      181.14      203.29    
  253.39      243.21      216.59      182.06      146.68      113.22      82.408      56.020      36.756      25.404    
  19.286      15.520      13.400      12.305      11.730      11.402      11.283      11.402      11.730      12.305    
  13.400      15.520      19.286      25.404      36.756      56.020      82.408      113.22      146.68      182.06    
  216.59      243.21      285.09      273.50      243.32      204.49      165.00      127.70      92.953      62.637    
  40.060      26.606      19.621      15.422      13.045      11.814      11.164      10.791      10.656      10.791    
  11.164      11.814      13.045      15.422      19.621      26.606      40.060      62.637      92.953      127.70    
  165.00      204.49      243.32      273.50      285.27      273.73      243.64      204.87      165.39      128.01    
  93.147      62.725      40.084      26.606      19.618      15.422      13.049      11.820      11.172      10.801    
  10.666      10.801      11.172      11.820      13.049      15.422      19.618      26.606      40.084      62.725    
  93.147      128.01      165.39      204.87      243.64      273.73      274.11      263.06      234.23      196.98    
  158.94      122.90      89.410      60.367      38.897      26.167      19.491      15.442      13.154      11.969    
  11.344      10.985      10.855      10.985      11.344      11.969      13.154      15.442      19.491      26.167    
  38.897      60.367      89.410      122.90      158.94      196.98      234.23      263.06      244.54      234.77    
  209.18      175.87      141.60      109.17      79.412      54.110      35.782      25.031      19.165      15.537    
  13.498      12.447      11.894      11.580      11.466      11.580      11.894      12.447      13.498      15.537    
  19.165      25.031      35.782      54.110      79.412      109.17      141.60      175.87      209.18      234.77    
  205.27      197.13      175.67      147.43      118.18      90.681      66.094      45.927      31.815      23.617    
  18.802      15.816      14.176      13.359      12.952      12.727      12.647      12.727      12.952      13.359    
  14.176      15.816      18.802      23.617      31.815      45.927      66.094      90.681      118.18      147.43    
  175.67      197.13      164.05      157.54      140.25      117.31      93.481      71.484      52.607      37.918    
  28.100      22.323      18.642      16.468      15.374      14.921      14.764      14.702      14.681      14.702    
  14.764      14.921      15.374      16.468      18.642      22.323      28.100      37.918      52.607      71.484    
  93.481      117.31      140.25      157.54      124.78      119.81      106.55      88.901      70.702      54.386    
  41.123      31.458      25.277      21.398      18.965      17.745      17.358      17.436      17.675      17.877    
  17.952      17.877      17.675      17.436      17.358      17.745      18.965      21.398      25.277      31.458    
  41.123      54.386      70.702      88.901      106.55      119.81      89.199      85.708      76.406      64.069    
  51.563      40.782      32.555      26.961      23.397      21.113      20.023      19.887      20.394      21.274    
  22.228      22.950      23.218      22.950      22.228      21.274      20.394      19.887      20.023      21.113    
  23.397      26.961      32.555      40.782      51.563      64.069      76.406      85.708      59.485      57.361    
  51.726      44.346      37.066      31.092      26.839      24.071      22.337      21.661      21.970      23.152    
  25.041      27.321      29.530      31.142      31.734      31.142      29.530      27.321      25.041      23.152    
  21.970      21.661      22.337      24.071      26.839      31.092      37.066      44.346      51.726      57.361    
  38.068      37.028      34.294      30.792      27.473      24.913      23.188      22.236      22.196      23.108    
  25.060      28.036      31.818      35.959      39.785      42.518      43.513      42.518      39.785      35.959    
  31.818      28.036      25.060      23.108      22.196      22.236      23.188      24.913      27.473      30.792    
  34.294      37.028      25.344      24.972      24.007      22.805      21.710      20.949      20.787      21.428    
  22.968      25.624      29.520      34.539      40.345      46.358      51.747      55.538      56.910      55.538    
  51.747      46.358      40.345      34.539      29.520      25.624      22.968      21.428      20.787      20.949    
  21.710      22.805      24.007      24.972      18.524      18.429      18.194      17.955      17.929      18.371    
  19.523      21.541      24.692      29.258      35.177      42.116      49.604      57.024      63.526      68.064    
  69.703      68.064      63.526      57.024      49.604      42.116      35.177      29.258      24.692      21.541    
  19.523      18.371      17.929      17.955      18.194      18.429      14.313      14.352      14.501      14.859    
  15.600      16.958      19.158      22.444      27.302      33.836      41.649      50.124      58.713      66.921    
  74.041      79.029      80.841      79.029      74.041      66.921      58.713      50.124      41.649      33.836    
  27.302      22.444      19.158      16.958      15.600      14.859      14.501      14.352      11.858      11.974    
  12.350      13.075      14.327      16.352      19.394      23.961      30.578      39.043      48.540      58.177    
  67.449      76.140      83.760      89.215      91.226      89.215      83.760      76.140      67.449      58.177    
  48.540      39.043      30.578      23.961      19.394      16.352      14.327      13.075      12.350      11.974    
  10.532      10.686      11.180      12.117      13.700      16.211      19.984      25.812      34.137      44.411    
  55.402      66.023      75.943      85.306      93.796      100.08      102.44      100.08      93.796      85.306    
  75.943      66.023      55.402      44.411      34.137      25.812      19.984      16.211      13.700      12.117    
  11.180      10.686      9.8041      9.9769      10.532      11.594      13.399      16.262      20.666      27.608    
  37.421      49.245      61.521      73.072      83.809      94.220      104.04      111.54      114.39      111.54    
  104.04      94.220      83.809      73.072      61.521      49.245      37.421      27.608      20.666      16.262    
  13.399      11.594      10.532      9.9769      9.3851      9.5683      10.159      11.298      13.242      16.335    
  21.192      28.920      39.770      52.673      65.870      78.170      89.694      101.17      112.29      120.93    
  124.25      120.93      112.29      101.17      89.694      78.170      65.870      52.673      39.770      28.920    
  21.192      16.335      13.242      11.298      10.159      9.5683      9.2357      9.4227      10.027      11.193    
  13.188      16.364      21.388      29.402      40.627      53.921      67.459      80.055      91.913      103.84    
  115.51      124.62      128.13      124.62      115.51      103.84      91.913      80.055      67.459      53.921    
  40.627      29.402      21.388      16.364      13.188      11.193      10.027      9.4227      9.3851      9.5683    
  10.159      11.298      13.242      16.335      21.192      28.920      39.770      52.673      65.870      78.170    
  89.694      101.17      112.29      120.93      124.25      120.93      112.29      101.17      89.694      78.170    
  65.870      52.673      39.770      28.920      21.192      16.335      13.242      11.298      10.159      9.5683    
  9.8041      9.9769      10.532      11.594      13.399      16.262      20.666      27.608      37.421      49.245    
  61.521      73.072      83.809      94.220      104.04      111.54      114.39      111.54      104.04      94.220    
  83.809      73.072      61.521      49.245      37.421      27.608      20.666      16.262      13.399      11.594    
  10.532      9.9769      10.532      10.686      11.180      12.117      13.700      16.211      19.984      25.812    
  34.137      44.411      55.402      66.023      75.943      85.306      93.796      100.08      102.44      100.08    
  93.796      85.306      75.943      66.023      55.402      44.411      34.137      25.812      19.984      16.211    
  13.700      12.117      11.180      10.686      11.858      11.974      12.350      13.075      14.327      16.352    
  19.394      23.961      30.578      39.043      48.540      58.177      67.449      76.140      83.760      89.215    
  91.226      89.215      83.760      76.140      67.449      58.177      48.540      39.043      30.578      23.961    
  19.394      16.352      14.327      13.075      12.350      11.974      14.313      14.352      14.501      14.859    
  15.600      16.958      19.158      22.444      27.302      33.836      41.649      50.124      58.713      66.921    
  74.041      79.029      80.841      79.029      74.041      66.921      58.713      50.124      41.649      33.836    
  27.302      22.444      19.158      16.958      15.600      14.859      14.501      14.352      18.524      18.429    
  18.194      17.955      17.929      18.371      19.523      21.541      24.692      29.258      35.177      42.116    
  49.604      57.024      63.526      68.064      69.703      68.064      63.526      57.024      49.604      42.116    
  35.177      29.258      24.692      21.541      19.523      18.371      17.929      17.955      18.194      18.429    
  25.344      24.972      24.007      22.805      21.710      20.949      20.787      21.428      22.968      25.624    
  29.520      34.539      40.345      46.358      51.747      55.538      56.910      55.538      51.747      46.358    
  40.345      34.539      29.520      25.624      22.968      21.428      20.787      20.949      21.710      22.805    
  24.007      24.972      38.068      37.028      34.294      30.792      27.473      24.913      23.188      22.236    
  22.196      23.108      25.060      28.036      31.818      35.959      39.785      42.518      43.513      42.518    
  39.785      35.959      31.818      28.036      25.060      23.108      22.196      22.236      23.188      24.913    
  27.473      30.792      34.294      37.028      59.485      57.361      51.726      44.346      37.066      31.092    
  26.839      24.071      22.337      21.661      21.970      23.152      25.041      27.321      29.530      31.142    
  31.734      31.142      29.530      27.321      25.041      23.152      21.970      21.661      22.337      24.071    
  26.839      31.092      37.066      44.346      51.726      57.361      89.199      85.708      76.406      64.069    
  51.563      40.782      32.555      26.961      23.397      21.113      20.023      19.887      20.394      21.274    
  22.228      22.950      23.218      22.950      22.228      21.274      20.394      19.887      20.023      21.113    
  23.397      26.961      32.555      40.782      51.563      64.069      76.406      85.708      124.78      119.81    
  106.55      88.901      70.702      54.386      41.123      31.458      25.277      21.398      18.965      17.745    
  17.358      17.436      17.675      17.877      17.952      17.877      17.675      17.436      17.358      17.745    
  18.965      21.398      25.277      31.458      41.123      54.386      70.702      88.901      106.55      119.81    
  164.05      157.54      140.25      117.31      93.481      71.484      52.607      37.918      28.100      22.323    
  18.642      16.468      15.374      14.921      14.764      14.702      14.681      14.702      14.764      14.921    
  15.374      16.468      18.642      22.323      28.100      37.918      52.607      71.484      93.481      117.31    
  140.25      157.54      205.27      197.13      175.67      147.43      118.18      90.681      66.094      45.927    
  31.815      23.617      18.802      15.816      14.176      13.359      12.952      12.727      12.647      12.727    
  12.952      13.359      14.176      15.816      18.802      23.617      31.815      45.927      66.094      90.681    
  118.18      147.43      175.67      197.13      244.54      234.77      209.18      175.87      141.60      109.17    
  79.412      54.110      35.782      25.031      19.165      15.537      13.498      12.447      11.894      11.580    
  11.466      11.580      11.894      12.447      13.498      15.537      19.165      25.031      35.782      54.110    
  79.412      109.17      141.60      175.87      209.18      234.77      274.11      263.06      234.23      196.98    
  158.94      122.90      89.410      60.367      38.897      26.167      19.491      15.442      13.154      11.969    
  11.344      10.985      10.855      10.985      11.344      11.969      13.154      15.442      19.491      26.167    
  38.897      60.367      89.410      122.90      158.94      196.98      234.23      263.06      253.97      243.93    
  217.61      183.32      147.94      114.22      83.015      56.284      36.817      25.394      19.270      15.511    
  13.399      12.310      11.738      11.412      11.294      11.412      11.738      12.310      13.399      15.511    
  19.270      25.394      36.817      56.284      83.015      114.22      147.94      183.32      217.61      243.93    
  244.93      235.27      209.89      176.75      142.48      109.86      79.831      54.289      35.821      25.023    
  19.151      15.528      13.495      12.447      11.896      11.582      11.468      11.582      11.896      12.447    
  13.495      15.528      19.151      25.023      35.821      54.289      79.831      109.86      142.48      176.75    
  209.89      235.27      220.65      211.96      189.07      158.97      127.71      98.097      71.281      48.982    
  33.205      24.051      18.848      15.611      13.807      12.882      12.400      12.128      12.029      12.128    
  12.400      12.882      13.807      15.611      18.848      24.051      33.205      48.982      71.281      98.097    
  127.71      158.97      189.07      211.96      187.46      180.05      160.44      134.46      107.39      82.068    
  59.814      42.013      29.855      22.813      18.504      15.857      14.419      13.712      13.366      13.178    
  13.110      13.178      13.366      13.712      14.419      15.857      18.504      22.813      29.855      42.013    
  59.814      82.068      107.39      134.46      160.44      180.05      151.17      145.14      129.09      107.72    
  85.510      65.190      48.101      35.152      26.682      21.622      18.341      16.438      15.501      15.131    
  15.018      14.981      14.969      14.981      15.018      15.131      15.501      16.438      18.341      21.622    
  26.682      35.152      48.101      65.190      85.510      107.72      129.09      145.14      115.28      110.65    
  98.308      81.860      64.959      49.981      38.054      29.574      24.207      20.743      18.611      17.582    
  17.295      17.416      17.673      17.882      17.958      17.882      17.673      17.416      17.295      17.582    
  18.611      20.743      24.207      29.574      38.054      49.981      64.959      81.860      98.308      110.65    
  82.205      78.983      70.400      59.039      47.588      37.835      30.528      25.633      22.459      20.451    
  19.551      19.516      20.043      20.877      21.757      22.417      22.661      22.417      21.757      20.877    
  20.043      19.516      19.551      20.451      22.459      25.633      30.528      37.835      47.588      59.039    
  70.400      78.983      54.763      52.837      47.734      41.071      34.538      29.230      25.479      22.995    
  21.460      20.932      21.308      22.444      24.185      26.252      28.239      29.684      30.213      29.684    
  28.239      26.252      24.185      22.444      21.308      20.932      21.460      22.995      25.479      29.230    
  34.538      41.071      47.734      52.837      35.399      34.476      32.054      28.955      26.021      23.738    
  22.151      21.302      21.333      22.247      24.081      26.821      30.264      34.002      37.434      39.875    
  40.761      39.875      37.434      34.002      30.264      26.821      24.081      22.247      21.333      21.302    
  22.151      23.738      26.021      28.955      32.054      34.476      24.131      23.802      22.946      21.860    
  20.832      20.111      19.968      20.593      22.064      24.536      28.138      32.760      38.070      43.521    
  48.360      51.739      52.958      51.739      48.360      43.521      38.070      32.760      28.138      24.536    
  22.064      20.593      19.968      20.111      20.832      21.860      22.946      23.802      17.968      17.877    
  17.651      17.421      17.388      17.792      18.864      20.755      23.671      27.903      33.414      39.877    
  46.797      53.557      59.386      63.400      64.840      63.400      59.386      53.557      46.797      39.877    
  33.414      27.903      23.671      20.755      18.864      17.792      17.388      17.421      17.651      17.877    
  14.121      14.157      14.294      14.623      15.303      16.556      18.600      21.639      26.129      32.238    
  39.620      47.642      55.674      63.164      69.479      73.804      75.356      73.804      69.479      63.164    
  55.674      47.642      39.620      32.238      26.129      21.639      18.600      16.556      15.303      14.623    
  14.294      14.157      11.899      12.008      12.356      13.028      14.183      16.058      18.886      23.095    