unknown system                          
   1.00000000000000     
     3.635000    0.000000    0.000000
     0.000000    3.635000    0.000000
     0.000000    0.000000    3.635000
   Pd   Ir   Pt   Cu
     1     1     1     1
Direct
  0.000000  0.000000  0.000000
  0.500000  0.500000  0.000000
  0.500000  0.000000  0.500000
  0.000000  0.500000  0.500000
 
   32   32   32
 0.29710174422E+03 0.28496754485E+03 0.25340760118E+03 0.21290294560E+03 0.17185326092E+03
 0.13310145783E+03 0.96900540273E+02 0.65131482315E+02 0.41321544091E+02 0.27071203123E+02
 0.19751502325E+02 0.15400570551E+02 0.12936647078E+02 0.11661107924E+02 0.10988312871E+02
 0.10602124416E+02 0.10462137586E+02 0.10602124416E+02 0.10988312871E+02 0.11661107924E+02
 0.12936647078E+02 0.15400570551E+02 0.19751502325E+02 0.27071203123E+02 0.41321544091E+02
 0.65131482315E+02 0.96900540273E+02 0.13310145783E+03 0.17185326092E+03 0.21290294560E+03
 0.25340760118E+03 0.28496754485E+03 0.28508646562E+03 0.27350048357E+03 0.24332304529E+03
 0.20448604452E+03 0.16500493033E+03 0.12769876249E+03 0.92953397559E+02 0.62636755776E+02
 0.40060457880E+02 0.26605963749E+02 0.19620736670E+02 0.15421531317E+02 0.13045212125E+02
 0.11814051213E+02 0.11164071820E+02 0.10791217299E+02 0.10656210965E+02 0.10791217299E+02
 0.11164071820E+02 0.11814051213E+02 0.13045212125E+02 0.15421531317E+02 0.19620736670E+02
 0.26605963749E+02 0.40060457880E+02 0.62636755776E+02 0.92953397559E+02 0.12769876249E+03
 0.16500493033E+03 0.20448604452E+03 0.24332304529E+03 0.27350048357E+03 0.25339070960E+03
 0.24321383392E+03 0.21659292096E+03 0.18206266585E+03 0.14667874015E+03 0.11322165268E+03
 0.82407635221E+02 0.56020018007E+02 0.36755531176E+02 0.25403642547E+02 0.19286443910E+02
 0.15520157021E+02 0.13399551535E+02 0.12304629960E+02 0.11729562438E+02 0.11401717750E+02
 0.11283395231E+02 0.11401717750E+02 0.11729562438E+02 0.12304629960E+02 0.13399551535E+02
 0.15520157021E+02 0.19286443910E+02 0.25403642547E+02 0.36755531176E+02 0.56020018007E+02
 0.82407635221E+02 0.11322165268E+03 0.14667874015E+03 0.18206266585E+03 0.21659292096E+03
 0.24321383392E+03 0.21170696797E+03 0.20329430928E+03 0.18114354092E+03 0.15209108013E+03
 0.12205649866E+03 0.93800476593E+02 0.68394242740E+02 0.47379940286E+02 0.32552450821E+02
 0.23916645796E+02 0.18915014234E+02 0.15809575105E+02 0.14099080130E+02 0.13244763920E+02
 0.12817308937E+02 0.12581791286E+02 0.12497324714E+02 0.12581791286E+02 0.12817308937E+02
 0.13244763920E+02 0.14099080130E+02 0.15809575105E+02 0.18915014234E+02 0.23916645796E+02
 0.32552450821E+02 0.47379940286E+02 0.68394242740E+02 0.93800476593E+02 0.12205649866E+03
 0.15209108013E+03 0.18114354092E+03 0.20329430928E+03 0.16855891806E+03 0.16187489360E+03
 0.14415299138E+03 0.12067088922E+03 0.96302418662E+02 0.73741560355E+02 0.54247704956E+02
 0.38940560373E+02 0.28627754383E+02 0.22577784195E+02 0.18755842790E+02 0.16486171431E+02
 0.15336922133E+02 0.14855754776E+02 0.14684681306E+02 0.14615248659E+02 0.14591071516E+02
 0.14615248659E+02 0.14684681306E+02 0.14855754776E+02 0.15336922133E+02 0.16486171431E+02
 0.18755842790E+02 0.22577784195E+02 0.28627754383E+02 0.38940560373E+02 0.54247704956E+02
 0.73741560355E+02 0.96302418662E+02 0.12067088922E+03 0.14415299138E+03 0.16187489360E+03
 0.12802876858E+03 0.12293999476E+03 0.10938506401E+03 0.91340406508E+02 0.72718990138E+02
 0.55959994146E+02 0.42237940587E+02 0.32151384988E+02 0.25668864184E+02 0.21636115186E+02
 0.19096281582E+02 0.17809210863E+02 0.17387138559E+02 0.17450016461E+02 0.17685096134E+02
 0.17886505351E+02 0.17961015100E+02 0.17886505351E+02 0.17685096134E+02 0.17450016461E+02
 0.17387138559E+02 0.17809210863E+02 0.19096281582E+02 0.21636115186E+02 0.25668864184E+02
 0.32151384988E+02 0.42237940587E+02 0.55959994146E+02 0.72718990138E+02 0.91340406508E+02
 0.10938506401E+03 0.12293999476E+03 0.91591513856E+02 0.88012373685E+02 0.78473817226E+02
 0.65818032356E+02 0.52965353891E+02 0.41839186978E+02 0.33292541707E+02 0.27444588079E+02
 0.23734316116E+02 0.21353696385E+02 0.20195867880E+02 0.20023593800E+02 0.20525684526E+02
 0.21426646362E+02 0.22409938239E+02 0.23156728635E+02 0.23433712320E+02 0.23156728635E+02
 0.22409938239E+02 0.21426646362E+02 0.20525684526E+02 0.20023593800E+02 0.20195867880E+02
 0.21353696385E+02 0.23734316116E+02 0.27444588079E+02 0.33292541707E+02 0.41839186978E+02
 0.52965353891E+02 0.65818032356E+02 0.78473817226E+02 0.88012373685E+02 0.61129540726E+02
 0.58939065221E+02 0.53125692270E+02 0.45504373386E+02 0.37970286153E+02 0.31766201212E+02
 0.27332316837E+02 0.24457781345E+02 0.22653308858E+02 0.21924432270E+02 0.22209770826E+02
 0.23411499283E+02 0.25356803852E+02 0.27716934072E+02 0.30009151177E+02 0.31684675951E+02
 0.32300070507E+02 0.31684675951E+02 0.30009151177E+02 0.27716934072E+02 0.25356803852E+02
 0.23411499283E+02 0.22209770826E+02 0.21924432270E+02 0.22653308858E+02 0.24457781345E+02
 0.27332316837E+02 0.31766201212E+02 0.37970286153E+02 0.45504373386E+02 0.53125692270E+02
 0.58939065221E+02 0.39022645918E+02 0.37941428017E+02 0.35099058809E+02 0.31455131275E+02
 0.28000027165E+02 0.25337015593E+02 0.23560732130E+02 0.22572693760E+02 0.22507522657E+02
 0.23418972686E+02 0.25414281218E+02 0.28476944818E+02 0.32383458419E+02 0.36672673953E+02
 0.40645688846E+02 0.43487576222E+02 0.44522952414E+02 0.43487576222E+02 0.40645688846E+02
 0.36672673953E+02 0.32383458419E+02 0.28476944818E+02 0.25414281218E+02 0.23418972686E+02
 0.22507522657E+02 0.22572693760E+02 0.23560732130E+02 0.25337015593E+02 0.28000027165E+02
 0.31455131275E+02 0.35099058809E+02 0.37941428017E+02 0.25784819793E+02 0.25396924145E+02
 0.24392212410E+02 0.23145412137E+02 0.22023263700E+02 0.21250806543E+02 0.21083335315E+02
 0.21729371087E+02 0.23295151057E+02 0.26015162592E+02 0.30014093609E+02 0.35175590617E+02
 0.41161262200E+02 0.47382668060E+02 0.52977193686E+02 0.56923162479E+02 0.58353294331E+02
 0.56923162479E+02 0.52977193686E+02 0.47382668060E+02 0.41161262200E+02 0.35175590617E+02
 0.30014093609E+02 0.26015162592E+02 0.23295151057E+02 0.21729371087E+02 0.21083335315E+02
 0.21250806543E+02 0.22023263700E+02 0.23145412137E+02 0.24392212410E+02 0.25396924145E+02
 0.18718030664E+02 0.18622819609E+02 0.18385340830E+02 0.18146683067E+02 0.18125371362E+02
 0.18582332306E+02 0.19762819693E+02 0.21825533327E+02 0.25058320588E+02 0.29739627658E+02
 0.35797348212E+02 0.42904350953E+02 0.50598640499E+02 0.58265331336E+02 0.65023894918E+02
 0.69761910665E+02 0.71477910209E+02 0.69761910665E+02 0.65023894918E+02 0.58265331336E+02
 0.50598640499E+02 0.42904350953E+02 0.35797348212E+02 0.29739627658E+02 0.25058320588E+02
 0.21825533327E+02 0.19762819693E+02 0.18582332306E+02 0.18125371362E+02 0.18146683067E+02
 0.18385340830E+02 0.18622819609E+02 0.14374578913E+02 0.14415682129E+02 0.14570872553E+02
 0.14941927900E+02 0.15707292838E+02 0.17104372693E+02 0.19359525513E+02 0.22733185736E+02
 0.27717933002E+02 0.34393259872E+02 0.42348148524E+02 0.50980149878E+02 0.59774668358E+02
 0.68259107457E+02 0.75693880124E+02 0.80942749540E+02 0.82857003323E+02 0.80942749540E+02
 0.75693880124E+02 0.68259107457E+02 0.59774668358E+02 0.50980149878E+02 0.42348148524E+02
 0.34393259872E+02 0.27717933002E+02 0.22733185736E+02 0.19359525513E+02 0.17104372693E+02
 0.15707292838E+02 0.14941927900E+02 0.14570872553E+02 0.14415682129E+02 0.11829187806E+02
 0.11949306866E+02 0.12337031842E+02 0.13086083850E+02 0.14375607606E+02 0.16456414199E+02
 0.19576727419E+02 0.24269646806E+02 0.31039781300E+02 0.39648112363E+02 0.49261640599E+02
 0.59020856709E+02 0.68491875585E+02 0.77508297858E+02 0.85541386935E+02 0.91355041951E+02
 0.93509262590E+02 0.91355041951E+02 0.85541386935E+02 0.77508297858E+02 0.68491875585E+02
 0.59020856709E+02 0.49261640599E+02 0.39648112363E+02 0.31039781300E+02 0.24269646806E+02
 0.19576727419E+02 0.16456414199E+02 0.14375607606E+02 0.13086083850E+02 0.12337031842E+02
 0.11949306866E+02 0.10447842684E+02 0.10607245350E+02 0.11116602001E+02 0.12083060510E+02
 0.13712606216E+02 0.16289345202E+02 0.20162276370E+02 0.26143319583E+02 0.34634743890E+02
 0.45037166833E+02 0.56105623923E+02 0.66814776234E+02 0.76948585124E+02 0.86731738894E+02
 0.95787014894E+02 0.10257636069E+03 0.10514066893E+03 0.10257636069E+03 0.95787014894E+02
 0.86731738894E+02 0.76948585124E+02 0.66814776234E+02 0.56105623923E+02 0.45037166833E+02
 0.34634743890E+02 0.26143319583E+02 0.20162276370E+02 0.16289345202E+02 0.13712606216E+02
 0.12083060510E+02 0.11116602001E+02 0.10607245350E+02 0.96858406268E+01 0.98644599314E+01
 0.10437892275E+02 0.11533026334E+02 0.13388623901E+02 0.16323634575E+02 0.20846336500E+02
 0.27960065830E+02 0.37943225673E+02 0.49876408096E+02 0.62193890126E+02 0.73814996521E+02
 0.84810740735E+02 0.95771700554E+02 0.10634552806E+03 0.11451270010E+03 0.11764116352E+03
 0.11451270010E+03 0.10634552806E+03 0.95771700554E+02 0.84810740735E+02 0.73814996521E+02
 0.62193890126E+02 0.49876408096E+02 0.37943225673E+02 0.27960065830E+02 0.20846336500E+02
 0.16323634575E+02 0.13388623901E+02 0.11533026334E+02 0.10437892275E+02 0.98644599314E+01
 0.92457685124E+01 0.94351529127E+01 0.10045764922E+02 0.11219221828E+02 0.13217922463E+02
 0.16386651834E+02 0.21374575607E+02 0.29285419261E+02 0.40306618817E+02 0.53304311007E+02
 0.66521107835E+02 0.78888783289E+02 0.90721395807E+02 0.10286027051E+03 0.11489595021E+03
 0.12434720915E+03 0.12799319910E+03 0.12434720915E+03 0.11489595021E+03 0.10286027051E+03
 0.90721395807E+02 0.78888783289E+02 0.66521107835E+02 0.53304311007E+02 0.40306618817E+02
 0.29285419261E+02 0.21374575607E+02 0.16386651834E+02 0.13217922463E+02 0.11219221828E+02
 0.10045764922E+02 0.94351529127E+01 0.90886361576E+01 0.92820094693E+01 0.99062895665E+01
 0.11108228332E+02 0.13158438740E+02 0.16411565747E+02 0.21571051290E+02 0.29771690714E+02
 0.41167970134E+02 0.54551423812E+02 0.68102662007E+02 0.80767955358E+02 0.92956354710E+02
 0.10559712552E+03 0.11824431746E+03 0.12822507296E+03 0.13208298238E+03 0.12822507296E+03
 0.11824431746E+03 0.10559712552E+03 0.92956354710E+02 0.80767955358E+02 0.68102662007E+02
 0.54551423812E+02 0.41167970134E+02 0.29771690714E+02 0.21571051290E+02 0.16411565747E+02
 0.13158438740E+02 0.11108228332E+02 0.99062895665E+01 0.92820094693E+01 0.92457685124E+01
 0.94351529127E+01 0.10045764922E+02 0.11219221828E+02 0.13217922463E+02 0.16386651834E+02
 0.21374575607E+02 0.29285419261E+02 0.40306618817E+02 0.53304311007E+02 0.66521107835E+02
 0.78888783289E+02 0.90721395807E+02 0.10286027051E+03 0.11489595021E+03 0.12434720915E+03
 0.12799319910E+03 0.12434720915E+03 0.11489595021E+03 0.10286027051E+03 0.90721395807E+02
 0.78888783289E+02 0.66521107835E+02 0.53304311007E+02 0.40306618817E+02 0.29285419261E+02
 0.21374575607E+02 0.16386651834E+02 0.13217922463E+02 0.11219221828E+02 0.10045764922E+02
 0.94351529127E+01 0.96858406268E+01 0.98644599314E+01 0.10437892275E+02 0.11533026334E+02
 0.13388623901E+02 0.16323634575E+02 0.20846336500E+02 0.27960065830E+02 0.37943225673E+02
 0.49876408096E+02 0.62193890126E+02 0.73814996521E+02 0.84810740735E+02 0.95771700554E+02
 0.10634552806E+03 0.11451270010E+03 0.11764116352E+03 0.11451270010E+03 0.10634552806E+03
 0.95771700554E+02 0.84810740735E+02 0.73814996521E+02 0.62193890126E+02 0.49876408096E+02
 0.37943225673E+02 0.27960065830E+02 0.20846336500E+02 0.16323634575E+02 0.13388623901E+02
 0.11533026334E+02 0.10437892275E+02 0.98644599314E+01 0.10447842684E+02 0.10607245350E+02
 0.11116602001E+02 0.12083060510E+02 0.13712606216E+02 0.16289345202E+02 0.20162276370E+02
 0.26143319583E+02 0.34634743890E+02 0.45037166833E+02 0.56105623923E+02 0.66814776234E+02
 0.76948585124E+02 0.86731738894E+02 0.95787014894E+02 0.10257636069E+03 0.10514066893E+03
 0.10257636069E+03 0.95787014894E+02 0.86731738894E+02 0.76948585124E+02 0.66814776234E+02
 0.56105623923E+02 0.45037166833E+02 0.34634743890E+02 0.26143319583E+02 0.20162276370E+02
 0.16289345202E+02 0.13712606216E+02 0.12083060510E+02 0.11116602001E+02 0.10607245350E+02
 0.11829187806E+02 0.11949306866E+02 0.12337031842E+02 0.13086083850E+02 0.14375607606E+02
 0.16456414199E+02 0.19576727419E+02 0.24269646806E+02 0.31039781300E+02 0.39648112363E+02
 0.49261640599E+02 0.59020856709E+02 0.68491875585E+02 0.77508297858E+02 0.85541386935E+02
 0.91355041951E+02 0.93509262590E+02 0.91355041951E+02 0.85541386935E+02 0.77508297858E+02
 0.68491875585E+02 0.59020856709E+02 0.49261640599E+02 0.39648112363E+02 0.31039781300E+02
 0.24269646806E+02 0.19576727419E+02 0.16456414199E+02 0.14375607606E+02 0.13086083850E+02
 0.12337031842E+02 0.11949306866E+02 0.14374578913E+02 0.14415682129E+02 0.14570872553E+02
 0.14941927900E+02 0.15707292838E+02 0.17104372693E+02 0.19359525513E+02 0.22733185736E+02
 0.27717933002E+02 0.34393259872E+02 0.42348148524E+02 0.50980149878E+02 0.59774668358E+02
 0.68259107457E+02 0.75693880124E+02 0.80942749540E+02 0.82857003323E+02 0.80942749540E+02
 0.75693880124E+02 0.68259107457E+02 0.59774668358E+02 0.50980149878E+02 0.42348148524E+02
 0.34393259872E+02 0.27717933002E+02 0.22733185736E+02 0.19359525513E+02 0.17104372693E+02
 0.15707292838E+02 0.14941927900E+02 0.14570872553E+02 0.14415682129E+02 0.18718030664E+02
 0.18622819609E+02 0.18385340830E+02 0.18146683067E+02 0.18125371362E+02 0.18582332306E+02
 0.19762819693E+02 0.21825533327E+02 0.25058320588E+02 0.29739627658E+02 0.35797348212E+02
 0.42904350953E+02 0.50598640499E+02 0.58265331336E+02 0.65023894918E+02 0.69761910665E+02
 0.71477910209E+02 0.69761910665E+02 0.65023894918E+02 0.58265331336E+02 0.50598640499E+02
 0.42904350953E+02 0.35797348212E+02 0.29739627658E+02 0.25058320588E+02 0.21825533327E+02
 0.19762819693E+02 0.18582332306E+02 0.18125371362E+02 0.18146683067E+02 0.18385340830E+02
 0.18622819609E+02 0.25784819793E+02 0.25396924145E+02 0.24392212410E+02 0.23145412137E+02
 0.22023263700E+02 0.21250806543E+02 0.21083335315E+02 0.21729371087E+02 0.23295151057E+02
 0.26015162592E+02 0.30014093609E+02 0.35175590617E+02 0.41161262200E+02 0.47382668060E+02
 0.52977193686E+02 0.56923162479E+02 0.58353294331E+02 0.56923162479E+02 0.52977193686E+02
 0.47382668060E+02 0.41161262200E+02 0.35175590617E+02 0.30014093609E+02 0.26015162592E+02
 0.23295151057E+02 0.21729371087E+02 0.21083335315E+02 0.21250806543E+02 0.22023263700E+02
 0.23145412137E+02 0.24392212410E+02 0.25396924145E+02 0.39022645918E+02 0.37941428017E+02
 0.35099058809E+02 0.31455131275E+02 0.28000027165E+02 0.25337015593E+02 0.23560732130E+02
 0.22572693760E+02 0.22507522657E+02 0.23418972686E+02 0.25414281218E+02 0.28476944818E+02
 0.32383458419E+02 0.36672673953E+02 0.40645688846E+02 0.43487576222E+02 0.44522952414E+02
 0.43487576222E+02 0.40645688846E+02 0.36672673953E+02 0.32383458419E+02 0.28476944818E+02
 0.25414281218E+02 0.23418972686E+02 0.22507522657E+02 0.22572693760E+02 0.23560732130E+02
 0.25337015593E+02 0.28000027165E+02 0.31455131275E+02 0.35099058809E+02 0.37941428017E+02
 0.61129540726E+02 0.58939065221E+02 0.53125692270E+02 0.45504373386E+02 0.37970286153E+02
 0.31766201212E+02 0.27332316837E+02 0.24457781345E+02 0.22653308858E+02 0.21924432270E+02
 0.22209770826E+02 0.23411499283E+02 0.25356803852E+02 0.27716934072E+02 0.30009151177E+02
 0.31684675951E+02 0.32300070507E+02 0.31684675951E+02 0.30009151177E+02 0.27716934072E+02
 0.25356803852E+02 0.23411499283E+02 0.22209770826E+02 0.21924432270E+02 0.22653308858E+02
 0.24457781345E+02 0.27332316837E+02 0.31766201212E+02 0.37970286153E+02 0.45504373386E+02
 0.53125692270E+02 0.58939065221E+02 0.91591513856E+02 0.88012373685E+02 0.78473817226E+02
 0.65818032356E+02 0.52965353891E+02 0.41839186978E+02 0.33292541707E+02 0.27444588079E+02
 0.23734316116E+02 0.21353696385E+02 0.20195867880E+02 0.20023593800E+02 0.20525684526E+02
 0.21426646362E+02 0.22409938239E+02 0.23156728635E+02 0.23433712320E+02 0.23156728635E+02
 0.22409938239E+02 0.21426646362E+02 0.20525684526E+02 0.20023593800E+02 0.20195867880E+02
 0.21353696385E+02 0.23734316116E+02 0.27444588079E+02 0.33292541707E+02 0.41839186978E+02
 0.52965353891E+02 0.65818032356E+02 0.78473817226E+02 0.88012373685E+02 0.12802876858E+03
 0.12293999476E+03 0.10938506401E+03 0.91340406508E+02 0.72718990138E+02 0.55959994146E+02
 0.42237940587E+02 0.32151384988E+02 0.25668864184E+02 0.21636115186E+02 0.19096281582E+02
 0.17809210863E+02 0.17387138559E+02 0.17450016461E+02 0.17685096134E+02 0.17886505351E+02
 0.17961015100E+02 0.17886505351E+02 0.17685096134E+02 0.17450016461E+02 0.17387138559E+02
 0.17809210863E+02 0.19096281582E+02 0.21636115186E+02 0.25668864184E+02 0.32151384988E+02
 0.42237940587E+02 0.55959994146E+02 0.72718990138E+02 0.91340406508E+02 0.10938506401E+03
 0.12293999476E+03 0.16855891806E+03 0.16187489360E+03 0.14415299138E+03 0.12067088922E+03
 0.96302418662E+02 0.73741560355E+02 0.54247704956E+02 0.38940560373E+02 0.28627754383E+02
 0.22577784195E+02 0.18755842790E+02 0.16486171431E+02 0.15336922133E+02 0.14855754776E+02
 0.14684681306E+02 0.14615248659E+02 0.14591071516E+02 0.14615248659E+02 0.14684681306E+02
 0.14855754776E+02 0.15336922133E+02 0.16486171431E+02 0.18755842790E+02 0.22577784195E+02
 0.28627754383E+02 0.38940560373E+02 0.54247704956E+02 0.73741560355E+02 0.96302418662E+02
 0.12067088922E+03 0.14415299138E+03 0.16187489360E+03 0.21170696797E+03 0.20329430928E+03
 0.18114354092E+03 0.15209108013E+03 0.12205649866E+03 0.93800476593E+02 0.68394242740E+02
 0.47379940286E+02 0.32552450821E+02 0.23916645796E+02 0.18915014234E+02 0.15809575105E+02
 0.14099080130E+02 0.13244763920E+02 0.12817308937E+02 0.12581791286E+02 0.12497324714E+02
 0.12581791286E+02 0.12817308937E+02 0.13244763920E+02 0.14099080130E+02 0.15809575105E+02
 0.18915014234E+02 0.23916645796E+02 0.32552450821E+02 0.47379940286E+02 0.68394242740E+02
 0.93800476593E+02 0.12205649866E+03 0.15209108013E+03 0.18114354092E+03 0.20329430928E+03
 0.25339070960E+03 0.24321383392E+03 0.21659292096E+03 0.18206266585E+03 0.14667874015E+03
 0.11322165268E+03 0.82407635221E+02 0.56020018007E+02 0.36755531176E+02 0.25403642547E+02
 0.19286443910E+02 0.15520157021E+02 0.13399551535E+02 0.12304629960E+02 0.11729562438E+02
 0.11401717750E+02 0.11283395231E+02 0.11401717750E+02 0.11729562438E+02 0.12304629960E+02
 0.13399551535E+02 0.15520157021E+02 0.19286443910E+02 0.25403642547E+02 0.36755531176E+02
 0.56020018007E+02 0.82407635221E+02 0.11322165268E+03 0.14667874015E+03 0.18206266585E+03
 0.21659292096E+03 0.24321383392E+03 0.28508646562E+03 0.27350048357E+03 0.24332304529E+03
 0.20448604452E+03 0.16500493033E+03 0.12769876249E+03 0.92953397559E+02 0.62636755776E+02
 0.40060457880E+02 0.26605963749E+02 0.19620736670E+02 0.15421531317E+02 0.13045212125E+02
 0.11814051213E+02 0.11164071820E+02 0.10791217299E+02 0.10656210965E+02 0.10791217299E+02
 0.11164071820E+02 0.11814051213E+02 0.13045212125E+02 0.15421531317E+02 0.19620736670E+02
 0.26605963749E+02 0.40060457880E+02 0.62636755776E+02 0.92953397559E+02 0.12769876249E+03
 0.16500493033E+03 0.20448604452E+03 0.24332304529E+03 0.27350048357E+03 0.28527237314E+03
 0.27372641183E+03 0.24363893177E+03 0.20487456412E+03 0.16539400309E+03 0.12800997080E+03
 0.93147291138E+02 0.62724940868E+02 0.40084481497E+02 0.26606142025E+02 0.19618164335E+02
 0.15421581148E+02 0.13048760332E+02 0.11820454778E+02 0.11172392394E+02 0.10800637505E+02
 0.10665995505E+02 0.10800637505E+02 0.11172392394E+02 0.11820454778E+02 0.13048760332E+02
 0.15421581148E+02 0.19618164335E+02 0.26606142025E+02 0.40084481497E+02 0.62724940868E+02
 0.93147291138E+02 0.12800997080E+03 0.16539400309E+03 0.20487456412E+03 0.24363893177E+03
 0.27372641183E+03 0.27411131312E+03 0.26306283027E+03 0.23422978757E+03 0.19698100841E+03
 0.15893681278E+03 0.12289782024E+03 0.89409980637E+02 0.60367379198E+02 0.38896750721E+02
 0.26167493303E+02 0.19490841820E+02 0.15441844254E+02 0.13154311612E+02 0.11969401784E+02
 0.11343740210E+02 0.10985050163E+02 0.10855270848E+02 0.10985050163E+02 0.11343740210E+02
 0.11969401784E+02 0.13154311612E+02 0.15441844254E+02 0.19490841820E+02 0.26167493303E+02
 0.38896750721E+02 0.60367379198E+02 0.89409980637E+02 0.12289782024E+03 0.15893681278E+03
 0.19698100841E+03 0.23422978757E+03 0.26306283027E+03 0.24453768195E+03 0.23477334762E+03
 0.20918275057E+03 0.17587068343E+03 0.14160442030E+03 0.10917036769E+03 0.79411952415E+02
 0.54109827690E+02 0.35782170718E+02 0.25031235234E+02 0.19165043995E+02 0.15537015146E+02
 0.13498314550E+02 0.12446512872E+02 0.11894328310E+02 0.11579753768E+02 0.11466288812E+02
 0.11579753768E+02 0.11894328310E+02 0.12446512872E+02 0.13498314550E+02 0.15537015146E+02
 0.19165043995E+02 0.25031235234E+02 0.35782170718E+02 0.54109827690E+02 0.79411952415E+02
 0.10917036769E+03 0.14160442030E+03 0.17587068343E+03 0.20918275057E+03 0.23477334762E+03
 0.20527346580E+03 0.19713459180E+03 0.17566868975E+03 0.14743451752E+03 0.11817798048E+03
 0.90680504473E+02 0.66093827920E+02 0.45926970844E+02 0.31815369903E+02 0.23616875739E+02
 0.18801785618E+02 0.15816034850E+02 0.14176154289E+02 0.13359147902E+02 0.12951519261E+02
 0.12727409695E+02 0.12647087198E+02 0.12727409695E+02 0.12951519261E+02 0.13359147902E+02
 0.14176154289E+02 0.15816034850E+02 0.18801785618E+02 0.23616875739E+02 0.31815369903E+02
 0.45926970844E+02 0.66093827920E+02 0.90680504473E+02 0.11817798048E+03 0.14743451752E+03
 0.17566868975E+03 0.19713459180E+03 0.16405435787E+03 0.15754124894E+03 0.14025249133E+03
 0.11730618638E+03 0.93480745201E+02 0.71483688627E+02 0.52606535104E+02 0.37917823775E+02
 0.28099723576E+02 0.22323023887E+02 0.18642296125E+02 0.16468410465E+02 0.15374130159E+02
 0.14920935628E+02 0.14763982435E+02 0.14702422770E+02 0.14681097973E+02 0.14702422770E+02
 0.14763982435E+02 0.14920935628E+02 0.15374130159E+02 0.16468410465E+02 0.18642296125E+02
 0.22323023887E+02 0.28099723576E+02 0.37917823775E+02 0.52606535104E+02 0.71483688627E+02
 0.93480745201E+02 0.11730618638E+03 0.14025249133E+03 0.15754124894E+03 0.12478047829E+03
 0.11980717887E+03 0.10655306023E+03 0.88901283673E+02 0.70702329575E+02 0.54386410397E+02
 0.41122802564E+02 0.31458081605E+02 0.25277471869E+02 0.21397995623E+02 0.18964988564E+02
 0.17745393182E+02 0.17358279444E+02 0.17435542271E+02 0.17675320297E+02 0.17877377821E+02
 0.17951821720E+02 0.17877377821E+02 0.17675320297E+02 0.17435542271E+02 0.17358279444E+02
 0.17745393182E+02 0.18964988564E+02 0.21397995623E+02 0.25277471869E+02 0.31458081605E+02
 0.41122802564E+02 0.54386410397E+02 0.70702329575E+02 0.88901283673E+02 0.10655306023E+03
 0.11980717887E+03 0.89199164369E+02 0.85708383576E+02 0.76405575910E+02 0.64068713548E+02
 0.51562990394E+02 0.40782280924E+02 0.32555213633E+02 0.26960743499E+02 0.23396687825E+02
 0.21113213833E+02 0.20023373521E+02 0.19887229900E+02 0.20393661243E+02 0.21274499881E+02
 0.22228181587E+02 0.22950474812E+02 0.23218140130E+02 0.22950474812E+02 0.22228181587E+02
 0.21274499881E+02 0.20393661243E+02 0.19887229900E+02 0.20023373521E+02 0.21113213833E+02
 0.23396687825E+02 0.26960743499E+02 0.32555213633E+02 0.40782280924E+02 0.51562990394E+02
 0.64068713548E+02 0.76405575910E+02 0.85708383576E+02 0.59484579574E+02 0.57360550120E+02
 0.51725578066E+02 0.44345558699E+02 0.37065567236E+02 0.31092187494E+02 0.26838996191E+02
 0.24071414775E+02 0.22336589646E+02 0.21660782050E+02 0.21969518527E+02 0.23152101617E+02
 0.25041167121E+02 0.27321178565E+02 0.29529893004E+02 0.31142301405E+02 0.31734199530E+02
 0.31142301405E+02 0.29529893004E+02 0.27321178565E+02 0.25041167121E+02 0.23152101617E+02
 0.21969518527E+02 0.21660782050E+02 0.22336589646E+02 0.24071414775E+02 0.26838996191E+02
 0.31092187494E+02 0.37065567236E+02 0.44345558699E+02 0.51725578066E+02 0.57360550120E+02
 0.38068458415E+02 0.37028098606E+02 0.34294132024E+02 0.30791694589E+02 0.27473258351E+02
 0.24912677411E+02 0.23188210624E+02 0.22235666829E+02 0.22196099674E+02 0.23107673356E+02
 0.25059991290E+02 0.28036454454E+02 0.31818404513E+02 0.35958712487E+02 0.39785101644E+02
 0.42517853329E+02 0.43512684317E+02 0.42517853329E+02 0.39785101644E+02 0.35958712487E+02
 0.31818404513E+02 0.28036454454E+02 0.25059991290E+02 0.23107673356E+02 0.22196099674E+02
 0.22235666829E+02 0.23188210624E+02 0.24912677411E+02 0.27473258351E+02 0.30791694589E+02
 0.34294132024E+02 0.37028098606E+02 0.25344034354E+02 0.24972106399E+02 0.24007380808E+02
 0.22804995040E+02 0.21709564598E+02 0.20948698262E+02 0.20786697867E+02 0.21427804512E+02
 0.22968471917E+02 0.25623966162E+02 0.29519705515E+02 0.34539266814E+02 0.40344672220E+02
 0.46358002478E+02 0.51747084633E+02 0.55538220110E+02 0.56910320450E+02 0.55538220110E+02
 0.51747084633E+02 0.46358002478E+02 0.40344672220E+02 0.34539266814E+02 0.29519705515E+02
 0.25623966162E+02 0.22968471917E+02 0.21427804512E+02 0.20786697867E+02 0.20948698262E+02
 0.21709564598E+02 0.22804995040E+02 0.24007380808E+02 0.24972106399E+02 0.18523734892E+02
 0.18429307779E+02 0.18193524056E+02 0.17955269222E+02 0.17929138307E+02 0.18371217181E+02
 0.19523380389E+02 0.21541430410E+02 0.24691989552E+02 0.29258429501E+02 0.35176535806E+02
 0.42116164610E+02 0.49603867727E+02 0.57023637282E+02 0.63526088173E+02 0.68063543555E+02
 0.69702872458E+02 0.68063543555E+02 0.63526088173E+02 0.57023637282E+02 0.49603867727E+02
 0.42116164610E+02 0.35176535806E+02 0.29258429501E+02 0.24691989552E+02 0.21541430410E+02
 0.19523380389E+02 0.18371217181E+02 0.17929138307E+02 0.17955269222E+02 0.18193524056E+02
 0.18429307779E+02 0.14312789787E+02 0.14352058728E+02 0.14500961921E+02 0.14858823462E+02
 0.15600092117E+02 0.16958004682E+02 0.19158198041E+02 0.22443736973E+02 0.27302336204E+02
 0.33836236027E+02 0.41648527871E+02 0.50124053525E+02 0.58713259085E+02 0.66921365851E+02
 0.74041033218E+02 0.79028752874E+02 0.80840589525E+02 0.79028752874E+02 0.74041033218E+02
 0.66921365851E+02 0.58713259085E+02 0.50124053525E+02 0.41648527871E+02 0.33836236027E+02
 0.27302336204E+02 0.22443736973E+02 0.19158198041E+02 0.16958004682E+02 0.15600092117E+02
 0.14858823462E+02 0.14500961921E+02 0.14352058728E+02 0.11858248241E+02 0.11974453843E+02
 0.12349696644E+02 0.13075368892E+02 0.14326859931E+02 0.16351683955E+02 0.19394273227E+02
 0.23961455168E+02 0.30578158672E+02 0.39043153554E+02 0.48540202101E+02 0.58177220749E+02
 0.67449109869E+02 0.76139641518E+02 0.83760314267E+02 0.89214966381E+02 0.91225619003E+02
 0.89214966381E+02 0.83760314267E+02 0.76139641518E+02 0.67449109869E+02 0.58177220749E+02
 0.48540202101E+02 0.39043153554E+02 0.30578158672E+02 0.23961455168E+02 0.19394273227E+02
 0.16351683955E+02 0.14326859931E+02 0.13075368892E+02 0.12349696644E+02 0.11974453843E+02
 0.10532207697E+02 0.10686496440E+02 0.11179759008E+02 0.12116785928E+02 0.13699860191E+02
 0.16210661005E+02 0.19984129055E+02 0.25812082384E+02 0.34137057842E+02 0.44410934470E+02
 0.55402228047E+02 0.66023484911E+02 0.75942531809E+02 0.85305819328E+02 0.93795598734E+02
 0.10008125446E+03 0.10244253519E+03 0.10008125446E+03 0.93795598734E+02 0.85305819328E+02
 0.75942531809E+02 0.66023484911E+02 0.55402228047E+02 0.44410934470E+02 0.34137057842E+02
 0.25812082384E+02 0.19984129055E+02 0.16210661005E+02 0.13699860191E+02 0.12116785928E+02
 0.11179759008E+02 0.10686496440E+02 0.98041127573E+01 0.99769460410E+01 0.10532234522E+02
 0.11594425364E+02 0.13398592644E+02 0.16262040572E+02 0.20666272350E+02 0.27608353235E+02
 0.37420801838E+02 0.49245033531E+02 0.61520621130E+02 0.73071709265E+02 0.83808618325E+02
 0.94220386114E+02 0.10404160978E+03 0.11153605522E+03 0.11439322757E+03 0.11153605522E+03
 0.10404160978E+03 0.94220386114E+02 0.83808618325E+02 0.73071709265E+02 0.61520621130E+02
 0.49245033531E+02 0.37420801838E+02 0.27608353235E+02 0.20666272350E+02 0.16262040572E+02
 0.13398592644E+02 0.11594425364E+02 0.10532234522E+02 0.99769460410E+01 0.93851194740E+01
 0.95682959121E+01 0.10159486334E+02 0.11297841704E+02 0.13242150180E+02 0.16335217673E+02
 0.21192004715E+02 0.28920133968E+02 0.39769905136E+02 0.52673434220E+02 0.65870084143E+02
 0.78170044168E+02 0.89693697289E+02 0.10116617738E+03 0.11228992655E+03 0.12092824626E+03
 0.12424691244E+03 0.12092824626E+03 0.11228992655E+03 0.10116617738E+03 0.89693697289E+02
 0.78170044168E+02 0.65870084143E+02 0.52673434220E+02 0.39769905136E+02 0.28920133968E+02
 0.21192004715E+02 0.16335217673E+02 0.13242150180E+02 0.11297841704E+02 0.10159486334E+02
 0.95682959121E+01 0.92357201457E+01 0.94227224576E+01 0.10027093147E+02 0.11193124289E+02
 0.13187870060E+02 0.16363652420E+02 0.21387546758E+02 0.29401721500E+02 0.40626575594E+02
 0.53921168633E+02 0.67459234001E+02 0.80055338281E+02 0.91912677655E+02 0.10383941616E+03
 0.11551162548E+03 0.12462460666E+03 0.12813338529E+03 0.12462460666E+03 0.11551162548E+03
 0.10383941616E+03 0.91912677655E+02 0.80055338281E+02 0.67459234001E+02 0.53921168633E+02
 0.40626575594E+02 0.29401721500E+02 0.21387546758E+02 0.16363652420E+02 0.13187870060E+02
 0.11193124289E+02 0.10027093147E+02 0.94227224576E+01 0.93851194740E+01 0.95682959121E+01
 0.10159486334E+02 0.11297841704E+02 0.13242150180E+02 0.16335217673E+02 0.21192004715E+02
 0.28920133968E+02 0.39769905136E+02 0.52673434220E+02 0.65870084143E+02 0.78170044168E+02
 0.89693697289E+02 0.10116617738E+03 0.11228992655E+03 0.12092824626E+03 0.12424691244E+03
 0.12092824626E+03 0.11228992655E+03 0.10116617738E+03 0.89693697289E+02 0.78170044168E+02
 0.65870084143E+02 0.52673434220E+02 0.39769905136E+02 0.28920133968E+02 0.21192004715E+02
 0.16335217673E+02 0.13242150180E+02 0.11297841704E+02 0.10159486334E+02 0.95682959121E+01
 0.98041127573E+01 0.99769460410E+01 0.10532234522E+02 0.11594425364E+02 0.13398592644E+02
 0.16262040572E+02 0.20666272350E+02 0.27608353235E+02 0.37420801838E+02 0.49245033531E+02
 0.61520621130E+02 0.73071709265E+02 0.83808618325E+02 0.94220386114E+02 0.10404160978E+03
 0.11153605522E+03 0.11439322757E+03 0.11153605522E+03 0.10404160978E+03 0.94220386114E+02
 0.83808618325E+02 0.73071709265E+02 0.61520621130E+02 0.49245033531E+02 0.37420801838E+02