   4   4   0   0
  0.1200752E+02  0.3635000E-09  0.3635000E-09  0.3635000E-09  0.5000000E-15
  1.000000000000000E-004
  CAR 
 unknown system                          
     31.17210151     -0.44527076  301     12.53356533      1.00000000
     -0.445  0.0000E+00  0.0000E+00
     -0.340  0.0000E+00  0.0000E+00
     -0.234  0.0000E+00  0.0000E+00
     -0.129 -0.5935E-31 -0.6255E-32
     -0.024 -0.3007E-27 -0.3170E-28
      0.082 -0.8706E-24 -0.9178E-25
      0.187 -0.1439E-20 -0.1517E-21
      0.292 -0.1356E-17 -0.1431E-18
      0.398 -0.7029E-15 -0.7422E-16
      0.503 -0.2145E-12 -0.2268E-13
      0.609 -0.3685E-10 -0.3906E-11
      0.714 -0.3569E-08 -0.3801E-09
      0.819 -0.1935E-06 -0.2077E-07
      0.925 -0.5799E-05 -0.6319E-06
      1.030 -0.9390E-04 -0.1053E-04
      1.136 -0.7804E-03 -0.9277E-04
      1.241 -0.2841E-02 -0.3922E-03
      1.346 -0.6712E-03 -0.4630E-03
      1.452  0.2289E-01  0.1949E-02
      1.557  0.5883E-01  0.8149E-02
      1.663  0.5624E-01  0.1408E-01
      1.768  0.1279E-01  0.1542E-01
      1.873 -0.1807E-01  0.1352E-01
      1.979  0.3031E-01  0.1671E-01
      2.084  0.2125E+00  0.3911E-01
      2.190  0.3696E+00  0.7806E-01
      2.295  0.2656E+00  0.1060E+00
      2.400  0.3613E-01  0.1099E+00
      2.506 -0.4240E-02  0.1094E+00
      2.611  0.3147E+00  0.1426E+00
      2.716  0.7258E+00  0.2191E+00
      2.822  0.6292E+00  0.2854E+00
      2.927  0.1944E+00  0.3059E+00
      3.033  0.1185E+00  0.3184E+00
      3.138  0.4091E+00  0.3615E+00
      3.243  0.5184E+00  0.4161E+00
      3.349  0.3162E+00  0.4494E+00
      3.454  0.1056E+00  0.4606E+00
      3.560  0.7923E-02  0.4614E+00
      3.665  0.8319E-01  0.4702E+00
      3.770  0.3506E+00  0.5071E+00
      3.876  0.5815E+00  0.5684E+00
      3.981  0.6731E+00  0.6393E+00
      4.087  0.1116E+01  0.7569E+00
      4.192  0.1945E+01  0.9619E+00
      4.297  0.2233E+01  0.1197E+01
      4.403  0.1851E+01  0.1392E+01
      4.508  0.1544E+01  0.1555E+01
      4.614  0.1687E+01  0.1733E+01
      4.719  0.2025E+01  0.1946E+01
      4.824  0.2177E+01  0.2176E+01
      4.930  0.1990E+01  0.2385E+01
      5.035  0.1750E+01  0.2570E+01
      5.140  0.2162E+01  0.2798E+01
      5.246  0.3533E+01  0.3170E+01
      5.351  0.5067E+01  0.3704E+01
      5.457  0.5651E+01  0.4300E+01
      5.562  0.5201E+01  0.4848E+01
      5.667  0.4966E+01  0.5371E+01
      5.773  0.5353E+01  0.5935E+01
      5.878  0.5766E+01  0.6543E+01
      5.984  0.5927E+01  0.7168E+01
      6.089  0.5226E+01  0.7718E+01
      6.194  0.3819E+01  0.8121E+01
      6.300  0.3286E+01  0.8467E+01
      6.405  0.4351E+01  0.8926E+01
      6.511  0.5492E+01  0.9505E+01
      6.616  0.5031E+01  0.1003E+02
      6.721  0.3955E+01  0.1045E+02
      6.827  0.3750E+01  0.1085E+02
      6.932  0.3839E+01  0.1125E+02
      7.038  0.4009E+01  0.1167E+02
      7.143  0.4272E+01  0.1212E+02
      7.248  0.3755E+01  0.1252E+02
      7.354  0.3117E+01  0.1285E+02
      7.459  0.3387E+01  0.1321E+02
      7.564  0.3891E+01  0.1362E+02
      7.670  0.4233E+01  0.1406E+02
      7.775  0.4732E+01  0.1456E+02
      7.881  0.5275E+01  0.1512E+02
      7.986  0.5224E+01  0.1567E+02
      8.091  0.4406E+01  0.1613E+02
      8.197  0.4113E+01  0.1656E+02
      8.302  0.5329E+01  0.1713E+02
      8.408  0.6985E+01  0.1786E+02
      8.513  0.7057E+01  0.1861E+02
      8.618  0.6089E+01  0.1925E+02
      8.724  0.6836E+01  0.1997E+02
      8.829  0.9119E+01  0.2093E+02
      8.935  0.1024E+02  0.2201E+02
      9.040  0.8671E+01  0.2292E+02
      9.145  0.5878E+01  0.2354E+02
      9.251  0.4198E+01  0.2398E+02
      9.356  0.4484E+01  0.2446E+02
      9.462  0.5993E+01  0.2509E+02
      9.567  0.6876E+01  0.2581E+02
      9.672  0.6798E+01  0.2653E+02
      9.778  0.6807E+01  0.2725E+02
      9.883  0.7261E+01  0.2801E+02
      9.988  0.7551E+01  0.2881E+02
     10.094  0.6513E+01  0.2949E+02
     10.199  0.4298E+01  0.2995E+02
     10.305  0.2783E+01  0.3024E+02
     10.410  0.3112E+01  0.3057E+02
     10.515  0.4232E+01  0.3101E+02
     10.621  0.4469E+01  0.3149E+02
     10.726  0.3702E+01  0.3188E+02
     10.832  0.3161E+01  0.3221E+02
     10.937  0.3438E+01  0.3257E+02
     11.042  0.4374E+01  0.3303E+02
     11.148  0.5460E+01  0.3361E+02
     11.253  0.5847E+01  0.3422E+02
     11.359  0.5923E+01  0.3485E+02
     11.464  0.5998E+01  0.3548E+02
     11.569  0.5438E+01  0.3605E+02
     11.675  0.4575E+01  0.3654E+02
     11.780  0.4153E+01  0.3697E+02
     11.886  0.3518E+01  0.3734E+02
     11.991  0.2627E+01  0.3762E+02
     12.096  0.3018E+01  0.3794E+02
     12.202  0.4293E+01  0.3839E+02
     12.307  0.4792E+01  0.3890E+02
     12.412  0.4806E+01  0.3940E+02
     12.518  0.4939E+01  0.3992E+02
     12.623  0.4612E+01  0.4041E+02
     12.729  0.3812E+01  0.4081E+02
     12.834  0.3473E+01  0.4118E+02
     12.939  0.3338E+01  0.4153E+02
     13.045  0.2787E+01  0.4182E+02
     13.150  0.2203E+01  0.4205E+02
     13.256  0.2296E+01  0.4230E+02
     13.361  0.2564E+01  0.4257E+02
     13.466  0.2119E+01  0.4279E+02
     13.572  0.1347E+01  0.4293E+02
     13.677  0.1005E+01  0.4304E+02
     13.783  0.1154E+01  0.4316E+02
     13.888  0.1189E+01  0.4328E+02
     13.993  0.7784E+00  0.4337E+02
     14.099  0.4867E+00  0.4342E+02
     14.204  0.7209E+00  0.4349E+02
     14.310  0.1088E+01  0.4361E+02
     14.415  0.1232E+01  0.4374E+02
     14.520  0.1087E+01  0.4385E+02
     14.626  0.1019E+01  0.4396E+02
     14.731  0.1282E+01  0.4410E+02
     14.836  0.1266E+01  0.4423E+02
     14.942  0.7248E+00  0.4431E+02
     15.047  0.2734E+00  0.4433E+02
     15.153  0.1995E+00  0.4436E+02
     15.258  0.4469E+00  0.4440E+02
     15.363  0.7434E+00  0.4448E+02
     15.469  0.8414E+00  0.4457E+02
     15.574  0.8843E+00  0.4466E+02
     15.680  0.7637E+00  0.4474E+02
     15.785  0.4250E+00  0.4479E+02
     15.890  0.2686E+00  0.4482E+02
     15.996  0.4081E+00  0.4486E+02
     16.101  0.4082E+00  0.4490E+02
     16.207  0.3273E+00  0.4494E+02
     16.312  0.7576E+00  0.4502E+02
     16.417  0.1441E+01  0.4517E+02
     16.523  0.1478E+01  0.4532E+02
     16.628  0.9426E+00  0.4542E+02
     16.734  0.9110E+00  0.4552E+02
     16.839  0.1437E+01  0.4567E+02
     16.944  0.1479E+01  0.4583E+02
     17.050  0.1149E+01  0.4595E+02
     17.155  0.1099E+01  0.4606E+02
     17.260  0.9432E+00  0.4616E+02
     17.366  0.4027E+00  0.4621E+02
     17.471  0.1035E+00  0.4622E+02
     17.577  0.3604E+00  0.4625E+02
     17.682  0.8537E+00  0.4634E+02
     17.787  0.1549E+01  0.4651E+02
     17.893  0.2256E+01  0.4675E+02
     17.998  0.2132E+01  0.4697E+02
     18.104  0.1415E+01  0.4712E+02
     18.209  0.7976E+00  0.4720E+02
     18.314  0.3207E+00  0.4724E+02
     18.420  0.2525E+00  0.4726E+02
     18.525  0.5538E+00  0.4732E+02
     18.631  0.6400E+00  0.4739E+02
     18.736  0.3315E+00  0.4742E+02
     18.841  0.3524E-01  0.4743E+02
     18.947 -0.5301E-01  0.4742E+02
     19.052 -0.6689E-01  0.4742E+02
     19.158  0.4489E-01  0.4742E+02
     19.263  0.5495E+00  0.4748E+02
     19.368  0.1230E+01  0.4761E+02
     19.474  0.1263E+01  0.4774E+02
     19.579  0.5453E+00  0.4780E+02
     19.684  0.4152E-01  0.4780E+02
     19.790  0.5088E+00  0.4786E+02
     19.895  0.1587E+01  0.4802E+02
     20.001  0.2272E+01  0.4826E+02
     20.106  0.2310E+01  0.4851E+02
     20.211  0.1730E+01  0.4869E+02
     20.317  0.9699E+00  0.4879E+02
     20.422  0.8450E+00  0.4888E+02
     20.528  0.9835E+00  0.4898E+02
     20.633  0.1072E+01  0.4910E+02
     20.738  0.1246E+01  0.4923E+02
     20.844  0.1142E+01  0.4935E+02
     20.949  0.9242E+00  0.4945E+02
     21.055  0.1115E+01  0.4956E+02
     21.160  0.1675E+01  0.4974E+02
     21.265  0.2009E+01  0.4995E+02
     21.371  0.1625E+01  0.5012E+02
     21.476  0.7504E+00  0.5020E+02
     21.581  0.1045E+00  0.5021E+02
     21.687  0.9509E-01  0.5022E+02
     21.792  0.5067E+00  0.5028E+02
     21.898  0.8165E+00  0.5036E+02
     22.003  0.7789E+00  0.5044E+02
     22.108  0.6747E+00  0.5052E+02
     22.214  0.8411E+00  0.5060E+02
     22.319  0.1237E+01  0.5073E+02
     22.425  0.1728E+01  0.5092E+02
     22.530  0.2104E+01  0.5114E+02
     22.635  0.2238E+01  0.5137E+02
     22.741  0.2133E+01  0.5160E+02
     22.846  0.1681E+01  0.5178E+02
     22.952  0.1184E+01  0.5190E+02
     23.057  0.1013E+01  0.5201E+02
     23.162  0.1313E+01  0.5215E+02
     23.268  0.1618E+01  0.5232E+02
     23.373  0.1236E+01  0.5245E+02
     23.479  0.6224E+00  0.5251E+02
     23.584  0.6119E+00  0.5258E+02
     23.689  0.9371E+00  0.5268E+02
     23.795  0.1003E+01  0.5278E+02
     23.900  0.9828E+00  0.5289E+02
     24.005  0.1157E+01  0.5301E+02
     24.111  0.1401E+01  0.5316E+02
     24.216  0.1419E+01  0.5330E+02
     24.322  0.1086E+01  0.5342E+02
     24.427  0.9351E+00  0.5352E+02
     24.532  0.1385E+01  0.5366E+02
     24.638  0.1890E+01  0.5386E+02
     24.743  0.2135E+01  0.5409E+02
     24.849  0.2374E+01  0.5434E+02
     24.954  0.2574E+01  0.5461E+02
     25.059  0.2278E+01  0.5485E+02
     25.165  0.1415E+01  0.5500E+02
     25.270  0.8135E+00  0.5508E+02
     25.376  0.8415E+00  0.5517E+02
     25.481  0.1194E+01  0.5530E+02
     25.586  0.1813E+01  0.5549E+02
     25.692  0.2215E+01  0.5572E+02
     25.797  0.1730E+01  0.5591E+02
     25.903  0.9606E+00  0.5601E+02
     26.008  0.1223E+01  0.5614E+02
     26.113  0.2411E+01  0.5639E+02
     26.219  0.2733E+01  0.5668E+02
     26.324  0.1854E+01  0.5687E+02
     26.429  0.1110E+01  0.5699E+02
     26.535  0.1021E+01  0.5710E+02
     26.640  0.1667E+01  0.5727E+02
     26.746  0.2697E+01  0.5756E+02
     26.851  0.2937E+01  0.5787E+02
     26.956  0.1845E+01  0.5806E+02
     27.062  0.1007E+01  0.5817E+02
     27.167  0.1640E+01  0.5834E+02
     27.273  0.2180E+01  0.5857E+02
     27.378  0.1479E+01  0.5873E+02
     27.483  0.7393E+00  0.5880E+02
     27.589  0.6139E+00  0.5887E+02
     27.694  0.5790E+00  0.5893E+02
     27.800  0.3694E+00  0.5897E+02
     27.905  0.3613E+00  0.5901E+02
     28.010  0.8010E+00  0.5909E+02
     28.116  0.1131E+01  0.5921E+02
     28.221  0.8919E+00  0.5930E+02
     28.327  0.4348E+00  0.5935E+02
     28.432  0.1248E+00  0.5936E+02
     28.537 -0.1760E-01  0.5936E+02
     28.643 -0.7155E-01  0.5935E+02
     28.748 -0.4945E-01  0.5935E+02
     28.853  0.3003E+00  0.5938E+02
     28.959  0.1153E+01  0.5950E+02
     29.064  0.1941E+01  0.5971E+02
     29.170  0.1822E+01  0.5990E+02
     29.275  0.9223E+00  0.6000E+02
     29.380  0.1591E+00  0.6001E+02
     29.486 -0.6671E-01  0.6001E+02
     29.591 -0.4056E-01  0.6000E+02
     29.697 -0.8632E-02  0.6000E+02
     29.802 -0.9205E-03  0.6000E+02
     29.907 -0.5301E-04  0.6000E+02
     30.013 -0.1693E-05  0.6000E+02
     30.118 -0.3035E-07  0.6000E+02
     30.224 -0.3075E-09  0.6000E+02
     30.329 -0.1767E-11  0.6000E+02
     30.434 -0.5663E-14  0.6000E+02
     30.540  0.0000E+00  0.6000E+02
     30.645  0.0000E+00  0.6000E+02
     30.751  0.0000E+00  0.6000E+02
     30.856  0.0000E+00  0.6000E+02
     30.961  0.0000E+00  0.6000E+02
     31.067  0.0000E+00  0.6000E+02
     31.172  0.0000E+00  0.6000E+02
