    4    4    1    1
  0.1200752E+02  0.3635000E-09  0.3635000E-09  0.3635000E-09  0.5000000E-15
  1.000000000000000E-004
  CAR 
 unknown system                          
     40     27     30
 
  0.0000000E+00  0.0000000E+00  0.0000000E+00  0.8000000E-02
    1        1.554729   1.000000
    2        3.776906   1.000000
    3        5.029009   1.000000
    4        5.051714   1.000000
    5        5.133874   1.000000
    6        5.250984   1.000000
    7        5.267918   1.000000
    8        8.537392   1.000000
    9        8.543365   1.000000
   10        8.704003   1.000000
   11       10.219934   1.000000
   12       10.392219   1.000000
   13       11.290718   1.000000
   14       11.515543   1.000000
   15       11.725516   1.000000
   16       12.563348   0.375515
   17       12.803247  -0.033478
   18       13.038800  -0.001029
   19       13.348413  -0.000000
   20       13.961351  -0.000000
   21       14.502869  -0.000000
   22       14.510438  -0.000000
   23       14.538517  -0.000000
   24       14.763402  -0.000000
   25       23.297641   0.000000
   26       23.496403   0.000000
   27       24.135011   0.000000
   28       24.440820   0.000000
   29       24.724404   0.000000
   30       25.266845   0.000000
 
  0.2000000E+00  0.0000000E+00  0.0000000E+00  0.1600000E-01
    1        2.105197   1.000000
    2        4.173098   1.000000
    3        5.254618   1.000000
    4        5.262734   1.000000
    5        5.505852   1.000000
    6        5.609842   1.000000
    7        5.703796   1.000000
    8        8.223419   1.000000
    9        8.735856   1.000000
   10        8.922038   1.000000
   11       10.077910   1.000000
   12       10.287281   1.000000
   13       10.473398   1.000000
   14       10.680593   1.000000
   15       10.954408   1.000000
   16       11.274941   1.000000
   17       12.281273   1.035260
   18       12.323570   1.029566
   19       12.558782   0.394235
   20       12.741331  -0.028702
   21       13.068383  -0.000514
   22       14.761699  -0.000000
   23       16.881773  -0.000000
   24       16.903234  -0.000000
   25       22.440853   0.000000
   26       23.241782   0.000000
   27       24.666998   0.000000
   28       24.729988   0.000000
   29       25.599194   0.000000
   30       25.676387   0.000000
 
  0.0000000E+00  0.2000000E+00  0.0000000E+00  0.1600000E-01
    1        2.173101   1.000000
    2        4.202754   1.000000
    3        5.218513   1.000000
    4        5.333222   1.000000
    5        5.453525   1.000000
    6        5.610866   1.000000
    7        5.712661   1.000000
    8        8.415210   1.000000
    9        8.770151   1.000000
   10        8.772102   1.000000
   11        9.990137   1.000000
   12       10.396874   1.000000
   13       10.454901   1.000000
   14       10.585251   1.000000
   15       11.350071   1.000000
   16       11.833987   1.000004
   17       12.252854   1.031641
   18       12.499239   0.642901
   19       12.510974   0.594921
   20       12.658638   0.068928
   21       12.898756  -0.013454
   22       13.020471  -0.001544
   23       17.038133  -0.000000
   24       17.189530  -0.000000
   25       22.134041   0.000000
   26       23.977372   0.000000
   27       24.563350   0.000000
   28       24.580458   0.000000
   29       25.350000   0.000000
   30       25.952409   0.000000
 
  0.0000000E+00  0.0000000E+00  0.2000000E+00  0.1600000E-01
    1        2.177318   1.000000
    2        4.216424   1.000000
    3        5.409728   1.000000
    4        5.461536   1.000000
    5        5.482635   1.000000
    6        5.484788   1.000000
    7        5.515255   1.000000
    8        8.198707   1.000000
    9        8.736586   1.000000
   10        8.923256   1.000000
   11       10.003305   1.000000
   12       10.356954   1.000000
   13       10.407856   1.000000
   14       10.777842   1.000000
   15       11.075822   1.000000
   16       11.692226   1.000000
   17       12.055262   1.001854
   18       12.345126   1.018042
   19       12.417649   0.910641
   20       12.613184   0.190879
   21       13.026464  -0.001355
   22       13.940104  -0.000000
   23       17.004548  -0.000000
   24       17.133998  -0.000000
   25       21.748663   0.000000
   26       24.196789   0.000000
   27       24.628597   0.000000
   28       24.711510   0.000000
   29       25.565341   0.000000
   30       25.812902   0.000000
 
  0.4000000E+00  0.0000000E+00  0.0000000E+00  0.1600000E-01
    1        3.357709   1.000000
    2        5.046166   1.000000
    3        5.534136   1.000000
    4        5.713141   1.000000
    5        6.569823   1.000000
    6        6.616832   1.000000
    7        6.711813   1.000000
    8        7.587923   1.000000
    9        8.348627   1.000000
   10        8.458779   1.000000
   11        9.383416   1.000000
   12        9.505164   1.000000
   13        9.544568   1.000000
   14        9.796270   1.000000
   15       10.035420   1.000000
   16       10.401653   1.000000
   17       11.139698   1.000000
   18       11.210851   1.000000
   19       11.257189   1.000000
   20       11.576902   1.000000
   21       12.739460  -0.027922
   22       14.760081  -0.000000
   23       19.901245   0.000000
   24       20.030545   0.000000
   25       21.350486   0.000000
   26       23.017852   0.000000
   27       23.197346   0.000000
   28       23.203850   0.000000
   29       23.829445   0.000000
   30       27.098978   0.000000
 
  0.0000000E+00  0.4000000E+00  0.0000000E+00  0.1600000E-01
    1        3.746053   1.000000
    2        4.988246   1.000000
    3        5.354455   1.000000
    4        5.766088   1.000000
    5        6.524168   1.000000
    6        6.569765   1.000000
    7        6.820469   1.000000
    8        7.840861   1.000000
    9        8.699303   1.000000
   10        8.725117   1.000000
   11        9.374234   1.000000
   12        9.474198   1.000000
   13        9.485102   1.000000
   14        9.706900   1.000000
   15       10.366078   1.000000
   16       10.753626   1.000000
   17       10.763876   1.000000
   18       10.960852   1.000000
   19       11.144583   1.000000
   20       11.554892   1.000000
   21       12.406790   0.934636
   22       13.003230  -0.002220
   23       20.026886   0.000000
   24       20.164030   0.000000
   25       21.169824   0.000000
   26       22.834552   0.000000
   27       23.090837   0.000000
   28       23.638962   0.000000
   29       25.290006   0.000000
   30       25.715573   0.000000
 
  0.0000000E+00  0.0000000E+00  0.4000000E+00  0.1600000E-01
    1        3.781155   1.000000
    2        4.985073   1.000000
    3        5.585390   1.000000
    4        6.059292   1.000000
    5        6.449469   1.000000
    6        6.617113   1.000000
    7        6.617454   1.000000
    8        7.455448   1.000000
    9        8.344449   1.000000
   10        8.474450   1.000000
   11        9.354980   1.000000
   12        9.560524   1.000000
   13        9.574940   1.000000
   14        9.758219   1.000000
   15       10.109124   1.000000
   16       10.574551   1.000000
   17       10.880869   1.000000
   18       10.971935   1.000000
   19       11.399407   1.000000
   20       11.650302   1.000000
   21       12.168082   1.013400
   22       13.913209  -0.000000
   23       19.985329   0.000000
   24       20.267798   0.000000
   25       20.672500   0.000000
   26       22.811662   0.000000
   27       23.236785   0.000000
   28       24.208126   0.000000
   29       24.736061   0.000000
   30       26.180702   0.000000
 
  0.2000000E+00  0.2000000E+00  0.0000000E+00  0.3200000E-01
    1        2.692225   1.000000
    2        4.580091   1.000000
    3        5.554759   1.000000
    4        5.566493   1.000000
    5        5.769404   1.000000
    6        5.782636   1.000000
    7        6.155562   1.000000
    8        8.128236   1.000000
    9        8.802916   1.000000
   10        8.967404   1.000000
   11        9.653700   1.000000
   12        9.907446   1.000000
   13        9.975369   1.000000
   14       10.051393   1.000000
   15       10.654657   1.000000
   16       10.909189   1.000000
   17       11.442265   1.000000
   18       12.127187   1.007202
   19       12.208124   1.021812
   20       12.316639   1.031827
   21       13.250537  -0.000002
   22       14.435769  -0.000000
   23       15.713894  -0.000000
   24       18.586546   0.000000
   25       21.292570   0.000000
   26       23.783819   0.000000
   27       24.525027   0.000000
   28       25.483533   0.000000
   29       25.572889   0.000000
   30       26.598110   0.000000
 
  0.0000000E+00  0.2000000E+00  0.2000000E+00  0.3200000E-01
    1        2.721238   1.000000
    2        4.623957   1.000000
    3        5.552482   1.000000
    4        5.601123   1.000000
    5        5.712567   1.000000
    6        5.918558   1.000000
    7        6.078411   1.000000
    8        8.104898   1.000000
    9        8.806847   1.000000
   10        8.968413   1.000000
   11        9.679152   1.000000
   12        9.915575   1.000000
   13        9.954221   1.000000
   14       10.043352   1.000000
   15       10.618057   1.000000
   16       11.099351   1.000000
   17       11.574526   1.000000
   18       11.821739   1.000003
   19       12.136978   1.008444
   20       12.150760   1.010449
   21       13.027398  -0.001328
   22       14.376956  -0.000000
   23       16.281654  -0.000000
   24       18.452863   0.000000
   25       21.128175   0.000000
   26       23.872755   0.000000
   27       24.146806   0.000000
   28       25.580231   0.000000
   29       25.618003   0.000000
   30       26.814618   0.000000
 
  0.2000000E+00  0.0000000E+00  0.2000000E+00  0.3200000E-01
    1        2.692658   1.000000
    2        4.595476   1.000000
    3        5.565819   1.000000
    4        5.583455   1.000000
    5        5.746302   1.000000
    6        5.915190   1.000000
    7        6.067195   1.000000
    8        7.965803   1.000000
    9        8.880205   1.000000
   10        8.998920   1.000000
   11        9.649105   1.000000
   12        9.883926   1.000000
   13        9.891749   1.000000
   14       10.011970   1.000000
   15       10.621854   1.000000
   16       10.730474   1.000000
   17       11.288675   1.000000
   18       12.241049   1.029283
   19       12.322942   1.029797
   20       12.597144   0.245454
   21       13.405430  -0.000000
   22       14.764686  -0.000000
   23       15.265049  -0.000000
   24       18.562113   0.000000
   25       21.297782   0.000000
   26       23.651020   0.000000
   27       24.419086   0.000000
   28       25.665744   0.000000
   29       25.681451   0.000000
   30       26.741962   0.000000
 
  0.4000000E+00  0.2000000E+00  0.0000000E+00  0.3200000E-01
    1        3.910523   1.000000
    2        5.436429   1.000000
    3        5.895121   1.000000
    4        6.039477   1.000000
    5        6.534522   1.000000
    6        6.736615   1.000000
    7        6.980178   1.000000
    8        7.519659   1.000000
    9        7.896881   1.000000
   10        8.409504   1.000000
   11        8.730729   1.000000
   12        8.891537   1.000000
   13        9.513813   1.000000
   14        9.850991   1.000000
   15       10.028758   1.000000
   16       10.503674   1.000000
   17       10.734668   1.000000
   18       11.455170   1.000000
   19       11.457367   1.000000
   20       12.156693   1.011406
   21       12.972552  -0.004052
   22       13.354485  -0.000000
   23       17.213081  -0.000000
   24       19.341546   0.000000
   25       21.391393   0.000000
   26       22.452673   0.000000
   27       24.298389   0.000000
   28       25.000384   0.000000
   29       26.495879   0.000000
   30       28.057887   0.000000
 
  0.0000000E+00  0.4000000E+00  0.2000000E+00  0.3200000E-01
    1        4.143721   1.000000
    2        5.416737   1.000000
    3        5.684527   1.000000
    4        6.031794   1.000000
    5        6.466664   1.000000
    6        6.715009   1.000000
    7        7.118406   1.000000
    8        7.719963   1.000000
    9        8.013257   1.000000
   10        8.616193   1.000000
   11        8.718256   1.000000
   12        8.914505   1.000000
   13        9.499381   1.000000
   14        9.801926   1.000000
   15       10.443866   1.000000
   16       10.494202   1.000000
   17       10.618439   1.000000
   18       11.114386   1.000000
   19       11.459018   1.000000
   20       12.174355   1.014584
   21       12.412887   0.921530
   22       12.724499  -0.019760
   23       17.742924  -0.000000
   24       19.338585   0.000000
   25       21.154759   0.000000
   26       22.923401   0.000000
   27       24.046663   0.000000
   28       24.549549   0.000000
   29       26.320086   0.000000
   30       28.061651   0.000000
 
  0.2000000E+00  0.0000000E+00  0.4000000E+00  0.3200000E-01
    1        4.208436   1.000000
    2        5.402871   1.000000
    3        5.957186   1.000000
    4        6.222403   1.000000
    5        6.459905   1.000000
    6        6.876139   1.000000
    7        6.896598   1.000000
    8        7.320792   1.000000
    9        7.750347   1.000000
   10        8.477986   1.000000
   11        8.803565   1.000000
   12        8.932984   1.000000
   13        9.548612   1.000000
   14        9.864400   1.000000
   15       10.061269   1.000000
   16       10.523599   1.000000
   17       10.902451   1.000000
   18       11.356968   1.000000
   19       11.456382   1.000000
   20       11.819183   1.000003
   21       12.629364   0.141658
   22       12.859136  -0.021783
   23       17.571420  -0.000000
   24       19.437938   0.000000
   25       21.148589   0.000000
   26       22.443281   0.000000
   27       24.020159   0.000000
   28       25.222627   0.000000
   29       26.599056   0.000000
   30       28.049689   0.000000
 
 -0.2000000E+00  0.4000000E+00  0.0000000E+00  0.3200000E-01
    1        4.199418   1.000000
    2        5.374603   1.000000
    3        5.757907   1.000000
    4        6.051017   1.000000
    5        6.476635   1.000000
    6        6.688238   1.000000
    7        7.090945   1.000000
    8        7.720243   1.000000
    9        8.208735   1.000000
   10        8.603593   1.000000
   11        8.636122   1.000000
   12        8.881013   1.000000
   13        9.506712   1.000000
   14        9.843415   1.000000
   15       10.302302   1.000000
   16       10.544167   1.000000
   17       10.679186   1.000000
   18       11.144520   1.000000
   19       11.548042   1.000000
   20       12.043144   1.001430
   21       12.280097   1.035194
   22       12.565296   0.367593
   23       17.628009  -0.000000
   24       19.399404   0.000000
   25       21.168418   0.000000
   26       22.889331   0.000000
   27       23.966029   0.000000
   28       24.800536   0.000000
   29       26.666642   0.000000
   30       28.137145   0.000000
 
 -0.4000000E+00  0.0000000E+00  0.2000000E+00  0.3200000E-01
    1        3.903733   1.000000
    2        5.460909   1.000000
    3        5.873079   1.000000
    4        6.010345   1.000000
    5        6.468482   1.000000
    6        6.774710   1.000000
    7        7.044166   1.000000
    8        7.481989   1.000000
    9        7.776460   1.000000
   10        8.480905   1.000000
   11        8.800994   1.000000
   12        8.957124   1.000000
   13        9.522179   1.000000
   14        9.867844   1.000000
   15        9.973505   1.000000
   16       10.493202   1.000000
   17       11.075917   1.000000
   18       11.098574   1.000000
   19       11.574208   1.000000
   20       12.173613   1.014441
   21       12.930435  -0.008407
   22       13.293923  -0.000001
   23       17.192339  -0.000000
   24       19.439189   0.000000
   25       21.298801   0.000000
   26       22.411944   0.000000
   27       24.166470   0.000000
   28       24.908777   0.000000
   29       26.654758   0.000000
   30       27.933770   0.000000
 
  0.0000000E+00  0.2000000E+00  0.4000000E+00  0.3200000E-01
    1        4.163287   1.000000
    2        5.386146   1.000000
    3        5.948345   1.000000
    4        6.241999   1.000000
    5        6.493937   1.000000
    6        6.838469   1.000000
    7        6.868099   1.000000
    8        7.374097   1.000000
    9        7.756831   1.000000
   10        8.416318   1.000000
   11        8.701182   1.000000
   12        8.932802   1.000000
   13        9.543723   1.000000
   14        9.805539   1.000000
   15       10.191278   1.000000
   16       10.549847   1.000000
   17       10.603877   1.000000
   18       11.268580   1.000000
   19       11.756508   1.000000
   20       11.761736   1.000000
   21       12.843186  -0.025466
   22       13.021853  -0.001498
   23       17.688190  -0.000000
   24       19.281324   0.000000
   25       21.243215   0.000000
   26       22.500776   0.000000
   27       24.216272   0.000000
   28       25.051638   0.000000
   29       26.128910   0.000000
   30       28.273219   0.000000
 
  0.4000000E+00  0.4000000E+00  0.0000000E+00  0.3200000E-01
    1        5.216675   1.000000
    2        6.047187   1.000000
    3        6.477201   1.000000
    4        6.706630   1.000000
    5        6.858212   1.000000
    6        7.054547   1.000000
    7        7.224515   1.000000
    8        7.349644   1.000000
    9        7.387548   1.000000
   10        8.124922   1.000000
   11        8.248494   1.000000
   12        8.593263   1.000000
   13        9.476309   1.000000
   14        9.706512   1.000000
   15        9.741631   1.000000
   16       10.030770   1.000000
   17       10.318436   1.000000
   18       10.944111   1.000000
   19       11.438974   1.000000
   20       11.480812   1.000000
   21       12.508869   0.603620
   22       13.687176  -0.000000
   23       15.593499  -0.000000
   24       16.962430  -0.000000
   25       23.306246   0.000000
   26       23.673609   0.000000
   27       25.415972   0.000000
   28       26.160770   0.000000
   29       26.161517   0.000000
   30       26.874902   0.000000
 
  0.0000000E+00  0.4000000E+00  0.4000000E+00  0.3200000E-01
    1        5.046977   1.000000
    2        5.927500   1.000000
    3        6.241285   1.000000
    4        6.638071   1.000000
    5        6.946237   1.000000
    6        7.072757   1.000000
    7        7.160176   1.000000
    8        7.446124   1.000000
    9        7.484533   1.000000
   10        8.143988   1.000000
   11        8.377192   1.000000
   12        8.586782   1.000000
   13        9.472521   1.000000
   14        9.697374   1.000000
   15        9.803940   1.000000
   16        9.895686   1.000000
   17       10.169058   1.000000
   18       10.877582   1.000000
   19       11.738040   1.000000
   20       11.816261   1.000002
   21       12.558524   0.395297
   22       13.428713  -0.000000
   23       16.382075  -0.000000
   24       17.131895  -0.000000
   25       22.959624   0.000000
   26       23.344562   0.000000
   27       25.035614   0.000000
   28       25.354410   0.000000
   29       26.087328   0.000000
   30       27.213023   0.000000
 
  0.4000000E+00  0.0000000E+00  0.4000000E+00  0.3200000E-01
    1        5.162331   1.000000
    2        6.193499   1.000000
    3        6.406782   1.000000
    4        6.568016   1.000000
    5        6.802556   1.000000
    6        6.959178   1.000000
    7        6.999386   1.000000
    8        7.263014   1.000000
    9        7.681268   1.000000
   10        8.285401   1.000000
   11        8.443901   1.000000
   12        8.709381   1.000000
   13        9.410715   1.000000
   14        9.711803   1.000000
   15        9.732132   1.000000
   16       10.042178   1.000000
   17       10.734595   1.000000
   18       10.852974   1.000000
   19       11.085002   1.000000
   20       11.319372   1.000000
   21       12.734464  -0.025587
   22       14.175667  -0.000000
   23       15.005797  -0.000000
   24       16.819407  -0.000000
   25       23.235850   0.000000
   26       23.584527   0.000000
   27       25.656508   0.000000
   28       25.961319   0.000000
   29       26.401232   0.000000
   30       26.653215   0.000000
 
  0.2000000E+00  0.2000000E+00  0.2000000E+00  0.6400000E-01
    1        3.149733   1.000000
    2        4.901100   1.000000
    3        5.665717   1.000000
    4        5.822689   1.000000
    5        5.890727   1.000000
    6        6.377166   1.000000
    7        6.538429   1.000000
    8        7.899708   1.000000
    9        8.874643   1.000000
   10        8.982878   1.000000
   11        9.179069   1.000000
   12        9.397662   1.000000
   13        9.610000   1.000000
   14       10.016726   1.000000
   15       10.156020   1.000000
   16       10.456359   1.000000
   17       11.308107   1.000000
   18       11.506332   1.000000
   19       11.587313   1.000000
   20       12.402638   0.943028
   21       13.438734  -0.000000
   22       15.536569  -0.000000
   23       16.375677  -0.000000
   24       16.783797  -0.000000
   25       21.972626   0.000000
   26       22.474704   0.000000
   27       23.160984   0.000000
   28       25.775192   0.000000
   29       26.117857   0.000000
   30       26.787026   0.000000
 
  0.4000000E+00  0.2000000E+00  0.2000000E+00  0.6400000E-01
    1        4.128683   1.000000
    2        5.430221   1.000000
    3        5.975533   1.000000
    4        6.339385   1.000000
    5        6.457739   1.000000
    6        6.805577   1.000000
    7        7.406090   1.000000
    8        7.661065   1.000000
    9        8.052715   1.000000
   10        8.274637   1.000000
   11        8.737524   1.000000
   12        8.922089   1.000000
   13        9.177643   1.000000
   14        9.654361   1.000000
   15        9.739505   1.000000
   16       10.362219   1.000000
   17       11.076324   1.000000
   18       11.202478   1.000000
   19       11.765987   1.000000
   20       12.311770   1.033053
   21       12.882421  -0.016662
   22       13.283608  -0.000001
   23       17.866134  -0.000000
   24       17.889116  -0.000000
   25       20.122215   0.000000
   26       20.680238   0.000000
   27       24.914855   0.000000
   28       26.126425   0.000000
   29       26.790875   0.000000
   30       27.172566   0.000000
 
  0.2000000E+00  0.4000000E+00  0.2000000E+00  0.6400000E-01
    1        4.329388   1.000000
    2        5.350700   1.000000
    3        5.772789   1.000000
    4        6.292220   1.000000
    5        6.563809   1.000000
    6        6.823508   1.000000
    7        7.611222   1.000000
    8        7.768735   1.000000
    9        8.018008   1.000000
   10        8.399821   1.000000
   11        8.858200   1.000000
   12        8.938695   1.000000
   13        9.083243   1.000000
   14        9.649042   1.000000
   15        9.858907   1.000000
   16        9.964108   1.000000
   17       11.125416   1.000000
   18       11.301586   1.000000
   19       11.552521   1.000000
   20       12.173116   1.014345
   21       12.808850  -0.032599
   22       13.038881  -0.001027
   23       17.878123  -0.000000
   24       18.144622   0.000000
   25       19.911134   0.000000
   26       20.713282   0.000000
   27       25.051966   0.000000
   28       26.340679   0.000000
   29       26.887986   0.000000
   30       27.184905   0.000000
 
  0.2000000E+00  0.2000000E+00  0.4000000E+00  0.6400000E-01
    1        4.343039   1.000000
    2        5.344544   1.000000
    3        5.951205   1.000000
    4        6.360906   1.000000
    5        6.483761   1.000000
    6        7.042934   1.000000
    7        7.214132   1.000000
    8        7.664944   1.000000
    9        7.991750   1.000000
   10        8.238637   1.000000
   11        8.735440   1.000000
   12        8.929803   1.000000
   13        9.184022   1.000000
   14        9.677924   1.000000
   15        9.801227   1.000000
   16       10.170443   1.000000
   17       11.140260   1.000000
   18       11.274199   1.000000
   19       11.676993   1.000000
   20       12.113679   1.005722
   21       12.827972  -0.028879
   22       13.202575  -0.000012
   23       17.887660  -0.000000
   24       18.065428   0.000000
   25       19.887055   0.000000
   26       20.867734   0.000000
   27       24.944654   0.000000
   28       26.105657   0.000000
   29       26.782579   0.000000
   30       27.199542   0.000000
 
  0.4000000E+00  0.4000000E+00  0.2000000E+00  0.6400000E-01
    1        4.778166   1.000000
    2        5.180838   1.000000
    3        5.687139   1.000000
    4        6.105698   1.000000
    5        7.138829   1.000000
    6        7.547737   1.000000
    7        7.901560   1.000000
    8        8.233222   1.000000
    9        8.376935   1.000000
   10        8.421726   1.000000
   11        8.683578   1.000000
   12        8.921596   1.000000
   13        9.053228   1.000000
   14        9.226311   1.000000
   15        9.414624   1.000000
   16        9.523087   1.000000
   17       10.854229   1.000000
   18       11.400807   1.000000
   19       11.919893   1.000063
   20       12.406767   0.934685
   21       12.555484   0.407868
   22       13.766829  -0.000000
   23       15.340134  -0.000000
   24       16.536354  -0.000000
   25       20.462489   0.000000
   26       22.202087   0.000000
   27       22.736853   0.000000
   28       24.728942   0.000000
   29       27.475014   0.000000
   30       29.105411   0.000000
 
  0.2000000E+00  0.4000000E+00  0.4000000E+00  0.6400000E-01
    1        4.751905   1.000000
    2        5.229378   1.000000
    3        5.426548   1.000000
    4        6.102508   1.000000
    5        7.154209   1.000000
    6        7.554592   1.000000
    7        7.873377   1.000000
    8        8.238942   1.000000
    9        8.381337   1.000000
   10        8.464854   1.000000
   11        8.674861   1.000000
   12        8.927970   1.000000
   13        9.075257   1.000000
   14        9.227471   1.000000
   15        9.408147   1.000000
   16        9.502423   1.000000
   17       10.905689   1.000000
   18       11.435936   1.000000
   19       12.103681   1.004790
   20       12.348605   1.015461
   21       12.542590   0.461858
   22       13.570823  -0.000000
   23       16.001279  -0.000000
   24       16.810557  -0.000000
   25       20.111164   0.000000
   26       21.820083   0.000000
   27       22.631066   0.000000
   28       24.549525   0.000000
   29       27.661579   0.000000
   30       29.039803   0.000000
 
  0.4000000E+00  0.2000000E+00  0.4000000E+00  0.6400000E-01
    1        4.767668   1.000000
    2        5.208216   1.000000
    3        5.735263   1.000000
    4        5.917589   1.000000
    5        7.126393   1.000000
    6        7.431809   1.000000
    7        7.869400   1.000000
    8        8.387681   1.000000
    9        8.490063   1.000000
   10        8.579965   1.000000
   11        8.789726   1.000000
   12        8.865996   1.000000
   13        9.054514   1.000000
   14        9.305039   1.000000
   15        9.357840   1.000000
   16        9.430666   1.000000
   17       11.042057   1.000000
   18       11.135902   1.000000
   19       11.698917   1.000000
   20       12.553997   0.414046
   21       12.723365  -0.018993
   22       14.206045  -0.000000
   23       14.777314  -0.000000
   24       16.453867  -0.000000
   25       20.413553   0.000000
   26       22.299836   0.000000
   27       22.706110   0.000000
   28       24.814142   0.000000
   29       27.277258   0.000000
   30       29.172102   0.000000
 
  0.4000000E+00  0.4000000E+00  0.4000000E+00  0.6400000E-01
    1        4.445358   1.000000
    2        4.584758   1.000000
    3        4.942191   1.000000
    4        5.323721   1.000000
    5        7.770708   1.000000
    6        7.906953   1.000000
    7        7.992968   1.000000
    8        8.413532   1.000000
    9        8.497002   1.000000
   10        8.788653   1.000000
   11        8.823788   1.000000
   12        9.061560   1.000000
   13        9.911780   1.000000
   14        9.982784   1.000000
   15       10.107655   1.000000
   16       10.556563   1.000000
   17       11.361856   1.000000
   18       11.833971   1.000004
   19       11.898260   1.000034
   20       12.508240   0.606215
   21       13.267865  -0.000001
   22       13.847374  -0.000000
   23       14.380431  -0.000000
   24       14.632192  -0.000000
   25       19.862937   0.000000
   26       20.095424   0.000000
   27       21.010207   0.000000
   28       22.629281   0.000000
   29       28.922821   0.000000
   30       29.015092   0.000000
