       N       E                     dE             d eps       ncg     rms          rms(c)
DAV:   1     0.230577107607E+03    0.23058E+03   -0.11985E+04  1692   0.976E+02
DAV:   2    -0.123674124731E+02   -0.24294E+03   -0.22854E+03  1722   0.284E+02
DAV:   3    -0.238644352413E+02   -0.11497E+02   -0.11153E+02  1856   0.721E+01
DAV:   4    -0.241350639182E+02   -0.27063E+00   -0.27030E+00  2026   0.106E+01
DAV:   5    -0.241463944351E+02   -0.11331E-01   -0.11329E-01  2258   0.208E+00    0.326E+01
DAV:   6    -0.253140739266E+02   -0.11677E+01   -0.41913E+01  1892   0.154E+02    0.167E+01
DAV:   7    -0.218785793367E+02    0.34355E+01   -0.10073E+01  2138   0.111E+02    0.107E+01
DAV:   8    -0.219130744248E+02   -0.34495E-01   -0.87891E-01  2296   0.866E+00    0.472E+00
DAV:   9    -0.218462294194E+02    0.66845E-01   -0.47794E-01  2168   0.208E+01    0.139E+00
DAV:  10    -0.218298491614E+02    0.16380E-01   -0.42721E-02  2452   0.426E+00    0.589E-01
DAV:  11    -0.218244003137E+02    0.54488E-02   -0.14225E-02  2134   0.447E+00    0.113E-01
DAV:  12    -0.218244173219E+02   -0.17008E-04   -0.21781E-03  2446   0.905E-01    0.767E-02
DAV:  13    -0.218244227329E+02   -0.54110E-05   -0.38369E-04  2266   0.732E-01    0.651E-02
DAV:  14    -0.218243791908E+02    0.43542E-04   -0.76240E-05  2352   0.282E-01    0.236E-02
DAV:  15    -0.218243717874E+02    0.74033E-05   -0.14418E-05  2280   0.127E-01    0.568E-03
DAV:  16    -0.218243714504E+02    0.33706E-06   -0.17247E-06  1204   0.166E-02
   1 F= -.21824371E+02 E0= -.21822333E+02  d E =-.611621E-02
